You are running Q-Chem version: 5.4.0

#
# job setting
#
local host:  exp-1-44
current dir: /expanse/lustre/scratch/theleonzhang/temp_project/Hydrogenated_Rotation_Test
input file:  Methylthiophene_Phi_10_Theta_280_Methylthiophene_Hydrogenated.qcin
output file: 
nprocs     : 0
nthreads   : 1
#
# qchem installation setting
#
QC:          /cm/shared/apps/spack/cpu/opt/spack/linux-centos8-zen2/gcc-10.2.0/qchem-5.4-akfmr7b3t57bfs6qan3padb2wnb2i7cl
QCAUX:       /cm/shared/apps/spack/cpu/opt/spack/linux-centos8-zen2/gcc-10.2.0/qchem-5.4-akfmr7b3t57bfs6qan3padb2wnb2i7cl/qcaux
QCPROG:      /cm/shared/apps/spack/cpu/opt/spack/linux-centos8-zen2/gcc-10.2.0/qchem-5.4-akfmr7b3t57bfs6qan3padb2wnb2i7cl/exe/qcprog.exe_s
QCPROG_S:    /cm/shared/apps/spack/cpu/opt/spack/linux-centos8-zen2/gcc-10.2.0/qchem-5.4-akfmr7b3t57bfs6qan3padb2wnb2i7cl/exe/qcprog.exe_s
PARALLEL:    -DSERIAL
QCMPI:       mpich
#
# qchem directory setting
#
qcrun:       qchem1735803
QCSCRATCH:   .
QCLOCALSCR:  
QCTMPDIR:    .
QCFILEPREF:  ./qchem1735803
QCSAVEDIR:   
workdirs:    ./qchem1735803
workdir0:    ./qchem1735803
partmpdirs =  
#
# parallel setting
#
QCRSH:           ssh
QCMPI:           mpich
QCMPIRUN:        /cm/shared/apps/spack/cpu/opt/spack/linux-centos8-zen2/gcc-10.2.0/qchem-5.4-akfmr7b3t57bfs6qan3padb2wnb2i7cl/bin/mpi/mpirun_qchem
QCMACHINEFILE:   ./qchem1735803/hostfile

#
# env setting
#
exported envs:   QC QCAUX QCSCRATCH QCRUNNAME QCFILEPREF QCPROG QCPROG_S GUIFILE

Running Job 1 of 1 Methylthiophene_Phi_10_Theta_280_Methylthiophene_Hydrogenated.qcin
qchem Methylthiophene_Phi_10_Theta_280_Methylthiophene_Hydrogenated.qcin_1735803.0 ./qchem1735803/ 0
/cm/shared/apps/spack/cpu/opt/spack/linux-centos8-zen2/gcc-10.2.0/qchem-5.4-akfmr7b3t57bfs6qan3padb2wnb2i7cl/exe/qcprog.exe_s Methylthiophene_Phi_10_Theta_280_Methylthiophene_Hydrogenated.qcin_1735803.0 ./qchem1735803/
                  Welcome to Q-Chem
     A Quantum Leap Into The Future Of Chemistry


 Q-Chem 5.4, Q-Chem, Inc., Pleasanton, CA (2021)

 License issued to: University of California, San Diego (site)

 E. Epifanovsky,  A. T. B. Gilbert,  Xintian Feng,  Joonho Lee,  Yuezhi Mao,  
 N. Mardirossian,  P. Pokhilko,  A. White,  M. Wormit,  M. P. Coons,  
 A. L. Dempwolff,  Zhengting Gan,  D. Hait,  P. R. Horn,  L. D. Jacobson,  
 I. Kaliman,  J. Kussmann,  A. W. Lange,  Ka Un Lao,  D. S. Levine,  Jie Liu,  
 S. C. McKenzie,  A. F. Morrison,  K. Nanda,  F. Plasser,  D. R. Rehn,  
 M. L. Vidal,  Zhi-Qiang You,  Ying Zhu,  B. Alam,  B. Albrecht,  
 A. Aldossary,  E. Alguire,  J. H. Andersen,  D. Barton,  K. Begam,  A. Behn,  
 Y. A. Bernard,  E. J. Berquist,  H. Burton,  A. Carreras,  K. Carter-Fenk,  
 R. Chakraborty,  A. D. Chien,  K. D. Closser,  V. Cofer-Shabica,  
 S. Dasgupta,  Jia Deng,  M. de Wergifosse,  M. Diedenhofen,  Hainam Do,  
 S. Ehlert,  Po-Tung Fang,  S. Fatehi,  Qingguo Feng,  J. Gayvert,  
 Qinghui Ge,  G. Gidofalvi,  M. Goldey,  J. Gomes,  C. Gonzalez-Espinoza,  
 S. Gulania,  A. Gunina,  M. W. D. Hanson-Heine,  P. H. P. Harbach,  
 A. W. Hauser,  M. F. Herbst,  M. Hernandez Vera,  M. Hodecker,  
 Z. C. Holden,  S. Houck,  Xunkun Huang,  Kerwin Hui,  B. C. Huynh,  
 M. Ivanov,  Hyunjun Ji,  Hanjie Jiang,  B. Kaduk,  S. Kaehler,  
 K. Khistyaev,  Jaehoon Kim,  P. Klunzinger,  Z. Koczor-Benda,  
 Joong Hoon Koh,  D. Kosenkov,  L. Koulias,  T. Kowalczyk,  C. M. Krauter,  
 K. Kue,  A. Kunitsa,  T. Kus,  A. Landau,  K. V. Lawler,  D. Lefrancois,  
 S. Lehtola,  Rain Li,  Yi-Pei Li,  Jiashu Liang,  M. Liebenthal,  
 Hung-Hsuan Lin,  You-Sheng Lin,  Fenglai Liu,  Kuan-Yu Liu,  
 M. Loipersberger,  A. Luenser,  A. Manjanath,  P. Manohar,  E. Mansoor,  
 S. F. Manzer,  Shan-Ping Mao,  A. V. Marenich,  T. Markovich,  S. Mason,  
 S. A. Maurer,  P. F. McLaughlin,  M. F. S. J. Menger,  J.-M. Mewes,  
 S. A. Mewes,  P. Morgante,  J. W. Mullinax,  T. S. Nguyen-Beck,  
 K. J. Oosterbaan,  G. Paran,  Alexander C. Paul,  Suranjan K. Paul,  
 F. Pavosevic,  Zheng Pei,  S. Prager,  E. I. Proynov,  E. Ramos,  B. Rana,  
 A. E. Rask,  A. Rettig,  R. M. Richard,  F. Rob,  E. Rossomme,  T. Scheele,  
 M. Scheurer,  M. Schneider,  N. Sergueev,  S. M. Sharada,  W. Skomorowski,  
 D. W. Small,  C. J. Stein,  Yu-Chuan Su,  E. J. Sundstrom,  Zhen Tao,  
 J. Thirman,  T. Tsuchimochi,  N. M. Tubman,  S. P. Veccham,  O. Vydrov,  
 J. Wenzel,  J. Witte,  A. Yamada,  Kun Yao,  S. Yeganeh,  S. R. Yost,  
 A. Zech,  Igor Ying Zhang,  Xing Zhang,  Yu Zhang,  D. Zuev,  
 A. Aspuru-Guzik,  A. T. Bell,  N. A. Besley,  K. B. Bravaya,  B. R. Brooks,  
 D. Casanova,  Jeng-Da Chai,  S. Coriani,  C. J. Cramer,  
 A. E. DePrince, III,  R. A. DiStasio Jr.,  A. Dreuw,  B. D. Dunietz,  
 T. R. Furlani,  W. A. Goddard III,  S. Grimme,  S. Hammes-Schiffer,  
 T. Head-Gordon,  W. J. Hehre,  Chao-Ping Hsu,  T.-C. Jagau,  Yousung Jung,  
 A. Klamt,  Jing Kong,  D. S. Lambrecht,  WanZhen Liang,  N. J. Mayhall,  
 C. W. McCurdy,  J. B. Neaton,  C. Ochsenfeld,  J. A. Parkhill,  R. Peverati,  
 V. A. Rassolov,  Yihan Shao,  L. V. Slipchenko,  T. Stauch,  R. P. Steele,  
 J. E. Subotnik,  A. J. W. Thom,  A. Tkatchenko,  D. G. Truhlar,  
 T. Van Voorhis,  T. A. Wesolowski,  K. B. Whaley,  H. L. Woodcock III,  
 P. M. Zimmerman,  S. Faraji,  P. M. W. Gill,  M. Head-Gordon,  
 J. M. Herbert,  A. I. Krylov

 Contributors to earlier versions of Q-Chem not listed above: 
 R. D. Adamson,  B. Austin,  R. Baer,  J. Baker,  G. J. O. Beran,  
 K. Brandhorst,  S. T. Brown,  E. F. C. Byrd,  A. K. Chakraborty,  
 G. K. L. Chan,  Chun-Min Chang,  Yunqing Chen,  C.-L. Cheng,  
 Siu Hung Chien,  D. M. Chipman,  D. L. Crittenden,  H. Dachsel,  
 R. J. Doerksen,  A. D. Dutoi,  R. G. Edgar,  J. Fosso-Tande,  
 L. Fusti-Molnar,  D. Ghosh,  A. Ghysels,  A. Golubeva-Zadorozhnaya,  
 J. Gonthier,  M. S. Gordon,  S. R. Gwaltney,  G. Hawkins,  J. E. Herr,  
 A. Heyden,  S. Hirata,  E. G. Hohenstein,  G. Kedziora,  F. J. Keil,  
 C. Kelley,  Jihan Kim,  R. A. King,  R. Z. Khaliullin,  P. P. Korambath,  
 W. Kurlancheek,  A. Laurent,  A. M. Lee,  M. S. Lee,  S. V. Levchenko,  
 Ching Yeh Lin,  D. Liotard,  E. Livshits,  R. C. Lochan,  I. Lotan,  
 L. A. Martinez-Martinez,  P. E. Maslen,  N. Nair,  D. P. O'Neill,  
 D. Neuhauser,  E. Neuscamman,  C. M. Oana,  R. Olivares-Amaya,  R. Olson,  
 T. M. Perrine,  B. Peters,  P. A. Pieniazek,  A. Prociuk,  Y. M. Rhee,  
 J. Ritchie,  M. A. Rohrdanz,  E. Rosta,  N. J. Russ,  H. F. Schaefer III,  
 M. W. Schmidt,  N. E. Schultz,  S. Sharma,  N. Shenvi,  C. D. Sherrill,  
 A. C. Simmonett,  A. Sodt,  T. Stein,  D. Stuck,  K. S. Thanthiriwatte,  
 V. Vanovschi,  L. Vogt,  Tao Wang,  A. Warshel,  M. A. Watson,  
 C. F. Williams,  Q. Wu,  X. Xu,  Jun Yang,  W. Zhang,  Yan Zhao

 Please cite Q-Chem as follows:
 Y. Shao et al., Mol. Phys. 113, 184-215 (2015)
 DOI: 10.1080/00268976.2014.952696

 Q-Chem 5.4.0 for Intel X86 EM64T Linux

 Parts of Q-Chem use Armadillo 9.800.1 (Horizon Scraper).
 http://arma.sourceforge.net/

 Q-Chem begins on Sun Jul 10 04:06:11 2022  

 Host: 
0

     Scratch files written to ./qchem1735803//
 May1621 |scratch|qcdevops|jenkins|workspace|build_RNUM    
 Processing $rem in /cm/shared/apps/spack/cpu/opt/spack/linux-centos8-zen2/gcc-10.2.0/qchem-5.4-akfmr7b3t57bfs6qan3padb2wnb2i7cl/config/preferences:
 Processing $rem in /home/theleonzhang/.qchemrc:
 Symmetry turned off for PCM/SM12/SMD calculation
 Core orbitals will be frozen

 Checking the input file for inconsistencies... 	...done.

--------------------------------------------------------------
User input:
--------------------------------------------------------------
$molecule
0 1
C	0.763228	-3.866725	0.135301
C	-0.603311	-3.703963	-0.106073
C	-1.050423	-2.357056	-0.185286
H	-1.283188	-4.561092	-0.225783
C	-0.000000	-1.440664	-0.000000
S	1.521021	-2.286957	0.268187
C	-2.483507	-1.978743	-0.438209
H	-3.118798	-2.878678	-0.550153
H	-2.593381	-1.376015	-1.363906
H	-2.903516	-1.375728	0.393798
C	0.000000	0.000000	0.000000
C	0.149995	0.850475	1.099446
C	0.390327	2.213354	0.776721
H	0.085947	0.487279	2.136088
C	0.428665	2.430655	-0.612546
S	0.163670	0.928078	-1.486809
C	0.579235	3.284574	1.814609
H	0.505323	2.865404	2.836676
H	-0.185980	4.083890	1.726239
H	1.571698	3.773937	1.726228
H	0.593515	3.365448	-1.161575
H	1.258111	-4.392713	-0.688674
H	0.946272	-4.392347	1.079084
H	-0.187654	-1.440391	1.063572
$end

$rem
JOBTYPE		SP
EXCHANGE	HF
CORRELATION	pRIMP2
BASIS		cc-pvtz
METHOD		rimp2
AUX_BASIS	rimp2-cc-pvtz
SOLVENT_METHOD	PCM
PURECART	11111
SYMMETRY	false
MEM_TOTAL	110000
SCF_CONVERGENCE = 6
THRESH=10
$end



$solvent
dielectric 4.90
$end
--------------------------------------------------------------
 ----------------------------------------------------------------
             Standard Nuclear Orientation (Angstroms)
    I     Atom           X                Y                Z
 ----------------------------------------------------------------
    1      C       0.7632280000    -3.8667250000     0.1353010000
    2      C      -0.6033110000    -3.7039630000    -0.1060730000
    3      C      -1.0504230000    -2.3570560000    -0.1852860000
    4      H      -1.2831880000    -4.5610920000    -0.2257830000
    5      C       0.0000000000    -1.4406640000     0.0000000000
    6      S       1.5210210000    -2.2869570000     0.2681870000
    7      C      -2.4835070000    -1.9787430000    -0.4382090000
    8      H      -3.1187980000    -2.8786780000    -0.5501530000
    9      H      -2.5933810000    -1.3760150000    -1.3639060000
   10      H      -2.9035160000    -1.3757280000     0.3937980000
   11      C       0.0000000000     0.0000000000     0.0000000000
   12      C       0.1499950000     0.8504750000     1.0994460000
   13      C       0.3903270000     2.2133540000     0.7767210000
   14      H       0.0859470000     0.4872790000     2.1360880000
   15      C       0.4286650000     2.4306550000    -0.6125460000
   16      S       0.1636700000     0.9280780000    -1.4868090000
   17      C       0.5792350000     3.2845740000     1.8146090000
   18      H       0.5053230000     2.8654040000     2.8366760000
   19      H      -0.1859800000     4.0838900000     1.7262390000
   20      H       1.5716980000     3.7739370000     1.7262280000
   21      H       0.5935150000     3.3654480000    -1.1615750000
   22      H       1.2581110000    -4.3927130000    -0.6886740000
   23      H       0.9462720000    -4.3923470000     1.0790840000
   24      H      -0.1876540000    -1.4403910000     1.0635720000
 ----------------------------------------------------------------
 Nuclear Repulsion Energy =         871.84598870 hartrees
 There are       52 alpha and       52 beta electrons

 Q-Chem warning in module forms1/BasisType.C, line 2236:

 You are not using the predefined 5D/6D in this basis set.

 Requested basis set is cc-pVTZ
 There are 196 shells and 536 basis functions

 Total QAlloc Memory Limit 110000 MB
 Mega-Array Size       188 MB
 MEM_STATIC part       192 MB
 Discretize the solute cavity surface with Lebedev spheres
	Using 110 Lebedev grid points for each H atom
	Using 194 Lebedev grid points for other atoms
	Atomic van der Waals radii will be scaled by 1.20
 Remove points where switching function is < 1.0e-08
 Keep 1627 surface tesserae and discard 2021 interior tesserae
 Molecular Surface Area = 239.246 Angst**2
 Requested basis set is rimp2-cc-pVTZ
 There are 414 shells and 1414 basis functions
 A cutoff of  1.0D-10 yielded  13860 shell pairs
 There are    100392 function pairs (    128777 Cartesian)
 Smallest overlap matrix eigenvalue = 7.32E-05

 Scale SEOQF with 1.000000e-01/1.000000e-01/1.000000e-01

 Standard Electronic Orientation quadrupole field applied
 Nucleus-field energy     =     0.0000000367 hartrees
 Guess from superposition of atomic densities
 Warning:  Energy on first SCF cycle will be non-variational
 SAD guess density has 104.000000 electrons

 -----------------------------------------------------------------------
  General SCF calculation program by
  Eric Jon Sundstrom, Paul Horn, Yuezhi Mao, Dmitri Zuev, Alec White,
  David Stuck, Shaama M.S., Shane Yost, Joonho Lee, David Small,
  Daniel Levine, Susi Lehtola, Hugh Burton, Evgeny Epifanovsky,
  Bang C. Huynh
 -----------------------------------------------------------------------
 Hartree-Fock
 A restricted SCF calculation will be
 performed using DIIS
 SCF converges when DIIS error is below 1.0e-06
 ---------------------------------------
  Cycle       Energy         DIIS error
 ---------------------------------------
    1   -1186.0179601954      2.39e-02  
    2   -1180.6216851886      1.54e-03  
    3   -1180.7450823177      5.80e-04  
    4   -1180.7584084893      3.26e-04  
    5   -1180.7631612617      5.79e-05  
    6   -1180.7633969372      2.38e-05  
    7   -1180.7634542113      8.89e-06  
    8   -1180.7634680594      4.32e-06  
    9   -1180.7634712114      1.50e-06  
   10   -1180.7634716909      5.06e-07  Convergence criterion met
 ---------------------------------------
 SCF time:   CPU 564.45s  wall 567.00s 

************** Final PCM Free Energy Summary **************
 G_electrostatic  =      -0.00925690 hartree =      -5.80879328 kcal/mol
 G_cavitation     =       0.00000000 hartree =       0.00000000 kcal/mol
 G_dispersion     =       0.00000000 hartree =       0.00000000 kcal/mol
 G_repulsion      =       0.00000000 hartree =       0.00000000 kcal/mol
 --------------------------------------------------
 Non-electrostatic Free Energy =       0.00000000 hartree =       0.00000000 kcal/mol
 Total                         =      -0.00925690 hartree =      -5.80879328 kcal/mol
 --------------------------------------------------
 SCF Energy (H0 + V/2)                       =   -1180.76347169 
 Solute Internal Energy (H0)                 =   -1180.75421479 
 Total Free Energy (H0 + V/2 + non-elec)     =   -1180.76347169 hartree
                                             = -740940.26149691 kcal/mol
***********************************************************

 SCF   energy in the final basis set =    -1180.7634716909
 Total energy in the final basis set =    -1180.7634716909


 --------------------------------------------------------------
  Generalized many-body perturbation theory program
  by Joonho Lee, Fazle Rob, Xintian Feng, Evgeny Epifanovsky

 No regularization used 
 (reg. param. = 0.0000e+00)
  (P|Q)^-1/2 Time:  CPU 1.90 s  wall 1.91 s

 In RI-MP2 calculation: 
 # of frozen core orbitals: 20

 Components of the RIMP2 correlation energy:
        aaaa    correlation energy =        -0.2510709232 a.u.
        abab    correlation energy =        -1.5024528921 a.u.
        bbbb    correlation energy =        -0.2510709232 a.u.
        non-Brillouin singles      =        -0.0000000000 a.u.
        total same-spin energy     =        -0.5021418465 a.u.
        total opposite-spin energy =        -1.5024528921 a.u.

 Total  RIMP2   correlation energy =        -2.0045947385 a.u.
        RIMP2         total energy =     -1182.7680664295 a.u.

 RI-MP2 Energy Time:  CPU 79.92 s  wall 80.22 s
 
 --------------------------------------------------------------
 
                    Orbital Energies (a.u.)
 --------------------------------------------------------------
 
 Alpha MOs
 -- Occupied --
-91.9800 -91.9416 -11.2808 -11.2651 -11.2621 -11.2554 -11.2507 -11.2441
-11.2408 -11.2315 -11.2292 -11.2191  -8.9800  -8.9463  -6.6609  -6.6603
 -6.6598  -6.6276  -6.6266  -6.6253  -1.1980  -1.1537  -1.0580  -1.0259
 -1.0062  -0.9592  -0.9122  -0.9010  -0.8151  -0.7625  -0.7348  -0.7008
 -0.6610  -0.6409  -0.6105  -0.5886  -0.5802  -0.5717  -0.5663  -0.5504
 -0.5415  -0.5309  -0.5124  -0.5063  -0.4923  -0.4812  -0.4594  -0.4489
 -0.3563  -0.3409  -0.3123  -0.2816
 -- Virtual --
  0.0936   0.1322   0.1423   0.1500   0.1580   0.1709   0.1772   0.1801
  0.1879   0.1978   0.2045   0.2137   0.2291   0.2330   0.2348   0.2468
  0.2475   0.2603   0.2637   0.2987   0.3063   0.3388   0.3435   0.3528
  0.3669   0.3742   0.3778   0.3920   0.3975   0.4040   0.4112   0.4216
  0.4303   0.4436   0.4520   0.4607   0.4648   0.4736   0.4800   0.4825
  0.5040   0.5103   0.5160   0.5259   0.5270   0.5369   0.5434   0.5587
  0.5658   0.5776   0.5892   0.5925   0.6014   0.6089   0.6107   0.6180
  0.6239   0.6273   0.6352   0.6360   0.6425   0.6446   0.6501   0.6518
  0.6604   0.6682   0.6800   0.6824   0.6919   0.6980   0.7154   0.7269
  0.7324   0.7507   0.7548   0.7733   0.7866   0.8033   0.8110   0.8204
  0.8289   0.8337   0.8411   0.8543   0.8730   0.8951   0.9076   0.9153
  0.9259   0.9445   0.9487   0.9616   0.9711   0.9886   0.9996   1.0076
  1.0153   1.0236   1.0361   1.0502   1.0605   1.0628   1.0730   1.0826
  1.0863   1.0999   1.1143   1.1168   1.1293   1.1490   1.1606   1.1638
  1.1736   1.1857   1.1940   1.2084   1.2158   1.2290   1.2357   1.2438
  1.2563   1.2579   1.2659   1.2692   1.2844   1.2938   1.2965   1.3162
  1.3247   1.3281   1.3407   1.3493   1.3612   1.3961   1.4041   1.4146
  1.4221   1.4333   1.4522   1.4543   1.4681   1.4836   1.4930   1.4985
  1.5052   1.5159   1.5234   1.5298   1.5387   1.5412   1.5451   1.5544
  1.5711   1.5752   1.5832   1.5910   1.6054   1.6110   1.6174   1.6348
  1.6464   1.6718   1.6810   1.6845   1.6998   1.7205   1.7233   1.7417
  1.7448   1.7571   1.7659   1.7807   1.8058   1.8220   1.8360   1.8638
  1.8668   1.9022   1.9200   1.9422   1.9629   1.9713   1.9908   2.0028
  2.0091   2.0291   2.0449   2.0691   2.0714   2.1216   2.1331   2.1508
  2.1859   2.1962   2.1981   2.2151   2.2385   2.2483   2.2689   2.2719
  2.2991   2.3308   2.3378   2.3681   2.4168   2.4370   2.4438   2.4688
  2.4870   2.5094   2.5245   2.5381   2.5677   2.5786   2.6029   2.6153
  2.6305   2.6398   2.6642   2.6675   2.6681   2.6872   2.7040   2.7223
  2.7414   2.7466   2.7593   2.7656   2.7765   2.7844   2.7961   2.8222
  2.8398   2.8443   2.8602   2.8781   2.8853   2.8915   2.9134   2.9223
  2.9257   2.9511   2.9727   2.9815   3.0162   3.0205   3.0212   3.0391
  3.0421   3.0753   3.0885   3.0951   3.1115   3.1161   3.1270   3.1413
  3.1527   3.1577   3.1671   3.1745   3.1870   3.1967   3.1991   3.2138
  3.2329   3.2391   3.2530   3.2645   3.2823   3.2911   3.2982   3.3099
  3.3135   3.3226   3.3330   3.3400   3.3415   3.3547   3.3570   3.3664
  3.3781   3.3832   3.3930   3.3969   3.4021   3.4086   3.4248   3.4273
  3.4385   3.4432   3.4531   3.4650   3.4787   3.4918   3.5060   3.5103
  3.5138   3.5255   3.5332   3.5416   3.5453   3.5624   3.5718   3.5838
  3.5885   3.6010   3.6090   3.6158   3.6237   3.6332   3.6399   3.6590
  3.6785   3.6802   3.6909   3.7067   3.7107   3.7188   3.7288   3.7301
  3.7366   3.7553   3.7653   3.7810   3.7927   3.7957   3.8072   3.8106
  3.8306   3.8368   3.8416   3.8652   3.8824   3.8841   3.8958   3.9139
  3.9277   3.9499   3.9559   3.9699   3.9716   3.9904   3.9968   4.0049
  4.0204   4.0336   4.0423   4.0509   4.0745   4.0776   4.0899   4.1060
  4.1151   4.1248   4.1461   4.1592   4.1627   4.1734   4.1845   4.1964
  4.2109   4.2191   4.2351   4.2426   4.2521   4.2636   4.2713   4.2771
  4.2932   4.3110   4.3162   4.3300   4.3366   4.3511   4.3676   4.3709
  4.3728   4.3797   4.4001   4.4043   4.4081   4.4192   4.4297   4.4472
  4.4600   4.4710   4.4785   4.4854   4.4968   4.5198   4.5382   4.5480
  4.5725   4.5943   4.6168   4.6230   4.6339   4.6507   4.6574   4.6650
  4.7098   4.7226   4.7272   4.7576   4.7746   4.8075   4.8237   4.8320
  4.8557   4.8604   4.8945   4.8961   4.9310   4.9529   4.9742   4.9869
  5.0195   5.0425   5.0923   5.1040   5.1119   5.1242   5.1543   5.1795
  5.1875   5.2087   5.2300   5.2637   5.2836   5.2886   5.3112   5.3180
  5.3439   5.3702   5.3800   5.4046   5.4069   5.4268   5.4414   5.4553
  5.4849   5.5148   5.5260   5.5445   5.5468   5.5609   5.5786   5.5862
  5.6223   5.6304   5.6522   5.6796   5.6805   5.7032   5.7129   5.7302
  5.7745   5.7932   5.8342   5.9731   5.9938   6.0720   6.1227   6.1481
  6.2019   6.2179   6.2263   6.2448   6.2477   6.2753   6.3003   6.3266
  6.3736   6.4875   9.5068  10.6715  12.0365  12.9361  13.1802  13.9326
 14.1111  14.2063  14.3207  14.6513
 --------------------------------------------------------------
 
          Ground-State Mulliken Net Atomic Charges

     Atom                 Charge (a.u.)
  ----------------------------------------
      1 C                    -0.076717
      2 C                    -0.325662
      3 C                    -0.029447
      4 H                     0.176417
      5 C                     0.091781
      6 S                    -0.173531
      7 C                    -0.266701
      8 H                     0.111973
      9 H                     0.105795
     10 H                     0.102001
     11 C                    -0.076459
     12 C                    -0.249952
     13 C                     0.026219
     14 H                     0.182366
     15 C                    -0.236694
     16 S                     0.004874
     17 C                    -0.271323
     18 H                     0.102085
     19 H                     0.107755
     20 H                     0.108861
     21 H                     0.196896
     22 H                     0.112605
     23 H                     0.110437
     24 H                     0.166419
  ----------------------------------------
  Sum of atomic charges =     0.000000

 -----------------------------------------------------------------
                    Cartesian Multipole Moments
 -----------------------------------------------------------------
    Charge (ESU x 10^10)
                -0.0000
    Dipole Moment (Debye)
         X      -2.1829      Y       0.5619      Z       1.8801
       Tot       2.9352
    Quadrupole Moments (Debye-Ang)
        XX     -91.4723     XY       5.6504     YY     -73.9283
        XZ       0.5401     YZ       0.3826     ZZ     -85.9554
    Octopole Moments (Debye-Ang^2)
       XXX     -43.0172    XXY      42.7725    XYY      -4.9019
       YYY     126.9853    XXZ      -2.9722    XYZ      -1.9916
       YYZ      -1.1141    XZZ      -9.2001    YZZ      56.0224
       ZZZ       4.5602
    Hexadecapole Moments (Debye-Ang^3)
      XXXX    -717.8718   XXXY     -52.6369   XXYY    -613.9401
      XYYY     -65.0442   YYYY   -2763.6847   XXXZ     -59.5183
      XXYZ     -23.9925   XYYZ     -16.9651   YYYZ    -111.1482
      XXZZ    -223.0068   XYZZ     -24.9981   YYZZ    -595.4082
      XZZZ     -67.1620   YZZZ     -95.5364   ZZZZ    -554.9761
 -----------------------------------------------------------------
 Total job time:  650.52s(wall), 645.26s(cpu) 
 Sun Jul 10 04:17:02 2022

        *************************************************************
        *                                                           *
        *  Thank you very much for using Q-Chem.  Have a nice day.  *
        *                                                           *
        *************************************************************


remove work dirs ./qchem1735803.0 -- ./qchem1735803.-1
rm -rf ./qchem1735803
You are running Q-Chem version: 5.4.0

#
# job setting
#
local host:  exp-1-04
current dir: /expanse/lustre/scratch/theleonzhang/temp_project/Hydrogenated_Rotation_Test
input file:  Methylthiophene_Phi_10_Theta_280_Methylthiophene_Hydrogenated.qcin
output file: 
nprocs     : 0
nthreads   : 1
#
# qchem installation setting
#
QC:          /cm/shared/apps/spack/cpu/opt/spack/linux-centos8-zen2/gcc-10.2.0/qchem-5.4-akfmr7b3t57bfs6qan3padb2wnb2i7cl
QCAUX:       /cm/shared/apps/spack/cpu/opt/spack/linux-centos8-zen2/gcc-10.2.0/qchem-5.4-akfmr7b3t57bfs6qan3padb2wnb2i7cl/qcaux
QCPROG:      /cm/shared/apps/spack/cpu/opt/spack/linux-centos8-zen2/gcc-10.2.0/qchem-5.4-akfmr7b3t57bfs6qan3padb2wnb2i7cl/exe/qcprog.exe_s
QCPROG_S:    /cm/shared/apps/spack/cpu/opt/spack/linux-centos8-zen2/gcc-10.2.0/qchem-5.4-akfmr7b3t57bfs6qan3padb2wnb2i7cl/exe/qcprog.exe_s
PARALLEL:    -DSERIAL
QCMPI:       mpich
#
# qchem directory setting
#
qcrun:       qchem1345129
QCSCRATCH:   .
QCLOCALSCR:  
QCTMPDIR:    .
QCFILEPREF:  ./qchem1345129
QCSAVEDIR:   
workdirs:    ./qchem1345129
workdir0:    ./qchem1345129
partmpdirs =  
#
# parallel setting
#
QCRSH:           ssh
QCMPI:           mpich
QCMPIRUN:        /cm/shared/apps/spack/cpu/opt/spack/linux-centos8-zen2/gcc-10.2.0/qchem-5.4-akfmr7b3t57bfs6qan3padb2wnb2i7cl/bin/mpi/mpirun_qchem
QCMACHINEFILE:   ./qchem1345129/hostfile

#
# env setting
#
exported envs:   QC QCAUX QCSCRATCH QCRUNNAME QCFILEPREF QCPROG QCPROG_S GUIFILE

Running Job 1 of 1 Methylthiophene_Phi_10_Theta_280_Methylthiophene_Hydrogenated.qcin
qchem Methylthiophene_Phi_10_Theta_280_Methylthiophene_Hydrogenated.qcin_1345129.0 ./qchem1345129/ 0
/cm/shared/apps/spack/cpu/opt/spack/linux-centos8-zen2/gcc-10.2.0/qchem-5.4-akfmr7b3t57bfs6qan3padb2wnb2i7cl/exe/qcprog.exe_s Methylthiophene_Phi_10_Theta_280_Methylthiophene_Hydrogenated.qcin_1345129.0 ./qchem1345129/
                  Welcome to Q-Chem
     A Quantum Leap Into The Future Of Chemistry


 Q-Chem 5.4, Q-Chem, Inc., Pleasanton, CA (2021)

 License issued to: University of California, San Diego (site)

 E. Epifanovsky,  A. T. B. Gilbert,  Xintian Feng,  Joonho Lee,  Yuezhi Mao,  
 N. Mardirossian,  P. Pokhilko,  A. White,  M. Wormit,  M. P. Coons,  
 A. L. Dempwolff,  Zhengting Gan,  D. Hait,  P. R. Horn,  L. D. Jacobson,  
 I. Kaliman,  J. Kussmann,  A. W. Lange,  Ka Un Lao,  D. S. Levine,  Jie Liu,  
 S. C. McKenzie,  A. F. Morrison,  K. Nanda,  F. Plasser,  D. R. Rehn,  
 M. L. Vidal,  Zhi-Qiang You,  Ying Zhu,  B. Alam,  B. Albrecht,  
 A. Aldossary,  E. Alguire,  J. H. Andersen,  D. Barton,  K. Begam,  A. Behn,  
 Y. A. Bernard,  E. J. Berquist,  H. Burton,  A. Carreras,  K. Carter-Fenk,  
 R. Chakraborty,  A. D. Chien,  K. D. Closser,  V. Cofer-Shabica,  
 S. Dasgupta,  Jia Deng,  M. de Wergifosse,  M. Diedenhofen,  Hainam Do,  
 S. Ehlert,  Po-Tung Fang,  S. Fatehi,  Qingguo Feng,  J. Gayvert,  
 Qinghui Ge,  G. Gidofalvi,  M. Goldey,  J. Gomes,  C. Gonzalez-Espinoza,  
 S. Gulania,  A. Gunina,  M. W. D. Hanson-Heine,  P. H. P. Harbach,  
 A. W. Hauser,  M. F. Herbst,  M. Hernandez Vera,  M. Hodecker,  
 Z. C. Holden,  S. Houck,  Xunkun Huang,  Kerwin Hui,  B. C. Huynh,  
 M. Ivanov,  Hyunjun Ji,  Hanjie Jiang,  B. Kaduk,  S. Kaehler,  
 K. Khistyaev,  Jaehoon Kim,  P. Klunzinger,  Z. Koczor-Benda,  
 Joong Hoon Koh,  D. Kosenkov,  L. Koulias,  T. Kowalczyk,  C. M. Krauter,  
 K. Kue,  A. Kunitsa,  T. Kus,  A. Landau,  K. V. Lawler,  D. Lefrancois,  
 S. Lehtola,  Rain Li,  Yi-Pei Li,  Jiashu Liang,  M. Liebenthal,  
 Hung-Hsuan Lin,  You-Sheng Lin,  Fenglai Liu,  Kuan-Yu Liu,  
 M. Loipersberger,  A. Luenser,  A. Manjanath,  P. Manohar,  E. Mansoor,  
 S. F. Manzer,  Shan-Ping Mao,  A. V. Marenich,  T. Markovich,  S. Mason,  
 S. A. Maurer,  P. F. McLaughlin,  M. F. S. J. Menger,  J.-M. Mewes,  
 S. A. Mewes,  P. Morgante,  J. W. Mullinax,  T. S. Nguyen-Beck,  
 K. J. Oosterbaan,  G. Paran,  Alexander C. Paul,  Suranjan K. Paul,  
 F. Pavosevic,  Zheng Pei,  S. Prager,  E. I. Proynov,  E. Ramos,  B. Rana,  
 A. E. Rask,  A. Rettig,  R. M. Richard,  F. Rob,  E. Rossomme,  T. Scheele,  
 M. Scheurer,  M. Schneider,  N. Sergueev,  S. M. Sharada,  W. Skomorowski,  
 D. W. Small,  C. J. Stein,  Yu-Chuan Su,  E. J. Sundstrom,  Zhen Tao,  
 J. Thirman,  T. Tsuchimochi,  N. M. Tubman,  S. P. Veccham,  O. Vydrov,  
 J. Wenzel,  J. Witte,  A. Yamada,  Kun Yao,  S. Yeganeh,  S. R. Yost,  
 A. Zech,  Igor Ying Zhang,  Xing Zhang,  Yu Zhang,  D. Zuev,  
 A. Aspuru-Guzik,  A. T. Bell,  N. A. Besley,  K. B. Bravaya,  B. R. Brooks,  
 D. Casanova,  Jeng-Da Chai,  S. Coriani,  C. J. Cramer,  
 A. E. DePrince, III,  R. A. DiStasio Jr.,  A. Dreuw,  B. D. Dunietz,  
 T. R. Furlani,  W. A. Goddard III,  S. Grimme,  S. Hammes-Schiffer,  
 T. Head-Gordon,  W. J. Hehre,  Chao-Ping Hsu,  T.-C. Jagau,  Yousung Jung,  
 A. Klamt,  Jing Kong,  D. S. Lambrecht,  WanZhen Liang,  N. J. Mayhall,  
 C. W. McCurdy,  J. B. Neaton,  C. Ochsenfeld,  J. A. Parkhill,  R. Peverati,  
 V. A. Rassolov,  Yihan Shao,  L. V. Slipchenko,  T. Stauch,  R. P. Steele,  
 J. E. Subotnik,  A. J. W. Thom,  A. Tkatchenko,  D. G. Truhlar,  
 T. Van Voorhis,  T. A. Wesolowski,  K. B. Whaley,  H. L. Woodcock III,  
 P. M. Zimmerman,  S. Faraji,  P. M. W. Gill,  M. Head-Gordon,  
 J. M. Herbert,  A. I. Krylov

 Contributors to earlier versions of Q-Chem not listed above: 
 R. D. Adamson,  B. Austin,  R. Baer,  J. Baker,  G. J. O. Beran,  
 K. Brandhorst,  S. T. Brown,  E. F. C. Byrd,  A. K. Chakraborty,  
 G. K. L. Chan,  Chun-Min Chang,  Yunqing Chen,  C.-L. Cheng,  
 Siu Hung Chien,  D. M. Chipman,  D. L. Crittenden,  H. Dachsel,  
 R. J. Doerksen,  A. D. Dutoi,  R. G. Edgar,  J. Fosso-Tande,  
 L. Fusti-Molnar,  D. Ghosh,  A. Ghysels,  A. Golubeva-Zadorozhnaya,  
 J. Gonthier,  M. S. Gordon,  S. R. Gwaltney,  G. Hawkins,  J. E. Herr,  
 A. Heyden,  S. Hirata,  E. G. Hohenstein,  G. Kedziora,  F. J. Keil,  
 C. Kelley,  Jihan Kim,  R. A. King,  R. Z. Khaliullin,  P. P. Korambath,  
 W. Kurlancheek,  A. Laurent,  A. M. Lee,  M. S. Lee,  S. V. Levchenko,  
 Ching Yeh Lin,  D. Liotard,  E. Livshits,  R. C. Lochan,  I. Lotan,  
 L. A. Martinez-Martinez,  P. E. Maslen,  N. Nair,  D. P. O'Neill,  
 D. Neuhauser,  E. Neuscamman,  C. M. Oana,  R. Olivares-Amaya,  R. Olson,  
 T. M. Perrine,  B. Peters,  P. A. Pieniazek,  A. Prociuk,  Y. M. Rhee,  
 J. Ritchie,  M. A. Rohrdanz,  E. Rosta,  N. J. Russ,  H. F. Schaefer III,  
 M. W. Schmidt,  N. E. Schultz,  S. Sharma,  N. Shenvi,  C. D. Sherrill,  
 A. C. Simmonett,  A. Sodt,  T. Stein,  D. Stuck,  K. S. Thanthiriwatte,  
 V. Vanovschi,  L. Vogt,  Tao Wang,  A. Warshel,  M. A. Watson,  
 C. F. Williams,  Q. Wu,  X. Xu,  Jun Yang,  W. Zhang,  Yan Zhao

 Please cite Q-Chem as follows:
 Y. Shao et al., Mol. Phys. 113, 184-215 (2015)
 DOI: 10.1080/00268976.2014.952696

 Q-Chem 5.4.0 for Intel X86 EM64T Linux

 Parts of Q-Chem use Armadillo 9.800.1 (Horizon Scraper).
 http://arma.sourceforge.net/

 Q-Chem begins on Sun Jul 10 04:40:46 2022  

 Host: 
0

     Scratch files written to ./qchem1345129//
 May1621 |scratch|qcdevops|jenkins|workspace|build_RNUM    
 Processing $rem in /cm/shared/apps/spack/cpu/opt/spack/linux-centos8-zen2/gcc-10.2.0/qchem-5.4-akfmr7b3t57bfs6qan3padb2wnb2i7cl/config/preferences:
 Processing $rem in /home/theleonzhang/.qchemrc:
 Symmetry turned off for PCM/SM12/SMD calculation
 Core orbitals will be frozen

 Checking the input file for inconsistencies... 	...done.

--------------------------------------------------------------
User input:
--------------------------------------------------------------
$molecule
0 1
C	0.763228	-3.866725	0.135301
C	-0.603311	-3.703963	-0.106073
C	-1.050423	-2.357056	-0.185286
H	-1.283188	-4.561092	-0.225783
C	-0.000000	-1.440664	-0.000000
S	1.521021	-2.286957	0.268187
C	-2.483507	-1.978743	-0.438209
H	-3.118798	-2.878678	-0.550153
H	-2.593381	-1.376015	-1.363906
H	-2.903516	-1.375728	0.393798
C	0.000000	0.000000	0.000000
C	0.149995	0.850475	1.099446
C	0.390327	2.213354	0.776721
H	0.085947	0.487279	2.136088
C	0.428665	2.430655	-0.612546
S	0.163670	0.928078	-1.486809
C	0.579235	3.284574	1.814609
H	0.505323	2.865404	2.836676
H	-0.185980	4.083890	1.726239
H	1.571698	3.773937	1.726228
H	0.593515	3.365448	-1.161575
H	1.258111	-4.392713	-0.688674
H	0.946272	-4.392347	1.079084
H	-0.187654	-1.440391	1.063572
$end

$rem
JOBTYPE		SP
EXCHANGE	HF
CORRELATION	pRIMP2
BASIS		cc-pvtz
METHOD		rimp2
AUX_BASIS	rimp2-cc-pvtz
SOLVENT_METHOD	PCM
PURECART	11111
SYMMETRY	false
MEM_TOTAL	110000
SCF_CONVERGENCE = 6
THRESH=10
$end



$solvent
dielectric 4.90
$end
--------------------------------------------------------------
 ----------------------------------------------------------------
             Standard Nuclear Orientation (Angstroms)
    I     Atom           X                Y                Z
 ----------------------------------------------------------------
    1      C       0.7632280000    -3.8667250000     0.1353010000
    2      C      -0.6033110000    -3.7039630000    -0.1060730000
    3      C      -1.0504230000    -2.3570560000    -0.1852860000
    4      H      -1.2831880000    -4.5610920000    -0.2257830000
    5      C       0.0000000000    -1.4406640000     0.0000000000
    6      S       1.5210210000    -2.2869570000     0.2681870000
    7      C      -2.4835070000    -1.9787430000    -0.4382090000
    8      H      -3.1187980000    -2.8786780000    -0.5501530000
    9      H      -2.5933810000    -1.3760150000    -1.3639060000
   10      H      -2.9035160000    -1.3757280000     0.3937980000
   11      C       0.0000000000     0.0000000000     0.0000000000
   12      C       0.1499950000     0.8504750000     1.0994460000
   13      C       0.3903270000     2.2133540000     0.7767210000
   14      H       0.0859470000     0.4872790000     2.1360880000
   15      C       0.4286650000     2.4306550000    -0.6125460000
   16      S       0.1636700000     0.9280780000    -1.4868090000
   17      C       0.5792350000     3.2845740000     1.8146090000
   18      H       0.5053230000     2.8654040000     2.8366760000
   19      H      -0.1859800000     4.0838900000     1.7262390000
   20      H       1.5716980000     3.7739370000     1.7262280000
   21      H       0.5935150000     3.3654480000    -1.1615750000
   22      H       1.2581110000    -4.3927130000    -0.6886740000
   23      H       0.9462720000    -4.3923470000     1.0790840000
   24      H      -0.1876540000    -1.4403910000     1.0635720000
 ----------------------------------------------------------------
 Nuclear Repulsion Energy =         871.84598870 hartrees
 There are       52 alpha and       52 beta electrons

 Q-Chem warning in module forms1/BasisType.C, line 2236:

 You are not using the predefined 5D/6D in this basis set.

 Requested basis set is cc-pVTZ
 There are 196 shells and 536 basis functions

 Total QAlloc Memory Limit 110000 MB
 Mega-Array Size       188 MB
 MEM_STATIC part       192 MB
 Discretize the solute cavity surface with Lebedev spheres
	Using 110 Lebedev grid points for each H atom
	Using 194 Lebedev grid points for other atoms
	Atomic van der Waals radii will be scaled by 1.20
 Remove points where switching function is < 1.0e-08
 Keep 1627 surface tesserae and discard 2021 interior tesserae
 Molecular Surface Area = 239.246 Angst**2
 Requested basis set is rimp2-cc-pVTZ
 There are 414 shells and 1414 basis functions
 A cutoff of  1.0D-10 yielded  13860 shell pairs
 There are    100392 function pairs (    128777 Cartesian)
 Smallest overlap matrix eigenvalue = 7.32E-05

 Scale SEOQF with 1.000000e-01/1.000000e-01/1.000000e-01

 Standard Electronic Orientation quadrupole field applied
 Nucleus-field energy     =     0.0000000367 hartrees
 Guess from superposition of atomic densities
 Warning:  Energy on first SCF cycle will be non-variational
 SAD guess density has 104.000000 electrons

 -----------------------------------------------------------------------
  General SCF calculation program by
  Eric Jon Sundstrom, Paul Horn, Yuezhi Mao, Dmitri Zuev, Alec White,
  David Stuck, Shaama M.S., Shane Yost, Joonho Lee, David Small,
  Daniel Levine, Susi Lehtola, Hugh Burton, Evgeny Epifanovsky,
  Bang C. Huynh
 -----------------------------------------------------------------------
 Hartree-Fock
 A restricted SCF calculation will be
 performed using DIIS
 SCF converges when DIIS error is below 1.0e-06
 ---------------------------------------
  Cycle       Energy         DIIS error
 ---------------------------------------
    1   -1186.0179601954      2.39e-02  
    2   -1180.6216851886      1.54e-03  
    3   -1180.7450823177      5.80e-04  
    4   -1180.7584084893      3.26e-04  
    5   -1180.7631612617      5.79e-05  
    6   -1180.7633969372      2.38e-05  
    7   -1180.7634542113      8.89e-06  
    8   -1180.7634680594      4.32e-06  
    9   -1180.7634712114      1.50e-06  
   10   -1180.7634716909      5.06e-07  Convergence criterion met
 ---------------------------------------
 SCF time:   CPU 574.90s  wall 578.00s 

************** Final PCM Free Energy Summary **************
 G_electrostatic  =      -0.00925690 hartree =      -5.80879328 kcal/mol
 G_cavitation     =       0.00000000 hartree =       0.00000000 kcal/mol
 G_dispersion     =       0.00000000 hartree =       0.00000000 kcal/mol
 G_repulsion      =       0.00000000 hartree =       0.00000000 kcal/mol
 --------------------------------------------------
 Non-electrostatic Free Energy =       0.00000000 hartree =       0.00000000 kcal/mol
 Total                         =      -0.00925690 hartree =      -5.80879328 kcal/mol
 --------------------------------------------------
 SCF Energy (H0 + V/2)                       =   -1180.76347169 
 Solute Internal Energy (H0)                 =   -1180.75421479 
 Total Free Energy (H0 + V/2 + non-elec)     =   -1180.76347169 hartree
                                             = -740940.26149691 kcal/mol
***********************************************************

 SCF   energy in the final basis set =    -1180.7634716909
 Total energy in the final basis set =    -1180.7634716909


 --------------------------------------------------------------
  Generalized many-body perturbation theory program
  by Joonho Lee, Fazle Rob, Xintian Feng, Evgeny Epifanovsky

 No regularization used 
 (reg. param. = 0.0000e+00)
  (P|Q)^-1/2 Time:  CPU 1.92 s  wall 1.92 s

 In RI-MP2 calculation: 
 # of frozen core orbitals: 20

 Components of the RIMP2 correlation energy:
        aaaa    correlation energy =        -0.2510709232 a.u.
        abab    correlation energy =        -1.5024528921 a.u.
        bbbb    correlation energy =        -0.2510709232 a.u.
        non-Brillouin singles      =        -0.0000000000 a.u.
        total same-spin energy     =        -0.5021418465 a.u.
        total opposite-spin energy =        -1.5024528921 a.u.

 Total  RIMP2   correlation energy =        -2.0045947385 a.u.
        RIMP2         total energy =     -1182.7680664295 a.u.

 RI-MP2 Energy Time:  CPU 79.71 s  wall 80.08 s
 
 --------------------------------------------------------------
 
                    Orbital Energies (a.u.)
 --------------------------------------------------------------
 
 Alpha MOs
 -- Occupied --
-91.9800 -91.9416 -11.2808 -11.2651 -11.2621 -11.2554 -11.2507 -11.2441
-11.2408 -11.2315 -11.2292 -11.2191  -8.9800  -8.9463  -6.6609  -6.6603
 -6.6598  -6.6276  -6.6266  -6.6253  -1.1980  -1.1537  -1.0580  -1.0259
 -1.0062  -0.9592  -0.9122  -0.9010  -0.8151  -0.7625  -0.7348  -0.7008
 -0.6610  -0.6409  -0.6105  -0.5886  -0.5802  -0.5717  -0.5663  -0.5504
 -0.5415  -0.5309  -0.5124  -0.5063  -0.4923  -0.4812  -0.4594  -0.4489
 -0.3563  -0.3409  -0.3123  -0.2816
 -- Virtual --
  0.0936   0.1322   0.1423   0.1500   0.1580   0.1709   0.1772   0.1801
  0.1879   0.1978   0.2045   0.2137   0.2291   0.2330   0.2348   0.2468
  0.2475   0.2603   0.2637   0.2987   0.3063   0.3388   0.3435   0.3528
  0.3669   0.3742   0.3778   0.3920   0.3975   0.4040   0.4112   0.4216
  0.4303   0.4436   0.4520   0.4607   0.4648   0.4736   0.4800   0.4825
  0.5040   0.5103   0.5160   0.5259   0.5270   0.5369   0.5434   0.5587
  0.5658   0.5776   0.5892   0.5925   0.6014   0.6089   0.6107   0.6180
  0.6239   0.6273   0.6352   0.6360   0.6425   0.6446   0.6501   0.6518
  0.6604   0.6682   0.6800   0.6824   0.6919   0.6980   0.7154   0.7269
  0.7324   0.7507   0.7548   0.7733   0.7866   0.8033   0.8110   0.8204
  0.8289   0.8337   0.8411   0.8543   0.8730   0.8951   0.9076   0.9153
  0.9259   0.9445   0.9487   0.9616   0.9711   0.9886   0.9996   1.0076
  1.0153   1.0236   1.0361   1.0502   1.0605   1.0628   1.0730   1.0826
  1.0863   1.0999   1.1143   1.1168   1.1293   1.1490   1.1606   1.1638
  1.1736   1.1857   1.1940   1.2084   1.2158   1.2290   1.2357   1.2438
  1.2563   1.2579   1.2659   1.2692   1.2844   1.2938   1.2965   1.3162
  1.3247   1.3281   1.3407   1.3493   1.3612   1.3961   1.4041   1.4146
  1.4221   1.4333   1.4522   1.4543   1.4681   1.4836   1.4930   1.4985
  1.5052   1.5159   1.5234   1.5298   1.5387   1.5412   1.5451   1.5544
  1.5711   1.5752   1.5832   1.5910   1.6054   1.6110   1.6174   1.6348
  1.6464   1.6718   1.6810   1.6845   1.6998   1.7205   1.7233   1.7417
  1.7448   1.7571   1.7659   1.7807   1.8058   1.8220   1.8360   1.8638
  1.8668   1.9022   1.9200   1.9422   1.9629   1.9713   1.9908   2.0028
  2.0091   2.0291   2.0449   2.0691   2.0714   2.1216   2.1331   2.1508
  2.1859   2.1962   2.1981   2.2151   2.2385   2.2483   2.2689   2.2719
  2.2991   2.3308   2.3378   2.3681   2.4168   2.4370   2.4438   2.4688
  2.4870   2.5094   2.5245   2.5381   2.5677   2.5786   2.6029   2.6153
  2.6305   2.6398   2.6642   2.6675   2.6681   2.6872   2.7040   2.7223
  2.7414   2.7466   2.7593   2.7656   2.7765   2.7844   2.7961   2.8222
  2.8398   2.8443   2.8602   2.8781   2.8853   2.8915   2.9134   2.9223
  2.9257   2.9511   2.9727   2.9815   3.0162   3.0205   3.0212   3.0391
  3.0421   3.0753   3.0885   3.0951   3.1115   3.1161   3.1270   3.1413
  3.1527   3.1577   3.1671   3.1745   3.1870   3.1967   3.1991   3.2138
  3.2329   3.2391   3.2530   3.2645   3.2823   3.2911   3.2982   3.3099
  3.3135   3.3226   3.3330   3.3400   3.3415   3.3547   3.3570   3.3664
  3.3781   3.3832   3.3930   3.3969   3.4021   3.4086   3.4248   3.4273
  3.4385   3.4432   3.4531   3.4650   3.4787   3.4918   3.5060   3.5103
  3.5138   3.5255   3.5332   3.5416   3.5453   3.5624   3.5718   3.5838
  3.5885   3.6010   3.6090   3.6158   3.6237   3.6332   3.6399   3.6590
  3.6785   3.6802   3.6909   3.7067   3.7107   3.7188   3.7288   3.7301
  3.7366   3.7553   3.7653   3.7810   3.7927   3.7957   3.8072   3.8106
  3.8306   3.8368   3.8416   3.8652   3.8824   3.8841   3.8958   3.9139
  3.9277   3.9499   3.9559   3.9699   3.9716   3.9904   3.9968   4.0049
  4.0204   4.0336   4.0423   4.0509   4.0745   4.0776   4.0899   4.1060
  4.1151   4.1248   4.1461   4.1592   4.1627   4.1734   4.1845   4.1964
  4.2109   4.2191   4.2351   4.2426   4.2521   4.2636   4.2713   4.2771
  4.2932   4.3110   4.3162   4.3300   4.3366   4.3511   4.3676   4.3709
  4.3728   4.3797   4.4001   4.4043   4.4081   4.4192   4.4297   4.4472
  4.4600   4.4710   4.4785   4.4854   4.4968   4.5198   4.5382   4.5480
  4.5725   4.5943   4.6168   4.6230   4.6339   4.6507   4.6574   4.6650
  4.7098   4.7226   4.7272   4.7576   4.7746   4.8075   4.8237   4.8320
  4.8557   4.8604   4.8945   4.8961   4.9310   4.9529   4.9742   4.9869
  5.0195   5.0425   5.0923   5.1040   5.1119   5.1242   5.1543   5.1795
  5.1875   5.2087   5.2300   5.2637   5.2836   5.2886   5.3112   5.3180
  5.3439   5.3702   5.3800   5.4046   5.4069   5.4268   5.4414   5.4553
  5.4849   5.5148   5.5260   5.5445   5.5468   5.5609   5.5786   5.5862
  5.6223   5.6304   5.6522   5.6796   5.6805   5.7032   5.7129   5.7302
  5.7745   5.7932   5.8342   5.9731   5.9938   6.0720   6.1227   6.1481
  6.2019   6.2179   6.2263   6.2448   6.2477   6.2753   6.3003   6.3266
  6.3736   6.4875   9.5068  10.6715  12.0365  12.9361  13.1802  13.9326
 14.1111  14.2063  14.3207  14.6513
 --------------------------------------------------------------
 
          Ground-State Mulliken Net Atomic Charges

     Atom                 Charge (a.u.)
  ----------------------------------------
      1 C                    -0.076717
      2 C                    -0.325662
      3 C                    -0.029447
      4 H                     0.176417
      5 C                     0.091781
      6 S                    -0.173531
      7 C                    -0.266701
      8 H                     0.111973
      9 H                     0.105795
     10 H                     0.102001
     11 C                    -0.076459
     12 C                    -0.249952
     13 C                     0.026219
     14 H                     0.182366
     15 C                    -0.236694
     16 S                     0.004874
     17 C                    -0.271323
     18 H                     0.102085
     19 H                     0.107755
     20 H                     0.108861
     21 H                     0.196896
     22 H                     0.112605
     23 H                     0.110437
     24 H                     0.166419
  ----------------------------------------
  Sum of atomic charges =     0.000000

 -----------------------------------------------------------------
                    Cartesian Multipole Moments
 -----------------------------------------------------------------
    Charge (ESU x 10^10)
                -0.0000
    Dipole Moment (Debye)
         X      -2.1829      Y       0.5619      Z       1.8801
       Tot       2.9352
    Quadrupole Moments (Debye-Ang)
        XX     -91.4723     XY       5.6504     YY     -73.9283
        XZ       0.5401     YZ       0.3826     ZZ     -85.9554
    Octopole Moments (Debye-Ang^2)
       XXX     -43.0172    XXY      42.7725    XYY      -4.9019
       YYY     126.9853    XXZ      -2.9722    XYZ      -1.9916
       YYZ      -1.1141    XZZ      -9.2001    YZZ      56.0224
       ZZZ       4.5602
    Hexadecapole Moments (Debye-Ang^3)
      XXXX    -717.8718   XXXY     -52.6369   XXYY    -613.9401
      XYYY     -65.0442   YYYY   -2763.6847   XXXZ     -59.5183
      XXYZ     -23.9925   XYYZ     -16.9651   YYYZ    -111.1482
      XXZZ    -223.0068   XYZZ     -24.9981   YYZZ    -595.4082
      XZZZ     -67.1620   YZZZ     -95.5364   ZZZZ    -554.9761
 -----------------------------------------------------------------
 Total job time:  660.80s(wall), 655.55s(cpu) 
 Sun Jul 10 04:51:46 2022

        *************************************************************
        *                                                           *
        *  Thank you very much for using Q-Chem.  Have a nice day.  *
        *                                                           *
        *************************************************************


remove work dirs ./qchem1345129.0 -- ./qchem1345129.-1
rm -rf ./qchem1345129
