You are running Q-Chem version: 5.4.0

#
# job setting
#
local host:  exp-1-41
current dir: /expanse/lustre/scratch/theleonzhang/temp_project/Hydrogenated_Rotation_Test
input file:  Methylthiophene_Phi_40_Theta_320_Methylthiophene_Hydrogenated.qcin
output file: 
nprocs     : 0
nthreads   : 1
#
# qchem installation setting
#
QC:          /cm/shared/apps/spack/cpu/opt/spack/linux-centos8-zen2/gcc-10.2.0/qchem-5.4-akfmr7b3t57bfs6qan3padb2wnb2i7cl
QCAUX:       /cm/shared/apps/spack/cpu/opt/spack/linux-centos8-zen2/gcc-10.2.0/qchem-5.4-akfmr7b3t57bfs6qan3padb2wnb2i7cl/qcaux
QCPROG:      /cm/shared/apps/spack/cpu/opt/spack/linux-centos8-zen2/gcc-10.2.0/qchem-5.4-akfmr7b3t57bfs6qan3padb2wnb2i7cl/exe/qcprog.exe_s
QCPROG_S:    /cm/shared/apps/spack/cpu/opt/spack/linux-centos8-zen2/gcc-10.2.0/qchem-5.4-akfmr7b3t57bfs6qan3padb2wnb2i7cl/exe/qcprog.exe_s
PARALLEL:    -DSERIAL
QCMPI:       mpich
#
# qchem directory setting
#
qcrun:       qchem1181665
QCSCRATCH:   .
QCLOCALSCR:  
QCTMPDIR:    .
QCFILEPREF:  ./qchem1181665
QCSAVEDIR:   
workdirs:    ./qchem1181665
workdir0:    ./qchem1181665
partmpdirs =  
#
# parallel setting
#
QCRSH:           ssh
QCMPI:           mpich
QCMPIRUN:        /cm/shared/apps/spack/cpu/opt/spack/linux-centos8-zen2/gcc-10.2.0/qchem-5.4-akfmr7b3t57bfs6qan3padb2wnb2i7cl/bin/mpi/mpirun_qchem
QCMACHINEFILE:   ./qchem1181665/hostfile

#
# env setting
#
exported envs:   QC QCAUX QCSCRATCH QCRUNNAME QCFILEPREF QCPROG QCPROG_S GUIFILE

Running Job 1 of 1 Methylthiophene_Phi_40_Theta_320_Methylthiophene_Hydrogenated.qcin
qchem Methylthiophene_Phi_40_Theta_320_Methylthiophene_Hydrogenated.qcin_1181665.0 ./qchem1181665/ 0
/cm/shared/apps/spack/cpu/opt/spack/linux-centos8-zen2/gcc-10.2.0/qchem-5.4-akfmr7b3t57bfs6qan3padb2wnb2i7cl/exe/qcprog.exe_s Methylthiophene_Phi_40_Theta_320_Methylthiophene_Hydrogenated.qcin_1181665.0 ./qchem1181665/
                  Welcome to Q-Chem
     A Quantum Leap Into The Future Of Chemistry


 Q-Chem 5.4, Q-Chem, Inc., Pleasanton, CA (2021)

 License issued to: University of California, San Diego (site)

 E. Epifanovsky,  A. T. B. Gilbert,  Xintian Feng,  Joonho Lee,  Yuezhi Mao,  
 N. Mardirossian,  P. Pokhilko,  A. White,  M. Wormit,  M. P. Coons,  
 A. L. Dempwolff,  Zhengting Gan,  D. Hait,  P. R. Horn,  L. D. Jacobson,  
 I. Kaliman,  J. Kussmann,  A. W. Lange,  Ka Un Lao,  D. S. Levine,  Jie Liu,  
 S. C. McKenzie,  A. F. Morrison,  K. Nanda,  F. Plasser,  D. R. Rehn,  
 M. L. Vidal,  Zhi-Qiang You,  Ying Zhu,  B. Alam,  B. Albrecht,  
 A. Aldossary,  E. Alguire,  J. H. Andersen,  D. Barton,  K. Begam,  A. Behn,  
 Y. A. Bernard,  E. J. Berquist,  H. Burton,  A. Carreras,  K. Carter-Fenk,  
 R. Chakraborty,  A. D. Chien,  K. D. Closser,  V. Cofer-Shabica,  
 S. Dasgupta,  Jia Deng,  M. de Wergifosse,  M. Diedenhofen,  Hainam Do,  
 S. Ehlert,  Po-Tung Fang,  S. Fatehi,  Qingguo Feng,  J. Gayvert,  
 Qinghui Ge,  G. Gidofalvi,  M. Goldey,  J. Gomes,  C. Gonzalez-Espinoza,  
 S. Gulania,  A. Gunina,  M. W. D. Hanson-Heine,  P. H. P. Harbach,  
 A. W. Hauser,  M. F. Herbst,  M. Hernandez Vera,  M. Hodecker,  
 Z. C. Holden,  S. Houck,  Xunkun Huang,  Kerwin Hui,  B. C. Huynh,  
 M. Ivanov,  Hyunjun Ji,  Hanjie Jiang,  B. Kaduk,  S. Kaehler,  
 K. Khistyaev,  Jaehoon Kim,  P. Klunzinger,  Z. Koczor-Benda,  
 Joong Hoon Koh,  D. Kosenkov,  L. Koulias,  T. Kowalczyk,  C. M. Krauter,  
 K. Kue,  A. Kunitsa,  T. Kus,  A. Landau,  K. V. Lawler,  D. Lefrancois,  
 S. Lehtola,  Rain Li,  Yi-Pei Li,  Jiashu Liang,  M. Liebenthal,  
 Hung-Hsuan Lin,  You-Sheng Lin,  Fenglai Liu,  Kuan-Yu Liu,  
 M. Loipersberger,  A. Luenser,  A. Manjanath,  P. Manohar,  E. Mansoor,  
 S. F. Manzer,  Shan-Ping Mao,  A. V. Marenich,  T. Markovich,  S. Mason,  
 S. A. Maurer,  P. F. McLaughlin,  M. F. S. J. Menger,  J.-M. Mewes,  
 S. A. Mewes,  P. Morgante,  J. W. Mullinax,  T. S. Nguyen-Beck,  
 K. J. Oosterbaan,  G. Paran,  Alexander C. Paul,  Suranjan K. Paul,  
 F. Pavosevic,  Zheng Pei,  S. Prager,  E. I. Proynov,  E. Ramos,  B. Rana,  
 A. E. Rask,  A. Rettig,  R. M. Richard,  F. Rob,  E. Rossomme,  T. Scheele,  
 M. Scheurer,  M. Schneider,  N. Sergueev,  S. M. Sharada,  W. Skomorowski,  
 D. W. Small,  C. J. Stein,  Yu-Chuan Su,  E. J. Sundstrom,  Zhen Tao,  
 J. Thirman,  T. Tsuchimochi,  N. M. Tubman,  S. P. Veccham,  O. Vydrov,  
 J. Wenzel,  J. Witte,  A. Yamada,  Kun Yao,  S. Yeganeh,  S. R. Yost,  
 A. Zech,  Igor Ying Zhang,  Xing Zhang,  Yu Zhang,  D. Zuev,  
 A. Aspuru-Guzik,  A. T. Bell,  N. A. Besley,  K. B. Bravaya,  B. R. Brooks,  
 D. Casanova,  Jeng-Da Chai,  S. Coriani,  C. J. Cramer,  
 A. E. DePrince, III,  R. A. DiStasio Jr.,  A. Dreuw,  B. D. Dunietz,  
 T. R. Furlani,  W. A. Goddard III,  S. Grimme,  S. Hammes-Schiffer,  
 T. Head-Gordon,  W. J. Hehre,  Chao-Ping Hsu,  T.-C. Jagau,  Yousung Jung,  
 A. Klamt,  Jing Kong,  D. S. Lambrecht,  WanZhen Liang,  N. J. Mayhall,  
 C. W. McCurdy,  J. B. Neaton,  C. Ochsenfeld,  J. A. Parkhill,  R. Peverati,  
 V. A. Rassolov,  Yihan Shao,  L. V. Slipchenko,  T. Stauch,  R. P. Steele,  
 J. E. Subotnik,  A. J. W. Thom,  A. Tkatchenko,  D. G. Truhlar,  
 T. Van Voorhis,  T. A. Wesolowski,  K. B. Whaley,  H. L. Woodcock III,  
 P. M. Zimmerman,  S. Faraji,  P. M. W. Gill,  M. Head-Gordon,  
 J. M. Herbert,  A. I. Krylov

 Contributors to earlier versions of Q-Chem not listed above: 
 R. D. Adamson,  B. Austin,  R. Baer,  J. Baker,  G. J. O. Beran,  
 K. Brandhorst,  S. T. Brown,  E. F. C. Byrd,  A. K. Chakraborty,  
 G. K. L. Chan,  Chun-Min Chang,  Yunqing Chen,  C.-L. Cheng,  
 Siu Hung Chien,  D. M. Chipman,  D. L. Crittenden,  H. Dachsel,  
 R. J. Doerksen,  A. D. Dutoi,  R. G. Edgar,  J. Fosso-Tande,  
 L. Fusti-Molnar,  D. Ghosh,  A. Ghysels,  A. Golubeva-Zadorozhnaya,  
 J. Gonthier,  M. S. Gordon,  S. R. Gwaltney,  G. Hawkins,  J. E. Herr,  
 A. Heyden,  S. Hirata,  E. G. Hohenstein,  G. Kedziora,  F. J. Keil,  
 C. Kelley,  Jihan Kim,  R. A. King,  R. Z. Khaliullin,  P. P. Korambath,  
 W. Kurlancheek,  A. Laurent,  A. M. Lee,  M. S. Lee,  S. V. Levchenko,  
 Ching Yeh Lin,  D. Liotard,  E. Livshits,  R. C. Lochan,  I. Lotan,  
 L. A. Martinez-Martinez,  P. E. Maslen,  N. Nair,  D. P. O'Neill,  
 D. Neuhauser,  E. Neuscamman,  C. M. Oana,  R. Olivares-Amaya,  R. Olson,  
 T. M. Perrine,  B. Peters,  P. A. Pieniazek,  A. Prociuk,  Y. M. Rhee,  
 J. Ritchie,  M. A. Rohrdanz,  E. Rosta,  N. J. Russ,  H. F. Schaefer III,  
 M. W. Schmidt,  N. E. Schultz,  S. Sharma,  N. Shenvi,  C. D. Sherrill,  
 A. C. Simmonett,  A. Sodt,  T. Stein,  D. Stuck,  K. S. Thanthiriwatte,  
 V. Vanovschi,  L. Vogt,  Tao Wang,  A. Warshel,  M. A. Watson,  
 C. F. Williams,  Q. Wu,  X. Xu,  Jun Yang,  W. Zhang,  Yan Zhao

 Please cite Q-Chem as follows:
 Y. Shao et al., Mol. Phys. 113, 184-215 (2015)
 DOI: 10.1080/00268976.2014.952696

 Q-Chem 5.4.0 for Intel X86 EM64T Linux

 Parts of Q-Chem use Armadillo 9.800.1 (Horizon Scraper).
 http://arma.sourceforge.net/

 Q-Chem begins on Sun Jul 10 05:12:25 2022  

 Host: 
0

     Scratch files written to ./qchem1181665//
 May1621 |scratch|qcdevops|jenkins|workspace|build_RNUM    
 Processing $rem in /cm/shared/apps/spack/cpu/opt/spack/linux-centos8-zen2/gcc-10.2.0/qchem-5.4-akfmr7b3t57bfs6qan3padb2wnb2i7cl/config/preferences:
 Processing $rem in /home/theleonzhang/.qchemrc:
 Symmetry turned off for PCM/SM12/SMD calculation
 Core orbitals will be frozen

 Checking the input file for inconsistencies... 	...done.

--------------------------------------------------------------
User input:
--------------------------------------------------------------
$molecule
0 1
C	0.497696	-3.866725	0.594240
C	-0.393981	-3.703963	-0.469057
C	-0.685571	-2.357056	-0.817136
H	-0.837848	-4.561092	-0.997777
C	-0.000000	-1.440664	-0.000000
S	0.992782	-2.286957	1.183137
C	-1.620802	-1.978743	-1.932056
H	-2.035506	-2.878678	-2.426166
H	-1.109943	-1.376015	-2.711806
H	-2.477350	-1.375728	-1.564678
C	0.000000	0.000000	0.000000
C	0.555137	0.661535	1.099446
C	1.444710	1.721658	0.776721
H	0.318072	0.379023	2.136088
C	1.586563	1.890676	-0.612546
S	0.605781	0.721904	-1.486809
C	2.143920	2.554907	1.814609
H	1.870325	2.228851	2.836676
H	1.880882	3.629742	1.726239
H	3.248098	2.482476	1.726228
H	2.196723	2.617806	-1.161575
H	1.406441	-4.392713	0.281143
H	0.031265	-4.392347	1.434879
H	-0.827402	-1.440391	0.694122
$end

$rem
JOBTYPE		SP
EXCHANGE	HF
CORRELATION	pRIMP2
BASIS		cc-pvtz
METHOD		rimp2
AUX_BASIS	rimp2-cc-pvtz
SOLVENT_METHOD	PCM
PURECART	11111
SYMMETRY	false
MEM_TOTAL	110000
SCF_CONVERGENCE = 6
THRESH=10
$end



$solvent
dielectric 4.90
$end
--------------------------------------------------------------
 ----------------------------------------------------------------
             Standard Nuclear Orientation (Angstroms)
    I     Atom           X                Y                Z
 ----------------------------------------------------------------
    1      C       0.4976960000    -3.8667250000     0.5942400000
    2      C      -0.3939810000    -3.7039630000    -0.4690570000
    3      C      -0.6855710000    -2.3570560000    -0.8171360000
    4      H      -0.8378480000    -4.5610920000    -0.9977770000
    5      C       0.0000000000    -1.4406640000     0.0000000000
    6      S       0.9927820000    -2.2869570000     1.1831370000
    7      C      -1.6208020000    -1.9787430000    -1.9320560000
    8      H      -2.0355060000    -2.8786780000    -2.4261660000
    9      H      -1.1099430000    -1.3760150000    -2.7118060000
   10      H      -2.4773500000    -1.3757280000    -1.5646780000
   11      C       0.0000000000     0.0000000000     0.0000000000
   12      C       0.5551370000     0.6615350000     1.0994460000
   13      C       1.4447100000     1.7216580000     0.7767210000
   14      H       0.3180720000     0.3790230000     2.1360880000
   15      C       1.5865630000     1.8906760000    -0.6125460000
   16      S       0.6057810000     0.7219040000    -1.4868090000
   17      C       2.1439200000     2.5549070000     1.8146090000
   18      H       1.8703250000     2.2288510000     2.8366760000
   19      H       1.8808820000     3.6297420000     1.7262390000
   20      H       3.2480980000     2.4824760000     1.7262280000
   21      H       2.1967230000     2.6178060000    -1.1615750000
   22      H       1.4064410000    -4.3927130000     0.2811430000
   23      H       0.0312650000    -4.3923470000     1.4348790000
   24      H      -0.8274020000    -1.4403910000     0.6941220000
 ----------------------------------------------------------------
 Nuclear Repulsion Energy =         885.54143818 hartrees
 There are       52 alpha and       52 beta electrons

 Q-Chem warning in module forms1/BasisType.C, line 2236:

 You are not using the predefined 5D/6D in this basis set.

 Requested basis set is cc-pVTZ
 There are 196 shells and 536 basis functions

 Total QAlloc Memory Limit 110000 MB
 Mega-Array Size       188 MB
 MEM_STATIC part       192 MB
 Discretize the solute cavity surface with Lebedev spheres
	Using 110 Lebedev grid points for each H atom
	Using 194 Lebedev grid points for other atoms
	Atomic van der Waals radii will be scaled by 1.20
 Remove points where switching function is < 1.0e-08
 Keep 1588 surface tesserae and discard 2060 interior tesserae
 Molecular Surface Area = 232.507 Angst**2
 Requested basis set is rimp2-cc-pVTZ
 There are 414 shells and 1414 basis functions
 A cutoff of  1.0D-10 yielded  14092 shell pairs
 There are    102250 function pairs (    131184 Cartesian)
 Smallest overlap matrix eigenvalue = 7.26E-05

 Scale SEOQF with 1.000000e-01/1.000000e-01/1.000000e-01

 Standard Electronic Orientation quadrupole field applied
 Nucleus-field energy     =     0.0000000249 hartrees
 Guess from superposition of atomic densities
 Warning:  Energy on first SCF cycle will be non-variational
 SAD guess density has 104.000000 electrons

 -----------------------------------------------------------------------
  General SCF calculation program by
  Eric Jon Sundstrom, Paul Horn, Yuezhi Mao, Dmitri Zuev, Alec White,
  David Stuck, Shaama M.S., Shane Yost, Joonho Lee, David Small,
  Daniel Levine, Susi Lehtola, Hugh Burton, Evgeny Epifanovsky,
  Bang C. Huynh
 -----------------------------------------------------------------------
 Hartree-Fock
 A restricted SCF calculation will be
 performed using DIIS
 SCF converges when DIIS error is below 1.0e-06
 ---------------------------------------
  Cycle       Energy         DIIS error
 ---------------------------------------
    1   -1186.0710946900      2.40e-02  
    2   -1180.5855898032      1.53e-03  
    3   -1180.7099136116      5.59e-04  
    4   -1180.7230100489      3.13e-04  
    5   -1180.7274336644      5.99e-05  
    6   -1180.7276838375      2.46e-05  
    7   -1180.7277470530      9.83e-06  
    8   -1180.7277632461      4.70e-06  
    9   -1180.7277675153      1.87e-06  
   10   -1180.7277682778      6.78e-07  Convergence criterion met
 ---------------------------------------
 SCF time:   CPU 568.78s  wall 571.00s 

************** Final PCM Free Energy Summary **************
 G_electrostatic  =      -0.00857725 hartree =      -5.38230849 kcal/mol
 G_cavitation     =       0.00000000 hartree =       0.00000000 kcal/mol
 G_dispersion     =       0.00000000 hartree =       0.00000000 kcal/mol
 G_repulsion      =       0.00000000 hartree =       0.00000000 kcal/mol
 --------------------------------------------------
 Non-electrostatic Free Energy =       0.00000000 hartree =       0.00000000 kcal/mol
 Total                         =      -0.00857725 hartree =      -5.38230849 kcal/mol
 --------------------------------------------------
 SCF Energy (H0 + V/2)                       =   -1180.72776828 
 Solute Internal Energy (H0)                 =   -1180.71919102 
 Total Free Energy (H0 + V/2 + non-elec)     =   -1180.72776828 hartree
                                             = -740917.85726699 kcal/mol
***********************************************************

 SCF   energy in the final basis set =    -1180.7277682778
 Total energy in the final basis set =    -1180.7277682778


 --------------------------------------------------------------
  Generalized many-body perturbation theory program
  by Joonho Lee, Fazle Rob, Xintian Feng, Evgeny Epifanovsky

 No regularization used 
 (reg. param. = 0.0000e+00)
  (P|Q)^-1/2 Time:  CPU 1.90 s  wall 1.90 s

 In RI-MP2 calculation: 
 # of frozen core orbitals: 20

 Components of the RIMP2 correlation energy:
        aaaa    correlation energy =        -0.2530334548 a.u.
        abab    correlation energy =        -1.5084648206 a.u.
        bbbb    correlation energy =        -0.2530334548 a.u.
        non-Brillouin singles      =        -0.0000000000 a.u.
        total same-spin energy     =        -0.5060669097 a.u.
        total opposite-spin energy =        -1.5084648206 a.u.

 Total  RIMP2   correlation energy =        -2.0145317303 a.u.
        RIMP2         total energy =     -1182.7423000081 a.u.

 RI-MP2 Energy Time:  CPU 82.47 s  wall 82.76 s
 
 --------------------------------------------------------------
 
                    Orbital Energies (a.u.)
 --------------------------------------------------------------
 
 Alpha MOs
 -- Occupied --
-91.9784 -91.9407 -11.2720 -11.2703 -11.2608 -11.2524 -11.2524 -11.2471
-11.2391 -11.2318 -11.2292 -11.2176  -8.9790  -8.9454  -6.6598  -6.6591
 -6.6586  -6.6267  -6.6257  -6.6244  -1.2005  -1.1538  -1.0582  -1.0263
 -1.0073  -0.9569  -0.9132  -0.9017  -0.8129  -0.7685  -0.7282  -0.6984
 -0.6580  -0.6413  -0.6116  -0.5881  -0.5817  -0.5765  -0.5667  -0.5520
 -0.5399  -0.5350  -0.5152  -0.5088  -0.4883  -0.4686  -0.4580  -0.4462
 -0.3542  -0.3420  -0.3225  -0.2648
 -- Virtual --
  0.0743   0.1335   0.1420   0.1487   0.1589   0.1706   0.1778   0.1835
  0.1924   0.2008   0.2066   0.2094   0.2252   0.2333   0.2393   0.2416
  0.2566   0.2596   0.2764   0.2947   0.3202   0.3296   0.3426   0.3596
  0.3631   0.3765   0.3848   0.3855   0.3971   0.4150   0.4193   0.4246
  0.4290   0.4438   0.4518   0.4618   0.4705   0.4732   0.4832   0.4917
  0.4985   0.5044   0.5214   0.5290   0.5363   0.5435   0.5547   0.5618
  0.5639   0.5772   0.5805   0.5955   0.6025   0.6113   0.6142   0.6188
  0.6223   0.6262   0.6351   0.6367   0.6399   0.6461   0.6488   0.6563
  0.6579   0.6733   0.6839   0.6920   0.7026   0.7051   0.7117   0.7267
  0.7399   0.7484   0.7602   0.7720   0.7783   0.7987   0.8078   0.8186
  0.8323   0.8395   0.8424   0.8594   0.8808   0.8920   0.9009   0.9188
  0.9204   0.9365   0.9593   0.9728   0.9739   0.9857   0.9982   1.0127
  1.0262   1.0336   1.0456   1.0465   1.0575   1.0586   1.0684   1.0817
  1.0905   1.1027   1.1152   1.1175   1.1379   1.1583   1.1627   1.1655
  1.1740   1.1879   1.2031   1.2091   1.2169   1.2214   1.2321   1.2479
  1.2625   1.2662   1.2695   1.2790   1.2818   1.2877   1.3033   1.3096
  1.3193   1.3214   1.3520   1.3579   1.3817   1.3925   1.3960   1.4176
  1.4234   1.4314   1.4392   1.4605   1.4687   1.4714   1.4788   1.4996
  1.5043   1.5097   1.5128   1.5277   1.5316   1.5450   1.5518   1.5590
  1.5666   1.5794   1.5865   1.5969   1.6102   1.6182   1.6301   1.6373
  1.6512   1.6651   1.6698   1.6750   1.7038   1.7266   1.7268   1.7479
  1.7501   1.7616   1.7695   1.7760   1.8176   1.8311   1.8433   1.8472
  1.8666   1.9098   1.9335   1.9531   1.9627   1.9815   1.9857   1.9992
  2.0238   2.0324   2.0509   2.0552   2.1017   2.1192   2.1348   2.1473
  2.1769   2.2018   2.2063   2.2133   2.2375   2.2465   2.2547   2.2687
  2.2909   2.3051   2.3238   2.3767   2.4031   2.4231   2.4421   2.4647
  2.4825   2.5181   2.5327   2.5474   2.5545   2.5801   2.5999   2.6236
  2.6326   2.6454   2.6614   2.6682   2.6787   2.6975   2.6982   2.7197
  2.7400   2.7482   2.7650   2.7784   2.7834   2.7986   2.8084   2.8226
  2.8318   2.8442   2.8704   2.8743   2.8999   2.9146   2.9210   2.9321
  2.9498   2.9671   2.9725   2.9888   2.9955   3.0151   3.0259   3.0396
  3.0439   3.0749   3.0928   3.1075   3.1121   3.1245   3.1280   3.1373
  3.1533   3.1634   3.1697   3.1766   3.1893   3.1961   3.1993   3.2049
  3.2246   3.2290   3.2472   3.2551   3.2600   3.2740   3.2873   3.2941
  3.3114   3.3217   3.3316   3.3340   3.3420   3.3528   3.3599   3.3693
  3.3826   3.3865   3.3961   3.3993   3.4063   3.4098   3.4213   3.4301
  3.4349   3.4494   3.4604   3.4708   3.4801   3.4971   3.5043   3.5111
  3.5231   3.5348   3.5380   3.5514   3.5550   3.5645   3.5788   3.5897
  3.5998   3.6063   3.6234   3.6300   3.6336   3.6376   3.6460   3.6682
  3.6812   3.6947   3.7024   3.7094   3.7196   3.7294   3.7381   3.7506
  3.7577   3.7650   3.7673   3.7828   3.7958   3.8105   3.8144   3.8227
  3.8321   3.8347   3.8543   3.8647   3.8756   3.8901   3.8919   3.9176
  3.9340   3.9463   3.9599   3.9643   3.9716   3.9948   4.0051   4.0133
  4.0244   4.0345   4.0478   4.0638   4.0750   4.0901   4.0909   4.1213
  4.1321   4.1391   4.1427   4.1521   4.1635   4.1843   4.1951   4.1955
  4.2116   4.2256   4.2293   4.2430   4.2541   4.2683   4.2715   4.2831
  4.2868   4.3013   4.3223   4.3388   4.3484   4.3510   4.3533   4.3669
  4.3732   4.3916   4.4026   4.4039   4.4174   4.4228   4.4386   4.4540
  4.4596   4.4697   4.4735   4.4800   4.5132   4.5214   4.5504   4.5773
  4.5797   4.5883   4.6156   4.6302   4.6346   4.6572   4.6627   4.6698
  4.7035   4.7247   4.7276   4.7462   4.7797   4.8067   4.8212   4.8438
  4.8619   4.8833   4.8905   4.9066   4.9192   4.9367   4.9517   4.9799
  5.0227   5.0462   5.0642   5.1028   5.1203   5.1293   5.1427   5.1632
  5.1851   5.2197   5.2374   5.2691   5.2774   5.2992   5.3110   5.3135
  5.3348   5.3684   5.3792   5.3929   5.4110   5.4161   5.4404   5.4529
  5.4768   5.5076   5.5277   5.5397   5.5541   5.5634   5.5707   5.5969
  5.6260   5.6333   5.6479   5.6637   5.6712   5.6908   5.7118   5.7334
  5.7629   5.7901   5.8234   5.9686   6.0334   6.0555   6.1096   6.1261
  6.2098   6.2154   6.2280   6.2332   6.2427   6.2790   6.2904   6.3111
  6.3848   6.4293   9.5566  10.5522  12.3546  12.8862  13.1825  13.8492
 14.1098  14.2434  14.2618  14.6732
 --------------------------------------------------------------
 
          Ground-State Mulliken Net Atomic Charges

     Atom                 Charge (a.u.)
  ----------------------------------------
      1 C                    -0.081949
      2 C                    -0.325093
      3 C                    -0.049937
      4 H                     0.175760
      5 C                     0.091681
      6 S                    -0.180511
      7 C                    -0.284693
      8 H                     0.116353
      9 H                     0.109230
     10 H                     0.106447
     11 C                    -0.058260
     12 C                    -0.281846
     13 C                     0.045869
     14 H                     0.191964
     15 C                    -0.230433
     16 S                     0.010389
     17 C                    -0.268366
     18 H                     0.102960
     19 H                     0.108048
     20 H                     0.108558
     21 H                     0.196379
     22 H                     0.110642
     23 H                     0.108200
     24 H                     0.178610
  ----------------------------------------
  Sum of atomic charges =     0.000000

 -----------------------------------------------------------------
                    Cartesian Multipole Moments
 -----------------------------------------------------------------
    Charge (ESU x 10^10)
                -0.0000
    Dipole Moment (Debye)
         X      -0.7820      Y       0.4805      Z       0.3642
       Tot       0.9874
    Quadrupole Moments (Debye-Ang)
        XX     -87.2898     XY       9.0311     YY     -78.4295
        XZ       0.8712     YZ       2.7312     ZZ     -85.4244
    Octopole Moments (Debye-Ang^2)
       XXX    -127.3050    XXY      74.8326    XYY     -31.6846
       YYY     157.1156    XXZ      -4.4340    XYZ      -3.8118
       YYZ      -0.6343    XZZ     -43.2487    YZZ      66.6637
       ZZZ       3.8230
    Hexadecapole Moments (Debye-Ang^3)
      XXXX    -777.3885   XXXY    -215.1768   XXYY    -550.2455
      XYYY    -210.2976   YYYY   -2463.6226   XXXZ    -205.0292
      XXYZ     -17.0247   XYYZ     -58.1211   YYYZ     -80.8488
      XXZZ    -268.7258   XYZZ     -53.2181   YYZZ    -576.9934
      XZZZ    -198.7230   YZZZ     -58.8620   ZZZZ    -871.9150
 -----------------------------------------------------------------
 Total job time:  655.64s(wall), 652.19s(cpu) 
 Sun Jul 10 05:23:20 2022

        *************************************************************
        *                                                           *
        *  Thank you very much for using Q-Chem.  Have a nice day.  *
        *                                                           *
        *************************************************************


remove work dirs ./qchem1181665.0 -- ./qchem1181665.-1
rm -rf ./qchem1181665
