You are running Q-Chem version: 5.4.0

#
# job setting
#
local host:  exp-1-41
current dir: /expanse/lustre/scratch/theleonzhang/temp_project/Hydrogenated_Rotation_Test
input file:  Methylthiophene_Phi_40_Theta_230_Methylthiophene_Hydrogenated.qcin
output file: 
nprocs     : 0
nthreads   : 1
#
# qchem installation setting
#
QC:          /cm/shared/apps/spack/cpu/opt/spack/linux-centos8-zen2/gcc-10.2.0/qchem-5.4-akfmr7b3t57bfs6qan3padb2wnb2i7cl
QCAUX:       /cm/shared/apps/spack/cpu/opt/spack/linux-centos8-zen2/gcc-10.2.0/qchem-5.4-akfmr7b3t57bfs6qan3padb2wnb2i7cl/qcaux
QCPROG:      /cm/shared/apps/spack/cpu/opt/spack/linux-centos8-zen2/gcc-10.2.0/qchem-5.4-akfmr7b3t57bfs6qan3padb2wnb2i7cl/exe/qcprog.exe_s
QCPROG_S:    /cm/shared/apps/spack/cpu/opt/spack/linux-centos8-zen2/gcc-10.2.0/qchem-5.4-akfmr7b3t57bfs6qan3padb2wnb2i7cl/exe/qcprog.exe_s
PARALLEL:    -DSERIAL
QCMPI:       mpich
#
# qchem directory setting
#
qcrun:       qchem1142430
QCSCRATCH:   .
QCLOCALSCR:  
QCTMPDIR:    .
QCFILEPREF:  ./qchem1142430
QCSAVEDIR:   
workdirs:    ./qchem1142430
workdir0:    ./qchem1142430
partmpdirs =  
#
# parallel setting
#
QCRSH:           ssh
QCMPI:           mpich
QCMPIRUN:        /cm/shared/apps/spack/cpu/opt/spack/linux-centos8-zen2/gcc-10.2.0/qchem-5.4-akfmr7b3t57bfs6qan3padb2wnb2i7cl/bin/mpi/mpirun_qchem
QCMACHINEFILE:   ./qchem1142430/hostfile

#
# env setting
#
exported envs:   QC QCAUX QCSCRATCH QCRUNNAME QCFILEPREF QCPROG QCPROG_S GUIFILE

Running Job 1 of 1 Methylthiophene_Phi_40_Theta_230_Methylthiophene_Hydrogenated.qcin
qchem Methylthiophene_Phi_40_Theta_230_Methylthiophene_Hydrogenated.qcin_1142430.0 ./qchem1142430/ 0
/cm/shared/apps/spack/cpu/opt/spack/linux-centos8-zen2/gcc-10.2.0/qchem-5.4-akfmr7b3t57bfs6qan3padb2wnb2i7cl/exe/qcprog.exe_s Methylthiophene_Phi_40_Theta_230_Methylthiophene_Hydrogenated.qcin_1142430.0 ./qchem1142430/
                  Welcome to Q-Chem
     A Quantum Leap Into The Future Of Chemistry


 Q-Chem 5.4, Q-Chem, Inc., Pleasanton, CA (2021)

 License issued to: University of California, San Diego (site)

 E. Epifanovsky,  A. T. B. Gilbert,  Xintian Feng,  Joonho Lee,  Yuezhi Mao,  
 N. Mardirossian,  P. Pokhilko,  A. White,  M. Wormit,  M. P. Coons,  
 A. L. Dempwolff,  Zhengting Gan,  D. Hait,  P. R. Horn,  L. D. Jacobson,  
 I. Kaliman,  J. Kussmann,  A. W. Lange,  Ka Un Lao,  D. S. Levine,  Jie Liu,  
 S. C. McKenzie,  A. F. Morrison,  K. Nanda,  F. Plasser,  D. R. Rehn,  
 M. L. Vidal,  Zhi-Qiang You,  Ying Zhu,  B. Alam,  B. Albrecht,  
 A. Aldossary,  E. Alguire,  J. H. Andersen,  D. Barton,  K. Begam,  A. Behn,  
 Y. A. Bernard,  E. J. Berquist,  H. Burton,  A. Carreras,  K. Carter-Fenk,  
 R. Chakraborty,  A. D. Chien,  K. D. Closser,  V. Cofer-Shabica,  
 S. Dasgupta,  Jia Deng,  M. de Wergifosse,  M. Diedenhofen,  Hainam Do,  
 S. Ehlert,  Po-Tung Fang,  S. Fatehi,  Qingguo Feng,  J. Gayvert,  
 Qinghui Ge,  G. Gidofalvi,  M. Goldey,  J. Gomes,  C. Gonzalez-Espinoza,  
 S. Gulania,  A. Gunina,  M. W. D. Hanson-Heine,  P. H. P. Harbach,  
 A. W. Hauser,  M. F. Herbst,  M. Hernandez Vera,  M. Hodecker,  
 Z. C. Holden,  S. Houck,  Xunkun Huang,  Kerwin Hui,  B. C. Huynh,  
 M. Ivanov,  Hyunjun Ji,  Hanjie Jiang,  B. Kaduk,  S. Kaehler,  
 K. Khistyaev,  Jaehoon Kim,  P. Klunzinger,  Z. Koczor-Benda,  
 Joong Hoon Koh,  D. Kosenkov,  L. Koulias,  T. Kowalczyk,  C. M. Krauter,  
 K. Kue,  A. Kunitsa,  T. Kus,  A. Landau,  K. V. Lawler,  D. Lefrancois,  
 S. Lehtola,  Rain Li,  Yi-Pei Li,  Jiashu Liang,  M. Liebenthal,  
 Hung-Hsuan Lin,  You-Sheng Lin,  Fenglai Liu,  Kuan-Yu Liu,  
 M. Loipersberger,  A. Luenser,  A. Manjanath,  P. Manohar,  E. Mansoor,  
 S. F. Manzer,  Shan-Ping Mao,  A. V. Marenich,  T. Markovich,  S. Mason,  
 S. A. Maurer,  P. F. McLaughlin,  M. F. S. J. Menger,  J.-M. Mewes,  
 S. A. Mewes,  P. Morgante,  J. W. Mullinax,  T. S. Nguyen-Beck,  
 K. J. Oosterbaan,  G. Paran,  Alexander C. Paul,  Suranjan K. Paul,  
 F. Pavosevic,  Zheng Pei,  S. Prager,  E. I. Proynov,  E. Ramos,  B. Rana,  
 A. E. Rask,  A. Rettig,  R. M. Richard,  F. Rob,  E. Rossomme,  T. Scheele,  
 M. Scheurer,  M. Schneider,  N. Sergueev,  S. M. Sharada,  W. Skomorowski,  
 D. W. Small,  C. J. Stein,  Yu-Chuan Su,  E. J. Sundstrom,  Zhen Tao,  
 J. Thirman,  T. Tsuchimochi,  N. M. Tubman,  S. P. Veccham,  O. Vydrov,  
 J. Wenzel,  J. Witte,  A. Yamada,  Kun Yao,  S. Yeganeh,  S. R. Yost,  
 A. Zech,  Igor Ying Zhang,  Xing Zhang,  Yu Zhang,  D. Zuev,  
 A. Aspuru-Guzik,  A. T. Bell,  N. A. Besley,  K. B. Bravaya,  B. R. Brooks,  
 D. Casanova,  Jeng-Da Chai,  S. Coriani,  C. J. Cramer,  
 A. E. DePrince, III,  R. A. DiStasio Jr.,  A. Dreuw,  B. D. Dunietz,  
 T. R. Furlani,  W. A. Goddard III,  S. Grimme,  S. Hammes-Schiffer,  
 T. Head-Gordon,  W. J. Hehre,  Chao-Ping Hsu,  T.-C. Jagau,  Yousung Jung,  
 A. Klamt,  Jing Kong,  D. S. Lambrecht,  WanZhen Liang,  N. J. Mayhall,  
 C. W. McCurdy,  J. B. Neaton,  C. Ochsenfeld,  J. A. Parkhill,  R. Peverati,  
 V. A. Rassolov,  Yihan Shao,  L. V. Slipchenko,  T. Stauch,  R. P. Steele,  
 J. E. Subotnik,  A. J. W. Thom,  A. Tkatchenko,  D. G. Truhlar,  
 T. Van Voorhis,  T. A. Wesolowski,  K. B. Whaley,  H. L. Woodcock III,  
 P. M. Zimmerman,  S. Faraji,  P. M. W. Gill,  M. Head-Gordon,  
 J. M. Herbert,  A. I. Krylov

 Contributors to earlier versions of Q-Chem not listed above: 
 R. D. Adamson,  B. Austin,  R. Baer,  J. Baker,  G. J. O. Beran,  
 K. Brandhorst,  S. T. Brown,  E. F. C. Byrd,  A. K. Chakraborty,  
 G. K. L. Chan,  Chun-Min Chang,  Yunqing Chen,  C.-L. Cheng,  
 Siu Hung Chien,  D. M. Chipman,  D. L. Crittenden,  H. Dachsel,  
 R. J. Doerksen,  A. D. Dutoi,  R. G. Edgar,  J. Fosso-Tande,  
 L. Fusti-Molnar,  D. Ghosh,  A. Ghysels,  A. Golubeva-Zadorozhnaya,  
 J. Gonthier,  M. S. Gordon,  S. R. Gwaltney,  G. Hawkins,  J. E. Herr,  
 A. Heyden,  S. Hirata,  E. G. Hohenstein,  G. Kedziora,  F. J. Keil,  
 C. Kelley,  Jihan Kim,  R. A. King,  R. Z. Khaliullin,  P. P. Korambath,  
 W. Kurlancheek,  A. Laurent,  A. M. Lee,  M. S. Lee,  S. V. Levchenko,  
 Ching Yeh Lin,  D. Liotard,  E. Livshits,  R. C. Lochan,  I. Lotan,  
 L. A. Martinez-Martinez,  P. E. Maslen,  N. Nair,  D. P. O'Neill,  
 D. Neuhauser,  E. Neuscamman,  C. M. Oana,  R. Olivares-Amaya,  R. Olson,  
 T. M. Perrine,  B. Peters,  P. A. Pieniazek,  A. Prociuk,  Y. M. Rhee,  
 J. Ritchie,  M. A. Rohrdanz,  E. Rosta,  N. J. Russ,  H. F. Schaefer III,  
 M. W. Schmidt,  N. E. Schultz,  S. Sharma,  N. Shenvi,  C. D. Sherrill,  
 A. C. Simmonett,  A. Sodt,  T. Stein,  D. Stuck,  K. S. Thanthiriwatte,  
 V. Vanovschi,  L. Vogt,  Tao Wang,  A. Warshel,  M. A. Watson,  
 C. F. Williams,  Q. Wu,  X. Xu,  Jun Yang,  W. Zhang,  Yan Zhao

 Please cite Q-Chem as follows:
 Y. Shao et al., Mol. Phys. 113, 184-215 (2015)
 DOI: 10.1080/00268976.2014.952696

 Q-Chem 5.4.0 for Intel X86 EM64T Linux

 Parts of Q-Chem use Armadillo 9.800.1 (Horizon Scraper).
 http://arma.sourceforge.net/

 Q-Chem begins on Sun Jul 10 03:33:59 2022  

 Host: 
0

     Scratch files written to ./qchem1142430//
 May1621 |scratch|qcdevops|jenkins|workspace|build_RNUM    
 Processing $rem in /cm/shared/apps/spack/cpu/opt/spack/linux-centos8-zen2/gcc-10.2.0/qchem-5.4-akfmr7b3t57bfs6qan3padb2wnb2i7cl/config/preferences:
 Processing $rem in /home/theleonzhang/.qchemrc:
 Symmetry turned off for PCM/SM12/SMD calculation
 Core orbitals will be frozen

 Checking the input file for inconsistencies... 	...done.

--------------------------------------------------------------
User input:
--------------------------------------------------------------
$molecule
0 1
C	0.594240	-3.866725	-0.497696
C	-0.469057	-3.703963	0.393981
C	-0.817136	-2.357056	0.685571
H	-0.997777	-4.561092	0.837848
C	-0.000000	-1.440664	-0.000000
S	1.183137	-2.286957	-0.992782
C	-1.932056	-1.978743	1.620802
H	-2.426166	-2.878678	2.035506
H	-2.711806	-1.376015	1.109943
H	-1.564678	-1.375728	2.477350
C	0.000000	0.000000	0.000000
C	0.555137	0.661535	1.099446
C	1.444710	1.721658	0.776721
H	0.318072	0.379023	2.136088
C	1.586563	1.890676	-0.612546
S	0.605781	0.721904	-1.486809
C	2.143920	2.554907	1.814609
H	1.870325	2.228851	2.836676
H	1.880882	3.629742	1.726239
H	3.248098	2.482476	1.726228
H	2.196723	2.617806	-1.161575
H	0.281143	-4.392713	-1.406441
H	1.434879	-4.392347	-0.031265
H	-0.694122	-1.440937	-0.827402
$end

$rem
JOBTYPE		SP
EXCHANGE	HF
CORRELATION	pRIMP2
BASIS		cc-pvtz
METHOD		rimp2
AUX_BASIS	rimp2-cc-pvtz
SOLVENT_METHOD	PCM
PURECART	11111
SYMMETRY	false
MEM_TOTAL	110000
SCF_CONVERGENCE = 6
THRESH=10
$end



$solvent
dielectric 4.90
$end
--------------------------------------------------------------
 ----------------------------------------------------------------
             Standard Nuclear Orientation (Angstroms)
    I     Atom           X                Y                Z
 ----------------------------------------------------------------
    1      C       0.5942400000    -3.8667250000    -0.4976960000
    2      C      -0.4690570000    -3.7039630000     0.3939810000
    3      C      -0.8171360000    -2.3570560000     0.6855710000
    4      H      -0.9977770000    -4.5610920000     0.8378480000
    5      C       0.0000000000    -1.4406640000     0.0000000000
    6      S       1.1831370000    -2.2869570000    -0.9927820000
    7      C      -1.9320560000    -1.9787430000     1.6208020000
    8      H      -2.4261660000    -2.8786780000     2.0355060000
    9      H      -2.7118060000    -1.3760150000     1.1099430000
   10      H      -1.5646780000    -1.3757280000     2.4773500000
   11      C       0.0000000000     0.0000000000     0.0000000000
   12      C       0.5551370000     0.6615350000     1.0994460000
   13      C       1.4447100000     1.7216580000     0.7767210000
   14      H       0.3180720000     0.3790230000     2.1360880000
   15      C       1.5865630000     1.8906760000    -0.6125460000
   16      S       0.6057810000     0.7219040000    -1.4868090000
   17      C       2.1439200000     2.5549070000     1.8146090000
   18      H       1.8703250000     2.2288510000     2.8366760000
   19      H       1.8808820000     3.6297420000     1.7262390000
   20      H       3.2480980000     2.4824760000     1.7262280000
   21      H       2.1967230000     2.6178060000    -1.1615750000
   22      H       0.2811430000    -4.3927130000    -1.4064410000
   23      H       1.4348790000    -4.3923470000    -0.0312650000
   24      H      -0.6941220000    -1.4409370000    -0.8274020000
 ----------------------------------------------------------------
 Nuclear Repulsion Energy =         886.28392746 hartrees
 There are       52 alpha and       52 beta electrons

 Q-Chem warning in module forms1/BasisType.C, line 2236:

 You are not using the predefined 5D/6D in this basis set.

 Requested basis set is cc-pVTZ
 There are 196 shells and 536 basis functions

 Total QAlloc Memory Limit 110000 MB
 Mega-Array Size       188 MB
 MEM_STATIC part       192 MB
 Discretize the solute cavity surface with Lebedev spheres
	Using 110 Lebedev grid points for each H atom
	Using 194 Lebedev grid points for other atoms
	Atomic van der Waals radii will be scaled by 1.20
 Remove points where switching function is < 1.0e-08
 Keep 1597 surface tesserae and discard 2051 interior tesserae
 Molecular Surface Area = 234.153 Angst**2
 Requested basis set is rimp2-cc-pVTZ
 There are 414 shells and 1414 basis functions
 A cutoff of  1.0D-10 yielded  14143 shell pairs
 There are    102405 function pairs (    131299 Cartesian)
 Smallest overlap matrix eigenvalue = 7.49E-05

 Scale SEOQF with 1.000000e-01/1.000000e-01/1.000000e-01

 Standard Electronic Orientation quadrupole field applied
 Nucleus-field energy     =     0.0000000277 hartrees
 Guess from superposition of atomic densities
 Warning:  Energy on first SCF cycle will be non-variational
 SAD guess density has 104.000000 electrons

 -----------------------------------------------------------------------
  General SCF calculation program by
  Eric Jon Sundstrom, Paul Horn, Yuezhi Mao, Dmitri Zuev, Alec White,
  David Stuck, Shaama M.S., Shane Yost, Joonho Lee, David Small,
  Daniel Levine, Susi Lehtola, Hugh Burton, Evgeny Epifanovsky,
  Bang C. Huynh
 -----------------------------------------------------------------------
 Hartree-Fock
 A restricted SCF calculation will be
 performed using DIIS
 SCF converges when DIIS error is below 1.0e-06
 ---------------------------------------
  Cycle       Energy         DIIS error
 ---------------------------------------
    1   -1186.0739158511      2.40e-02  
    2   -1180.5801242750      1.55e-03  
    3   -1180.7056949705      5.67e-04  
    4   -1180.7192128146      3.03e-04  
    5   -1180.7234716731      6.11e-05  
    6   -1180.7237281608      2.52e-05  
    7   -1180.7237958416      1.05e-05  
    8   -1180.7238137559      4.95e-06  
    9   -1180.7238183887      1.85e-06  
   10   -1180.7238191320      6.25e-07  Convergence criterion met
 ---------------------------------------
 SCF time:   CPU 567.97s  wall 571.00s 

************** Final PCM Free Energy Summary **************
 G_electrostatic  =      -0.00958445 hartree =      -6.01433461 kcal/mol
 G_cavitation     =       0.00000000 hartree =       0.00000000 kcal/mol
 G_dispersion     =       0.00000000 hartree =       0.00000000 kcal/mol
 G_repulsion      =       0.00000000 hartree =       0.00000000 kcal/mol
 --------------------------------------------------
 Non-electrostatic Free Energy =       0.00000000 hartree =       0.00000000 kcal/mol
 Total                         =      -0.00958445 hartree =      -6.01433461 kcal/mol
 --------------------------------------------------
 SCF Energy (H0 + V/2)                       =   -1180.72381913 
 Solute Internal Energy (H0)                 =   -1180.71423468 
 Total Free Energy (H0 + V/2 + non-elec)     =   -1180.72381913 hartree
                                             = -740915.37914059 kcal/mol
***********************************************************

 SCF   energy in the final basis set =    -1180.7238191320
 Total energy in the final basis set =    -1180.7238191320


 --------------------------------------------------------------
  Generalized many-body perturbation theory program
  by Joonho Lee, Fazle Rob, Xintian Feng, Evgeny Epifanovsky

 No regularization used 
 (reg. param. = 0.0000e+00)
  (P|Q)^-1/2 Time:  CPU 1.89 s  wall 1.89 s

 In RI-MP2 calculation: 
 # of frozen core orbitals: 20

 Components of the RIMP2 correlation energy:
        aaaa    correlation energy =        -0.2526367802 a.u.
        abab    correlation energy =        -1.5079956747 a.u.
        bbbb    correlation energy =        -0.2526367802 a.u.
        non-Brillouin singles      =        -0.0000000000 a.u.
        total same-spin energy     =        -0.5052735605 a.u.
        total opposite-spin energy =        -1.5079956747 a.u.

 Total  RIMP2   correlation energy =        -2.0132692352 a.u.
        RIMP2         total energy =     -1182.7370883671 a.u.

 RI-MP2 Energy Time:  CPU 79.85 s  wall 80.06 s
 
 --------------------------------------------------------------
 
                    Orbital Energies (a.u.)
 --------------------------------------------------------------
 
 Alpha MOs
 -- Occupied --
-91.9834 -91.9383 -11.2737 -11.2669 -11.2604 -11.2512 -11.2507 -11.2451
-11.2374 -11.2312 -11.2290 -11.2155  -8.9836  -8.9430  -6.6645  -6.6639
 -6.6634  -6.6243  -6.6233  -6.6220  -1.1992  -1.1535  -1.0572  -1.0280
 -0.9991  -0.9645  -0.9101  -0.9007  -0.8131  -0.7565  -0.7439  -0.7033
 -0.6514  -0.6327  -0.6111  -0.5885  -0.5815  -0.5700  -0.5660  -0.5524
 -0.5426  -0.5322  -0.5121  -0.5066  -0.4882  -0.4732  -0.4631  -0.4447
 -0.3541  -0.3389  -0.3201  -0.2668
 -- Virtual --
  0.0740   0.1301   0.1410   0.1539   0.1609   0.1680   0.1782   0.1834
  0.1897   0.2042   0.2061   0.2179   0.2243   0.2347   0.2382   0.2425
  0.2477   0.2601   0.2779   0.2956   0.3147   0.3384   0.3478   0.3533
  0.3569   0.3729   0.3779   0.3900   0.3945   0.3993   0.4155   0.4259
  0.4357   0.4373   0.4470   0.4614   0.4688   0.4768   0.4836   0.4864
  0.5013   0.5101   0.5169   0.5282   0.5369   0.5402   0.5555   0.5626
  0.5719   0.5830   0.5871   0.5934   0.5985   0.6064   0.6115   0.6171
  0.6213   0.6321   0.6348   0.6368   0.6373   0.6408   0.6501   0.6621
  0.6631   0.6702   0.6894   0.6973   0.7033   0.7094   0.7139   0.7192
  0.7344   0.7453   0.7549   0.7668   0.7929   0.7942   0.7971   0.8137
  0.8265   0.8389   0.8613   0.8683   0.8845   0.8883   0.9013   0.9092
  0.9140   0.9465   0.9479   0.9617   0.9692   0.9868   1.0051   1.0088
  1.0263   1.0333   1.0431   1.0470   1.0492   1.0726   1.0769   1.0841
  1.0908   1.1004   1.1110   1.1259   1.1467   1.1595   1.1708   1.1747
  1.1795   1.1895   1.1941   1.2069   1.2205   1.2281   1.2318   1.2446
  1.2480   1.2593   1.2630   1.2748   1.2789   1.2867   1.3001   1.3203
  1.3239   1.3285   1.3456   1.3589   1.3736   1.3835   1.4046   1.4108
  1.4272   1.4310   1.4446   1.4505   1.4665   1.4784   1.4868   1.4925
  1.5138   1.5159   1.5180   1.5310   1.5342   1.5481   1.5524   1.5568
  1.5709   1.5753   1.5819   1.5924   1.6092   1.6255   1.6317   1.6414
  1.6580   1.6698   1.6789   1.6874   1.6983   1.7177   1.7249   1.7349
  1.7497   1.7558   1.7708   1.7766   1.8048   1.8174   1.8367   1.8471
  1.8774   1.8919   1.9048   1.9425   1.9468   1.9680   1.9921   1.9987
  2.0334   2.0392   2.0561   2.0760   2.0944   2.1088   2.1185   2.1608
  2.1758   2.1996   2.2088   2.2254   2.2399   2.2424   2.2612   2.2823
  2.2953   2.3209   2.3281   2.3713   2.4049   2.4204   2.4535   2.4718
  2.4877   2.5108   2.5337   2.5558   2.5664   2.5851   2.6022   2.6254
  2.6304   2.6332   2.6570   2.6686   2.6789   2.6876   2.7023   2.7340
  2.7394   2.7478   2.7662   2.7746   2.7888   2.7968   2.8151   2.8212
  2.8356   2.8419   2.8594   2.8941   2.9003   2.9090   2.9181   2.9266
  2.9363   2.9565   2.9811   2.9987   3.0035   3.0236   3.0273   3.0388
  3.0578   3.0725   3.0845   3.1058   3.1114   3.1137   3.1331   3.1388
  3.1498   3.1569   3.1604   3.1788   3.1837   3.1913   3.1971   3.2166
  3.2300   3.2472   3.2487   3.2501   3.2683   3.2755   3.2992   3.3056
  3.3247   3.3271   3.3323   3.3440   3.3471   3.3617   3.3640   3.3728
  3.3798   3.3850   3.3914   3.4007   3.4106   3.4143   3.4209   3.4250
  3.4416   3.4545   3.4622   3.4679   3.4826   3.4945   3.5082   3.5147
  3.5159   3.5247   3.5373   3.5399   3.5470   3.5656   3.5758   3.5898
  3.6031   3.6162   3.6248   3.6319   3.6338   3.6479   3.6522   3.6683
  3.6719   3.6915   3.6971   3.7127   3.7200   3.7263   3.7362   3.7421
  3.7504   3.7537   3.7679   3.7781   3.7889   3.7964   3.8035   3.8057
  3.8396   3.8434   3.8532   3.8754   3.8793   3.8922   3.9074   3.9195
  3.9379   3.9456   3.9519   3.9706   3.9838   3.9885   3.9985   4.0165
  4.0299   4.0533   4.0570   4.0595   4.0645   4.0844   4.0934   4.1072
  4.1203   4.1266   4.1492   4.1521   4.1553   4.1637   4.1859   4.1965
  4.2080   4.2188   4.2289   4.2543   4.2620   4.2684   4.2765   4.2846
  4.2949   4.3041   4.3146   4.3316   4.3451   4.3610   4.3662   4.3780
  4.3849   4.3981   4.4010   4.4046   4.4136   4.4225   4.4433   4.4531
  4.4564   4.4653   4.4739   4.4769   4.4885   4.5108   4.5317   4.5602
  4.5681   4.5940   4.5989   4.6144   4.6298   4.6574   4.6593   4.6693
  4.6988   4.7183   4.7316   4.7452   4.7619   4.8119   4.8369   4.8538
  4.8723   4.8833   4.8899   4.9131   4.9210   4.9407   4.9750   4.9887
  5.0141   5.0388   5.0751   5.0942   5.1131   5.1267   5.1532   5.1651
  5.1860   5.2007   5.2339   5.2675   5.2775   5.3012   5.3093   5.3253
  5.3391   5.3658   5.3793   5.4011   5.4066   5.4192   5.4415   5.4472
  5.4825   5.5134   5.5343   5.5360   5.5507   5.5599   5.5718   5.5912
  5.6172   5.6241   5.6288   5.6709   5.6819   5.6936   5.7147   5.7436
  5.7653   5.7856   5.8207   5.9720   6.0105   6.0492   6.1129   6.1529
  6.2170   6.2203   6.2269   6.2367   6.2500   6.2856   6.2901   6.3140
  6.3730   6.4124   9.3701  10.5390  12.3694  12.8852  13.1773  13.9793
 14.0625  14.2071  14.2697  14.5814
 --------------------------------------------------------------
 
          Ground-State Mulliken Net Atomic Charges

     Atom                 Charge (a.u.)
  ----------------------------------------
      1 C                    -0.081861
      2 C                    -0.328388
      3 C                    -0.048331
      4 H                     0.173784
      5 C                     0.068132
      6 S                    -0.171233
      7 C                    -0.275772
      8 H                     0.113997
      9 H                     0.104559
     10 H                     0.103371
     11 C                    -0.119266
     12 C                    -0.173253
     13 C                     0.004479
     14 H                     0.193198
     15 C                    -0.204684
     16 S                     0.008139
     17 C                    -0.270358
     18 H                     0.101596
     19 H                     0.107486
     20 H                     0.107409
     21 H                     0.199924
     22 H                     0.106758
     23 H                     0.110753
     24 H                     0.169561
  ----------------------------------------
  Sum of atomic charges =     0.000000

 -----------------------------------------------------------------
                    Cartesian Multipole Moments
 -----------------------------------------------------------------
    Charge (ESU x 10^10)
                -0.0000
    Dipole Moment (Debye)
         X      -0.7458      Y       0.8711      Z       2.3947
       Tot       2.6551
    Quadrupole Moments (Debye-Ang)
        XX     -87.2902     XY       9.3509     YY     -79.1170
        XZ       0.2914     YZ      -0.6093     ZZ     -85.2324
    Octopole Moments (Debye-Ang^2)
       XXX    -128.1915    XXY      74.8327    XYY     -30.8315
       YYY     161.9960    XXZ       0.4535    XYZ       0.6593
       YYZ      -5.5519    XZZ     -41.5083    YZZ      68.2923
       ZZZ       2.9076
    Hexadecapole Moments (Debye-Ang^3)
      XXXX    -877.0945   XXXY    -207.7997   XXYY    -563.2631
      XYYY    -210.1145   YYYY   -2478.9019   XXXZ      73.2119
      XXYZ     -45.3204   XYYZ       3.3795   YYYZ     -77.0911
      XXZZ    -268.4513   XYZZ     -57.0915   YYZZ    -567.2096
      XZZZ      76.2997   YZZZ     -80.1031   ZZZZ    -773.2494
 -----------------------------------------------------------------
 Total job time:  652.73s(wall), 648.73s(cpu) 
 Sun Jul 10 03:44:52 2022

        *************************************************************
        *                                                           *
        *  Thank you very much for using Q-Chem.  Have a nice day.  *
        *                                                           *
        *************************************************************


remove work dirs ./qchem1142430.0 -- ./qchem1142430.-1
rm -rf ./qchem1142430
