You are running Q-Chem version: 5.4.0

#
# job setting
#
local host:  exp-2-07
current dir: /expanse/lustre/scratch/theleonzhang/temp_project/Hydrogenated_Rotation_Test
input file:  Methylthiophene_Phi_30_Theta_270_Methylthiophene_Hydrogenated.qcin
output file: 
nprocs     : 0
nthreads   : 1
#
# qchem installation setting
#
QC:          /cm/shared/apps/spack/cpu/opt/spack/linux-centos8-zen2/gcc-10.2.0/qchem-5.4-akfmr7b3t57bfs6qan3padb2wnb2i7cl
QCAUX:       /cm/shared/apps/spack/cpu/opt/spack/linux-centos8-zen2/gcc-10.2.0/qchem-5.4-akfmr7b3t57bfs6qan3padb2wnb2i7cl/qcaux
QCPROG:      /cm/shared/apps/spack/cpu/opt/spack/linux-centos8-zen2/gcc-10.2.0/qchem-5.4-akfmr7b3t57bfs6qan3padb2wnb2i7cl/exe/qcprog.exe_s
QCPROG_S:    /cm/shared/apps/spack/cpu/opt/spack/linux-centos8-zen2/gcc-10.2.0/qchem-5.4-akfmr7b3t57bfs6qan3padb2wnb2i7cl/exe/qcprog.exe_s
PARALLEL:    -DSERIAL
QCMPI:       mpich
#
# qchem directory setting
#
qcrun:       qchem811218
QCSCRATCH:   .
QCLOCALSCR:  
QCTMPDIR:    .
QCFILEPREF:  ./qchem811218
QCSAVEDIR:   
workdirs:    ./qchem811218
workdir0:    ./qchem811218
partmpdirs =  
#
# parallel setting
#
QCRSH:           ssh
QCMPI:           mpich
QCMPIRUN:        /cm/shared/apps/spack/cpu/opt/spack/linux-centos8-zen2/gcc-10.2.0/qchem-5.4-akfmr7b3t57bfs6qan3padb2wnb2i7cl/bin/mpi/mpirun_qchem
QCMACHINEFILE:   ./qchem811218/hostfile

#
# env setting
#
exported envs:   QC QCAUX QCSCRATCH QCRUNNAME QCFILEPREF QCPROG QCPROG_S GUIFILE

Running Job 1 of 1 Methylthiophene_Phi_30_Theta_270_Methylthiophene_Hydrogenated.qcin
qchem Methylthiophene_Phi_30_Theta_270_Methylthiophene_Hydrogenated.qcin_811218.0 ./qchem811218/ 0
/cm/shared/apps/spack/cpu/opt/spack/linux-centos8-zen2/gcc-10.2.0/qchem-5.4-akfmr7b3t57bfs6qan3padb2wnb2i7cl/exe/qcprog.exe_s Methylthiophene_Phi_30_Theta_270_Methylthiophene_Hydrogenated.qcin_811218.0 ./qchem811218/
                  Welcome to Q-Chem
     A Quantum Leap Into The Future Of Chemistry


 Q-Chem 5.4, Q-Chem, Inc., Pleasanton, CA (2021)

 License issued to: University of California, San Diego (site)

 E. Epifanovsky,  A. T. B. Gilbert,  Xintian Feng,  Joonho Lee,  Yuezhi Mao,  
 N. Mardirossian,  P. Pokhilko,  A. White,  M. Wormit,  M. P. Coons,  
 A. L. Dempwolff,  Zhengting Gan,  D. Hait,  P. R. Horn,  L. D. Jacobson,  
 I. Kaliman,  J. Kussmann,  A. W. Lange,  Ka Un Lao,  D. S. Levine,  Jie Liu,  
 S. C. McKenzie,  A. F. Morrison,  K. Nanda,  F. Plasser,  D. R. Rehn,  
 M. L. Vidal,  Zhi-Qiang You,  Ying Zhu,  B. Alam,  B. Albrecht,  
 A. Aldossary,  E. Alguire,  J. H. Andersen,  D. Barton,  K. Begam,  A. Behn,  
 Y. A. Bernard,  E. J. Berquist,  H. Burton,  A. Carreras,  K. Carter-Fenk,  
 R. Chakraborty,  A. D. Chien,  K. D. Closser,  V. Cofer-Shabica,  
 S. Dasgupta,  Jia Deng,  M. de Wergifosse,  M. Diedenhofen,  Hainam Do,  
 S. Ehlert,  Po-Tung Fang,  S. Fatehi,  Qingguo Feng,  J. Gayvert,  
 Qinghui Ge,  G. Gidofalvi,  M. Goldey,  J. Gomes,  C. Gonzalez-Espinoza,  
 S. Gulania,  A. Gunina,  M. W. D. Hanson-Heine,  P. H. P. Harbach,  
 A. W. Hauser,  M. F. Herbst,  M. Hernandez Vera,  M. Hodecker,  
 Z. C. Holden,  S. Houck,  Xunkun Huang,  Kerwin Hui,  B. C. Huynh,  
 M. Ivanov,  Hyunjun Ji,  Hanjie Jiang,  B. Kaduk,  S. Kaehler,  
 K. Khistyaev,  Jaehoon Kim,  P. Klunzinger,  Z. Koczor-Benda,  
 Joong Hoon Koh,  D. Kosenkov,  L. Koulias,  T. Kowalczyk,  C. M. Krauter,  
 K. Kue,  A. Kunitsa,  T. Kus,  A. Landau,  K. V. Lawler,  D. Lefrancois,  
 S. Lehtola,  Rain Li,  Yi-Pei Li,  Jiashu Liang,  M. Liebenthal,  
 Hung-Hsuan Lin,  You-Sheng Lin,  Fenglai Liu,  Kuan-Yu Liu,  
 M. Loipersberger,  A. Luenser,  A. Manjanath,  P. Manohar,  E. Mansoor,  
 S. F. Manzer,  Shan-Ping Mao,  A. V. Marenich,  T. Markovich,  S. Mason,  
 S. A. Maurer,  P. F. McLaughlin,  M. F. S. J. Menger,  J.-M. Mewes,  
 S. A. Mewes,  P. Morgante,  J. W. Mullinax,  T. S. Nguyen-Beck,  
 K. J. Oosterbaan,  G. Paran,  Alexander C. Paul,  Suranjan K. Paul,  
 F. Pavosevic,  Zheng Pei,  S. Prager,  E. I. Proynov,  E. Ramos,  B. Rana,  
 A. E. Rask,  A. Rettig,  R. M. Richard,  F. Rob,  E. Rossomme,  T. Scheele,  
 M. Scheurer,  M. Schneider,  N. Sergueev,  S. M. Sharada,  W. Skomorowski,  
 D. W. Small,  C. J. Stein,  Yu-Chuan Su,  E. J. Sundstrom,  Zhen Tao,  
 J. Thirman,  T. Tsuchimochi,  N. M. Tubman,  S. P. Veccham,  O. Vydrov,  
 J. Wenzel,  J. Witte,  A. Yamada,  Kun Yao,  S. Yeganeh,  S. R. Yost,  
 A. Zech,  Igor Ying Zhang,  Xing Zhang,  Yu Zhang,  D. Zuev,  
 A. Aspuru-Guzik,  A. T. Bell,  N. A. Besley,  K. B. Bravaya,  B. R. Brooks,  
 D. Casanova,  Jeng-Da Chai,  S. Coriani,  C. J. Cramer,  
 A. E. DePrince, III,  R. A. DiStasio Jr.,  A. Dreuw,  B. D. Dunietz,  
 T. R. Furlani,  W. A. Goddard III,  S. Grimme,  S. Hammes-Schiffer,  
 T. Head-Gordon,  W. J. Hehre,  Chao-Ping Hsu,  T.-C. Jagau,  Yousung Jung,  
 A. Klamt,  Jing Kong,  D. S. Lambrecht,  WanZhen Liang,  N. J. Mayhall,  
 C. W. McCurdy,  J. B. Neaton,  C. Ochsenfeld,  J. A. Parkhill,  R. Peverati,  
 V. A. Rassolov,  Yihan Shao,  L. V. Slipchenko,  T. Stauch,  R. P. Steele,  
 J. E. Subotnik,  A. J. W. Thom,  A. Tkatchenko,  D. G. Truhlar,  
 T. Van Voorhis,  T. A. Wesolowski,  K. B. Whaley,  H. L. Woodcock III,  
 P. M. Zimmerman,  S. Faraji,  P. M. W. Gill,  M. Head-Gordon,  
 J. M. Herbert,  A. I. Krylov

 Contributors to earlier versions of Q-Chem not listed above: 
 R. D. Adamson,  B. Austin,  R. Baer,  J. Baker,  G. J. O. Beran,  
 K. Brandhorst,  S. T. Brown,  E. F. C. Byrd,  A. K. Chakraborty,  
 G. K. L. Chan,  Chun-Min Chang,  Yunqing Chen,  C.-L. Cheng,  
 Siu Hung Chien,  D. M. Chipman,  D. L. Crittenden,  H. Dachsel,  
 R. J. Doerksen,  A. D. Dutoi,  R. G. Edgar,  J. Fosso-Tande,  
 L. Fusti-Molnar,  D. Ghosh,  A. Ghysels,  A. Golubeva-Zadorozhnaya,  
 J. Gonthier,  M. S. Gordon,  S. R. Gwaltney,  G. Hawkins,  J. E. Herr,  
 A. Heyden,  S. Hirata,  E. G. Hohenstein,  G. Kedziora,  F. J. Keil,  
 C. Kelley,  Jihan Kim,  R. A. King,  R. Z. Khaliullin,  P. P. Korambath,  
 W. Kurlancheek,  A. Laurent,  A. M. Lee,  M. S. Lee,  S. V. Levchenko,  
 Ching Yeh Lin,  D. Liotard,  E. Livshits,  R. C. Lochan,  I. Lotan,  
 L. A. Martinez-Martinez,  P. E. Maslen,  N. Nair,  D. P. O'Neill,  
 D. Neuhauser,  E. Neuscamman,  C. M. Oana,  R. Olivares-Amaya,  R. Olson,  
 T. M. Perrine,  B. Peters,  P. A. Pieniazek,  A. Prociuk,  Y. M. Rhee,  
 J. Ritchie,  M. A. Rohrdanz,  E. Rosta,  N. J. Russ,  H. F. Schaefer III,  
 M. W. Schmidt,  N. E. Schultz,  S. Sharma,  N. Shenvi,  C. D. Sherrill,  
 A. C. Simmonett,  A. Sodt,  T. Stein,  D. Stuck,  K. S. Thanthiriwatte,  
 V. Vanovschi,  L. Vogt,  Tao Wang,  A. Warshel,  M. A. Watson,  
 C. F. Williams,  Q. Wu,  X. Xu,  Jun Yang,  W. Zhang,  Yan Zhao

 Please cite Q-Chem as follows:
 Y. Shao et al., Mol. Phys. 113, 184-215 (2015)
 DOI: 10.1080/00268976.2014.952696

 Q-Chem 5.4.0 for Intel X86 EM64T Linux

 Parts of Q-Chem use Armadillo 9.800.1 (Horizon Scraper).
 http://arma.sourceforge.net/

 Q-Chem begins on Sun Jul 10 04:06:06 2022  

 Host: 
0

     Scratch files written to ./qchem811218//
 May1621 |scratch|qcdevops|jenkins|workspace|build_RNUM    
 Processing $rem in /cm/shared/apps/spack/cpu/opt/spack/linux-centos8-zen2/gcc-10.2.0/qchem-5.4-akfmr7b3t57bfs6qan3padb2wnb2i7cl/config/preferences:
 Processing $rem in /home/theleonzhang/.qchemrc:
 Symmetry turned off for PCM/SM12/SMD calculation
 Core orbitals will be frozen

 Checking the input file for inconsistencies... 	...done.

--------------------------------------------------------------
User input:
--------------------------------------------------------------
$molecule
0 1
C	0.775127	-3.866725	0.000713
C	-0.612565	-3.703963	0.000302
C	-1.066639	-2.357056	-0.000067
H	-1.302900	-4.561092	0.000470
C	-0.000000	-1.440664	-0.000000
S	1.544483	-2.286957	-0.000009
C	-2.521872	-1.978743	-0.000295
H	-3.166949	-2.878678	-0.000221
H	-2.790821	-1.376015	-0.892850
H	-2.791023	-1.375728	0.892005
C	0.000000	0.000000	0.000000
C	0.431829	0.747884	1.099446
C	1.123799	1.946373	0.776721
H	0.247423	0.428497	2.136088
C	1.234147	2.137457	-0.612546
S	0.471221	0.816130	-1.486809
C	1.667694	2.888380	1.814609
H	1.454874	2.519768	2.836676
H	1.222009	3.901210	1.726239
H	2.767675	3.008788	1.726228
H	1.708773	2.959493	-1.161575
H	1.119411	-4.392713	-0.896681
H	1.119277	-4.392347	0.898372
H	-0.000115	-1.440391	1.080000
$end

$rem
JOBTYPE		SP
EXCHANGE	HF
CORRELATION	pRIMP2
BASIS		cc-pvtz
METHOD		rimp2
AUX_BASIS	rimp2-cc-pvtz
SOLVENT_METHOD	PCM
PURECART	11111
SYMMETRY	false
MEM_TOTAL	110000
SCF_CONVERGENCE = 6
THRESH=10
$end



$solvent
dielectric 4.90
$end
--------------------------------------------------------------
 ----------------------------------------------------------------
             Standard Nuclear Orientation (Angstroms)
    I     Atom           X                Y                Z
 ----------------------------------------------------------------
    1      C       0.7751270000    -3.8667250000     0.0007130000
    2      C      -0.6125650000    -3.7039630000     0.0003020000
    3      C      -1.0666390000    -2.3570560000    -0.0000670000
    4      H      -1.3029000000    -4.5610920000     0.0004700000
    5      C       0.0000000000    -1.4406640000     0.0000000000
    6      S       1.5444830000    -2.2869570000    -0.0000090000
    7      C      -2.5218720000    -1.9787430000    -0.0002950000
    8      H      -3.1669490000    -2.8786780000    -0.0002210000
    9      H      -2.7908210000    -1.3760150000    -0.8928500000
   10      H      -2.7910230000    -1.3757280000     0.8920050000
   11      C       0.0000000000     0.0000000000     0.0000000000
   12      C       0.4318290000     0.7478840000     1.0994460000
   13      C       1.1237990000     1.9463730000     0.7767210000
   14      H       0.2474230000     0.4284970000     2.1360880000
   15      C       1.2341470000     2.1374570000    -0.6125460000
   16      S       0.4712210000     0.8161300000    -1.4868090000
   17      C       1.6676940000     2.8883800000     1.8146090000
   18      H       1.4548740000     2.5197680000     2.8366760000
   19      H       1.2220090000     3.9012100000     1.7262390000
   20      H       2.7676750000     3.0087880000     1.7262280000
   21      H       1.7087730000     2.9594930000    -1.1615750000
   22      H       1.1194110000    -4.3927130000    -0.8966810000
   23      H       1.1192770000    -4.3923470000     0.8983720000
   24      H      -0.0001150000    -1.4403910000     1.0800000000
 ----------------------------------------------------------------
 Nuclear Repulsion Energy =         878.38354155 hartrees
 There are       52 alpha and       52 beta electrons

 Q-Chem warning in module forms1/BasisType.C, line 2236:

 You are not using the predefined 5D/6D in this basis set.

 Requested basis set is cc-pVTZ
 There are 196 shells and 536 basis functions

 Total QAlloc Memory Limit 110000 MB
 Mega-Array Size       188 MB
 MEM_STATIC part       192 MB
 Discretize the solute cavity surface with Lebedev spheres
	Using 110 Lebedev grid points for each H atom
	Using 194 Lebedev grid points for other atoms
	Atomic van der Waals radii will be scaled by 1.20
 Remove points where switching function is < 1.0e-08
 Keep 1604 surface tesserae and discard 2044 interior tesserae
 Molecular Surface Area = 238.028 Angst**2
 Requested basis set is rimp2-cc-pVTZ
 There are 414 shells and 1414 basis functions
 A cutoff of  1.0D-10 yielded  13994 shell pairs
 There are    101114 function pairs (    129617 Cartesian)
 Smallest overlap matrix eigenvalue = 7.06E-05

 Scale SEOQF with 1.000000e-01/1.000000e-01/1.000000e-01

 Standard Electronic Orientation quadrupole field applied
 Nucleus-field energy     =     0.0000000356 hartrees
 Guess from superposition of atomic densities
 Warning:  Energy on first SCF cycle will be non-variational
 SAD guess density has 104.000000 electrons

 -----------------------------------------------------------------------
  General SCF calculation program by
  Eric Jon Sundstrom, Paul Horn, Yuezhi Mao, Dmitri Zuev, Alec White,
  David Stuck, Shaama M.S., Shane Yost, Joonho Lee, David Small,
  Daniel Levine, Susi Lehtola, Hugh Burton, Evgeny Epifanovsky,
  Bang C. Huynh
 -----------------------------------------------------------------------
 Hartree-Fock
 A restricted SCF calculation will be
 performed using DIIS
 SCF converges when DIIS error is below 1.0e-06
 ---------------------------------------
  Cycle       Energy         DIIS error
 ---------------------------------------
    1   -1186.0445892456      2.39e-02  
    2   -1180.6068103912      1.53e-03  
    3   -1180.7305490648      5.54e-04  
    4   -1180.7434190337      3.07e-04  
    5   -1180.7476524239      5.89e-05  
    6   -1180.7478925658      2.42e-05  
    7   -1180.7479532889      9.46e-06  
    8   -1180.7479688895      4.56e-06  
    9   -1180.7479726900      1.66e-06  
   10   -1180.7479733074      5.56e-07  Convergence criterion met
 ---------------------------------------
 SCF time:   CPU 562.34s  wall 564.00s 

************** Final PCM Free Energy Summary **************
 G_electrostatic  =      -0.00960537 hartree =      -6.02745996 kcal/mol
 G_cavitation     =       0.00000000 hartree =       0.00000000 kcal/mol
 G_dispersion     =       0.00000000 hartree =       0.00000000 kcal/mol
 G_repulsion      =       0.00000000 hartree =       0.00000000 kcal/mol
 --------------------------------------------------
 Non-electrostatic Free Energy =       0.00000000 hartree =       0.00000000 kcal/mol
 Total                         =      -0.00960537 hartree =      -6.02745996 kcal/mol
 --------------------------------------------------
 SCF Energy (H0 + V/2)                       =   -1180.74797331 
 Solute Internal Energy (H0)                 =   -1180.73836794 
 Total Free Energy (H0 + V/2 + non-elec)     =   -1180.74797331 hartree
                                             = -740930.53611443 kcal/mol
***********************************************************

 SCF   energy in the final basis set =    -1180.7479733074
 Total energy in the final basis set =    -1180.7479733074


 --------------------------------------------------------------
  Generalized many-body perturbation theory program
  by Joonho Lee, Fazle Rob, Xintian Feng, Evgeny Epifanovsky

 No regularization used 
 (reg. param. = 0.0000e+00)
  (P|Q)^-1/2 Time:  CPU 1.89 s  wall 1.89 s

 In RI-MP2 calculation: 
 # of frozen core orbitals: 20

 Components of the RIMP2 correlation energy:
        aaaa    correlation energy =        -0.2517768643 a.u.
        abab    correlation energy =        -1.5048202176 a.u.
        bbbb    correlation energy =        -0.2517768643 a.u.
        non-Brillouin singles      =        -0.0000000000 a.u.
        total same-spin energy     =        -0.5035537286 a.u.
        total opposite-spin energy =        -1.5048202176 a.u.

 Total  RIMP2   correlation energy =        -2.0083739462 a.u.
        RIMP2         total energy =     -1182.7563472535 a.u.

 RI-MP2 Energy Time:  CPU 79.37 s  wall 79.58 s
 
 --------------------------------------------------------------
 
                    Orbital Energies (a.u.)
 --------------------------------------------------------------
 
 Alpha MOs
 -- Occupied --
-91.9788 -91.9404 -11.2740 -11.2703 -11.2593 -11.2528 -11.2509 -11.2478
-11.2396 -11.2309 -11.2294 -11.2163  -8.9790  -8.9451  -6.6599  -6.6593
 -6.6588  -6.6264  -6.6254  -6.6241  -1.1985  -1.1536  -1.0574  -1.0258
 -1.0052  -0.9589  -0.9109  -0.9013  -0.8140  -0.7599  -0.7377  -0.6994
 -0.6597  -0.6396  -0.6104  -0.5887  -0.5810  -0.5714  -0.5653  -0.5498
 -0.5406  -0.5312  -0.5092  -0.5069  -0.4929  -0.4749  -0.4594  -0.4477
 -0.3575  -0.3377  -0.3119  -0.2809
 -- Virtual --
  0.0812   0.1331   0.1415   0.1532   0.1589   0.1708   0.1761   0.1793
  0.1881   0.1980   0.2057   0.2163   0.2276   0.2299   0.2329   0.2446
  0.2485   0.2575   0.2650   0.3014   0.3062   0.3332   0.3411   0.3503
  0.3663   0.3769   0.3787   0.3893   0.3952   0.4008   0.4114   0.4217
  0.4324   0.4410   0.4456   0.4532   0.4675   0.4703   0.4828   0.4845
  0.5002   0.5086   0.5110   0.5226   0.5278   0.5342   0.5479   0.5561
  0.5687   0.5758   0.5902   0.5988   0.6066   0.6083   0.6154   0.6212
  0.6226   0.6288   0.6326   0.6376   0.6425   0.6457   0.6469   0.6552
  0.6622   0.6704   0.6762   0.6837   0.6913   0.6952   0.7163   0.7310
  0.7380   0.7469   0.7515   0.7746   0.7894   0.7999   0.8070   0.8179
  0.8214   0.8361   0.8444   0.8516   0.8675   0.9045   0.9119   0.9160
  0.9264   0.9372   0.9436   0.9561   0.9814   0.9862   0.9930   1.0114
  1.0200   1.0302   1.0344   1.0459   1.0522   1.0606   1.0660   1.0821
  1.0914   1.1004   1.1189   1.1231   1.1350   1.1535   1.1620   1.1696
  1.1736   1.1784   1.1816   1.2093   1.2130   1.2179   1.2383   1.2444
  1.2522   1.2600   1.2644   1.2736   1.2790   1.2866   1.3088   1.3105
  1.3164   1.3348   1.3497   1.3625   1.3754   1.3914   1.4031   1.4121
  1.4166   1.4300   1.4473   1.4559   1.4706   1.4787   1.4928   1.4964
  1.5031   1.5145   1.5167   1.5349   1.5403   1.5407   1.5519   1.5550
  1.5649   1.5735   1.5830   1.5880   1.6030   1.6099   1.6228   1.6338
  1.6389   1.6664   1.6736   1.6792   1.6992   1.7083   1.7219   1.7390
  1.7483   1.7595   1.7697   1.7910   1.8067   1.8110   1.8375   1.8596
  1.8651   1.9164   1.9334   1.9467   1.9574   1.9717   1.9846   1.9929
  2.0237   2.0357   2.0420   2.0696   2.0802   2.1157   2.1227   2.1431
  2.1777   2.1907   2.2004   2.2112   2.2312   2.2463   2.2594   2.2725
  2.2892   2.3344   2.3375   2.3743   2.4129   2.4426   2.4559   2.4678
  2.5052   2.5110   2.5214   2.5480   2.5687   2.5795   2.6053   2.6142
  2.6273   2.6374   2.6623   2.6656   2.6735   2.6955   2.7067   2.7220
  2.7445   2.7560   2.7612   2.7796   2.7823   2.7918   2.8059   2.8333
  2.8465   2.8507   2.8611   2.8792   2.8961   2.8987   2.9170   2.9200
  2.9466   2.9548   2.9753   2.9847   2.9976   3.0141   3.0264   3.0352
  3.0447   3.0534   3.0888   3.0998   3.1127   3.1136   3.1364   3.1476
  3.1560   3.1605   3.1644   3.1733   3.1873   3.1943   3.2029   3.2160
  3.2292   3.2428   3.2462   3.2609   3.2755   3.2824   3.2952   3.3080
  3.3213   3.3265   3.3291   3.3387   3.3452   3.3551   3.3612   3.3680
  3.3707   3.3800   3.3896   3.3928   3.4073   3.4116   3.4192   3.4266
  3.4401   3.4459   3.4567   3.4607   3.4851   3.4953   3.5051   3.5125
  3.5157   3.5335   3.5347   3.5454   3.5517   3.5537   3.5712   3.5786
  3.5901   3.6150   3.6253   3.6265   3.6372   3.6484   3.6492   3.6634
  3.6738   3.6890   3.6929   3.7082   3.7107   3.7266   3.7301   3.7376
  3.7427   3.7565   3.7681   3.7817   3.7851   3.7999   3.8030   3.8222
  3.8273   3.8401   3.8521   3.8660   3.8755   3.8837   3.8921   3.9167
  3.9296   3.9437   3.9543   3.9581   3.9705   3.9738   3.9961   4.0117
  4.0220   4.0338   4.0437   4.0583   4.0712   4.0840   4.0987   4.1077
  4.1178   4.1219   4.1455   4.1570   4.1704   4.1721   4.1872   4.1967
  4.2087   4.2206   4.2382   4.2453   4.2528   4.2633   4.2663   4.2848
  4.2911   4.3019   4.3229   4.3289   4.3401   4.3510   4.3579   4.3639
  4.3732   4.3814   4.3996   4.4019   4.4133   4.4238   4.4300   4.4481
  4.4583   4.4663   4.4815   4.4932   4.4955   4.5182   4.5383   4.5478
  4.5752   4.5917   4.6134   4.6268   4.6350   4.6516   4.6624   4.6736
  4.6985   4.7257   4.7326   4.7574   4.7686   4.8144   4.8300   4.8437
  4.8639   4.8708   4.8940   4.9067   4.9307   4.9604   4.9694   4.9825
  5.0251   5.0483   5.0858   5.1069   5.1150   5.1255   5.1484   5.1654
  5.1750   5.1989   5.2230   5.2597   5.2828   5.2918   5.3129   5.3201
  5.3350   5.3630   5.3834   5.3978   5.4061   5.4246   5.4411   5.4507
  5.4938   5.5101   5.5299   5.5423   5.5495   5.5608   5.5724   5.5810
  5.6250   5.6342   5.6614   5.6808   5.6820   5.7096   5.7145   5.7250
  5.7648   5.7899   5.8259   5.9430   5.9890   6.0309   6.1226   6.1285
  6.2020   6.2209   6.2271   6.2362   6.2493   6.2800   6.2845   6.3215
  6.3778   6.4383   9.4724  10.5891  12.1986  12.8827  13.1618  13.8891
 14.1112  14.2084  14.2784  14.5920
 --------------------------------------------------------------
 
          Ground-State Mulliken Net Atomic Charges

     Atom                 Charge (a.u.)
  ----------------------------------------
      1 C                    -0.074026
      2 C                    -0.327303
      3 C                    -0.036893
      4 H                     0.174598
      5 C                     0.060717
      6 S                    -0.170429
      7 C                    -0.270900
      8 H                     0.112646
      9 H                     0.106777
     10 H                     0.100673
     11 C                    -0.060545
     12 C                    -0.247556
     13 C                     0.036104
     14 H                     0.179802
     15 C                    -0.226116
     16 S                     0.007113
     17 C                    -0.269155
     18 H                     0.102022
     19 H                     0.107513
     20 H                     0.108450
     21 H                     0.197584
     22 H                     0.111066
     23 H                     0.108492
     24 H                     0.169366
  ----------------------------------------
  Sum of atomic charges =     0.000000

 -----------------------------------------------------------------
                    Cartesian Multipole Moments
 -----------------------------------------------------------------
    Charge (ESU x 10^10)
                -0.0000
    Dipole Moment (Debye)
         X      -1.2908      Y       0.7364      Z       2.3284
       Tot       2.7622
    Quadrupole Moments (Debye-Ang)
        XX     -88.9022     XY       8.3325     YY     -76.8043
        XZ       0.8350     YZ      -0.4171     ZZ     -85.9055
    Octopole Moments (Debye-Ang^2)
       XXX    -108.9465    XXY      59.8527    XYY     -18.7680
       YYY     145.0948    XXZ      -2.0688    XYZ      -2.0462
       YYZ      -1.1271    XZZ     -29.2043    YZZ      64.1491
       ZZZ       3.7838
    Hexadecapole Moments (Debye-Ang^3)
      XXXX    -949.2158   XXXY    -170.6019   XXYY    -594.1844
      XYYY    -179.8206   YYYY   -2604.3890   XXXZ     -46.0578
      XXYZ     -31.1247   XYYZ     -20.4760   YYYZ     -95.5083
      XXZZ    -254.7447   XYZZ     -62.5797   YYZZ    -564.6373
      XZZZ     -47.7936   YZZZ     -82.3895   ZZZZ    -536.5720
 -----------------------------------------------------------------
 Total job time:  646.29s(wall), 642.60s(cpu) 
 Sun Jul 10 04:16:52 2022

        *************************************************************
        *                                                           *
        *  Thank you very much for using Q-Chem.  Have a nice day.  *
        *                                                           *
        *************************************************************


remove work dirs ./qchem811218.0 -- ./qchem811218.-1
rm -rf ./qchem811218
You are running Q-Chem version: 5.4.0

#
# job setting
#
local host:  exp-3-21
current dir: /expanse/lustre/scratch/theleonzhang/temp_project/Hydrogenated_Rotation_Test
input file:  Methylthiophene_Phi_30_Theta_270_Methylthiophene_Hydrogenated.qcin
output file: 
nprocs     : 0
nthreads   : 1
#
# qchem installation setting
#
QC:          /cm/shared/apps/spack/cpu/opt/spack/linux-centos8-zen2/gcc-10.2.0/qchem-5.4-akfmr7b3t57bfs6qan3padb2wnb2i7cl
QCAUX:       /cm/shared/apps/spack/cpu/opt/spack/linux-centos8-zen2/gcc-10.2.0/qchem-5.4-akfmr7b3t57bfs6qan3padb2wnb2i7cl/qcaux
QCPROG:      /cm/shared/apps/spack/cpu/opt/spack/linux-centos8-zen2/gcc-10.2.0/qchem-5.4-akfmr7b3t57bfs6qan3padb2wnb2i7cl/exe/qcprog.exe_s
QCPROG_S:    /cm/shared/apps/spack/cpu/opt/spack/linux-centos8-zen2/gcc-10.2.0/qchem-5.4-akfmr7b3t57bfs6qan3padb2wnb2i7cl/exe/qcprog.exe_s
PARALLEL:    -DSERIAL
QCMPI:       mpich
#
# qchem directory setting
#
qcrun:       qchem1293618
QCSCRATCH:   .
QCLOCALSCR:  
QCTMPDIR:    .
QCFILEPREF:  ./qchem1293618
QCSAVEDIR:   
workdirs:    ./qchem1293618
workdir0:    ./qchem1293618
partmpdirs =  
#
# parallel setting
#
QCRSH:           ssh
QCMPI:           mpich
QCMPIRUN:        /cm/shared/apps/spack/cpu/opt/spack/linux-centos8-zen2/gcc-10.2.0/qchem-5.4-akfmr7b3t57bfs6qan3padb2wnb2i7cl/bin/mpi/mpirun_qchem
QCMACHINEFILE:   ./qchem1293618/hostfile

#
# env setting
#
exported envs:   QC QCAUX QCSCRATCH QCRUNNAME QCFILEPREF QCPROG QCPROG_S GUIFILE

Running Job 1 of 1 Methylthiophene_Phi_30_Theta_270_Methylthiophene_Hydrogenated.qcin
qchem Methylthiophene_Phi_30_Theta_270_Methylthiophene_Hydrogenated.qcin_1293618.0 ./qchem1293618/ 0
/cm/shared/apps/spack/cpu/opt/spack/linux-centos8-zen2/gcc-10.2.0/qchem-5.4-akfmr7b3t57bfs6qan3padb2wnb2i7cl/exe/qcprog.exe_s Methylthiophene_Phi_30_Theta_270_Methylthiophene_Hydrogenated.qcin_1293618.0 ./qchem1293618/
                  Welcome to Q-Chem
     A Quantum Leap Into The Future Of Chemistry


 Q-Chem 5.4, Q-Chem, Inc., Pleasanton, CA (2021)

 License issued to: University of California, San Diego (site)

 E. Epifanovsky,  A. T. B. Gilbert,  Xintian Feng,  Joonho Lee,  Yuezhi Mao,  
 N. Mardirossian,  P. Pokhilko,  A. White,  M. Wormit,  M. P. Coons,  
 A. L. Dempwolff,  Zhengting Gan,  D. Hait,  P. R. Horn,  L. D. Jacobson,  
 I. Kaliman,  J. Kussmann,  A. W. Lange,  Ka Un Lao,  D. S. Levine,  Jie Liu,  
 S. C. McKenzie,  A. F. Morrison,  K. Nanda,  F. Plasser,  D. R. Rehn,  
 M. L. Vidal,  Zhi-Qiang You,  Ying Zhu,  B. Alam,  B. Albrecht,  
 A. Aldossary,  E. Alguire,  J. H. Andersen,  D. Barton,  K. Begam,  A. Behn,  
 Y. A. Bernard,  E. J. Berquist,  H. Burton,  A. Carreras,  K. Carter-Fenk,  
 R. Chakraborty,  A. D. Chien,  K. D. Closser,  V. Cofer-Shabica,  
 S. Dasgupta,  Jia Deng,  M. de Wergifosse,  M. Diedenhofen,  Hainam Do,  
 S. Ehlert,  Po-Tung Fang,  S. Fatehi,  Qingguo Feng,  J. Gayvert,  
 Qinghui Ge,  G. Gidofalvi,  M. Goldey,  J. Gomes,  C. Gonzalez-Espinoza,  
 S. Gulania,  A. Gunina,  M. W. D. Hanson-Heine,  P. H. P. Harbach,  
 A. W. Hauser,  M. F. Herbst,  M. Hernandez Vera,  M. Hodecker,  
 Z. C. Holden,  S. Houck,  Xunkun Huang,  Kerwin Hui,  B. C. Huynh,  
 M. Ivanov,  Hyunjun Ji,  Hanjie Jiang,  B. Kaduk,  S. Kaehler,  
 K. Khistyaev,  Jaehoon Kim,  P. Klunzinger,  Z. Koczor-Benda,  
 Joong Hoon Koh,  D. Kosenkov,  L. Koulias,  T. Kowalczyk,  C. M. Krauter,  
 K. Kue,  A. Kunitsa,  T. Kus,  A. Landau,  K. V. Lawler,  D. Lefrancois,  
 S. Lehtola,  Rain Li,  Yi-Pei Li,  Jiashu Liang,  M. Liebenthal,  
 Hung-Hsuan Lin,  You-Sheng Lin,  Fenglai Liu,  Kuan-Yu Liu,  
 M. Loipersberger,  A. Luenser,  A. Manjanath,  P. Manohar,  E. Mansoor,  
 S. F. Manzer,  Shan-Ping Mao,  A. V. Marenich,  T. Markovich,  S. Mason,  
 S. A. Maurer,  P. F. McLaughlin,  M. F. S. J. Menger,  J.-M. Mewes,  
 S. A. Mewes,  P. Morgante,  J. W. Mullinax,  T. S. Nguyen-Beck,  
 K. J. Oosterbaan,  G. Paran,  Alexander C. Paul,  Suranjan K. Paul,  
 F. Pavosevic,  Zheng Pei,  S. Prager,  E. I. Proynov,  E. Ramos,  B. Rana,  
 A. E. Rask,  A. Rettig,  R. M. Richard,  F. Rob,  E. Rossomme,  T. Scheele,  
 M. Scheurer,  M. Schneider,  N. Sergueev,  S. M. Sharada,  W. Skomorowski,  
 D. W. Small,  C. J. Stein,  Yu-Chuan Su,  E. J. Sundstrom,  Zhen Tao,  
 J. Thirman,  T. Tsuchimochi,  N. M. Tubman,  S. P. Veccham,  O. Vydrov,  
 J. Wenzel,  J. Witte,  A. Yamada,  Kun Yao,  S. Yeganeh,  S. R. Yost,  
 A. Zech,  Igor Ying Zhang,  Xing Zhang,  Yu Zhang,  D. Zuev,  
 A. Aspuru-Guzik,  A. T. Bell,  N. A. Besley,  K. B. Bravaya,  B. R. Brooks,  
 D. Casanova,  Jeng-Da Chai,  S. Coriani,  C. J. Cramer,  
 A. E. DePrince, III,  R. A. DiStasio Jr.,  A. Dreuw,  B. D. Dunietz,  
 T. R. Furlani,  W. A. Goddard III,  S. Grimme,  S. Hammes-Schiffer,  
 T. Head-Gordon,  W. J. Hehre,  Chao-Ping Hsu,  T.-C. Jagau,  Yousung Jung,  
 A. Klamt,  Jing Kong,  D. S. Lambrecht,  WanZhen Liang,  N. J. Mayhall,  
 C. W. McCurdy,  J. B. Neaton,  C. Ochsenfeld,  J. A. Parkhill,  R. Peverati,  
 V. A. Rassolov,  Yihan Shao,  L. V. Slipchenko,  T. Stauch,  R. P. Steele,  
 J. E. Subotnik,  A. J. W. Thom,  A. Tkatchenko,  D. G. Truhlar,  
 T. Van Voorhis,  T. A. Wesolowski,  K. B. Whaley,  H. L. Woodcock III,  
 P. M. Zimmerman,  S. Faraji,  P. M. W. Gill,  M. Head-Gordon,  
 J. M. Herbert,  A. I. Krylov

 Contributors to earlier versions of Q-Chem not listed above: 
 R. D. Adamson,  B. Austin,  R. Baer,  J. Baker,  G. J. O. Beran,  
 K. Brandhorst,  S. T. Brown,  E. F. C. Byrd,  A. K. Chakraborty,  
 G. K. L. Chan,  Chun-Min Chang,  Yunqing Chen,  C.-L. Cheng,  
 Siu Hung Chien,  D. M. Chipman,  D. L. Crittenden,  H. Dachsel,  
 R. J. Doerksen,  A. D. Dutoi,  R. G. Edgar,  J. Fosso-Tande,  
 L. Fusti-Molnar,  D. Ghosh,  A. Ghysels,  A. Golubeva-Zadorozhnaya,  
 J. Gonthier,  M. S. Gordon,  S. R. Gwaltney,  G. Hawkins,  J. E. Herr,  
 A. Heyden,  S. Hirata,  E. G. Hohenstein,  G. Kedziora,  F. J. Keil,  
 C. Kelley,  Jihan Kim,  R. A. King,  R. Z. Khaliullin,  P. P. Korambath,  
 W. Kurlancheek,  A. Laurent,  A. M. Lee,  M. S. Lee,  S. V. Levchenko,  
 Ching Yeh Lin,  D. Liotard,  E. Livshits,  R. C. Lochan,  I. Lotan,  
 L. A. Martinez-Martinez,  P. E. Maslen,  N. Nair,  D. P. O'Neill,  
 D. Neuhauser,  E. Neuscamman,  C. M. Oana,  R. Olivares-Amaya,  R. Olson,  
 T. M. Perrine,  B. Peters,  P. A. Pieniazek,  A. Prociuk,  Y. M. Rhee,  
 J. Ritchie,  M. A. Rohrdanz,  E. Rosta,  N. J. Russ,  H. F. Schaefer III,  
 M. W. Schmidt,  N. E. Schultz,  S. Sharma,  N. Shenvi,  C. D. Sherrill,  
 A. C. Simmonett,  A. Sodt,  T. Stein,  D. Stuck,  K. S. Thanthiriwatte,  
 V. Vanovschi,  L. Vogt,  Tao Wang,  A. Warshel,  M. A. Watson,  
 C. F. Williams,  Q. Wu,  X. Xu,  Jun Yang,  W. Zhang,  Yan Zhao

 Please cite Q-Chem as follows:
 Y. Shao et al., Mol. Phys. 113, 184-215 (2015)
 DOI: 10.1080/00268976.2014.952696

 Q-Chem 5.4.0 for Intel X86 EM64T Linux

 Parts of Q-Chem use Armadillo 9.800.1 (Horizon Scraper).
 http://arma.sourceforge.net/

 Q-Chem begins on Sun Jul 10 04:49:18 2022  

 Host: 
0

     Scratch files written to ./qchem1293618//
 May1621 |scratch|qcdevops|jenkins|workspace|build_RNUM    
 Processing $rem in /cm/shared/apps/spack/cpu/opt/spack/linux-centos8-zen2/gcc-10.2.0/qchem-5.4-akfmr7b3t57bfs6qan3padb2wnb2i7cl/config/preferences:
 Processing $rem in /home/theleonzhang/.qchemrc:
 Symmetry turned off for PCM/SM12/SMD calculation
 Core orbitals will be frozen

 Checking the input file for inconsistencies... 	...done.

--------------------------------------------------------------
User input:
--------------------------------------------------------------
$molecule
0 1
C	0.775127	-3.866725	0.000713
C	-0.612565	-3.703963	0.000302
C	-1.066639	-2.357056	-0.000067
H	-1.302900	-4.561092	0.000470
C	-0.000000	-1.440664	-0.000000
S	1.544483	-2.286957	-0.000009
C	-2.521872	-1.978743	-0.000295
H	-3.166949	-2.878678	-0.000221
H	-2.790821	-1.376015	-0.892850
H	-2.791023	-1.375728	0.892005
C	0.000000	0.000000	0.000000
C	0.431829	0.747884	1.099446
C	1.123799	1.946373	0.776721
H	0.247423	0.428497	2.136088
C	1.234147	2.137457	-0.612546
S	0.471221	0.816130	-1.486809
C	1.667694	2.888380	1.814609
H	1.454874	2.519768	2.836676
H	1.222009	3.901210	1.726239
H	2.767675	3.008788	1.726228
H	1.708773	2.959493	-1.161575
H	1.119411	-4.392713	-0.896681
H	1.119277	-4.392347	0.898372
H	-0.000115	-1.440391	1.080000
$end

$rem
JOBTYPE		SP
EXCHANGE	HF
CORRELATION	pRIMP2
BASIS		cc-pvtz
METHOD		rimp2
AUX_BASIS	rimp2-cc-pvtz
SOLVENT_METHOD	PCM
PURECART	11111
SYMMETRY	false
MEM_TOTAL	110000
SCF_CONVERGENCE = 6
THRESH=10
$end



$solvent
dielectric 4.90
$end
--------------------------------------------------------------
 ----------------------------------------------------------------
             Standard Nuclear Orientation (Angstroms)
    I     Atom           X                Y                Z
 ----------------------------------------------------------------
    1      C       0.7751270000    -3.8667250000     0.0007130000
    2      C      -0.6125650000    -3.7039630000     0.0003020000
    3      C      -1.0666390000    -2.3570560000    -0.0000670000
    4      H      -1.3029000000    -4.5610920000     0.0004700000
    5      C       0.0000000000    -1.4406640000     0.0000000000
    6      S       1.5444830000    -2.2869570000    -0.0000090000
    7      C      -2.5218720000    -1.9787430000    -0.0002950000
    8      H      -3.1669490000    -2.8786780000    -0.0002210000
    9      H      -2.7908210000    -1.3760150000    -0.8928500000
   10      H      -2.7910230000    -1.3757280000     0.8920050000
   11      C       0.0000000000     0.0000000000     0.0000000000
   12      C       0.4318290000     0.7478840000     1.0994460000
   13      C       1.1237990000     1.9463730000     0.7767210000
   14      H       0.2474230000     0.4284970000     2.1360880000
   15      C       1.2341470000     2.1374570000    -0.6125460000
   16      S       0.4712210000     0.8161300000    -1.4868090000
   17      C       1.6676940000     2.8883800000     1.8146090000
   18      H       1.4548740000     2.5197680000     2.8366760000
   19      H       1.2220090000     3.9012100000     1.7262390000
   20      H       2.7676750000     3.0087880000     1.7262280000
   21      H       1.7087730000     2.9594930000    -1.1615750000
   22      H       1.1194110000    -4.3927130000    -0.8966810000
   23      H       1.1192770000    -4.3923470000     0.8983720000
   24      H      -0.0001150000    -1.4403910000     1.0800000000
 ----------------------------------------------------------------
 Nuclear Repulsion Energy =         878.38354155 hartrees
 There are       52 alpha and       52 beta electrons

 Q-Chem warning in module forms1/BasisType.C, line 2236:

 You are not using the predefined 5D/6D in this basis set.

 Requested basis set is cc-pVTZ
 There are 196 shells and 536 basis functions

 Total QAlloc Memory Limit 110000 MB
 Mega-Array Size       188 MB
 MEM_STATIC part       192 MB
 Discretize the solute cavity surface with Lebedev spheres
	Using 110 Lebedev grid points for each H atom
	Using 194 Lebedev grid points for other atoms
	Atomic van der Waals radii will be scaled by 1.20
 Remove points where switching function is < 1.0e-08
 Keep 1604 surface tesserae and discard 2044 interior tesserae
 Molecular Surface Area = 238.028 Angst**2
 Requested basis set is rimp2-cc-pVTZ
 There are 414 shells and 1414 basis functions
 A cutoff of  1.0D-10 yielded  13994 shell pairs
 There are    101114 function pairs (    129617 Cartesian)
 Smallest overlap matrix eigenvalue = 7.06E-05

 Scale SEOQF with 1.000000e-01/1.000000e-01/1.000000e-01

 Standard Electronic Orientation quadrupole field applied
 Nucleus-field energy     =     0.0000000356 hartrees
 Guess from superposition of atomic densities
 Warning:  Energy on first SCF cycle will be non-variational
 SAD guess density has 104.000000 electrons

 -----------------------------------------------------------------------
  General SCF calculation program by
  Eric Jon Sundstrom, Paul Horn, Yuezhi Mao, Dmitri Zuev, Alec White,
  David Stuck, Shaama M.S., Shane Yost, Joonho Lee, David Small,
  Daniel Levine, Susi Lehtola, Hugh Burton, Evgeny Epifanovsky,
  Bang C. Huynh
 -----------------------------------------------------------------------
 Hartree-Fock
 A restricted SCF calculation will be
 performed using DIIS
 SCF converges when DIIS error is below 1.0e-06
 ---------------------------------------
  Cycle       Energy         DIIS error
 ---------------------------------------
    1   -1186.0445892456      2.39e-02  
    2   -1180.6068103912      1.53e-03  
    3   -1180.7305490648      5.54e-04  
    4   -1180.7434190337      3.07e-04  
    5   -1180.7476524239      5.89e-05  
    6   -1180.7478925658      2.42e-05  
    7   -1180.7479532889      9.46e-06  
    8   -1180.7479688895      4.56e-06  
    9   -1180.7479726900      1.66e-06  
   10   -1180.7479733074      5.56e-07  Convergence criterion met
 ---------------------------------------
 SCF time:   CPU 563.87s  wall 565.00s 

************** Final PCM Free Energy Summary **************
 G_electrostatic  =      -0.00960537 hartree =      -6.02745996 kcal/mol
 G_cavitation     =       0.00000000 hartree =       0.00000000 kcal/mol
 G_dispersion     =       0.00000000 hartree =       0.00000000 kcal/mol
 G_repulsion      =       0.00000000 hartree =       0.00000000 kcal/mol
 --------------------------------------------------
 Non-electrostatic Free Energy =       0.00000000 hartree =       0.00000000 kcal/mol
 Total                         =      -0.00960537 hartree =      -6.02745996 kcal/mol
 --------------------------------------------------
 SCF Energy (H0 + V/2)                       =   -1180.74797331 
 Solute Internal Energy (H0)                 =   -1180.73836794 
 Total Free Energy (H0 + V/2 + non-elec)     =   -1180.74797331 hartree
                                             = -740930.53611443 kcal/mol
***********************************************************

 SCF   energy in the final basis set =    -1180.7479733074
 Total energy in the final basis set =    -1180.7479733074


 --------------------------------------------------------------
  Generalized many-body perturbation theory program
  by Joonho Lee, Fazle Rob, Xintian Feng, Evgeny Epifanovsky

 No regularization used 
 (reg. param. = 0.0000e+00)
  (P|Q)^-1/2 Time:  CPU 1.89 s  wall 1.90 s

 In RI-MP2 calculation: 
 # of frozen core orbitals: 20

 Components of the RIMP2 correlation energy:
        aaaa    correlation energy =        -0.2517768643 a.u.
        abab    correlation energy =        -1.5048202176 a.u.
        bbbb    correlation energy =        -0.2517768643 a.u.
        non-Brillouin singles      =        -0.0000000000 a.u.
        total same-spin energy     =        -0.5035537286 a.u.
        total opposite-spin energy =        -1.5048202176 a.u.

 Total  RIMP2   correlation energy =        -2.0083739462 a.u.
        RIMP2         total energy =     -1182.7563472535 a.u.

 RI-MP2 Energy Time:  CPU 78.95 s  wall 79.18 s
 
 --------------------------------------------------------------
 
                    Orbital Energies (a.u.)
 --------------------------------------------------------------
 
 Alpha MOs
 -- Occupied --
-91.9788 -91.9404 -11.2740 -11.2703 -11.2593 -11.2528 -11.2509 -11.2478
-11.2396 -11.2309 -11.2294 -11.2163  -8.9790  -8.9451  -6.6599  -6.6593
 -6.6588  -6.6264  -6.6254  -6.6241  -1.1985  -1.1536  -1.0574  -1.0258
 -1.0052  -0.9589  -0.9109  -0.9013  -0.8140  -0.7599  -0.7377  -0.6994
 -0.6597  -0.6396  -0.6104  -0.5887  -0.5810  -0.5714  -0.5653  -0.5498
 -0.5406  -0.5312  -0.5092  -0.5069  -0.4929  -0.4749  -0.4594  -0.4477
 -0.3575  -0.3377  -0.3119  -0.2809
 -- Virtual --
  0.0812   0.1331   0.1415   0.1532   0.1589   0.1708   0.1761   0.1793
  0.1881   0.1980   0.2057   0.2163   0.2276   0.2299   0.2329   0.2446
  0.2485   0.2575   0.2650   0.3014   0.3062   0.3332   0.3411   0.3503
  0.3663   0.3769   0.3787   0.3893   0.3952   0.4008   0.4114   0.4217
  0.4324   0.4410   0.4456   0.4532   0.4675   0.4703   0.4828   0.4845
  0.5002   0.5086   0.5110   0.5226   0.5278   0.5342   0.5479   0.5561
  0.5687   0.5758   0.5902   0.5988   0.6066   0.6083   0.6154   0.6212
  0.6226   0.6288   0.6326   0.6376   0.6425   0.6457   0.6469   0.6552
  0.6622   0.6704   0.6762   0.6837   0.6913   0.6952   0.7163   0.7310
  0.7380   0.7469   0.7515   0.7746   0.7894   0.7999   0.8070   0.8179
  0.8214   0.8361   0.8444   0.8516   0.8675   0.9045   0.9119   0.9160
  0.9264   0.9372   0.9436   0.9561   0.9814   0.9862   0.9930   1.0114
  1.0200   1.0302   1.0344   1.0459   1.0522   1.0606   1.0660   1.0821
  1.0914   1.1004   1.1189   1.1231   1.1350   1.1535   1.1620   1.1696
  1.1736   1.1784   1.1816   1.2093   1.2130   1.2179   1.2383   1.2444
  1.2522   1.2600   1.2644   1.2736   1.2790   1.2866   1.3088   1.3105
  1.3164   1.3348   1.3497   1.3625   1.3754   1.3914   1.4031   1.4121
  1.4166   1.4300   1.4473   1.4559   1.4706   1.4787   1.4928   1.4964
  1.5031   1.5145   1.5167   1.5349   1.5403   1.5407   1.5519   1.5550
  1.5649   1.5735   1.5830   1.5880   1.6030   1.6099   1.6228   1.6338
  1.6389   1.6664   1.6736   1.6792   1.6992   1.7083   1.7219   1.7390
  1.7483   1.7595   1.7697   1.7910   1.8067   1.8110   1.8375   1.8596
  1.8651   1.9164   1.9334   1.9467   1.9574   1.9717   1.9846   1.9929
  2.0237   2.0357   2.0420   2.0696   2.0802   2.1157   2.1227   2.1431
  2.1777   2.1907   2.2004   2.2112   2.2312   2.2463   2.2594   2.2725
  2.2892   2.3344   2.3375   2.3743   2.4129   2.4426   2.4559   2.4678
  2.5052   2.5110   2.5214   2.5480   2.5687   2.5795   2.6053   2.6142
  2.6273   2.6374   2.6623   2.6656   2.6735   2.6955   2.7067   2.7220
  2.7445   2.7560   2.7612   2.7796   2.7823   2.7918   2.8059   2.8333
  2.8465   2.8507   2.8611   2.8792   2.8961   2.8987   2.9170   2.9200
  2.9466   2.9548   2.9753   2.9847   2.9976   3.0141   3.0264   3.0352
  3.0447   3.0534   3.0888   3.0998   3.1127   3.1136   3.1364   3.1476
  3.1560   3.1605   3.1644   3.1733   3.1873   3.1943   3.2029   3.2160
  3.2292   3.2428   3.2462   3.2609   3.2755   3.2824   3.2952   3.3080
  3.3213   3.3265   3.3291   3.3387   3.3452   3.3551   3.3612   3.3680
  3.3707   3.3800   3.3896   3.3928   3.4073   3.4116   3.4192   3.4266
  3.4401   3.4459   3.4567   3.4607   3.4851   3.4953   3.5051   3.5125
  3.5157   3.5335   3.5347   3.5454   3.5517   3.5537   3.5712   3.5786
  3.5901   3.6150   3.6253   3.6265   3.6372   3.6484   3.6492   3.6634
  3.6738   3.6890   3.6929   3.7082   3.7107   3.7266   3.7301   3.7376
  3.7427   3.7565   3.7681   3.7817   3.7851   3.7999   3.8030   3.8222
  3.8273   3.8401   3.8521   3.8660   3.8755   3.8837   3.8921   3.9167
  3.9296   3.9437   3.9543   3.9581   3.9705   3.9738   3.9961   4.0117
  4.0220   4.0338   4.0437   4.0583   4.0712   4.0840   4.0987   4.1077
  4.1178   4.1219   4.1455   4.1570   4.1704   4.1721   4.1872   4.1967
  4.2087   4.2206   4.2382   4.2453   4.2528   4.2633   4.2663   4.2848
  4.2911   4.3019   4.3229   4.3289   4.3401   4.3510   4.3579   4.3639
  4.3732   4.3814   4.3996   4.4019   4.4133   4.4238   4.4300   4.4481
  4.4583   4.4663   4.4815   4.4932   4.4955   4.5182   4.5383   4.5478
  4.5752   4.5917   4.6134   4.6268   4.6350   4.6516   4.6624   4.6736
  4.6985   4.7257   4.7326   4.7574   4.7686   4.8144   4.8300   4.8437
  4.8639   4.8708   4.8940   4.9067   4.9307   4.9604   4.9694   4.9825
  5.0251   5.0483   5.0858   5.1069   5.1150   5.1255   5.1484   5.1654
  5.1750   5.1989   5.2230   5.2597   5.2828   5.2918   5.3129   5.3201
  5.3350   5.3630   5.3834   5.3978   5.4061   5.4246   5.4411   5.4507
  5.4938   5.5101   5.5299   5.5423   5.5495   5.5608   5.5724   5.5810
  5.6250   5.6342   5.6614   5.6808   5.6820   5.7096   5.7145   5.7250
  5.7648   5.7899   5.8259   5.9430   5.9890   6.0309   6.1226   6.1285
  6.2020   6.2209   6.2271   6.2362   6.2493   6.2800   6.2845   6.3215
  6.3778   6.4383   9.4724  10.5891  12.1986  12.8827  13.1618  13.8891
 14.1112  14.2084  14.2784  14.5920
 --------------------------------------------------------------
 
          Ground-State Mulliken Net Atomic Charges

     Atom                 Charge (a.u.)
  ----------------------------------------
      1 C                    -0.074026
      2 C                    -0.327303
      3 C                    -0.036893
      4 H                     0.174598
      5 C                     0.060717
      6 S                    -0.170429
      7 C                    -0.270900
      8 H                     0.112646
      9 H                     0.106777
     10 H                     0.100673
     11 C                    -0.060545
     12 C                    -0.247556
     13 C                     0.036104
     14 H                     0.179802
     15 C                    -0.226116
     16 S                     0.007113
     17 C                    -0.269155
     18 H                     0.102022
     19 H                     0.107513
     20 H                     0.108450
     21 H                     0.197584
     22 H                     0.111066
     23 H                     0.108492
     24 H                     0.169366
  ----------------------------------------
  Sum of atomic charges =     0.000000

 -----------------------------------------------------------------
                    Cartesian Multipole Moments
 -----------------------------------------------------------------
    Charge (ESU x 10^10)
                -0.0000
    Dipole Moment (Debye)
         X      -1.2908      Y       0.7364      Z       2.3284
       Tot       2.7622
    Quadrupole Moments (Debye-Ang)
        XX     -88.9022     XY       8.3325     YY     -76.8043
        XZ       0.8350     YZ      -0.4171     ZZ     -85.9055
    Octopole Moments (Debye-Ang^2)
       XXX    -108.9465    XXY      59.8527    XYY     -18.7680
       YYY     145.0948    XXZ      -2.0688    XYZ      -2.0462
       YYZ      -1.1271    XZZ     -29.2043    YZZ      64.1491
       ZZZ       3.7838
    Hexadecapole Moments (Debye-Ang^3)
      XXXX    -949.2158   XXXY    -170.6019   XXYY    -594.1844
      XYYY    -179.8206   YYYY   -2604.3890   XXXZ     -46.0578
      XXYZ     -31.1247   XYYZ     -20.4760   YYYZ     -95.5083
      XXZZ    -254.7447   XYZZ     -62.5797   YYZZ    -564.6373
      XZZZ     -47.7936   YZZZ     -82.3895   ZZZZ    -536.5720
 -----------------------------------------------------------------
 Total job time:  647.31s(wall), 643.70s(cpu) 
 Sun Jul 10 05:00:05 2022

        *************************************************************
        *                                                           *
        *  Thank you very much for using Q-Chem.  Have a nice day.  *
        *                                                           *
        *************************************************************


remove work dirs ./qchem1293618.0 -- ./qchem1293618.-1
rm -rf ./qchem1293618
