You are running Q-Chem version: 5.4.0

#
# job setting
#
local host:  exp-1-46
current dir: /expanse/lustre/scratch/theleonzhang/temp_project/Hydrogenated_Rotation_Test
input file:  Methylthiophene_Phi_20_Theta_230_Methylthiophene_Hydrogenated.qcin
output file: 
nprocs     : 0
nthreads   : 1
#
# qchem installation setting
#
QC:          /cm/shared/apps/spack/cpu/opt/spack/linux-centos8-zen2/gcc-10.2.0/qchem-5.4-akfmr7b3t57bfs6qan3padb2wnb2i7cl
QCAUX:       /cm/shared/apps/spack/cpu/opt/spack/linux-centos8-zen2/gcc-10.2.0/qchem-5.4-akfmr7b3t57bfs6qan3padb2wnb2i7cl/qcaux
QCPROG:      /cm/shared/apps/spack/cpu/opt/spack/linux-centos8-zen2/gcc-10.2.0/qchem-5.4-akfmr7b3t57bfs6qan3padb2wnb2i7cl/exe/qcprog.exe_s
QCPROG_S:    /cm/shared/apps/spack/cpu/opt/spack/linux-centos8-zen2/gcc-10.2.0/qchem-5.4-akfmr7b3t57bfs6qan3padb2wnb2i7cl/exe/qcprog.exe_s
PARALLEL:    -DSERIAL
QCMPI:       mpich
#
# qchem directory setting
#
qcrun:       qchem4034725
QCSCRATCH:   .
QCLOCALSCR:  
QCTMPDIR:    .
QCFILEPREF:  ./qchem4034725
QCSAVEDIR:   
workdirs:    ./qchem4034725
workdir0:    ./qchem4034725
partmpdirs =  
#
# parallel setting
#
QCRSH:           ssh
QCMPI:           mpich
QCMPIRUN:        /cm/shared/apps/spack/cpu/opt/spack/linux-centos8-zen2/gcc-10.2.0/qchem-5.4-akfmr7b3t57bfs6qan3padb2wnb2i7cl/bin/mpi/mpirun_qchem
QCMACHINEFILE:   ./qchem4034725/hostfile

#
# env setting
#
exported envs:   QC QCAUX QCSCRATCH QCRUNNAME QCFILEPREF QCPROG QCPROG_S GUIFILE

Running Job 1 of 1 Methylthiophene_Phi_20_Theta_230_Methylthiophene_Hydrogenated.qcin
qchem Methylthiophene_Phi_20_Theta_230_Methylthiophene_Hydrogenated.qcin_4034725.0 ./qchem4034725/ 0
/cm/shared/apps/spack/cpu/opt/spack/linux-centos8-zen2/gcc-10.2.0/qchem-5.4-akfmr7b3t57bfs6qan3padb2wnb2i7cl/exe/qcprog.exe_s Methylthiophene_Phi_20_Theta_230_Methylthiophene_Hydrogenated.qcin_4034725.0 ./qchem4034725/
                  Welcome to Q-Chem
     A Quantum Leap Into The Future Of Chemistry


 Q-Chem 5.4, Q-Chem, Inc., Pleasanton, CA (2021)

 License issued to: University of California, San Diego (site)

 E. Epifanovsky,  A. T. B. Gilbert,  Xintian Feng,  Joonho Lee,  Yuezhi Mao,  
 N. Mardirossian,  P. Pokhilko,  A. White,  M. Wormit,  M. P. Coons,  
 A. L. Dempwolff,  Zhengting Gan,  D. Hait,  P. R. Horn,  L. D. Jacobson,  
 I. Kaliman,  J. Kussmann,  A. W. Lange,  Ka Un Lao,  D. S. Levine,  Jie Liu,  
 S. C. McKenzie,  A. F. Morrison,  K. Nanda,  F. Plasser,  D. R. Rehn,  
 M. L. Vidal,  Zhi-Qiang You,  Ying Zhu,  B. Alam,  B. Albrecht,  
 A. Aldossary,  E. Alguire,  J. H. Andersen,  D. Barton,  K. Begam,  A. Behn,  
 Y. A. Bernard,  E. J. Berquist,  H. Burton,  A. Carreras,  K. Carter-Fenk,  
 R. Chakraborty,  A. D. Chien,  K. D. Closser,  V. Cofer-Shabica,  
 S. Dasgupta,  Jia Deng,  M. de Wergifosse,  M. Diedenhofen,  Hainam Do,  
 S. Ehlert,  Po-Tung Fang,  S. Fatehi,  Qingguo Feng,  J. Gayvert,  
 Qinghui Ge,  G. Gidofalvi,  M. Goldey,  J. Gomes,  C. Gonzalez-Espinoza,  
 S. Gulania,  A. Gunina,  M. W. D. Hanson-Heine,  P. H. P. Harbach,  
 A. W. Hauser,  M. F. Herbst,  M. Hernandez Vera,  M. Hodecker,  
 Z. C. Holden,  S. Houck,  Xunkun Huang,  Kerwin Hui,  B. C. Huynh,  
 M. Ivanov,  Hyunjun Ji,  Hanjie Jiang,  B. Kaduk,  S. Kaehler,  
 K. Khistyaev,  Jaehoon Kim,  P. Klunzinger,  Z. Koczor-Benda,  
 Joong Hoon Koh,  D. Kosenkov,  L. Koulias,  T. Kowalczyk,  C. M. Krauter,  
 K. Kue,  A. Kunitsa,  T. Kus,  A. Landau,  K. V. Lawler,  D. Lefrancois,  
 S. Lehtola,  Rain Li,  Yi-Pei Li,  Jiashu Liang,  M. Liebenthal,  
 Hung-Hsuan Lin,  You-Sheng Lin,  Fenglai Liu,  Kuan-Yu Liu,  
 M. Loipersberger,  A. Luenser,  A. Manjanath,  P. Manohar,  E. Mansoor,  
 S. F. Manzer,  Shan-Ping Mao,  A. V. Marenich,  T. Markovich,  S. Mason,  
 S. A. Maurer,  P. F. McLaughlin,  M. F. S. J. Menger,  J.-M. Mewes,  
 S. A. Mewes,  P. Morgante,  J. W. Mullinax,  T. S. Nguyen-Beck,  
 K. J. Oosterbaan,  G. Paran,  Alexander C. Paul,  Suranjan K. Paul,  
 F. Pavosevic,  Zheng Pei,  S. Prager,  E. I. Proynov,  E. Ramos,  B. Rana,  
 A. E. Rask,  A. Rettig,  R. M. Richard,  F. Rob,  E. Rossomme,  T. Scheele,  
 M. Scheurer,  M. Schneider,  N. Sergueev,  S. M. Sharada,  W. Skomorowski,  
 D. W. Small,  C. J. Stein,  Yu-Chuan Su,  E. J. Sundstrom,  Zhen Tao,  
 J. Thirman,  T. Tsuchimochi,  N. M. Tubman,  S. P. Veccham,  O. Vydrov,  
 J. Wenzel,  J. Witte,  A. Yamada,  Kun Yao,  S. Yeganeh,  S. R. Yost,  
 A. Zech,  Igor Ying Zhang,  Xing Zhang,  Yu Zhang,  D. Zuev,  
 A. Aspuru-Guzik,  A. T. Bell,  N. A. Besley,  K. B. Bravaya,  B. R. Brooks,  
 D. Casanova,  Jeng-Da Chai,  S. Coriani,  C. J. Cramer,  
 A. E. DePrince, III,  R. A. DiStasio Jr.,  A. Dreuw,  B. D. Dunietz,  
 T. R. Furlani,  W. A. Goddard III,  S. Grimme,  S. Hammes-Schiffer,  
 T. Head-Gordon,  W. J. Hehre,  Chao-Ping Hsu,  T.-C. Jagau,  Yousung Jung,  
 A. Klamt,  Jing Kong,  D. S. Lambrecht,  WanZhen Liang,  N. J. Mayhall,  
 C. W. McCurdy,  J. B. Neaton,  C. Ochsenfeld,  J. A. Parkhill,  R. Peverati,  
 V. A. Rassolov,  Yihan Shao,  L. V. Slipchenko,  T. Stauch,  R. P. Steele,  
 J. E. Subotnik,  A. J. W. Thom,  A. Tkatchenko,  D. G. Truhlar,  
 T. Van Voorhis,  T. A. Wesolowski,  K. B. Whaley,  H. L. Woodcock III,  
 P. M. Zimmerman,  S. Faraji,  P. M. W. Gill,  M. Head-Gordon,  
 J. M. Herbert,  A. I. Krylov

 Contributors to earlier versions of Q-Chem not listed above: 
 R. D. Adamson,  B. Austin,  R. Baer,  J. Baker,  G. J. O. Beran,  
 K. Brandhorst,  S. T. Brown,  E. F. C. Byrd,  A. K. Chakraborty,  
 G. K. L. Chan,  Chun-Min Chang,  Yunqing Chen,  C.-L. Cheng,  
 Siu Hung Chien,  D. M. Chipman,  D. L. Crittenden,  H. Dachsel,  
 R. J. Doerksen,  A. D. Dutoi,  R. G. Edgar,  J. Fosso-Tande,  
 L. Fusti-Molnar,  D. Ghosh,  A. Ghysels,  A. Golubeva-Zadorozhnaya,  
 J. Gonthier,  M. S. Gordon,  S. R. Gwaltney,  G. Hawkins,  J. E. Herr,  
 A. Heyden,  S. Hirata,  E. G. Hohenstein,  G. Kedziora,  F. J. Keil,  
 C. Kelley,  Jihan Kim,  R. A. King,  R. Z. Khaliullin,  P. P. Korambath,  
 W. Kurlancheek,  A. Laurent,  A. M. Lee,  M. S. Lee,  S. V. Levchenko,  
 Ching Yeh Lin,  D. Liotard,  E. Livshits,  R. C. Lochan,  I. Lotan,  
 L. A. Martinez-Martinez,  P. E. Maslen,  N. Nair,  D. P. O'Neill,  
 D. Neuhauser,  E. Neuscamman,  C. M. Oana,  R. Olivares-Amaya,  R. Olson,  
 T. M. Perrine,  B. Peters,  P. A. Pieniazek,  A. Prociuk,  Y. M. Rhee,  
 J. Ritchie,  M. A. Rohrdanz,  E. Rosta,  N. J. Russ,  H. F. Schaefer III,  
 M. W. Schmidt,  N. E. Schultz,  S. Sharma,  N. Shenvi,  C. D. Sherrill,  
 A. C. Simmonett,  A. Sodt,  T. Stein,  D. Stuck,  K. S. Thanthiriwatte,  
 V. Vanovschi,  L. Vogt,  Tao Wang,  A. Warshel,  M. A. Watson,  
 C. F. Williams,  Q. Wu,  X. Xu,  Jun Yang,  W. Zhang,  Yan Zhao

 Please cite Q-Chem as follows:
 Y. Shao et al., Mol. Phys. 113, 184-215 (2015)
 DOI: 10.1080/00268976.2014.952696

 Q-Chem 5.4.0 for Intel X86 EM64T Linux

 Parts of Q-Chem use Armadillo 9.800.1 (Horizon Scraper).
 http://arma.sourceforge.net/

 Q-Chem begins on Sun Jul 10 03:32:35 2022  

 Host: 
0

     Scratch files written to ./qchem4034725//
 May1621 |scratch|qcdevops|jenkins|workspace|build_RNUM    
 Processing $rem in /cm/shared/apps/spack/cpu/opt/spack/linux-centos8-zen2/gcc-10.2.0/qchem-5.4-akfmr7b3t57bfs6qan3padb2wnb2i7cl/config/preferences:
 Processing $rem in /home/theleonzhang/.qchemrc:
 Symmetry turned off for PCM/SM12/SMD calculation
 Core orbitals will be frozen

 Checking the input file for inconsistencies... 	...done.

--------------------------------------------------------------
User input:
--------------------------------------------------------------
$molecule
0 1
C	0.594240	-3.866725	-0.497696
C	-0.469057	-3.703963	0.393981
C	-0.817136	-2.357056	0.685571
H	-0.997777	-4.561092	0.837848
C	0.000000	-1.440664	0.000000
S	1.183137	-2.286957	-0.992782
C	-1.932056	-1.978743	1.620802
H	-2.426166	-2.878678	2.035506
H	-2.711806	-1.376015	1.109943
H	-1.564678	-1.375728	2.477350
C	0.000000	0.000000	0.000000
C	0.295399	0.811508	1.099446
C	0.768742	2.111949	0.776721
H	0.169256	0.464952	2.136088
C	0.844232	2.319291	-0.612546
S	0.322342	0.885558	-1.486809
C	1.140796	3.134091	1.814609
H	0.995218	2.734123	2.836676
H	0.526006	4.054142	1.726239
H	2.203157	3.443680	1.726228
H	1.168902	3.211257	-1.161575
H	0.281143	-4.392713	-1.406441
H	1.434879	-4.392347	-0.031265
H	-0.694122	-1.440937	-0.827402
$end

$rem
JOBTYPE		SP
EXCHANGE	HF
CORRELATION	pRIMP2
BASIS		cc-pvtz
METHOD		rimp2
AUX_BASIS	rimp2-cc-pvtz
SOLVENT_METHOD	PCM
PURECART	11111
SYMMETRY	false
MEM_TOTAL	110000
SCF_CONVERGENCE = 6
THRESH=10
$end



$solvent
dielectric 4.90
$end
--------------------------------------------------------------
 ----------------------------------------------------------------
             Standard Nuclear Orientation (Angstroms)
    I     Atom           X                Y                Z
 ----------------------------------------------------------------
    1      C       0.5942400000    -3.8667250000    -0.4976960000
    2      C      -0.4690570000    -3.7039630000     0.3939810000
    3      C      -0.8171360000    -2.3570560000     0.6855710000
    4      H      -0.9977770000    -4.5610920000     0.8378480000
    5      C       0.0000000000    -1.4406640000     0.0000000000
    6      S       1.1831370000    -2.2869570000    -0.9927820000
    7      C      -1.9320560000    -1.9787430000     1.6208020000
    8      H      -2.4261660000    -2.8786780000     2.0355060000
    9      H      -2.7118060000    -1.3760150000     1.1099430000
   10      H      -1.5646780000    -1.3757280000     2.4773500000
   11      C       0.0000000000     0.0000000000     0.0000000000
   12      C       0.2953990000     0.8115080000     1.0994460000
   13      C       0.7687420000     2.1119490000     0.7767210000
   14      H       0.1692560000     0.4649520000     2.1360880000
   15      C       0.8442320000     2.3192910000    -0.6125460000
   16      S       0.3223420000     0.8855580000    -1.4868090000
   17      C       1.1407960000     3.1340910000     1.8146090000
   18      H       0.9952180000     2.7341230000     2.8366760000
   19      H       0.5260060000     4.0541420000     1.7262390000
   20      H       2.2031570000     3.4436800000     1.7262280000
   21      H       1.1689020000     3.2112570000    -1.1615750000
   22      H       0.2811430000    -4.3927130000    -1.4064410000
   23      H       1.4348790000    -4.3923470000    -0.0312650000
   24      H      -0.6941220000    -1.4409370000    -0.8274020000
 ----------------------------------------------------------------
 Nuclear Repulsion Energy =         876.33543190 hartrees
 There are       52 alpha and       52 beta electrons

 Q-Chem warning in module forms1/BasisType.C, line 2236:

 You are not using the predefined 5D/6D in this basis set.

 Requested basis set is cc-pVTZ
 There are 196 shells and 536 basis functions

 Total QAlloc Memory Limit 110000 MB
 Mega-Array Size       188 MB
 MEM_STATIC part       192 MB
 Discretize the solute cavity surface with Lebedev spheres
	Using 110 Lebedev grid points for each H atom
	Using 194 Lebedev grid points for other atoms
	Atomic van der Waals radii will be scaled by 1.20
 Remove points where switching function is < 1.0e-08
 Keep 1617 surface tesserae and discard 2031 interior tesserae
 Molecular Surface Area = 235.510 Angst**2
 Requested basis set is rimp2-cc-pVTZ
 There are 414 shells and 1414 basis functions
 A cutoff of  1.0D-10 yielded  13967 shell pairs
 There are    101091 function pairs (    129626 Cartesian)
 Smallest overlap matrix eigenvalue = 7.34E-05

 Scale SEOQF with 1.000000e-01/1.000000e-01/1.000000e-01

 Standard Electronic Orientation quadrupole field applied
 Nucleus-field energy     =     0.0000000299 hartrees
 Guess from superposition of atomic densities
 Warning:  Energy on first SCF cycle will be non-variational
 SAD guess density has 104.000000 electrons

 -----------------------------------------------------------------------
  General SCF calculation program by
  Eric Jon Sundstrom, Paul Horn, Yuezhi Mao, Dmitri Zuev, Alec White,
  David Stuck, Shaama M.S., Shane Yost, Joonho Lee, David Small,
  Daniel Levine, Susi Lehtola, Hugh Burton, Evgeny Epifanovsky,
  Bang C. Huynh
 -----------------------------------------------------------------------
 Hartree-Fock
 A restricted SCF calculation will be
 performed using DIIS
 SCF converges when DIIS error is below 1.0e-06
 ---------------------------------------
  Cycle       Energy         DIIS error
 ---------------------------------------
    1   -1186.0318484902      2.39e-02  
    2   -1180.6061038412      1.56e-03  
    3   -1180.7312277447      6.07e-04  
    4   -1180.7455686062      3.28e-04  
    5   -1180.7505332491      6.07e-05  
    6   -1180.7507862551      2.49e-05  
    7   -1180.7508482184      9.31e-06  
    8   -1180.7508626506      4.52e-06  
    9   -1180.7508659907      1.51e-06  
   10   -1180.7508664934      5.19e-07  Convergence criterion met
 ---------------------------------------
 SCF time:   CPU 559.32s  wall 561.00s 

************** Final PCM Free Energy Summary **************
 G_electrostatic  =      -0.00944461 hartree =      -5.92658189 kcal/mol
 G_cavitation     =       0.00000000 hartree =       0.00000000 kcal/mol
 G_dispersion     =       0.00000000 hartree =       0.00000000 kcal/mol
 G_repulsion      =       0.00000000 hartree =       0.00000000 kcal/mol
 --------------------------------------------------
 Non-electrostatic Free Energy =       0.00000000 hartree =       0.00000000 kcal/mol
 Total                         =      -0.00944461 hartree =      -5.92658189 kcal/mol
 --------------------------------------------------
 SCF Energy (H0 + V/2)                       =   -1180.75086649 
 Solute Internal Energy (H0)                 =   -1180.74142188 
 Total Free Energy (H0 + V/2 + non-elec)     =   -1180.75086649 hartree
                                             = -740932.35161605 kcal/mol
***********************************************************

 SCF   energy in the final basis set =    -1180.7508664934
 Total energy in the final basis set =    -1180.7508664934


 --------------------------------------------------------------
  Generalized many-body perturbation theory program
  by Joonho Lee, Fazle Rob, Xintian Feng, Evgeny Epifanovsky

 No regularization used 
 (reg. param. = 0.0000e+00)
  (P|Q)^-1/2 Time:  CPU 2.30 s  wall 2.31 s

 In RI-MP2 calculation: 
 # of frozen core orbitals: 20

 Components of the RIMP2 correlation energy:
        aaaa    correlation energy =        -0.2513477696 a.u.
        abab    correlation energy =        -1.5037657464 a.u.
        bbbb    correlation energy =        -0.2513477696 a.u.
        non-Brillouin singles      =        -0.0000000000 a.u.
        total same-spin energy     =        -0.5026955393 a.u.
        total opposite-spin energy =        -1.5037657464 a.u.

 Total  RIMP2   correlation energy =        -2.0064612857 a.u.
        RIMP2         total energy =     -1182.7573277790 a.u.

 RI-MP2 Energy Time:  CPU 118.09 s  wall 118.46 s
 
 --------------------------------------------------------------
 
                    Orbital Energies (a.u.)
 --------------------------------------------------------------
 
 Alpha MOs
 -- Occupied --
-91.9846 -91.9421 -11.2792 -11.2643 -11.2633 -11.2552 -11.2505 -11.2409
-11.2377 -11.2323 -11.2286 -11.2193  -8.9844  -8.9468  -6.6654  -6.6648
 -6.6642  -6.6282  -6.6271  -6.6258  -1.1991  -1.1533  -1.0584  -1.0287
 -1.0006  -0.9635  -0.9125  -0.9003  -0.8151  -0.7593  -0.7415  -0.7027
 -0.6537  -0.6366  -0.6103  -0.5894  -0.5808  -0.5690  -0.5667  -0.5539
 -0.5438  -0.5319  -0.5142  -0.5059  -0.4899  -0.4788  -0.4651  -0.4480
 -0.3558  -0.3416  -0.3199  -0.2709
 -- Virtual --
  0.0904   0.1298   0.1412   0.1516   0.1596   0.1686   0.1784   0.1853
  0.1905   0.2027   0.2041   0.2173   0.2263   0.2334   0.2367   0.2430
  0.2502   0.2571   0.2788   0.2964   0.3216   0.3358   0.3463   0.3595
  0.3630   0.3719   0.3796   0.3845   0.3995   0.4036   0.4124   0.4224
  0.4364   0.4415   0.4489   0.4654   0.4724   0.4789   0.4841   0.4874
  0.4997   0.5070   0.5124   0.5280   0.5395   0.5426   0.5507   0.5564
  0.5717   0.5746   0.5886   0.5903   0.5972   0.6093   0.6151   0.6189
  0.6248   0.6270   0.6344   0.6368   0.6401   0.6436   0.6488   0.6601
  0.6635   0.6695   0.6849   0.6908   0.7020   0.7044   0.7118   0.7236
  0.7282   0.7467   0.7562   0.7701   0.7840   0.7913   0.8080   0.8201
  0.8301   0.8498   0.8580   0.8586   0.8820   0.8934   0.9010   0.9079
  0.9240   0.9446   0.9477   0.9601   0.9747   0.9829   1.0054   1.0071
  1.0210   1.0264   1.0368   1.0381   1.0505   1.0665   1.0746   1.0831
  1.0877   1.1027   1.1120   1.1195   1.1396   1.1442   1.1655   1.1703
  1.1806   1.1907   1.1959   1.2055   1.2086   1.2264   1.2340   1.2455
  1.2471   1.2632   1.2709   1.2756   1.2786   1.2952   1.3044   1.3092
  1.3240   1.3282   1.3407   1.3540   1.3793   1.3862   1.4061   1.4152
  1.4217   1.4402   1.4478   1.4547   1.4646   1.4788   1.4852   1.4931
  1.5126   1.5136   1.5193   1.5275   1.5320   1.5351   1.5526   1.5544
  1.5659   1.5786   1.5814   1.5928   1.6208   1.6259   1.6321   1.6455
  1.6552   1.6588   1.6754   1.6858   1.7007   1.7132   1.7298   1.7331
  1.7500   1.7569   1.7628   1.7845   1.8142   1.8211   1.8314   1.8670
  1.8763   1.9057   1.9253   1.9316   1.9387   1.9574   1.9842   2.0020
  2.0173   2.0306   2.0498   2.0734   2.0957   2.1112   2.1353   2.1551
  2.1657   2.1933   2.2081   2.2228   2.2321   2.2505   2.2650   2.2770
  2.2955   2.3200   2.3334   2.3733   2.4089   2.4355   2.4553   2.4721
  2.4847   2.5109   2.5322   2.5518   2.5762   2.5801   2.5829   2.6055
  2.6242   2.6313   2.6584   2.6707   2.6749   2.6814   2.6954   2.7345
  2.7464   2.7492   2.7686   2.7725   2.7781   2.7910   2.8113   2.8211
  2.8394   2.8469   2.8709   2.8769   2.8902   2.9073   2.9144   2.9203
  2.9410   2.9584   2.9684   3.0000   3.0094   3.0213   3.0341   3.0373
  3.0633   3.0741   3.0814   3.1074   3.1136   3.1191   3.1214   3.1280
  3.1449   3.1549   3.1645   3.1710   3.1787   3.1858   3.2005   3.2034
  3.2313   3.2461   3.2558   3.2646   3.2696   3.2788   3.2928   3.3105
  3.3193   3.3217   3.3320   3.3411   3.3437   3.3569   3.3599   3.3671
  3.3692   3.3847   3.3966   3.4048   3.4090   3.4177   3.4241   3.4264
  3.4353   3.4512   3.4670   3.4709   3.4767   3.4783   3.5023   3.5096
  3.5181   3.5237   3.5326   3.5340   3.5492   3.5628   3.5699   3.5803
  3.5983   3.6074   3.6121   3.6241   3.6334   3.6419   3.6505   3.6582
  3.6651   3.6759   3.6820   3.7048   3.7134   3.7273   3.7354   3.7423
  3.7487   3.7560   3.7624   3.7742   3.7827   3.7895   3.7930   3.8100
  3.8311   3.8493   3.8520   3.8609   3.8740   3.8844   3.9042   3.9145
  3.9241   3.9417   3.9555   3.9626   3.9778   3.9828   3.9920   4.0182
  4.0296   4.0344   4.0478   4.0558   4.0578   4.0856   4.0937   4.0956
  4.1141   4.1228   4.1506   4.1509   4.1570   4.1683   4.1839   4.1992
  4.2089   4.2222   4.2281   4.2466   4.2555   4.2645   4.2767   4.2825
  4.2971   4.2998   4.3133   4.3210   4.3409   4.3550   4.3642   4.3779
  4.3838   4.3894   4.4014   4.4056   4.4151   4.4220   4.4405   4.4532
  4.4586   4.4692   4.4766   4.4857   4.4938   4.5063   4.5351   4.5536
  4.5724   4.5891   4.6009   4.6128   4.6221   4.6458   4.6563   4.6683
  4.6990   4.7063   4.7328   4.7514   4.7737   4.8127   4.8295   4.8474
  4.8605   4.8769   4.8801   4.9048   4.9094   4.9477   4.9883   4.9902
  5.0233   5.0375   5.0867   5.0962   5.1197   5.1319   5.1689   5.1717
  5.1883   5.1965   5.2383   5.2687   5.2724   5.2962   5.3068   5.3310
  5.3404   5.3665   5.3788   5.3990   5.4144   5.4251   5.4361   5.4452
  5.4804   5.5157   5.5324   5.5364   5.5473   5.5571   5.5708   5.5918
  5.6137   5.6251   5.6316   5.6662   5.6765   5.6967   5.7096   5.7457
  5.7682   5.7860   5.8293   5.9776   6.0101   6.0713   6.1190   6.1532
  6.2083   6.2207   6.2293   6.2353   6.2496   6.2871   6.3048   6.3274
  6.3722   6.4843   9.3692  10.7967  12.1276  12.9429  13.2117  14.0045
 14.0712  14.1924  14.3081  14.6044
 --------------------------------------------------------------
 
          Ground-State Mulliken Net Atomic Charges

     Atom                 Charge (a.u.)
  ----------------------------------------
      1 C                    -0.077748
      2 C                    -0.325900
      3 C                    -0.034604
      4 H                     0.176116
      5 C                     0.095073
      6 S                    -0.170351
      7 C                    -0.273503
      8 H                     0.114291
      9 H                     0.105244
     10 H                     0.103660
     11 C                    -0.106158
     12 C                    -0.219374
     13 C                     0.014991
     14 H                     0.191874
     15 C                    -0.232995
     16 S                     0.005045
     17 C                    -0.273148
     18 H                     0.101724
     19 H                     0.107694
     20 H                     0.108415
     21 H                     0.197933
     22 H                     0.109959
     23 H                     0.113411
     24 H                     0.168352
  ----------------------------------------
  Sum of atomic charges =     0.000000

 -----------------------------------------------------------------
                    Cartesian Multipole Moments
 -----------------------------------------------------------------
    Charge (ESU x 10^10)
                -0.0000
    Dipole Moment (Debye)
         X      -1.6934      Y       0.4602      Z       2.3610
       Tot       2.9417
    Quadrupole Moments (Debye-Ang)
        XX     -90.7491     XY       7.0781     YY     -74.7748
        XZ       0.1379     YZ      -0.3144     ZZ     -85.5445
    Octopole Moments (Debye-Ang^2)
       XXX     -73.4527    XXY      51.6722    XYY     -12.5587
       YYY     130.8554    XXZ       1.8079    XYZ       1.8450
       YYZ      -5.9733    XZZ     -23.1920    YZZ      56.6586
       ZZZ       2.8423
    Hexadecapole Moments (Debye-Ang^3)
      XXXX    -597.1897   XXXY    -145.7157   XXYY    -580.4727
      XYYY    -125.4830   YYYY   -2695.1067   XXXZ     105.9646
      XXYZ     -45.4843   XYYZ      14.3754   YYYZ     -98.9841
      XXZZ    -227.7634   XYZZ     -33.2835   YYZZ    -605.9980
      XZZZ     105.8694   YZZZ     -97.9645   ZZZZ    -774.9277
 -----------------------------------------------------------------
 Total job time:  682.33s(wall), 678.45s(cpu) 
 Sun Jul 10 03:43:57 2022

        *************************************************************
        *                                                           *
        *  Thank you very much for using Q-Chem.  Have a nice day.  *
        *                                                           *
        *************************************************************


remove work dirs ./qchem4034725.0 -- ./qchem4034725.-1
rm -rf ./qchem4034725
You are running Q-Chem version: 5.4.0

#
# job setting
#
local host:  exp-3-09
current dir: /expanse/lustre/scratch/theleonzhang/temp_project/Hydrogenated_Rotation_Test
input file:  Methylthiophene_Phi_20_Theta_230_Methylthiophene_Hydrogenated.qcin
output file: 
nprocs     : 0
nthreads   : 1
#
# qchem installation setting
#
QC:          /cm/shared/apps/spack/cpu/opt/spack/linux-centos8-zen2/gcc-10.2.0/qchem-5.4-akfmr7b3t57bfs6qan3padb2wnb2i7cl
QCAUX:       /cm/shared/apps/spack/cpu/opt/spack/linux-centos8-zen2/gcc-10.2.0/qchem-5.4-akfmr7b3t57bfs6qan3padb2wnb2i7cl/qcaux
QCPROG:      /cm/shared/apps/spack/cpu/opt/spack/linux-centos8-zen2/gcc-10.2.0/qchem-5.4-akfmr7b3t57bfs6qan3padb2wnb2i7cl/exe/qcprog.exe_s
QCPROG_S:    /cm/shared/apps/spack/cpu/opt/spack/linux-centos8-zen2/gcc-10.2.0/qchem-5.4-akfmr7b3t57bfs6qan3padb2wnb2i7cl/exe/qcprog.exe_s
PARALLEL:    -DSERIAL
QCMPI:       mpich
#
# qchem directory setting
#
qcrun:       qchem929459
QCSCRATCH:   .
QCLOCALSCR:  
QCTMPDIR:    .
QCFILEPREF:  ./qchem929459
QCSAVEDIR:   
workdirs:    ./qchem929459
workdir0:    ./qchem929459
partmpdirs =  
#
# parallel setting
#
QCRSH:           ssh
QCMPI:           mpich
QCMPIRUN:        /cm/shared/apps/spack/cpu/opt/spack/linux-centos8-zen2/gcc-10.2.0/qchem-5.4-akfmr7b3t57bfs6qan3padb2wnb2i7cl/bin/mpi/mpirun_qchem
QCMACHINEFILE:   ./qchem929459/hostfile

#
# env setting
#
exported envs:   QC QCAUX QCSCRATCH QCRUNNAME QCFILEPREF QCPROG QCPROG_S GUIFILE

Running Job 1 of 1 Methylthiophene_Phi_20_Theta_230_Methylthiophene_Hydrogenated.qcin
qchem Methylthiophene_Phi_20_Theta_230_Methylthiophene_Hydrogenated.qcin_929459.0 ./qchem929459/ 0
/cm/shared/apps/spack/cpu/opt/spack/linux-centos8-zen2/gcc-10.2.0/qchem-5.4-akfmr7b3t57bfs6qan3padb2wnb2i7cl/exe/qcprog.exe_s Methylthiophene_Phi_20_Theta_230_Methylthiophene_Hydrogenated.qcin_929459.0 ./qchem929459/
                  Welcome to Q-Chem
     A Quantum Leap Into The Future Of Chemistry


 Q-Chem 5.4, Q-Chem, Inc., Pleasanton, CA (2021)

 License issued to: University of California, San Diego (site)

 E. Epifanovsky,  A. T. B. Gilbert,  Xintian Feng,  Joonho Lee,  Yuezhi Mao,  
 N. Mardirossian,  P. Pokhilko,  A. White,  M. Wormit,  M. P. Coons,  
 A. L. Dempwolff,  Zhengting Gan,  D. Hait,  P. R. Horn,  L. D. Jacobson,  
 I. Kaliman,  J. Kussmann,  A. W. Lange,  Ka Un Lao,  D. S. Levine,  Jie Liu,  
 S. C. McKenzie,  A. F. Morrison,  K. Nanda,  F. Plasser,  D. R. Rehn,  
 M. L. Vidal,  Zhi-Qiang You,  Ying Zhu,  B. Alam,  B. Albrecht,  
 A. Aldossary,  E. Alguire,  J. H. Andersen,  D. Barton,  K. Begam,  A. Behn,  
 Y. A. Bernard,  E. J. Berquist,  H. Burton,  A. Carreras,  K. Carter-Fenk,  
 R. Chakraborty,  A. D. Chien,  K. D. Closser,  V. Cofer-Shabica,  
 S. Dasgupta,  Jia Deng,  M. de Wergifosse,  M. Diedenhofen,  Hainam Do,  
 S. Ehlert,  Po-Tung Fang,  S. Fatehi,  Qingguo Feng,  J. Gayvert,  
 Qinghui Ge,  G. Gidofalvi,  M. Goldey,  J. Gomes,  C. Gonzalez-Espinoza,  
 S. Gulania,  A. Gunina,  M. W. D. Hanson-Heine,  P. H. P. Harbach,  
 A. W. Hauser,  M. F. Herbst,  M. Hernandez Vera,  M. Hodecker,  
 Z. C. Holden,  S. Houck,  Xunkun Huang,  Kerwin Hui,  B. C. Huynh,  
 M. Ivanov,  Hyunjun Ji,  Hanjie Jiang,  B. Kaduk,  S. Kaehler,  
 K. Khistyaev,  Jaehoon Kim,  P. Klunzinger,  Z. Koczor-Benda,  
 Joong Hoon Koh,  D. Kosenkov,  L. Koulias,  T. Kowalczyk,  C. M. Krauter,  
 K. Kue,  A. Kunitsa,  T. Kus,  A. Landau,  K. V. Lawler,  D. Lefrancois,  
 S. Lehtola,  Rain Li,  Yi-Pei Li,  Jiashu Liang,  M. Liebenthal,  
 Hung-Hsuan Lin,  You-Sheng Lin,  Fenglai Liu,  Kuan-Yu Liu,  
 M. Loipersberger,  A. Luenser,  A. Manjanath,  P. Manohar,  E. Mansoor,  
 S. F. Manzer,  Shan-Ping Mao,  A. V. Marenich,  T. Markovich,  S. Mason,  
 S. A. Maurer,  P. F. McLaughlin,  M. F. S. J. Menger,  J.-M. Mewes,  
 S. A. Mewes,  P. Morgante,  J. W. Mullinax,  T. S. Nguyen-Beck,  
 K. J. Oosterbaan,  G. Paran,  Alexander C. Paul,  Suranjan K. Paul,  
 F. Pavosevic,  Zheng Pei,  S. Prager,  E. I. Proynov,  E. Ramos,  B. Rana,  
 A. E. Rask,  A. Rettig,  R. M. Richard,  F. Rob,  E. Rossomme,  T. Scheele,  
 M. Scheurer,  M. Schneider,  N. Sergueev,  S. M. Sharada,  W. Skomorowski,  
 D. W. Small,  C. J. Stein,  Yu-Chuan Su,  E. J. Sundstrom,  Zhen Tao,  
 J. Thirman,  T. Tsuchimochi,  N. M. Tubman,  S. P. Veccham,  O. Vydrov,  
 J. Wenzel,  J. Witte,  A. Yamada,  Kun Yao,  S. Yeganeh,  S. R. Yost,  
 A. Zech,  Igor Ying Zhang,  Xing Zhang,  Yu Zhang,  D. Zuev,  
 A. Aspuru-Guzik,  A. T. Bell,  N. A. Besley,  K. B. Bravaya,  B. R. Brooks,  
 D. Casanova,  Jeng-Da Chai,  S. Coriani,  C. J. Cramer,  
 A. E. DePrince, III,  R. A. DiStasio Jr.,  A. Dreuw,  B. D. Dunietz,  
 T. R. Furlani,  W. A. Goddard III,  S. Grimme,  S. Hammes-Schiffer,  
 T. Head-Gordon,  W. J. Hehre,  Chao-Ping Hsu,  T.-C. Jagau,  Yousung Jung,  
 A. Klamt,  Jing Kong,  D. S. Lambrecht,  WanZhen Liang,  N. J. Mayhall,  
 C. W. McCurdy,  J. B. Neaton,  C. Ochsenfeld,  J. A. Parkhill,  R. Peverati,  
 V. A. Rassolov,  Yihan Shao,  L. V. Slipchenko,  T. Stauch,  R. P. Steele,  
 J. E. Subotnik,  A. J. W. Thom,  A. Tkatchenko,  D. G. Truhlar,  
 T. Van Voorhis,  T. A. Wesolowski,  K. B. Whaley,  H. L. Woodcock III,  
 P. M. Zimmerman,  S. Faraji,  P. M. W. Gill,  M. Head-Gordon,  
 J. M. Herbert,  A. I. Krylov

 Contributors to earlier versions of Q-Chem not listed above: 
 R. D. Adamson,  B. Austin,  R. Baer,  J. Baker,  G. J. O. Beran,  
 K. Brandhorst,  S. T. Brown,  E. F. C. Byrd,  A. K. Chakraborty,  
 G. K. L. Chan,  Chun-Min Chang,  Yunqing Chen,  C.-L. Cheng,  
 Siu Hung Chien,  D. M. Chipman,  D. L. Crittenden,  H. Dachsel,  
 R. J. Doerksen,  A. D. Dutoi,  R. G. Edgar,  J. Fosso-Tande,  
 L. Fusti-Molnar,  D. Ghosh,  A. Ghysels,  A. Golubeva-Zadorozhnaya,  
 J. Gonthier,  M. S. Gordon,  S. R. Gwaltney,  G. Hawkins,  J. E. Herr,  
 A. Heyden,  S. Hirata,  E. G. Hohenstein,  G. Kedziora,  F. J. Keil,  
 C. Kelley,  Jihan Kim,  R. A. King,  R. Z. Khaliullin,  P. P. Korambath,  
 W. Kurlancheek,  A. Laurent,  A. M. Lee,  M. S. Lee,  S. V. Levchenko,  
 Ching Yeh Lin,  D. Liotard,  E. Livshits,  R. C. Lochan,  I. Lotan,  
 L. A. Martinez-Martinez,  P. E. Maslen,  N. Nair,  D. P. O'Neill,  
 D. Neuhauser,  E. Neuscamman,  C. M. Oana,  R. Olivares-Amaya,  R. Olson,  
 T. M. Perrine,  B. Peters,  P. A. Pieniazek,  A. Prociuk,  Y. M. Rhee,  
 J. Ritchie,  M. A. Rohrdanz,  E. Rosta,  N. J. Russ,  H. F. Schaefer III,  
 M. W. Schmidt,  N. E. Schultz,  S. Sharma,  N. Shenvi,  C. D. Sherrill,  
 A. C. Simmonett,  A. Sodt,  T. Stein,  D. Stuck,  K. S. Thanthiriwatte,  
 V. Vanovschi,  L. Vogt,  Tao Wang,  A. Warshel,  M. A. Watson,  
 C. F. Williams,  Q. Wu,  X. Xu,  Jun Yang,  W. Zhang,  Yan Zhao

 Please cite Q-Chem as follows:
 Y. Shao et al., Mol. Phys. 113, 184-215 (2015)
 DOI: 10.1080/00268976.2014.952696

 Q-Chem 5.4.0 for Intel X86 EM64T Linux

 Parts of Q-Chem use Armadillo 9.800.1 (Horizon Scraper).
 http://arma.sourceforge.net/

 Q-Chem begins on Sun Jul 10 03:59:35 2022  

 Host: 
0

     Scratch files written to ./qchem929459//
 May1621 |scratch|qcdevops|jenkins|workspace|build_RNUM    
 Processing $rem in /cm/shared/apps/spack/cpu/opt/spack/linux-centos8-zen2/gcc-10.2.0/qchem-5.4-akfmr7b3t57bfs6qan3padb2wnb2i7cl/config/preferences:
 Processing $rem in /home/theleonzhang/.qchemrc:
 Symmetry turned off for PCM/SM12/SMD calculation
 Core orbitals will be frozen

 Checking the input file for inconsistencies... 	...done.

--------------------------------------------------------------
User input:
--------------------------------------------------------------
$molecule
0 1
C	0.594240	-3.866725	-0.497696
C	-0.469057	-3.703963	0.393981
C	-0.817136	-2.357056	0.685571
H	-0.997777	-4.561092	0.837848
C	0.000000	-1.440664	0.000000
S	1.183137	-2.286957	-0.992782
C	-1.932056	-1.978743	1.620802
H	-2.426166	-2.878678	2.035506
H	-2.711806	-1.376015	1.109943
H	-1.564678	-1.375728	2.477350
C	0.000000	0.000000	0.000000
C	0.295399	0.811508	1.099446
C	0.768742	2.111949	0.776721
H	0.169256	0.464952	2.136088
C	0.844232	2.319291	-0.612546
S	0.322342	0.885558	-1.486809
C	1.140796	3.134091	1.814609
H	0.995218	2.734123	2.836676
H	0.526006	4.054142	1.726239
H	2.203157	3.443680	1.726228
H	1.168902	3.211257	-1.161575
H	0.281143	-4.392713	-1.406441
H	1.434879	-4.392347	-0.031265
H	-0.694122	-1.440937	-0.827402
$end

$rem
JOBTYPE		SP
EXCHANGE	HF
CORRELATION	pRIMP2
BASIS		cc-pvtz
METHOD		rimp2
AUX_BASIS	rimp2-cc-pvtz
SOLVENT_METHOD	PCM
PURECART	11111
SYMMETRY	false
MEM_TOTAL	110000
SCF_CONVERGENCE = 6
THRESH=10
$end



$solvent
dielectric 4.90
$end
--------------------------------------------------------------
 ----------------------------------------------------------------
             Standard Nuclear Orientation (Angstroms)
    I     Atom           X                Y                Z
 ----------------------------------------------------------------
    1      C       0.5942400000    -3.8667250000    -0.4976960000
    2      C      -0.4690570000    -3.7039630000     0.3939810000
    3      C      -0.8171360000    -2.3570560000     0.6855710000
    4      H      -0.9977770000    -4.5610920000     0.8378480000
    5      C       0.0000000000    -1.4406640000     0.0000000000
    6      S       1.1831370000    -2.2869570000    -0.9927820000
    7      C      -1.9320560000    -1.9787430000     1.6208020000
    8      H      -2.4261660000    -2.8786780000     2.0355060000
    9      H      -2.7118060000    -1.3760150000     1.1099430000
   10      H      -1.5646780000    -1.3757280000     2.4773500000
   11      C       0.0000000000     0.0000000000     0.0000000000
   12      C       0.2953990000     0.8115080000     1.0994460000
   13      C       0.7687420000     2.1119490000     0.7767210000
   14      H       0.1692560000     0.4649520000     2.1360880000
   15      C       0.8442320000     2.3192910000    -0.6125460000
   16      S       0.3223420000     0.8855580000    -1.4868090000
   17      C       1.1407960000     3.1340910000     1.8146090000
   18      H       0.9952180000     2.7341230000     2.8366760000
   19      H       0.5260060000     4.0541420000     1.7262390000
   20      H       2.2031570000     3.4436800000     1.7262280000
   21      H       1.1689020000     3.2112570000    -1.1615750000
   22      H       0.2811430000    -4.3927130000    -1.4064410000
   23      H       1.4348790000    -4.3923470000    -0.0312650000
   24      H      -0.6941220000    -1.4409370000    -0.8274020000
 ----------------------------------------------------------------
 Nuclear Repulsion Energy =         876.33543190 hartrees
 There are       52 alpha and       52 beta electrons

 Q-Chem warning in module forms1/BasisType.C, line 2236:

 You are not using the predefined 5D/6D in this basis set.

 Requested basis set is cc-pVTZ
 There are 196 shells and 536 basis functions

 Total QAlloc Memory Limit 110000 MB
 Mega-Array Size       188 MB
 MEM_STATIC part       192 MB
 Discretize the solute cavity surface with Lebedev spheres
	Using 110 Lebedev grid points for each H atom
	Using 194 Lebedev grid points for other atoms
	Atomic van der Waals radii will be scaled by 1.20
 Remove points where switching function is < 1.0e-08
 Keep 1617 surface tesserae and discard 2031 interior tesserae
 Molecular Surface Area = 235.510 Angst**2
 Requested basis set is rimp2-cc-pVTZ
 There are 414 shells and 1414 basis functions
 A cutoff of  1.0D-10 yielded  13967 shell pairs
 There are    101091 function pairs (    129626 Cartesian)
 Smallest overlap matrix eigenvalue = 7.34E-05

 Scale SEOQF with 1.000000e-01/1.000000e-01/1.000000e-01

 Standard Electronic Orientation quadrupole field applied
 Nucleus-field energy     =     0.0000000299 hartrees
 Guess from superposition of atomic densities
 Warning:  Energy on first SCF cycle will be non-variational
 SAD guess density has 104.000000 electrons

 -----------------------------------------------------------------------
  General SCF calculation program by
  Eric Jon Sundstrom, Paul Horn, Yuezhi Mao, Dmitri Zuev, Alec White,
  David Stuck, Shaama M.S., Shane Yost, Joonho Lee, David Small,
  Daniel Levine, Susi Lehtola, Hugh Burton, Evgeny Epifanovsky,
  Bang C. Huynh
 -----------------------------------------------------------------------
 Hartree-Fock
 A restricted SCF calculation will be
 performed using DIIS
 SCF converges when DIIS error is below 1.0e-06
 ---------------------------------------
  Cycle       Energy         DIIS error
 ---------------------------------------
    1   -1186.0318484902      2.39e-02  
    2   -1180.6061038412      1.56e-03  
    3   -1180.7312277447      6.07e-04  
    4   -1180.7455686062      3.28e-04  
    5   -1180.7505332491      6.07e-05  
    6   -1180.7507862551      2.49e-05  
    7   -1180.7508482184      9.31e-06  
    8   -1180.7508626506      4.52e-06  
    9   -1180.7508659907      1.51e-06  
   10   -1180.7508664934      5.19e-07  Convergence criterion met
 ---------------------------------------
 SCF time:   CPU 558.63s  wall 561.00s 

************** Final PCM Free Energy Summary **************
 G_electrostatic  =      -0.00944461 hartree =      -5.92658189 kcal/mol
 G_cavitation     =       0.00000000 hartree =       0.00000000 kcal/mol
 G_dispersion     =       0.00000000 hartree =       0.00000000 kcal/mol
 G_repulsion      =       0.00000000 hartree =       0.00000000 kcal/mol
 --------------------------------------------------
 Non-electrostatic Free Energy =       0.00000000 hartree =       0.00000000 kcal/mol
 Total                         =      -0.00944461 hartree =      -5.92658189 kcal/mol
 --------------------------------------------------
 SCF Energy (H0 + V/2)                       =   -1180.75086649 
 Solute Internal Energy (H0)                 =   -1180.74142188 
 Total Free Energy (H0 + V/2 + non-elec)     =   -1180.75086649 hartree
                                             = -740932.35161605 kcal/mol
***********************************************************

 SCF   energy in the final basis set =    -1180.7508664934
 Total energy in the final basis set =    -1180.7508664934


 --------------------------------------------------------------
  Generalized many-body perturbation theory program
  by Joonho Lee, Fazle Rob, Xintian Feng, Evgeny Epifanovsky

 No regularization used 
 (reg. param. = 0.0000e+00)
  (P|Q)^-1/2 Time:  CPU 1.89 s  wall 1.89 s

 In RI-MP2 calculation: 
 # of frozen core orbitals: 20

 Components of the RIMP2 correlation energy:
        aaaa    correlation energy =        -0.2513477696 a.u.
        abab    correlation energy =        -1.5037657464 a.u.
        bbbb    correlation energy =        -0.2513477696 a.u.
        non-Brillouin singles      =        -0.0000000000 a.u.
        total same-spin energy     =        -0.5026955393 a.u.
        total opposite-spin energy =        -1.5037657464 a.u.

 Total  RIMP2   correlation energy =        -2.0064612857 a.u.
        RIMP2         total energy =     -1182.7573277790 a.u.

 RI-MP2 Energy Time:  CPU 79.34 s  wall 79.60 s
 
 --------------------------------------------------------------
 
                    Orbital Energies (a.u.)
 --------------------------------------------------------------
 
 Alpha MOs
 -- Occupied --
-91.9846 -91.9421 -11.2792 -11.2643 -11.2633 -11.2552 -11.2505 -11.2409
-11.2377 -11.2323 -11.2286 -11.2193  -8.9844  -8.9468  -6.6654  -6.6648
 -6.6642  -6.6282  -6.6271  -6.6258  -1.1991  -1.1533  -1.0584  -1.0287
 -1.0006  -0.9635  -0.9125  -0.9003  -0.8151  -0.7593  -0.7415  -0.7027
 -0.6537  -0.6366  -0.6103  -0.5894  -0.5808  -0.5690  -0.5667  -0.5539
 -0.5438  -0.5319  -0.5142  -0.5059  -0.4899  -0.4788  -0.4651  -0.4480
 -0.3558  -0.3416  -0.3199  -0.2709
 -- Virtual --
  0.0904   0.1298   0.1412   0.1516   0.1596   0.1686   0.1784   0.1853
  0.1905   0.2027   0.2041   0.2173   0.2263   0.2334   0.2367   0.2430
  0.2502   0.2571   0.2788   0.2964   0.3216   0.3358   0.3463   0.3595
  0.3630   0.3719   0.3796   0.3845   0.3995   0.4036   0.4124   0.4224
  0.4364   0.4415   0.4489   0.4654   0.4724   0.4789   0.4841   0.4874
  0.4997   0.5070   0.5124   0.5280   0.5395   0.5426   0.5507   0.5564
  0.5717   0.5746   0.5886   0.5903   0.5972   0.6093   0.6151   0.6189
  0.6248   0.6270   0.6344   0.6368   0.6401   0.6436   0.6488   0.6601
  0.6635   0.6695   0.6849   0.6908   0.7020   0.7044   0.7118   0.7236
  0.7282   0.7467   0.7562   0.7701   0.7840   0.7913   0.8080   0.8201
  0.8301   0.8498   0.8580   0.8586   0.8820   0.8934   0.9010   0.9079
  0.9240   0.9446   0.9477   0.9601   0.9747   0.9829   1.0054   1.0071
  1.0210   1.0264   1.0368   1.0381   1.0505   1.0665   1.0746   1.0831
  1.0877   1.1027   1.1120   1.1195   1.1396   1.1442   1.1655   1.1703
  1.1806   1.1907   1.1959   1.2055   1.2086   1.2264   1.2340   1.2455
  1.2471   1.2632   1.2709   1.2756   1.2786   1.2952   1.3044   1.3092
  1.3240   1.3282   1.3407   1.3540   1.3793   1.3862   1.4061   1.4152
  1.4217   1.4402   1.4478   1.4547   1.4646   1.4788   1.4852   1.4931
  1.5126   1.5136   1.5193   1.5275   1.5320   1.5351   1.5526   1.5544
  1.5659   1.5786   1.5814   1.5928   1.6208   1.6259   1.6321   1.6455
  1.6552   1.6588   1.6754   1.6858   1.7007   1.7132   1.7298   1.7331
  1.7500   1.7569   1.7628   1.7845   1.8142   1.8211   1.8314   1.8670
  1.8763   1.9057   1.9253   1.9316   1.9387   1.9574   1.9842   2.0020
  2.0173   2.0306   2.0498   2.0734   2.0957   2.1112   2.1353   2.1551
  2.1657   2.1933   2.2081   2.2228   2.2321   2.2505   2.2650   2.2770
  2.2955   2.3200   2.3334   2.3733   2.4089   2.4355   2.4553   2.4721
  2.4847   2.5109   2.5322   2.5518   2.5762   2.5801   2.5829   2.6055
  2.6242   2.6313   2.6584   2.6707   2.6749   2.6814   2.6954   2.7345
  2.7464   2.7492   2.7686   2.7725   2.7781   2.7910   2.8113   2.8211
  2.8394   2.8469   2.8709   2.8769   2.8902   2.9073   2.9144   2.9203
  2.9410   2.9584   2.9684   3.0000   3.0094   3.0213   3.0341   3.0373
  3.0633   3.0741   3.0814   3.1074   3.1136   3.1191   3.1214   3.1280
  3.1449   3.1549   3.1645   3.1710   3.1787   3.1858   3.2005   3.2034
  3.2313   3.2461   3.2558   3.2646   3.2696   3.2788   3.2928   3.3105
  3.3193   3.3217   3.3320   3.3411   3.3437   3.3569   3.3599   3.3671
  3.3692   3.3847   3.3966   3.4048   3.4090   3.4177   3.4241   3.4264
  3.4353   3.4512   3.4670   3.4709   3.4767   3.4783   3.5023   3.5096
  3.5181   3.5237   3.5326   3.5340   3.5492   3.5628   3.5699   3.5803
  3.5983   3.6074   3.6121   3.6241   3.6334   3.6419   3.6505   3.6582
  3.6651   3.6759   3.6820   3.7048   3.7134   3.7273   3.7354   3.7423
  3.7487   3.7560   3.7624   3.7742   3.7827   3.7895   3.7930   3.8100
  3.8311   3.8493   3.8520   3.8609   3.8740   3.8844   3.9042   3.9145
  3.9241   3.9417   3.9555   3.9626   3.9778   3.9828   3.9920   4.0182
  4.0296   4.0344   4.0478   4.0558   4.0578   4.0856   4.0937   4.0956
  4.1141   4.1228   4.1506   4.1509   4.1570   4.1683   4.1839   4.1992
  4.2089   4.2222   4.2281   4.2466   4.2555   4.2645   4.2767   4.2825
  4.2971   4.2998   4.3133   4.3210   4.3409   4.3550   4.3642   4.3779
  4.3838   4.3894   4.4014   4.4056   4.4151   4.4220   4.4405   4.4532
  4.4586   4.4692   4.4766   4.4857   4.4938   4.5063   4.5351   4.5536
  4.5724   4.5891   4.6009   4.6128   4.6221   4.6458   4.6563   4.6683
  4.6990   4.7063   4.7328   4.7514   4.7737   4.8127   4.8295   4.8474
  4.8605   4.8769   4.8801   4.9048   4.9094   4.9477   4.9883   4.9902
  5.0233   5.0375   5.0867   5.0962   5.1197   5.1319   5.1689   5.1717
  5.1883   5.1965   5.2383   5.2687   5.2724   5.2962   5.3068   5.3310
  5.3404   5.3665   5.3788   5.3990   5.4144   5.4251   5.4361   5.4452
  5.4804   5.5157   5.5324   5.5364   5.5473   5.5571   5.5708   5.5918
  5.6137   5.6251   5.6316   5.6662   5.6765   5.6967   5.7096   5.7457
  5.7682   5.7860   5.8293   5.9776   6.0101   6.0713   6.1190   6.1532
  6.2083   6.2207   6.2293   6.2353   6.2496   6.2871   6.3048   6.3274
  6.3722   6.4843   9.3692  10.7967  12.1276  12.9429  13.2117  14.0045
 14.0712  14.1924  14.3081  14.6044
 --------------------------------------------------------------
 
          Ground-State Mulliken Net Atomic Charges

     Atom                 Charge (a.u.)
  ----------------------------------------
      1 C                    -0.077748
      2 C                    -0.325900
      3 C                    -0.034604
      4 H                     0.176116
      5 C                     0.095073
      6 S                    -0.170351
      7 C                    -0.273503
      8 H                     0.114291
      9 H                     0.105244
     10 H                     0.103660
     11 C                    -0.106158
     12 C                    -0.219374
     13 C                     0.014991
     14 H                     0.191874
     15 C                    -0.232995
     16 S                     0.005045
     17 C                    -0.273148
     18 H                     0.101724
     19 H                     0.107694
     20 H                     0.108415
     21 H                     0.197933
     22 H                     0.109959
     23 H                     0.113411
     24 H                     0.168352
  ----------------------------------------
  Sum of atomic charges =     0.000000

 -----------------------------------------------------------------
                    Cartesian Multipole Moments
 -----------------------------------------------------------------
    Charge (ESU x 10^10)
                -0.0000
    Dipole Moment (Debye)
         X      -1.6934      Y       0.4602      Z       2.3610
       Tot       2.9417
    Quadrupole Moments (Debye-Ang)
        XX     -90.7491     XY       7.0781     YY     -74.7748
        XZ       0.1379     YZ      -0.3144     ZZ     -85.5445
    Octopole Moments (Debye-Ang^2)
       XXX     -73.4527    XXY      51.6722    XYY     -12.5587
       YYY     130.8554    XXZ       1.8079    XYZ       1.8450
       YYZ      -5.9733    XZZ     -23.1920    YZZ      56.6586
       ZZZ       2.8423
    Hexadecapole Moments (Debye-Ang^3)
      XXXX    -597.1897   XXXY    -145.7157   XXYY    -580.4727
      XYYY    -125.4830   YYYY   -2695.1067   XXXZ     105.9646
      XXYZ     -45.4843   XYYZ      14.3754   YYYZ     -98.9841
      XXZZ    -227.7634   XYZZ     -33.2835   YYZZ    -605.9980
      XZZZ     105.8694   YZZZ     -97.9645   ZZZZ    -774.9277
 -----------------------------------------------------------------
 Total job time:  643.06s(wall), 638.87s(cpu) 
 Sun Jul 10 04:10:19 2022

        *************************************************************
        *                                                           *
        *  Thank you very much for using Q-Chem.  Have a nice day.  *
        *                                                           *
        *************************************************************


remove work dirs ./qchem929459.0 -- ./qchem929459.-1
rm -rf ./qchem929459
