You are running Q-Chem version: 5.4.0

#
# job setting
#
local host:  exp-1-41
current dir: /expanse/lustre/scratch/theleonzhang/temp_project/Hydrogenated_Rotation_Test
input file:  Methylthiophene_Phi_40_Theta_340_Methylthiophene_Hydrogenated.qcin
output file: 
nprocs     : 0
nthreads   : 1
#
# qchem installation setting
#
QC:          /cm/shared/apps/spack/cpu/opt/spack/linux-centos8-zen2/gcc-10.2.0/qchem-5.4-akfmr7b3t57bfs6qan3padb2wnb2i7cl
QCAUX:       /cm/shared/apps/spack/cpu/opt/spack/linux-centos8-zen2/gcc-10.2.0/qchem-5.4-akfmr7b3t57bfs6qan3padb2wnb2i7cl/qcaux
QCPROG:      /cm/shared/apps/spack/cpu/opt/spack/linux-centos8-zen2/gcc-10.2.0/qchem-5.4-akfmr7b3t57bfs6qan3padb2wnb2i7cl/exe/qcprog.exe_s
QCPROG_S:    /cm/shared/apps/spack/cpu/opt/spack/linux-centos8-zen2/gcc-10.2.0/qchem-5.4-akfmr7b3t57bfs6qan3padb2wnb2i7cl/exe/qcprog.exe_s
PARALLEL:    -DSERIAL
QCMPI:       mpich
#
# qchem directory setting
#
qcrun:       qchem1196814
QCSCRATCH:   .
QCLOCALSCR:  
QCTMPDIR:    .
QCFILEPREF:  ./qchem1196814
QCSAVEDIR:   
workdirs:    ./qchem1196814
workdir0:    ./qchem1196814
partmpdirs =  
#
# parallel setting
#
QCRSH:           ssh
QCMPI:           mpich
QCMPIRUN:        /cm/shared/apps/spack/cpu/opt/spack/linux-centos8-zen2/gcc-10.2.0/qchem-5.4-akfmr7b3t57bfs6qan3padb2wnb2i7cl/bin/mpi/mpirun_qchem
QCMACHINEFILE:   ./qchem1196814/hostfile

#
# env setting
#
exported envs:   QC QCAUX QCSCRATCH QCRUNNAME QCFILEPREF QCPROG QCPROG_S GUIFILE

Running Job 1 of 1 Methylthiophene_Phi_40_Theta_340_Methylthiophene_Hydrogenated.qcin
qchem Methylthiophene_Phi_40_Theta_340_Methylthiophene_Hydrogenated.qcin_1196814.0 ./qchem1196814/ 0
/cm/shared/apps/spack/cpu/opt/spack/linux-centos8-zen2/gcc-10.2.0/qchem-5.4-akfmr7b3t57bfs6qan3padb2wnb2i7cl/exe/qcprog.exe_s Methylthiophene_Phi_40_Theta_340_Methylthiophene_Hydrogenated.qcin_1196814.0 ./qchem1196814/
                  Welcome to Q-Chem
     A Quantum Leap Into The Future Of Chemistry


 Q-Chem 5.4, Q-Chem, Inc., Pleasanton, CA (2021)

 License issued to: University of California, San Diego (site)

 E. Epifanovsky,  A. T. B. Gilbert,  Xintian Feng,  Joonho Lee,  Yuezhi Mao,  
 N. Mardirossian,  P. Pokhilko,  A. White,  M. Wormit,  M. P. Coons,  
 A. L. Dempwolff,  Zhengting Gan,  D. Hait,  P. R. Horn,  L. D. Jacobson,  
 I. Kaliman,  J. Kussmann,  A. W. Lange,  Ka Un Lao,  D. S. Levine,  Jie Liu,  
 S. C. McKenzie,  A. F. Morrison,  K. Nanda,  F. Plasser,  D. R. Rehn,  
 M. L. Vidal,  Zhi-Qiang You,  Ying Zhu,  B. Alam,  B. Albrecht,  
 A. Aldossary,  E. Alguire,  J. H. Andersen,  D. Barton,  K. Begam,  A. Behn,  
 Y. A. Bernard,  E. J. Berquist,  H. Burton,  A. Carreras,  K. Carter-Fenk,  
 R. Chakraborty,  A. D. Chien,  K. D. Closser,  V. Cofer-Shabica,  
 S. Dasgupta,  Jia Deng,  M. de Wergifosse,  M. Diedenhofen,  Hainam Do,  
 S. Ehlert,  Po-Tung Fang,  S. Fatehi,  Qingguo Feng,  J. Gayvert,  
 Qinghui Ge,  G. Gidofalvi,  M. Goldey,  J. Gomes,  C. Gonzalez-Espinoza,  
 S. Gulania,  A. Gunina,  M. W. D. Hanson-Heine,  P. H. P. Harbach,  
 A. W. Hauser,  M. F. Herbst,  M. Hernandez Vera,  M. Hodecker,  
 Z. C. Holden,  S. Houck,  Xunkun Huang,  Kerwin Hui,  B. C. Huynh,  
 M. Ivanov,  Hyunjun Ji,  Hanjie Jiang,  B. Kaduk,  S. Kaehler,  
 K. Khistyaev,  Jaehoon Kim,  P. Klunzinger,  Z. Koczor-Benda,  
 Joong Hoon Koh,  D. Kosenkov,  L. Koulias,  T. Kowalczyk,  C. M. Krauter,  
 K. Kue,  A. Kunitsa,  T. Kus,  A. Landau,  K. V. Lawler,  D. Lefrancois,  
 S. Lehtola,  Rain Li,  Yi-Pei Li,  Jiashu Liang,  M. Liebenthal,  
 Hung-Hsuan Lin,  You-Sheng Lin,  Fenglai Liu,  Kuan-Yu Liu,  
 M. Loipersberger,  A. Luenser,  A. Manjanath,  P. Manohar,  E. Mansoor,  
 S. F. Manzer,  Shan-Ping Mao,  A. V. Marenich,  T. Markovich,  S. Mason,  
 S. A. Maurer,  P. F. McLaughlin,  M. F. S. J. Menger,  J.-M. Mewes,  
 S. A. Mewes,  P. Morgante,  J. W. Mullinax,  T. S. Nguyen-Beck,  
 K. J. Oosterbaan,  G. Paran,  Alexander C. Paul,  Suranjan K. Paul,  
 F. Pavosevic,  Zheng Pei,  S. Prager,  E. I. Proynov,  E. Ramos,  B. Rana,  
 A. E. Rask,  A. Rettig,  R. M. Richard,  F. Rob,  E. Rossomme,  T. Scheele,  
 M. Scheurer,  M. Schneider,  N. Sergueev,  S. M. Sharada,  W. Skomorowski,  
 D. W. Small,  C. J. Stein,  Yu-Chuan Su,  E. J. Sundstrom,  Zhen Tao,  
 J. Thirman,  T. Tsuchimochi,  N. M. Tubman,  S. P. Veccham,  O. Vydrov,  
 J. Wenzel,  J. Witte,  A. Yamada,  Kun Yao,  S. Yeganeh,  S. R. Yost,  
 A. Zech,  Igor Ying Zhang,  Xing Zhang,  Yu Zhang,  D. Zuev,  
 A. Aspuru-Guzik,  A. T. Bell,  N. A. Besley,  K. B. Bravaya,  B. R. Brooks,  
 D. Casanova,  Jeng-Da Chai,  S. Coriani,  C. J. Cramer,  
 A. E. DePrince, III,  R. A. DiStasio Jr.,  A. Dreuw,  B. D. Dunietz,  
 T. R. Furlani,  W. A. Goddard III,  S. Grimme,  S. Hammes-Schiffer,  
 T. Head-Gordon,  W. J. Hehre,  Chao-Ping Hsu,  T.-C. Jagau,  Yousung Jung,  
 A. Klamt,  Jing Kong,  D. S. Lambrecht,  WanZhen Liang,  N. J. Mayhall,  
 C. W. McCurdy,  J. B. Neaton,  C. Ochsenfeld,  J. A. Parkhill,  R. Peverati,  
 V. A. Rassolov,  Yihan Shao,  L. V. Slipchenko,  T. Stauch,  R. P. Steele,  
 J. E. Subotnik,  A. J. W. Thom,  A. Tkatchenko,  D. G. Truhlar,  
 T. Van Voorhis,  T. A. Wesolowski,  K. B. Whaley,  H. L. Woodcock III,  
 P. M. Zimmerman,  S. Faraji,  P. M. W. Gill,  M. Head-Gordon,  
 J. M. Herbert,  A. I. Krylov

 Contributors to earlier versions of Q-Chem not listed above: 
 R. D. Adamson,  B. Austin,  R. Baer,  J. Baker,  G. J. O. Beran,  
 K. Brandhorst,  S. T. Brown,  E. F. C. Byrd,  A. K. Chakraborty,  
 G. K. L. Chan,  Chun-Min Chang,  Yunqing Chen,  C.-L. Cheng,  
 Siu Hung Chien,  D. M. Chipman,  D. L. Crittenden,  H. Dachsel,  
 R. J. Doerksen,  A. D. Dutoi,  R. G. Edgar,  J. Fosso-Tande,  
 L. Fusti-Molnar,  D. Ghosh,  A. Ghysels,  A. Golubeva-Zadorozhnaya,  
 J. Gonthier,  M. S. Gordon,  S. R. Gwaltney,  G. Hawkins,  J. E. Herr,  
 A. Heyden,  S. Hirata,  E. G. Hohenstein,  G. Kedziora,  F. J. Keil,  
 C. Kelley,  Jihan Kim,  R. A. King,  R. Z. Khaliullin,  P. P. Korambath,  
 W. Kurlancheek,  A. Laurent,  A. M. Lee,  M. S. Lee,  S. V. Levchenko,  
 Ching Yeh Lin,  D. Liotard,  E. Livshits,  R. C. Lochan,  I. Lotan,  
 L. A. Martinez-Martinez,  P. E. Maslen,  N. Nair,  D. P. O'Neill,  
 D. Neuhauser,  E. Neuscamman,  C. M. Oana,  R. Olivares-Amaya,  R. Olson,  
 T. M. Perrine,  B. Peters,  P. A. Pieniazek,  A. Prociuk,  Y. M. Rhee,  
 J. Ritchie,  M. A. Rohrdanz,  E. Rosta,  N. J. Russ,  H. F. Schaefer III,  
 M. W. Schmidt,  N. E. Schultz,  S. Sharma,  N. Shenvi,  C. D. Sherrill,  
 A. C. Simmonett,  A. Sodt,  T. Stein,  D. Stuck,  K. S. Thanthiriwatte,  
 V. Vanovschi,  L. Vogt,  Tao Wang,  A. Warshel,  M. A. Watson,  
 C. F. Williams,  Q. Wu,  X. Xu,  Jun Yang,  W. Zhang,  Yan Zhao

 Please cite Q-Chem as follows:
 Y. Shao et al., Mol. Phys. 113, 184-215 (2015)
 DOI: 10.1080/00268976.2014.952696

 Q-Chem 5.4.0 for Intel X86 EM64T Linux

 Parts of Q-Chem use Armadillo 9.800.1 (Horizon Scraper).
 http://arma.sourceforge.net/

 Q-Chem begins on Sun Jul 10 05:34:17 2022  

 Host: 
0

     Scratch files written to ./qchem1196814//
 May1621 |scratch|qcdevops|jenkins|workspace|build_RNUM    
 Processing $rem in /cm/shared/apps/spack/cpu/opt/spack/linux-centos8-zen2/gcc-10.2.0/qchem-5.4-akfmr7b3t57bfs6qan3padb2wnb2i7cl/config/preferences:
 Processing $rem in /home/theleonzhang/.qchemrc:
 Symmetry turned off for PCM/SM12/SMD calculation
 Core orbitals will be frozen

 Checking the input file for inconsistencies... 	...done.

--------------------------------------------------------------
User input:
--------------------------------------------------------------
$molecule
0 1
C	0.264439	-3.866725	0.728625
C	-0.209794	-3.703963	-0.575519
C	-0.364749	-2.357056	-1.002336
H	-0.446060	-4.561092	-1.224165
C	-0.000000	-1.440664	-0.000000
S	0.528253	-2.286957	1.451336
C	-0.862253	-1.978743	-2.369885
H	-1.082953	-2.878678	-2.976034
H	-0.115513	-1.376015	-2.927887
H	-1.792797	-1.375728	-2.317620
C	0.000000	0.000000	0.000000
C	0.555137	0.661535	1.099446
C	1.444710	1.721658	0.776721
H	0.318072	0.379023	2.136088
C	1.586563	1.890676	-0.612546
S	0.605781	0.721904	-1.486809
C	2.143920	2.554907	1.814609
H	1.870325	2.228851	2.836676
H	1.880882	3.629742	1.726239
H	3.248098	2.482476	1.726228
H	2.196723	2.617806	-1.161575
H	1.225465	-4.392713	0.745219
H	-0.461378	-4.392347	1.359038
H	-1.014907	-1.440391	0.369273
$end

$rem
JOBTYPE		SP
EXCHANGE	HF
CORRELATION	pRIMP2
BASIS		cc-pvtz
METHOD		rimp2
AUX_BASIS	rimp2-cc-pvtz
SOLVENT_METHOD	PCM
PURECART	11111
SYMMETRY	false
MEM_TOTAL	110000
SCF_CONVERGENCE = 6
THRESH=10
$end



$solvent
dielectric 4.90
$end
--------------------------------------------------------------
 ----------------------------------------------------------------
             Standard Nuclear Orientation (Angstroms)
    I     Atom           X                Y                Z
 ----------------------------------------------------------------
    1      C       0.2644390000    -3.8667250000     0.7286250000
    2      C      -0.2097940000    -3.7039630000    -0.5755190000
    3      C      -0.3647490000    -2.3570560000    -1.0023360000
    4      H      -0.4460600000    -4.5610920000    -1.2241650000
    5      C       0.0000000000    -1.4406640000     0.0000000000
    6      S       0.5282530000    -2.2869570000     1.4513360000
    7      C      -0.8622530000    -1.9787430000    -2.3698850000
    8      H      -1.0829530000    -2.8786780000    -2.9760340000
    9      H      -0.1155130000    -1.3760150000    -2.9278870000
   10      H      -1.7927970000    -1.3757280000    -2.3176200000
   11      C       0.0000000000     0.0000000000     0.0000000000
   12      C       0.5551370000     0.6615350000     1.0994460000
   13      C       1.4447100000     1.7216580000     0.7767210000
   14      H       0.3180720000     0.3790230000     2.1360880000
   15      C       1.5865630000     1.8906760000    -0.6125460000
   16      S       0.6057810000     0.7219040000    -1.4868090000
   17      C       2.1439200000     2.5549070000     1.8146090000
   18      H       1.8703250000     2.2288510000     2.8366760000
   19      H       1.8808820000     3.6297420000     1.7262390000
   20      H       3.2480980000     2.4824760000     1.7262280000
   21      H       2.1967230000     2.6178060000    -1.1615750000
   22      H       1.2254650000    -4.3927130000     0.7452190000
   23      H      -0.4613780000    -4.3923470000     1.3590380000
   24      H      -1.0149070000    -1.4403910000     0.3692730000
 ----------------------------------------------------------------
 Nuclear Repulsion Energy =         886.92111608 hartrees
 There are       52 alpha and       52 beta electrons

 Q-Chem warning in module forms1/BasisType.C, line 2236:

 You are not using the predefined 5D/6D in this basis set.

 Requested basis set is cc-pVTZ
 There are 196 shells and 536 basis functions

 Total QAlloc Memory Limit 110000 MB
 Mega-Array Size       188 MB
 MEM_STATIC part       192 MB
 Discretize the solute cavity surface with Lebedev spheres
	Using 110 Lebedev grid points for each H atom
	Using 194 Lebedev grid points for other atoms
	Atomic van der Waals radii will be scaled by 1.20
 Remove points where switching function is < 1.0e-08
 Keep 1578 surface tesserae and discard 2070 interior tesserae
 Molecular Surface Area = 229.656 Angst**2
 Requested basis set is rimp2-cc-pVTZ
 There are 414 shells and 1414 basis functions
 A cutoff of  1.0D-10 yielded  14127 shell pairs
 There are    102557 function pairs (    131587 Cartesian)
 Smallest overlap matrix eigenvalue = 6.85E-05

 Scale SEOQF with 1.000000e-01/1.000000e-01/1.000000e-01

 Standard Electronic Orientation quadrupole field applied
 Nucleus-field energy     =     0.0000000200 hartrees
 Guess from superposition of atomic densities
 Warning:  Energy on first SCF cycle will be non-variational
 SAD guess density has 104.000000 electrons

 -----------------------------------------------------------------------
  General SCF calculation program by
  Eric Jon Sundstrom, Paul Horn, Yuezhi Mao, Dmitri Zuev, Alec White,
  David Stuck, Shaama M.S., Shane Yost, Joonho Lee, David Small,
  Daniel Levine, Susi Lehtola, Hugh Burton, Evgeny Epifanovsky,
  Bang C. Huynh
 -----------------------------------------------------------------------
 Hartree-Fock
 A restricted SCF calculation will be
 performed using DIIS
 SCF converges when DIIS error is below 1.0e-06
 ---------------------------------------
  Cycle       Energy         DIIS error
 ---------------------------------------
    1   -1186.0926839090      2.40e-02  
    2   -1180.5752520546      1.55e-03  
    3   -1180.7007843126      5.93e-04  
    4   -1180.7147896162      3.31e-04  
    5   -1180.7198155270      6.17e-05  
    6   -1180.7200820198      2.51e-05  
    7   -1180.7201469008      9.84e-06  
    8   -1180.7201623283      4.64e-06  
    9   -1180.7201663004      1.88e-06  
   10   -1180.7201670315      7.21e-07  Convergence criterion met
 ---------------------------------------
 SCF time:   CPU 589.93s  wall 592.00s 

************** Final PCM Free Energy Summary **************
 G_electrostatic  =      -0.00817669 hartree =      -5.13094740 kcal/mol
 G_cavitation     =       0.00000000 hartree =       0.00000000 kcal/mol
 G_dispersion     =       0.00000000 hartree =       0.00000000 kcal/mol
 G_repulsion      =       0.00000000 hartree =       0.00000000 kcal/mol
 --------------------------------------------------
 Non-electrostatic Free Energy =       0.00000000 hartree =       0.00000000 kcal/mol
 Total                         =      -0.00817669 hartree =      -5.13094740 kcal/mol
 --------------------------------------------------
 SCF Energy (H0 + V/2)                       =   -1180.72016703 
 Solute Internal Energy (H0)                 =   -1180.71199035 
 Total Free Energy (H0 + V/2 + non-elec)     =   -1180.72016703 hartree
                                             = -740913.08741299 kcal/mol
***********************************************************

 SCF   energy in the final basis set =    -1180.7201670315
 Total energy in the final basis set =    -1180.7201670315


 --------------------------------------------------------------
  Generalized many-body perturbation theory program
  by Joonho Lee, Fazle Rob, Xintian Feng, Evgeny Epifanovsky

 No regularization used 
 (reg. param. = 0.0000e+00)
  (P|Q)^-1/2 Time:  CPU 1.91 s  wall 1.91 s

 In RI-MP2 calculation: 
 # of frozen core orbitals: 20

 Components of the RIMP2 correlation energy:
        aaaa    correlation energy =        -0.2535146895 a.u.
        abab    correlation energy =        -1.5096893862 a.u.
        bbbb    correlation energy =        -0.2535146895 a.u.
        non-Brillouin singles      =        -0.0000000000 a.u.
        total same-spin energy     =        -0.5070293791 a.u.
        total opposite-spin energy =        -1.5096893862 a.u.

 Total  RIMP2   correlation energy =        -2.0167187652 a.u.
        RIMP2         total energy =     -1182.7368857967 a.u.

 RI-MP2 Energy Time:  CPU 80.02 s  wall 80.36 s
 
 --------------------------------------------------------------
 
                    Orbital Energies (a.u.)
 --------------------------------------------------------------
 
 Alpha MOs
 -- Occupied --
-91.9782 -91.9426 -11.2746 -11.2663 -11.2631 -11.2532 -11.2517 -11.2436
-11.2403 -11.2315 -11.2285 -11.2179  -8.9789  -8.9472  -6.6598  -6.6590
 -6.6585  -6.6286  -6.6275  -6.6262  -1.2015  -1.1533  -1.0589  -1.0273
 -1.0071  -0.9567  -0.9141  -0.9023  -0.8126  -0.7712  -0.7227  -0.7013
 -0.6572  -0.6438  -0.6114  -0.5893  -0.5834  -0.5760  -0.5673  -0.5530
 -0.5398  -0.5350  -0.5164  -0.5115  -0.4872  -0.4678  -0.4572  -0.4433
 -0.3570  -0.3400  -0.3259  -0.2599
 -- Virtual --
  0.0783   0.1344   0.1438   0.1499   0.1598   0.1708   0.1806   0.1831
  0.1884   0.1968   0.2064   0.2137   0.2243   0.2318   0.2407   0.2419
  0.2543   0.2593   0.2793   0.2947   0.3240   0.3263   0.3406   0.3656
  0.3663   0.3720   0.3856   0.3964   0.4040   0.4152   0.4200   0.4223
  0.4410   0.4497   0.4525   0.4643   0.4727   0.4790   0.4834   0.4963
  0.5078   0.5123   0.5151   0.5300   0.5364   0.5475   0.5570   0.5617
  0.5692   0.5738   0.5806   0.5977   0.6026   0.6103   0.6172   0.6183
  0.6204   0.6265   0.6319   0.6380   0.6404   0.6458   0.6519   0.6560
  0.6640   0.6697   0.6869   0.6950   0.6970   0.7059   0.7160   0.7335
  0.7420   0.7498   0.7639   0.7773   0.7803   0.7925   0.7951   0.8173
  0.8306   0.8450   0.8606   0.8629   0.8826   0.8855   0.9000   0.9249
  0.9277   0.9384   0.9495   0.9669   0.9726   0.9761   1.0027   1.0083
  1.0164   1.0292   1.0419   1.0456   1.0530   1.0668   1.0792   1.0827
  1.0880   1.0981   1.1111   1.1203   1.1386   1.1617   1.1635   1.1671
  1.1718   1.1882   1.1934   1.2128   1.2184   1.2238   1.2352   1.2508
  1.2640   1.2682   1.2703   1.2751   1.2894   1.2972   1.3020   1.3051
  1.3169   1.3235   1.3468   1.3514   1.3825   1.3864   1.3961   1.3976
  1.4209   1.4388   1.4425   1.4590   1.4620   1.4696   1.4765   1.4986
  1.5038   1.5120   1.5198   1.5315   1.5344   1.5417   1.5513   1.5546
  1.5660   1.5774   1.5877   1.6013   1.6087   1.6184   1.6340   1.6370
  1.6505   1.6677   1.6716   1.6821   1.6954   1.7123   1.7273   1.7401
  1.7636   1.7711   1.7765   1.7887   1.8093   1.8245   1.8406   1.8596
  1.8798   1.9156   1.9502   1.9648   1.9729   1.9771   1.9884   1.9948
  2.0268   2.0418   2.0496   2.0680   2.0792   2.1062   2.1298   2.1511
  2.1778   2.1962   2.2094   2.2130   2.2299   2.2338   2.2660   2.2781
  2.2863   2.3095   2.3238   2.3873   2.4112   2.4282   2.4548   2.4674
  2.4740   2.5102   2.5370   2.5464   2.5680   2.5852   2.6122   2.6268
  2.6334   2.6405   2.6648   2.6735   2.6838   2.6926   2.7000   2.7270
  2.7363   2.7479   2.7641   2.7725   2.7872   2.7995   2.8105   2.8231
  2.8271   2.8430   2.8626   2.8736   2.8944   2.9121   2.9202   2.9386
  2.9571   2.9640   2.9698   2.9836   2.9945   3.0252   3.0306   3.0445
  3.0466   3.0776   3.0882   3.1001   3.1118   3.1236   3.1350   3.1396
  3.1490   3.1602   3.1731   3.1750   3.1922   3.2005   3.2049   3.2085
  3.2242   3.2376   3.2462   3.2594   3.2642   3.2766   3.2821   3.2982
  3.3151   3.3214   3.3334   3.3402   3.3490   3.3523   3.3599   3.3607
  3.3755   3.3811   3.3927   3.3977   3.4051   3.4143   3.4187   3.4309
  3.4396   3.4576   3.4609   3.4707   3.4878   3.4913   3.5010   3.5056
  3.5233   3.5270   3.5415   3.5431   3.5492   3.5609   3.5760   3.5863
  3.5992   3.6096   3.6151   3.6279   3.6343   3.6349   3.6554   3.6709
  3.6942   3.6990   3.7049   3.7107   3.7182   3.7317   3.7384   3.7497
  3.7552   3.7644   3.7708   3.7834   3.7899   3.7996   3.8108   3.8200
  3.8273   3.8376   3.8552   3.8685   3.8806   3.8841   3.8984   3.9206
  3.9431   3.9450   3.9561   3.9622   3.9751   3.9843   4.0070   4.0181
  4.0322   4.0438   4.0552   4.0557   4.0677   4.0870   4.1049   4.1118
  4.1257   4.1452   4.1482   4.1508   4.1665   4.1844   4.1903   4.2036
  4.2097   4.2240   4.2327   4.2538   4.2594   4.2688   4.2731   4.2816
  4.2898   4.3147   4.3299   4.3393   4.3453   4.3489   4.3533   4.3694
  4.3777   4.4010   4.4033   4.4060   4.4275   4.4289   4.4377   4.4567
  4.4641   4.4760   4.4784   4.4849   4.5049   4.5189   4.5602   4.5727
  4.5829   4.6033   4.6103   4.6294   4.6403   4.6539   4.6618   4.6778
  4.7000   4.7342   4.7448   4.7770   4.7852   4.7980   4.8184   4.8311
  4.8689   4.8738   4.8974   4.9099   4.9242   4.9293   4.9495   4.9775
  5.0313   5.0505   5.0660   5.1010   5.1186   5.1286   5.1457   5.1700
  5.1929   5.2213   5.2342   5.2663   5.2827   5.3012   5.3098   5.3140
  5.3395   5.3693   5.3770   5.3975   5.4053   5.4211   5.4414   5.4524
  5.4787   5.5100   5.5249   5.5392   5.5545   5.5676   5.5682   5.6017
  5.6257   5.6315   5.6501   5.6543   5.6681   5.6915   5.7052   5.7272
  5.7638   5.7930   5.8299   5.9775   5.9976   6.0586   6.1109   6.1298
  6.2148   6.2172   6.2311   6.2384   6.2488   6.2796   6.2889   6.3075
  6.4011   6.4142   9.5235  10.5706  12.3356  12.8841  13.1798  13.8142
 14.0998  14.2395  14.2862  14.6676
 --------------------------------------------------------------
 
          Ground-State Mulliken Net Atomic Charges

     Atom                 Charge (a.u.)
  ----------------------------------------
      1 C                    -0.078712
      2 C                    -0.331961
      3 C                    -0.046197
      4 H                     0.176905
      5 C                     0.104170
      6 S                    -0.186371
      7 C                    -0.299970
      8 H                     0.118636
      9 H                     0.111949
     10 H                     0.112683
     11 C                    -0.049555
     12 C                    -0.285076
     13 C                     0.048413
     14 H                     0.186394
     15 C                    -0.244385
     16 S                     0.012124
     17 C                    -0.268630
     18 H                     0.102973
     19 H                     0.108305
     20 H                     0.108252
     21 H                     0.195800
     22 H                     0.111057
     23 H                     0.110296
     24 H                     0.182897
  ----------------------------------------
  Sum of atomic charges =     0.000000

 -----------------------------------------------------------------
                    Cartesian Multipole Moments
 -----------------------------------------------------------------
    Charge (ESU x 10^10)
                -0.0000
    Dipole Moment (Debye)
         X      -0.3385      Y       0.2131      Z      -0.3975
       Tot       0.5639
    Quadrupole Moments (Debye-Ang)
        XX     -87.4266     XY       7.9076     YY     -78.3536
        XZ       0.6326     YZ       3.7729     ZZ     -85.3108
    Octopole Moments (Debye-Ang^2)
       XXX    -126.9148    XXY      75.4899    XYY     -32.3902
       YYY     154.4362    XXZ      -1.5467    XYZ      -2.4555
       YYZ      -0.8106    XZZ     -42.9785    YZZ      64.7854
       ZZZ      -0.8303
    Hexadecapole Moments (Debye-Ang^3)
      XXXX    -605.3736   XXXY    -224.8382   XXYY    -531.3296
      XYYY    -212.2820   YYYY   -2458.0046   XXXZ    -159.4020
      XXYZ     -26.5324   XYYZ     -48.0686   YYYZ     -80.9021
      XXZZ    -274.1674   XYZZ     -55.8284   YYZZ    -595.8067
      XZZZ    -149.9622   YZZZ     -43.0550   ZZZZ   -1031.5488
 -----------------------------------------------------------------
 Total job time:  674.73s(wall), 670.86s(cpu) 
 Sun Jul 10 05:45:32 2022

        *************************************************************
        *                                                           *
        *  Thank you very much for using Q-Chem.  Have a nice day.  *
        *                                                           *
        *************************************************************


remove work dirs ./qchem1196814.0 -- ./qchem1196814.-1
rm -rf ./qchem1196814
