You are running Q-Chem version: 5.4.0

#
# job setting
#
local host:  exp-1-41
current dir: /expanse/lustre/scratch/theleonzhang/temp_project/Hydrogenated_Rotation_Test
input file:  Methylthiophene_Phi_40_Theta_330_Methylthiophene_Hydrogenated.qcin
output file: 
nprocs     : 0
nthreads   : 1
#
# qchem installation setting
#
QC:          /cm/shared/apps/spack/cpu/opt/spack/linux-centos8-zen2/gcc-10.2.0/qchem-5.4-akfmr7b3t57bfs6qan3padb2wnb2i7cl
QCAUX:       /cm/shared/apps/spack/cpu/opt/spack/linux-centos8-zen2/gcc-10.2.0/qchem-5.4-akfmr7b3t57bfs6qan3padb2wnb2i7cl/qcaux
QCPROG:      /cm/shared/apps/spack/cpu/opt/spack/linux-centos8-zen2/gcc-10.2.0/qchem-5.4-akfmr7b3t57bfs6qan3padb2wnb2i7cl/exe/qcprog.exe_s
QCPROG_S:    /cm/shared/apps/spack/cpu/opt/spack/linux-centos8-zen2/gcc-10.2.0/qchem-5.4-akfmr7b3t57bfs6qan3padb2wnb2i7cl/exe/qcprog.exe_s
PARALLEL:    -DSERIAL
QCMPI:       mpich
#
# qchem directory setting
#
qcrun:       qchem1186571
QCSCRATCH:   .
QCLOCALSCR:  
QCTMPDIR:    .
QCFILEPREF:  ./qchem1186571
QCSAVEDIR:   
workdirs:    ./qchem1186571
workdir0:    ./qchem1186571
partmpdirs =  
#
# parallel setting
#
QCRSH:           ssh
QCMPI:           mpich
QCMPIRUN:        /cm/shared/apps/spack/cpu/opt/spack/linux-centos8-zen2/gcc-10.2.0/qchem-5.4-akfmr7b3t57bfs6qan3padb2wnb2i7cl/bin/mpi/mpirun_qchem
QCMACHINEFILE:   ./qchem1186571/hostfile

#
# env setting
#
exported envs:   QC QCAUX QCSCRATCH QCRUNNAME QCFILEPREF QCPROG QCPROG_S GUIFILE

Running Job 1 of 1 Methylthiophene_Phi_40_Theta_330_Methylthiophene_Hydrogenated.qcin
qchem Methylthiophene_Phi_40_Theta_330_Methylthiophene_Hydrogenated.qcin_1186571.0 ./qchem1186571/ 0
/cm/shared/apps/spack/cpu/opt/spack/linux-centos8-zen2/gcc-10.2.0/qchem-5.4-akfmr7b3t57bfs6qan3padb2wnb2i7cl/exe/qcprog.exe_s Methylthiophene_Phi_40_Theta_330_Methylthiophene_Hydrogenated.qcin_1186571.0 ./qchem1186571/
                  Welcome to Q-Chem
     A Quantum Leap Into The Future Of Chemistry


 Q-Chem 5.4, Q-Chem, Inc., Pleasanton, CA (2021)

 License issued to: University of California, San Diego (site)

 E. Epifanovsky,  A. T. B. Gilbert,  Xintian Feng,  Joonho Lee,  Yuezhi Mao,  
 N. Mardirossian,  P. Pokhilko,  A. White,  M. Wormit,  M. P. Coons,  
 A. L. Dempwolff,  Zhengting Gan,  D. Hait,  P. R. Horn,  L. D. Jacobson,  
 I. Kaliman,  J. Kussmann,  A. W. Lange,  Ka Un Lao,  D. S. Levine,  Jie Liu,  
 S. C. McKenzie,  A. F. Morrison,  K. Nanda,  F. Plasser,  D. R. Rehn,  
 M. L. Vidal,  Zhi-Qiang You,  Ying Zhu,  B. Alam,  B. Albrecht,  
 A. Aldossary,  E. Alguire,  J. H. Andersen,  D. Barton,  K. Begam,  A. Behn,  
 Y. A. Bernard,  E. J. Berquist,  H. Burton,  A. Carreras,  K. Carter-Fenk,  
 R. Chakraborty,  A. D. Chien,  K. D. Closser,  V. Cofer-Shabica,  
 S. Dasgupta,  Jia Deng,  M. de Wergifosse,  M. Diedenhofen,  Hainam Do,  
 S. Ehlert,  Po-Tung Fang,  S. Fatehi,  Qingguo Feng,  J. Gayvert,  
 Qinghui Ge,  G. Gidofalvi,  M. Goldey,  J. Gomes,  C. Gonzalez-Espinoza,  
 S. Gulania,  A. Gunina,  M. W. D. Hanson-Heine,  P. H. P. Harbach,  
 A. W. Hauser,  M. F. Herbst,  M. Hernandez Vera,  M. Hodecker,  
 Z. C. Holden,  S. Houck,  Xunkun Huang,  Kerwin Hui,  B. C. Huynh,  
 M. Ivanov,  Hyunjun Ji,  Hanjie Jiang,  B. Kaduk,  S. Kaehler,  
 K. Khistyaev,  Jaehoon Kim,  P. Klunzinger,  Z. Koczor-Benda,  
 Joong Hoon Koh,  D. Kosenkov,  L. Koulias,  T. Kowalczyk,  C. M. Krauter,  
 K. Kue,  A. Kunitsa,  T. Kus,  A. Landau,  K. V. Lawler,  D. Lefrancois,  
 S. Lehtola,  Rain Li,  Yi-Pei Li,  Jiashu Liang,  M. Liebenthal,  
 Hung-Hsuan Lin,  You-Sheng Lin,  Fenglai Liu,  Kuan-Yu Liu,  
 M. Loipersberger,  A. Luenser,  A. Manjanath,  P. Manohar,  E. Mansoor,  
 S. F. Manzer,  Shan-Ping Mao,  A. V. Marenich,  T. Markovich,  S. Mason,  
 S. A. Maurer,  P. F. McLaughlin,  M. F. S. J. Menger,  J.-M. Mewes,  
 S. A. Mewes,  P. Morgante,  J. W. Mullinax,  T. S. Nguyen-Beck,  
 K. J. Oosterbaan,  G. Paran,  Alexander C. Paul,  Suranjan K. Paul,  
 F. Pavosevic,  Zheng Pei,  S. Prager,  E. I. Proynov,  E. Ramos,  B. Rana,  
 A. E. Rask,  A. Rettig,  R. M. Richard,  F. Rob,  E. Rossomme,  T. Scheele,  
 M. Scheurer,  M. Schneider,  N. Sergueev,  S. M. Sharada,  W. Skomorowski,  
 D. W. Small,  C. J. Stein,  Yu-Chuan Su,  E. J. Sundstrom,  Zhen Tao,  
 J. Thirman,  T. Tsuchimochi,  N. M. Tubman,  S. P. Veccham,  O. Vydrov,  
 J. Wenzel,  J. Witte,  A. Yamada,  Kun Yao,  S. Yeganeh,  S. R. Yost,  
 A. Zech,  Igor Ying Zhang,  Xing Zhang,  Yu Zhang,  D. Zuev,  
 A. Aspuru-Guzik,  A. T. Bell,  N. A. Besley,  K. B. Bravaya,  B. R. Brooks,  
 D. Casanova,  Jeng-Da Chai,  S. Coriani,  C. J. Cramer,  
 A. E. DePrince, III,  R. A. DiStasio Jr.,  A. Dreuw,  B. D. Dunietz,  
 T. R. Furlani,  W. A. Goddard III,  S. Grimme,  S. Hammes-Schiffer,  
 T. Head-Gordon,  W. J. Hehre,  Chao-Ping Hsu,  T.-C. Jagau,  Yousung Jung,  
 A. Klamt,  Jing Kong,  D. S. Lambrecht,  WanZhen Liang,  N. J. Mayhall,  
 C. W. McCurdy,  J. B. Neaton,  C. Ochsenfeld,  J. A. Parkhill,  R. Peverati,  
 V. A. Rassolov,  Yihan Shao,  L. V. Slipchenko,  T. Stauch,  R. P. Steele,  
 J. E. Subotnik,  A. J. W. Thom,  A. Tkatchenko,  D. G. Truhlar,  
 T. Van Voorhis,  T. A. Wesolowski,  K. B. Whaley,  H. L. Woodcock III,  
 P. M. Zimmerman,  S. Faraji,  P. M. W. Gill,  M. Head-Gordon,  
 J. M. Herbert,  A. I. Krylov

 Contributors to earlier versions of Q-Chem not listed above: 
 R. D. Adamson,  B. Austin,  R. Baer,  J. Baker,  G. J. O. Beran,  
 K. Brandhorst,  S. T. Brown,  E. F. C. Byrd,  A. K. Chakraborty,  
 G. K. L. Chan,  Chun-Min Chang,  Yunqing Chen,  C.-L. Cheng,  
 Siu Hung Chien,  D. M. Chipman,  D. L. Crittenden,  H. Dachsel,  
 R. J. Doerksen,  A. D. Dutoi,  R. G. Edgar,  J. Fosso-Tande,  
 L. Fusti-Molnar,  D. Ghosh,  A. Ghysels,  A. Golubeva-Zadorozhnaya,  
 J. Gonthier,  M. S. Gordon,  S. R. Gwaltney,  G. Hawkins,  J. E. Herr,  
 A. Heyden,  S. Hirata,  E. G. Hohenstein,  G. Kedziora,  F. J. Keil,  
 C. Kelley,  Jihan Kim,  R. A. King,  R. Z. Khaliullin,  P. P. Korambath,  
 W. Kurlancheek,  A. Laurent,  A. M. Lee,  M. S. Lee,  S. V. Levchenko,  
 Ching Yeh Lin,  D. Liotard,  E. Livshits,  R. C. Lochan,  I. Lotan,  
 L. A. Martinez-Martinez,  P. E. Maslen,  N. Nair,  D. P. O'Neill,  
 D. Neuhauser,  E. Neuscamman,  C. M. Oana,  R. Olivares-Amaya,  R. Olson,  
 T. M. Perrine,  B. Peters,  P. A. Pieniazek,  A. Prociuk,  Y. M. Rhee,  
 J. Ritchie,  M. A. Rohrdanz,  E. Rosta,  N. J. Russ,  H. F. Schaefer III,  
 M. W. Schmidt,  N. E. Schultz,  S. Sharma,  N. Shenvi,  C. D. Sherrill,  
 A. C. Simmonett,  A. Sodt,  T. Stein,  D. Stuck,  K. S. Thanthiriwatte,  
 V. Vanovschi,  L. Vogt,  Tao Wang,  A. Warshel,  M. A. Watson,  
 C. F. Williams,  Q. Wu,  X. Xu,  Jun Yang,  W. Zhang,  Yan Zhao

 Please cite Q-Chem as follows:
 Y. Shao et al., Mol. Phys. 113, 184-215 (2015)
 DOI: 10.1080/00268976.2014.952696

 Q-Chem 5.4.0 for Intel X86 EM64T Linux

 Parts of Q-Chem use Armadillo 9.800.1 (Horizon Scraper).
 http://arma.sourceforge.net/

 Q-Chem begins on Sun Jul 10 05:23:21 2022  

 Host: 
0

     Scratch files written to ./qchem1186571//
 May1621 |scratch|qcdevops|jenkins|workspace|build_RNUM    
 Processing $rem in /cm/shared/apps/spack/cpu/opt/spack/linux-centos8-zen2/gcc-10.2.0/qchem-5.4-akfmr7b3t57bfs6qan3padb2wnb2i7cl/config/preferences:
 Processing $rem in /home/theleonzhang/.qchemrc:
 Symmetry turned off for PCM/SM12/SMD calculation
 Core orbitals will be frozen

 Checking the input file for inconsistencies... 	...done.

--------------------------------------------------------------
User input:
--------------------------------------------------------------
$molecule
0 1
C	0.386946	-3.866725	0.671636
C	-0.306544	-3.703963	-0.530345
C	-0.533261	-2.357056	-0.923770
H	-0.651857	-4.561092	-1.128109
C	-0.000000	-1.440664	-0.000000
S	0.772250	-2.286957	1.337557
C	-1.260680	-1.978743	-2.184153
H	-1.583283	-2.878678	-2.742769
H	-0.622180	-1.376015	-2.863347
H	-2.168011	-1.375728	-1.971094
C	0.000000	0.000000	0.000000
C	0.555137	0.661535	1.099446
C	1.444710	1.721658	0.776721
H	0.318072	0.379023	2.136088
C	1.586563	1.890676	-0.612546
S	0.605781	0.721904	-1.486809
C	2.143920	2.554907	1.814609
H	1.870325	2.228851	2.836676
H	1.880882	3.629742	1.726239
H	3.248098	2.482476	1.726228
H	2.196723	2.617806	-1.161575
H	1.336254	-4.392713	0.521098
H	-0.218374	-4.392347	1.418509
H	-0.935365	-1.440391	0.539900
$end

$rem
JOBTYPE		SP
EXCHANGE	HF
CORRELATION	pRIMP2
BASIS		cc-pvtz
METHOD		rimp2
AUX_BASIS	rimp2-cc-pvtz
SOLVENT_METHOD	PCM
PURECART	11111
SYMMETRY	false
MEM_TOTAL	110000
SCF_CONVERGENCE = 6
THRESH=10
$end



$solvent
dielectric 4.90
$end
--------------------------------------------------------------
 ----------------------------------------------------------------
             Standard Nuclear Orientation (Angstroms)
    I     Atom           X                Y                Z
 ----------------------------------------------------------------
    1      C       0.3869460000    -3.8667250000     0.6716360000
    2      C      -0.3065440000    -3.7039630000    -0.5303450000
    3      C      -0.5332610000    -2.3570560000    -0.9237700000
    4      H      -0.6518570000    -4.5610920000    -1.1281090000
    5      C       0.0000000000    -1.4406640000     0.0000000000
    6      S       0.7722500000    -2.2869570000     1.3375570000
    7      C      -1.2606800000    -1.9787430000    -2.1841530000
    8      H      -1.5832830000    -2.8786780000    -2.7427690000
    9      H      -0.6221800000    -1.3760150000    -2.8633470000
   10      H      -2.1680110000    -1.3757280000    -1.9710940000
   11      C       0.0000000000     0.0000000000     0.0000000000
   12      C       0.5551370000     0.6615350000     1.0994460000
   13      C       1.4447100000     1.7216580000     0.7767210000
   14      H       0.3180720000     0.3790230000     2.1360880000
   15      C       1.5865630000     1.8906760000    -0.6125460000
   16      S       0.6057810000     0.7219040000    -1.4868090000
   17      C       2.1439200000     2.5549070000     1.8146090000
   18      H       1.8703250000     2.2288510000     2.8366760000
   19      H       1.8808820000     3.6297420000     1.7262390000
   20      H       3.2480980000     2.4824760000     1.7262280000
   21      H       2.1967230000     2.6178060000    -1.1615750000
   22      H       1.3362540000    -4.3927130000     0.5210980000
   23      H      -0.2183740000    -4.3923470000     1.4185090000
   24      H      -0.9353650000    -1.4403910000     0.5399000000
 ----------------------------------------------------------------
 Nuclear Repulsion Energy =         886.21095949 hartrees
 There are       52 alpha and       52 beta electrons

 Q-Chem warning in module forms1/BasisType.C, line 2236:

 You are not using the predefined 5D/6D in this basis set.

 Requested basis set is cc-pVTZ
 There are 196 shells and 536 basis functions

 Total QAlloc Memory Limit 110000 MB
 Mega-Array Size       188 MB
 MEM_STATIC part       192 MB
 Discretize the solute cavity surface with Lebedev spheres
	Using 110 Lebedev grid points for each H atom
	Using 194 Lebedev grid points for other atoms
	Atomic van der Waals radii will be scaled by 1.20
 Remove points where switching function is < 1.0e-08
 Keep 1585 surface tesserae and discard 2063 interior tesserae
 Molecular Surface Area = 231.041 Angst**2
 Requested basis set is rimp2-cc-pVTZ
 There are 414 shells and 1414 basis functions
 A cutoff of  1.0D-10 yielded  14097 shell pairs
 There are    102309 function pairs (    131274 Cartesian)
 Smallest overlap matrix eigenvalue = 7.07E-05

 Scale SEOQF with 1.000000e-01/1.000000e-01/1.000000e-01

 Standard Electronic Orientation quadrupole field applied
 Nucleus-field energy     =     0.0000000222 hartrees
 Guess from superposition of atomic densities
 Warning:  Energy on first SCF cycle will be non-variational
 SAD guess density has 104.000000 electrons

 -----------------------------------------------------------------------
  General SCF calculation program by
  Eric Jon Sundstrom, Paul Horn, Yuezhi Mao, Dmitri Zuev, Alec White,
  David Stuck, Shaama M.S., Shane Yost, Joonho Lee, David Small,
  Daniel Levine, Susi Lehtola, Hugh Burton, Evgeny Epifanovsky,
  Bang C. Huynh
 -----------------------------------------------------------------------
 Hartree-Fock
 A restricted SCF calculation will be
 performed using DIIS
 SCF converges when DIIS error is below 1.0e-06
 ---------------------------------------
  Cycle       Energy         DIIS error
 ---------------------------------------
    1   -1186.0805039742      2.40e-02  
    2   -1180.5806237319      1.54e-03  
    3   -1180.7055212538      5.75e-04  
    4   -1180.7190294123      3.23e-04  
    5   -1180.7237659849      6.07e-05  
    6   -1180.7240238309      2.48e-05  
    7   -1180.7240875368      9.79e-06  
    8   -1180.7241032195      4.65e-06  
    9   -1180.7241073021      1.87e-06  
   10   -1180.7241080449      7.00e-07  Convergence criterion met
 ---------------------------------------
 SCF time:   CPU 572.22s  wall 574.00s 

************** Final PCM Free Energy Summary **************
 G_electrostatic  =      -0.00836248 hartree =      -5.24753344 kcal/mol
 G_cavitation     =       0.00000000 hartree =       0.00000000 kcal/mol
 G_dispersion     =       0.00000000 hartree =       0.00000000 kcal/mol
 G_repulsion      =       0.00000000 hartree =       0.00000000 kcal/mol
 --------------------------------------------------
 Non-electrostatic Free Energy =       0.00000000 hartree =       0.00000000 kcal/mol
 Total                         =      -0.00836248 hartree =      -5.24753344 kcal/mol
 --------------------------------------------------
 SCF Energy (H0 + V/2)                       =   -1180.72410804 
 Solute Internal Energy (H0)                 =   -1180.71574557 
 Total Free Energy (H0 + V/2 + non-elec)     =   -1180.72410804 hartree
                                             = -740915.56043622 kcal/mol
***********************************************************

 SCF   energy in the final basis set =    -1180.7241080449
 Total energy in the final basis set =    -1180.7241080449


 --------------------------------------------------------------
  Generalized many-body perturbation theory program
  by Joonho Lee, Fazle Rob, Xintian Feng, Evgeny Epifanovsky

 No regularization used 
 (reg. param. = 0.0000e+00)
  (P|Q)^-1/2 Time:  CPU 1.89 s  wall 1.89 s

 In RI-MP2 calculation: 
 # of frozen core orbitals: 20

 Components of the RIMP2 correlation energy:
        aaaa    correlation energy =        -0.2532715815 a.u.
        abab    correlation energy =        -1.5090687335 a.u.
        bbbb    correlation energy =        -0.2532715815 a.u.
        non-Brillouin singles      =        -0.0000000000 a.u.
        total same-spin energy     =        -0.5065431629 a.u.
        total opposite-spin energy =        -1.5090687335 a.u.

 Total  RIMP2   correlation energy =        -2.0156118964 a.u.
        RIMP2         total energy =     -1182.7397199413 a.u.

 RI-MP2 Energy Time:  CPU 79.93 s  wall 80.15 s
 
 --------------------------------------------------------------
 
                    Orbital Energies (a.u.)
 --------------------------------------------------------------
 
 Alpha MOs
 -- Occupied --
-91.9784 -91.9417 -11.2735 -11.2681 -11.2620 -11.2527 -11.2521 -11.2452
-11.2397 -11.2319 -11.2289 -11.2179  -8.9790  -8.9464  -6.6599  -6.6591
 -6.6586  -6.6277  -6.6267  -6.6254  -1.2010  -1.1535  -1.0585  -1.0268
 -1.0073  -0.9568  -0.9138  -0.9020  -0.8129  -0.7700  -0.7252  -0.6996
 -0.6578  -0.6425  -0.6115  -0.5884  -0.5827  -0.5765  -0.5670  -0.5527
 -0.5399  -0.5351  -0.5160  -0.5099  -0.4877  -0.4683  -0.4578  -0.4448
 -0.3557  -0.3410  -0.3245  -0.2619
 -- Virtual --
  0.0761   0.1339   0.1431   0.1491   0.1594   0.1707   0.1790   0.1835
  0.1909   0.1990   0.2067   0.2123   0.2245   0.2321   0.2403   0.2408
  0.2553   0.2605   0.2771   0.2934   0.3226   0.3283   0.3414   0.3637
  0.3649   0.3747   0.3874   0.3903   0.3991   0.4143   0.4206   0.4246
  0.4342   0.4463   0.4525   0.4640   0.4701   0.4764   0.4837   0.4950
  0.5038   0.5061   0.5184   0.5288   0.5366   0.5454   0.5582   0.5592
  0.5662   0.5750   0.5812   0.5962   0.6029   0.6108   0.6151   0.6187
  0.6215   0.6256   0.6345   0.6378   0.6394   0.6461   0.6495   0.6548
  0.6604   0.6714   0.6859   0.6939   0.7003   0.7086   0.7114   0.7291
  0.7405   0.7507   0.7628   0.7724   0.7770   0.7965   0.8050   0.8143
  0.8326   0.8449   0.8491   0.8613   0.8818   0.8883   0.9080   0.9170
  0.9234   0.9381   0.9460   0.9698   0.9738   0.9812   1.0010   1.0082
  1.0247   1.0313   1.0461   1.0508   1.0561   1.0605   1.0715   1.0801
  1.0894   1.1078   1.1110   1.1198   1.1364   1.1596   1.1637   1.1667
  1.1726   1.1898   1.1970   1.2082   1.2183   1.2251   1.2333   1.2484
  1.2594   1.2677   1.2718   1.2737   1.2843   1.2917   1.3036   1.3070
  1.3191   1.3226   1.3474   1.3510   1.3841   1.3891   1.3967   1.4078
  1.4220   1.4360   1.4402   1.4601   1.4643   1.4706   1.4776   1.5007
  1.5039   1.5100   1.5170   1.5272   1.5305   1.5435   1.5525   1.5580
  1.5642   1.5798   1.5867   1.5992   1.6080   1.6185   1.6319   1.6426
  1.6470   1.6649   1.6687   1.6804   1.6976   1.7199   1.7276   1.7449
  1.7639   1.7698   1.7702   1.7819   1.8137   1.8279   1.8411   1.8571
  1.8760   1.9115   1.9448   1.9528   1.9664   1.9763   1.9823   1.9931
  2.0316   2.0385   2.0508   2.0591   2.0857   2.1106   2.1313   2.1496
  2.1768   2.2018   2.2086   2.2124   2.2357   2.2368   2.2593   2.2734
  2.2868   2.3055   2.3218   2.3843   2.4058   2.4236   2.4504   2.4648
  2.4794   2.5135   2.5332   2.5456   2.5669   2.5805   2.6046   2.6271
  2.6316   2.6438   2.6614   2.6727   2.6828   2.6950   2.6972   2.7224
  2.7392   2.7458   2.7637   2.7745   2.7845   2.8018   2.8050   2.8231
  2.8285   2.8443   2.8681   2.8731   2.8980   2.9181   2.9199   2.9255
  2.9553   2.9617   2.9708   2.9843   2.9942   3.0225   3.0259   3.0408
  3.0448   3.0783   3.0943   3.1044   3.1113   3.1244   3.1305   3.1386
  3.1545   3.1583   3.1693   3.1744   3.1878   3.1984   3.2050   3.2057
  3.2223   3.2358   3.2433   3.2560   3.2610   3.2772   3.2854   3.2948
  3.3124   3.3222   3.3302   3.3372   3.3455   3.3545   3.3574   3.3672
  3.3790   3.3833   3.3942   3.4020   3.4069   3.4119   3.4146   3.4271
  3.4375   3.4536   3.4620   3.4733   3.4820   3.4933   3.5020   3.5054
  3.5234   3.5307   3.5386   3.5489   3.5510   3.5614   3.5810   3.5868
  3.5979   3.6083   3.6184   3.6303   3.6333   3.6349   3.6518   3.6689
  3.6903   3.7008   3.7038   3.7076   3.7209   3.7289   3.7381   3.7556
  3.7573   3.7630   3.7744   3.7765   3.7889   3.8064   3.8116   3.8218
  3.8229   3.8355   3.8561   3.8718   3.8800   3.8850   3.8927   3.9185
  3.9398   3.9434   3.9597   3.9629   3.9725   3.9887   4.0080   4.0179
  4.0279   4.0391   4.0516   4.0620   4.0728   4.0902   4.0975   4.1193
  4.1298   4.1414   4.1458   4.1492   4.1657   4.1862   4.1902   4.2000
  4.2114   4.2259   4.2310   4.2472   4.2567   4.2696   4.2708   4.2824
  4.2899   4.3089   4.3284   4.3411   4.3492   4.3493   4.3521   4.3628
  4.3721   4.3981   4.4035   4.4038   4.4194   4.4251   4.4388   4.4573
  4.4616   4.4751   4.4771   4.4871   4.5048   4.5192   4.5551   4.5776
  4.5829   4.5966   4.6170   4.6300   4.6375   4.6557   4.6608   4.6724
  4.7022   4.7297   4.7351   4.7601   4.7831   4.8018   4.8198   4.8375
  4.8661   4.8785   4.8989   4.9025   4.9219   4.9316   4.9498   4.9759
  5.0345   5.0454   5.0607   5.1029   5.1206   5.1288   5.1461   5.1673
  5.1899   5.2210   5.2370   5.2663   5.2789   5.3018   5.3098   5.3145
  5.3358   5.3688   5.3788   5.3943   5.4079   5.4176   5.4407   5.4527
  5.4769   5.5080   5.5263   5.5383   5.5537   5.5664   5.5715   5.5999
  5.6267   5.6328   5.6514   5.6581   5.6650   5.6898   5.7089   5.7291
  5.7633   5.7910   5.8267   5.9694   6.0208   6.0556   6.1108   6.1257
  6.2137   6.2147   6.2318   6.2359   6.2441   6.2789   6.2893   6.3089
  6.3927   6.4200   9.5576  10.5613  12.3515  12.8909  13.1820  13.8242
 14.1036  14.2407  14.2698  14.6720
 --------------------------------------------------------------
 
          Ground-State Mulliken Net Atomic Charges

     Atom                 Charge (a.u.)
  ----------------------------------------
      1 C                    -0.081534
      2 C                    -0.327808
      3 C                    -0.050673
      4 H                     0.176288
      5 C                     0.100756
      6 S                    -0.182506
      7 C                    -0.292371
      8 H                     0.117607
      9 H                     0.110853
     10 H                     0.109513
     11 C                    -0.053562
     12 C                    -0.285329
     13 C                     0.047773
     14 H                     0.189467
     15 C                    -0.238516
     16 S                     0.011192
     17 C                    -0.268625
     18 H                     0.103004
     19 H                     0.108211
     20 H                     0.108510
     21 H                     0.195838
     22 H                     0.110834
     23 H                     0.109275
     24 H                     0.181802
  ----------------------------------------
  Sum of atomic charges =     0.000000

 -----------------------------------------------------------------
                    Cartesian Multipole Moments
 -----------------------------------------------------------------
    Charge (ESU x 10^10)
                -0.0000
    Dipole Moment (Debye)
         X      -0.6051      Y       0.3320      Z      -0.0257
       Tot       0.6907
    Quadrupole Moments (Debye-Ang)
        XX     -87.3630     XY       8.5210     YY     -78.3662
        XZ       0.7829     YZ       3.3072     ZZ     -85.3699
    Octopole Moments (Debye-Ang^2)
       XXX    -126.7561    XXY      75.2104    XYY     -32.0861
       YYY     155.5912    XXZ      -2.9944    XYZ      -3.2919
       YYZ      -0.7537    XZZ     -43.6117    YZZ      65.5965
       ZZZ       1.5501
    Hexadecapole Moments (Debye-Ang^3)
      XXXX    -683.2453   XXXY    -221.2941   XXYY    -539.7465
      XYYY    -211.2584   YYYY   -2460.3893   XXXZ    -190.4447
      XXYZ     -21.5381   XYYZ     -54.6001   YYYZ     -80.4644
      XXZZ    -271.0456   XYZZ     -52.8286   YYZZ    -587.1740
      XZZZ    -180.5142   YZZZ     -50.5555   ZZZZ    -960.6595
 -----------------------------------------------------------------
 Total job time:  655.93s(wall), 653.07s(cpu) 
 Sun Jul 10 05:34:17 2022

        *************************************************************
        *                                                           *
        *  Thank you very much for using Q-Chem.  Have a nice day.  *
        *                                                           *
        *************************************************************


remove work dirs ./qchem1186571.0 -- ./qchem1186571.-1
rm -rf ./qchem1186571
