You are running Q-Chem version: 5.4.0

#
# job setting
#
local host:  exp-2-06
current dir: /expanse/lustre/scratch/theleonzhang/temp_project/Hydrogenated_Rotation_Test
input file:  Methylthiophene_Phi_50_Theta_350_Methylthiophene_Hydrogenated.qcin
output file: 
nprocs     : 0
nthreads   : 1
#
# qchem installation setting
#
QC:          /cm/shared/apps/spack/cpu/opt/spack/linux-centos8-zen2/gcc-10.2.0/qchem-5.4-akfmr7b3t57bfs6qan3padb2wnb2i7cl
QCAUX:       /cm/shared/apps/spack/cpu/opt/spack/linux-centos8-zen2/gcc-10.2.0/qchem-5.4-akfmr7b3t57bfs6qan3padb2wnb2i7cl/qcaux
QCPROG:      /cm/shared/apps/spack/cpu/opt/spack/linux-centos8-zen2/gcc-10.2.0/qchem-5.4-akfmr7b3t57bfs6qan3padb2wnb2i7cl/exe/qcprog.exe_s
QCPROG_S:    /cm/shared/apps/spack/cpu/opt/spack/linux-centos8-zen2/gcc-10.2.0/qchem-5.4-akfmr7b3t57bfs6qan3padb2wnb2i7cl/exe/qcprog.exe_s
PARALLEL:    -DSERIAL
QCMPI:       mpich
#
# qchem directory setting
#
qcrun:       qchem1939124
QCSCRATCH:   .
QCLOCALSCR:  
QCTMPDIR:    .
QCFILEPREF:  ./qchem1939124
QCSAVEDIR:   
workdirs:    ./qchem1939124
workdir0:    ./qchem1939124
partmpdirs =  
#
# parallel setting
#
QCRSH:           ssh
QCMPI:           mpich
QCMPIRUN:        /cm/shared/apps/spack/cpu/opt/spack/linux-centos8-zen2/gcc-10.2.0/qchem-5.4-akfmr7b3t57bfs6qan3padb2wnb2i7cl/bin/mpi/mpirun_qchem
QCMACHINEFILE:   ./qchem1939124/hostfile

#
# env setting
#
exported envs:   QC QCAUX QCSCRATCH QCRUNNAME QCFILEPREF QCPROG QCPROG_S GUIFILE

Running Job 1 of 1 Methylthiophene_Phi_50_Theta_350_Methylthiophene_Hydrogenated.qcin
qchem Methylthiophene_Phi_50_Theta_350_Methylthiophene_Hydrogenated.qcin_1939124.0 ./qchem1939124/ 0
/cm/shared/apps/spack/cpu/opt/spack/linux-centos8-zen2/gcc-10.2.0/qchem-5.4-akfmr7b3t57bfs6qan3padb2wnb2i7cl/exe/qcprog.exe_s Methylthiophene_Phi_50_Theta_350_Methylthiophene_Hydrogenated.qcin_1939124.0 ./qchem1939124/
                  Welcome to Q-Chem
     A Quantum Leap Into The Future Of Chemistry


 Q-Chem 5.4, Q-Chem, Inc., Pleasanton, CA (2021)

 License issued to: University of California, San Diego (site)

 E. Epifanovsky,  A. T. B. Gilbert,  Xintian Feng,  Joonho Lee,  Yuezhi Mao,  
 N. Mardirossian,  P. Pokhilko,  A. White,  M. Wormit,  M. P. Coons,  
 A. L. Dempwolff,  Zhengting Gan,  D. Hait,  P. R. Horn,  L. D. Jacobson,  
 I. Kaliman,  J. Kussmann,  A. W. Lange,  Ka Un Lao,  D. S. Levine,  Jie Liu,  
 S. C. McKenzie,  A. F. Morrison,  K. Nanda,  F. Plasser,  D. R. Rehn,  
 M. L. Vidal,  Zhi-Qiang You,  Ying Zhu,  B. Alam,  B. Albrecht,  
 A. Aldossary,  E. Alguire,  J. H. Andersen,  D. Barton,  K. Begam,  A. Behn,  
 Y. A. Bernard,  E. J. Berquist,  H. Burton,  A. Carreras,  K. Carter-Fenk,  
 R. Chakraborty,  A. D. Chien,  K. D. Closser,  V. Cofer-Shabica,  
 S. Dasgupta,  Jia Deng,  M. de Wergifosse,  M. Diedenhofen,  Hainam Do,  
 S. Ehlert,  Po-Tung Fang,  S. Fatehi,  Qingguo Feng,  J. Gayvert,  
 Qinghui Ge,  G. Gidofalvi,  M. Goldey,  J. Gomes,  C. Gonzalez-Espinoza,  
 S. Gulania,  A. Gunina,  M. W. D. Hanson-Heine,  P. H. P. Harbach,  
 A. W. Hauser,  M. F. Herbst,  M. Hernandez Vera,  M. Hodecker,  
 Z. C. Holden,  S. Houck,  Xunkun Huang,  Kerwin Hui,  B. C. Huynh,  
 M. Ivanov,  Hyunjun Ji,  Hanjie Jiang,  B. Kaduk,  S. Kaehler,  
 K. Khistyaev,  Jaehoon Kim,  P. Klunzinger,  Z. Koczor-Benda,  
 Joong Hoon Koh,  D. Kosenkov,  L. Koulias,  T. Kowalczyk,  C. M. Krauter,  
 K. Kue,  A. Kunitsa,  T. Kus,  A. Landau,  K. V. Lawler,  D. Lefrancois,  
 S. Lehtola,  Rain Li,  Yi-Pei Li,  Jiashu Liang,  M. Liebenthal,  
 Hung-Hsuan Lin,  You-Sheng Lin,  Fenglai Liu,  Kuan-Yu Liu,  
 M. Loipersberger,  A. Luenser,  A. Manjanath,  P. Manohar,  E. Mansoor,  
 S. F. Manzer,  Shan-Ping Mao,  A. V. Marenich,  T. Markovich,  S. Mason,  
 S. A. Maurer,  P. F. McLaughlin,  M. F. S. J. Menger,  J.-M. Mewes,  
 S. A. Mewes,  P. Morgante,  J. W. Mullinax,  T. S. Nguyen-Beck,  
 K. J. Oosterbaan,  G. Paran,  Alexander C. Paul,  Suranjan K. Paul,  
 F. Pavosevic,  Zheng Pei,  S. Prager,  E. I. Proynov,  E. Ramos,  B. Rana,  
 A. E. Rask,  A. Rettig,  R. M. Richard,  F. Rob,  E. Rossomme,  T. Scheele,  
 M. Scheurer,  M. Schneider,  N. Sergueev,  S. M. Sharada,  W. Skomorowski,  
 D. W. Small,  C. J. Stein,  Yu-Chuan Su,  E. J. Sundstrom,  Zhen Tao,  
 J. Thirman,  T. Tsuchimochi,  N. M. Tubman,  S. P. Veccham,  O. Vydrov,  
 J. Wenzel,  J. Witte,  A. Yamada,  Kun Yao,  S. Yeganeh,  S. R. Yost,  
 A. Zech,  Igor Ying Zhang,  Xing Zhang,  Yu Zhang,  D. Zuev,  
 A. Aspuru-Guzik,  A. T. Bell,  N. A. Besley,  K. B. Bravaya,  B. R. Brooks,  
 D. Casanova,  Jeng-Da Chai,  S. Coriani,  C. J. Cramer,  
 A. E. DePrince, III,  R. A. DiStasio Jr.,  A. Dreuw,  B. D. Dunietz,  
 T. R. Furlani,  W. A. Goddard III,  S. Grimme,  S. Hammes-Schiffer,  
 T. Head-Gordon,  W. J. Hehre,  Chao-Ping Hsu,  T.-C. Jagau,  Yousung Jung,  
 A. Klamt,  Jing Kong,  D. S. Lambrecht,  WanZhen Liang,  N. J. Mayhall,  
 C. W. McCurdy,  J. B. Neaton,  C. Ochsenfeld,  J. A. Parkhill,  R. Peverati,  
 V. A. Rassolov,  Yihan Shao,  L. V. Slipchenko,  T. Stauch,  R. P. Steele,  
 J. E. Subotnik,  A. J. W. Thom,  A. Tkatchenko,  D. G. Truhlar,  
 T. Van Voorhis,  T. A. Wesolowski,  K. B. Whaley,  H. L. Woodcock III,  
 P. M. Zimmerman,  S. Faraji,  P. M. W. Gill,  M. Head-Gordon,  
 J. M. Herbert,  A. I. Krylov

 Contributors to earlier versions of Q-Chem not listed above: 
 R. D. Adamson,  B. Austin,  R. Baer,  J. Baker,  G. J. O. Beran,  
 K. Brandhorst,  S. T. Brown,  E. F. C. Byrd,  A. K. Chakraborty,  
 G. K. L. Chan,  Chun-Min Chang,  Yunqing Chen,  C.-L. Cheng,  
 Siu Hung Chien,  D. M. Chipman,  D. L. Crittenden,  H. Dachsel,  
 R. J. Doerksen,  A. D. Dutoi,  R. G. Edgar,  J. Fosso-Tande,  
 L. Fusti-Molnar,  D. Ghosh,  A. Ghysels,  A. Golubeva-Zadorozhnaya,  
 J. Gonthier,  M. S. Gordon,  S. R. Gwaltney,  G. Hawkins,  J. E. Herr,  
 A. Heyden,  S. Hirata,  E. G. Hohenstein,  G. Kedziora,  F. J. Keil,  
 C. Kelley,  Jihan Kim,  R. A. King,  R. Z. Khaliullin,  P. P. Korambath,  
 W. Kurlancheek,  A. Laurent,  A. M. Lee,  M. S. Lee,  S. V. Levchenko,  
 Ching Yeh Lin,  D. Liotard,  E. Livshits,  R. C. Lochan,  I. Lotan,  
 L. A. Martinez-Martinez,  P. E. Maslen,  N. Nair,  D. P. O'Neill,  
 D. Neuhauser,  E. Neuscamman,  C. M. Oana,  R. Olivares-Amaya,  R. Olson,  
 T. M. Perrine,  B. Peters,  P. A. Pieniazek,  A. Prociuk,  Y. M. Rhee,  
 J. Ritchie,  M. A. Rohrdanz,  E. Rosta,  N. J. Russ,  H. F. Schaefer III,  
 M. W. Schmidt,  N. E. Schultz,  S. Sharma,  N. Shenvi,  C. D. Sherrill,  
 A. C. Simmonett,  A. Sodt,  T. Stein,  D. Stuck,  K. S. Thanthiriwatte,  
 V. Vanovschi,  L. Vogt,  Tao Wang,  A. Warshel,  M. A. Watson,  
 C. F. Williams,  Q. Wu,  X. Xu,  Jun Yang,  W. Zhang,  Yan Zhao

 Please cite Q-Chem as follows:
 Y. Shao et al., Mol. Phys. 113, 184-215 (2015)
 DOI: 10.1080/00268976.2014.952696

 Q-Chem 5.4.0 for Intel X86 EM64T Linux

 Parts of Q-Chem use Armadillo 9.800.1 (Horizon Scraper).
 http://arma.sourceforge.net/

 Q-Chem begins on Sun Jul 10 06:06:11 2022  

 Host: 
0

     Scratch files written to ./qchem1939124//
 May1621 |scratch|qcdevops|jenkins|workspace|build_RNUM    
 Processing $rem in /cm/shared/apps/spack/cpu/opt/spack/linux-centos8-zen2/gcc-10.2.0/qchem-5.4-akfmr7b3t57bfs6qan3padb2wnb2i7cl/config/preferences:
 Processing $rem in /home/theleonzhang/.qchemrc:
 Symmetry turned off for PCM/SM12/SMD calculation
 Core orbitals will be frozen

 Checking the input file for inconsistencies... 	...done.

--------------------------------------------------------------
User input:
--------------------------------------------------------------
$molecule
0 1
C	0.133897	-3.866725	0.763475
C	-0.106669	-3.703963	-0.603206
C	-0.185154	-2.357056	-1.050446
H	-0.226709	-4.561092	-1.283024
C	0.000000	-1.440664	0.000000
S	0.268206	-2.286957	1.521018
C	-0.437628	-1.978743	-2.483610
H	-0.549717	-2.878678	-3.118875
H	0.394664	-1.376015	-2.903464
H	-1.363110	-1.375728	-2.593726
C	0.000000	0.000000	0.000000
C	0.661577	0.555087	1.099446
C	1.721724	1.444630	0.776721
H	0.379056	0.318032	2.136088
C	1.890772	1.586449	-0.612546
S	0.721935	0.605744	-1.486809
C	2.555004	2.143805	1.814609
H	2.228946	1.870211	2.836676
H	2.482605	3.247987	1.726239
H	3.629830	1.880735	1.726228
H	2.617927	2.196579	-1.161575
H	1.077442	-4.392713	0.946698
H	-0.690363	-4.392347	1.258274
H	-1.063612	-1.440391	0.187427
$end

$rem
JOBTYPE		SP
EXCHANGE	HF
CORRELATION	pRIMP2
BASIS		cc-pvtz
METHOD		rimp2
AUX_BASIS	rimp2-cc-pvtz
SOLVENT_METHOD	PCM
PURECART	11111
SYMMETRY	false
MEM_TOTAL	110000
SCF_CONVERGENCE = 6
THRESH=10
$end



$solvent
dielectric 4.90
$end
--------------------------------------------------------------
 ----------------------------------------------------------------
             Standard Nuclear Orientation (Angstroms)
    I     Atom           X                Y                Z
 ----------------------------------------------------------------
    1      C       0.1338970000    -3.8667250000     0.7634750000
    2      C      -0.1066690000    -3.7039630000    -0.6032060000
    3      C      -0.1851540000    -2.3570560000    -1.0504460000
    4      H      -0.2267090000    -4.5610920000    -1.2830240000
    5      C       0.0000000000    -1.4406640000     0.0000000000
    6      S       0.2682060000    -2.2869570000     1.5210180000
    7      C      -0.4376280000    -1.9787430000    -2.4836100000
    8      H      -0.5497170000    -2.8786780000    -3.1188750000
    9      H       0.3946640000    -1.3760150000    -2.9034640000
   10      H      -1.3631100000    -1.3757280000    -2.5937260000
   11      C       0.0000000000     0.0000000000     0.0000000000
   12      C       0.6615770000     0.5550870000     1.0994460000
   13      C       1.7217240000     1.4446300000     0.7767210000
   14      H       0.3790560000     0.3180320000     2.1360880000
   15      C       1.8907720000     1.5864490000    -0.6125460000
   16      S       0.7219350000     0.6057440000    -1.4868090000
   17      C       2.5550040000     2.1438050000     1.8146090000
   18      H       2.2289460000     1.8702110000     2.8366760000
   19      H       2.4826050000     3.2479870000     1.7262390000
   20      H       3.6298300000     1.8807350000     1.7262280000
   21      H       2.6179270000     2.1965790000    -1.1615750000
   22      H       1.0774420000    -4.3927130000     0.9466980000
   23      H      -0.6903630000    -4.3923470000     1.2582740000
   24      H      -1.0636120000    -1.4403910000     0.1874270000
 ----------------------------------------------------------------
 Nuclear Repulsion Energy =         894.72247889 hartrees
 There are       52 alpha and       52 beta electrons

 Q-Chem warning in module forms1/BasisType.C, line 2236:

 You are not using the predefined 5D/6D in this basis set.

 Requested basis set is cc-pVTZ
 There are 196 shells and 536 basis functions

 Total QAlloc Memory Limit 110000 MB
 Mega-Array Size       188 MB
 MEM_STATIC part       192 MB
 Discretize the solute cavity surface with Lebedev spheres
	Using 110 Lebedev grid points for each H atom
	Using 194 Lebedev grid points for other atoms
	Atomic van der Waals radii will be scaled by 1.20
 Remove points where switching function is < 1.0e-08
 Keep 1567 surface tesserae and discard 2081 interior tesserae
 Molecular Surface Area = 226.860 Angst**2
 Requested basis set is rimp2-cc-pVTZ
 There are 414 shells and 1414 basis functions
 A cutoff of  1.0D-10 yielded  14333 shell pairs
 There are    103913 function pairs (    133239 Cartesian)
 Smallest overlap matrix eigenvalue = 6.51E-05

 Scale SEOQF with 1.000000e-01/1.000000e-01/1.000000e-01

 Standard Electronic Orientation quadrupole field applied
 Nucleus-field energy     =     0.0000000173 hartrees
 Guess from superposition of atomic densities
 Warning:  Energy on first SCF cycle will be non-variational
 SAD guess density has 104.000000 electrons

 -----------------------------------------------------------------------
  General SCF calculation program by
  Eric Jon Sundstrom, Paul Horn, Yuezhi Mao, Dmitri Zuev, Alec White,
  David Stuck, Shaama M.S., Shane Yost, Joonho Lee, David Small,
  Daniel Levine, Susi Lehtola, Hugh Burton, Evgeny Epifanovsky,
  Bang C. Huynh
 -----------------------------------------------------------------------
 Hartree-Fock
 A restricted SCF calculation will be
 performed using DIIS
 SCF converges when DIIS error is below 1.0e-06
 ---------------------------------------
  Cycle       Energy         DIIS error
 ---------------------------------------
    1   -1186.1495627036      2.40e-02  
    2   -1180.5466456184      1.54e-03  
    3   -1180.6731123974      5.75e-04  
    4   -1180.6869628399      3.18e-04  
    5   -1180.6916563945      6.44e-05  
    6   -1180.6919470560      2.60e-05  
    7   -1180.6920243362      1.15e-05  
    8   -1180.6920451477      5.46e-06  
    9   -1180.6920514356      2.55e-06  
   10   -1180.6920527966      1.06e-06  
   11   -1180.6920530551      4.96e-07  Convergence criterion met
 ---------------------------------------
 SCF time:   CPU 656.58s  wall 660.00s 

************** Final PCM Free Energy Summary **************
 G_electrostatic  =      -0.00808916 hartree =      -5.07602543 kcal/mol
 G_cavitation     =       0.00000000 hartree =       0.00000000 kcal/mol
 G_dispersion     =       0.00000000 hartree =       0.00000000 kcal/mol
 G_repulsion      =       0.00000000 hartree =       0.00000000 kcal/mol
 --------------------------------------------------
 Non-electrostatic Free Energy =       0.00000000 hartree =       0.00000000 kcal/mol
 Total                         =      -0.00808916 hartree =      -5.07602543 kcal/mol
 --------------------------------------------------
 SCF Energy (H0 + V/2)                       =   -1180.69205306 
 Solute Internal Energy (H0)                 =   -1180.68396389 
 Total Free Energy (H0 + V/2 + non-elec)     =   -1180.69205306 hartree
                                             = -740895.44562649 kcal/mol
***********************************************************

 SCF   energy in the final basis set =    -1180.6920530551
 Total energy in the final basis set =    -1180.6920530551


 --------------------------------------------------------------
  Generalized many-body perturbation theory program
  by Joonho Lee, Fazle Rob, Xintian Feng, Evgeny Epifanovsky

 No regularization used 
 (reg. param. = 0.0000e+00)
  (P|Q)^-1/2 Time:  CPU 1.92 s  wall 1.93 s

 In RI-MP2 calculation: 
 # of frozen core orbitals: 20

 Components of the RIMP2 correlation energy:
        aaaa    correlation energy =        -0.2548532075 a.u.
        abab    correlation energy =        -1.5138073799 a.u.
        bbbb    correlation energy =        -0.2548532075 a.u.
        non-Brillouin singles      =        -0.0000000000 a.u.
        total same-spin energy     =        -0.5097064150 a.u.
        total opposite-spin energy =        -1.5138073799 a.u.

 Total  RIMP2   correlation energy =        -2.0235137948 a.u.
        RIMP2         total energy =     -1182.7155668499 a.u.

 RI-MP2 Energy Time:  CPU 80.85 s  wall 81.20 s
 
 --------------------------------------------------------------
 
                    Orbital Energies (a.u.)
 --------------------------------------------------------------
 
 Alpha MOs
 -- Occupied --
-91.9761 -91.9409 -11.2729 -11.2651 -11.2623 -11.2515 -11.2500 -11.2491
-11.2390 -11.2289 -11.2287 -11.2146  -8.9773  -8.9457  -6.6581  -6.6573
 -6.6568  -6.6270  -6.6260  -6.6247  -1.2026  -1.1531  -1.0587  -1.0270
 -1.0069  -0.9566  -0.9130  -0.9034  -0.8101  -0.7724  -0.7228  -0.7021
 -0.6540  -0.6434  -0.6124  -0.5905  -0.5848  -0.5756  -0.5671  -0.5519
 -0.5389  -0.5349  -0.5180  -0.5128  -0.4864  -0.4586  -0.4547  -0.4390
 -0.3569  -0.3373  -0.3273  -0.2554
 -- Virtual --
  0.0699   0.1353   0.1434   0.1518   0.1607   0.1700   0.1821   0.1837
  0.1859   0.1950   0.2057   0.2136   0.2204   0.2335   0.2405   0.2451
  0.2546   0.2647   0.2804   0.2960   0.3148   0.3232   0.3415   0.3633
  0.3674   0.3685   0.3852   0.4017   0.4063   0.4109   0.4169   0.4247
  0.4463   0.4468   0.4547   0.4662   0.4752   0.4795   0.4823   0.4955
  0.5113   0.5150   0.5222   0.5286   0.5348   0.5488   0.5542   0.5642
  0.5712   0.5777   0.5837   0.5960   0.6009   0.6111   0.6176   0.6195
  0.6210   0.6271   0.6303   0.6368   0.6395   0.6474   0.6519   0.6609
  0.6639   0.6710   0.6889   0.6918   0.6972   0.7021   0.7214   0.7406
  0.7443   0.7560   0.7707   0.7730   0.7765   0.7875   0.8041   0.8249
  0.8336   0.8488   0.8582   0.8699   0.8727   0.8815   0.8949   0.9248
  0.9321   0.9379   0.9525   0.9668   0.9677   0.9803   1.0010   1.0105
  1.0164   1.0314   1.0411   1.0488   1.0568   1.0666   1.0810   1.0881
  1.0973   1.1079   1.1089   1.1267   1.1419   1.1549   1.1670   1.1698
  1.1808   1.1917   1.1985   1.2141   1.2209   1.2274   1.2320   1.2471
  1.2625   1.2682   1.2785   1.2823   1.2923   1.3034   1.3057   1.3120
  1.3190   1.3301   1.3520   1.3636   1.3773   1.3838   1.3924   1.4025
  1.4212   1.4312   1.4481   1.4590   1.4638   1.4744   1.4834   1.4922
  1.4977   1.5144   1.5221   1.5350   1.5390   1.5406   1.5535   1.5550
  1.5674   1.5697   1.5891   1.5988   1.6154   1.6216   1.6363   1.6389
  1.6566   1.6692   1.6749   1.6820   1.6946   1.7085   1.7282   1.7368
  1.7502   1.7614   1.7774   1.8078   1.8128   1.8259   1.8482   1.8566
  1.8849   1.9139   1.9579   1.9618   1.9762   1.9935   1.9988   2.0188
  2.0359   2.0518   2.0643   2.0775   2.0936   2.1151   2.1304   2.1448
  2.1743   2.1904   2.2017   2.2127   2.2225   2.2368   2.2605   2.2888
  2.2930   2.3168   2.3302   2.3905   2.4142   2.4308   2.4416   2.4750
  2.4968   2.5057   2.5290   2.5479   2.5795   2.5887   2.6151   2.6288
  2.6385   2.6468   2.6680   2.6821   2.6906   2.7026   2.7195   2.7298
  2.7342   2.7492   2.7631   2.7747   2.7955   2.8060   2.8141   2.8302
  2.8410   2.8446   2.8594   2.8798   2.8979   2.9135   2.9268   2.9450
  2.9542   2.9693   2.9795   2.9894   2.9968   3.0256   3.0379   3.0421
  3.0518   3.0692   3.0819   3.1068   3.1131   3.1278   3.1455   3.1481
  3.1532   3.1649   3.1725   3.1869   3.1915   3.2027   3.2039   3.2224
  3.2247   3.2388   3.2470   3.2564   3.2733   3.2765   3.2838   3.3001
  3.3161   3.3247   3.3305   3.3424   3.3487   3.3516   3.3606   3.3678
  3.3773   3.3815   3.3963   3.3999   3.4052   3.4133   3.4272   3.4356
  3.4431   3.4600   3.4639   3.4713   3.4903   3.4949   3.4992   3.5145
  3.5301   3.5328   3.5424   3.5526   3.5545   3.5583   3.5749   3.5791
  3.5955   3.6097   3.6183   3.6275   3.6375   3.6535   3.6610   3.6803
  3.6933   3.7014   3.7108   3.7210   3.7268   3.7369   3.7395   3.7490
  3.7598   3.7661   3.7743   3.7813   3.7981   3.8063   3.8198   3.8291
  3.8350   3.8449   3.8592   3.8671   3.8835   3.8950   3.8995   3.9280
  3.9460   3.9479   3.9602   3.9660   3.9737   4.0023   4.0099   4.0202
  4.0280   4.0551   4.0555   4.0591   4.0757   4.0805   4.1092   4.1182
  4.1253   4.1492   4.1528   4.1692   4.1767   4.1888   4.1961   4.2011
  4.2099   4.2258   4.2396   4.2555   4.2596   4.2708   4.2785   4.2850
  4.2865   4.3169   4.3228   4.3450   4.3484   4.3544   4.3606   4.3786
  4.3968   4.3989   4.4036   4.4118   4.4159   4.4381   4.4517   4.4578
  4.4747   4.4802   4.4811   4.4850   4.5148   4.5232   4.5592   4.5761
  4.5875   4.6001   4.6085   4.6219   4.6428   4.6545   4.6733   4.6787
  4.6944   4.7381   4.7625   4.7787   4.7930   4.8046   4.8205   4.8372
  4.8723   4.8809   4.8958   4.9167   4.9205   4.9394   4.9543   4.9932
  5.0294   5.0551   5.0729   5.0994   5.1203   5.1300   5.1442   5.1698
  5.1952   5.2133   5.2269   5.2706   5.2879   5.2935   5.3074   5.3124
  5.3449   5.3709   5.3779   5.4012   5.4063   5.4235   5.4448   5.4486
  5.4754   5.5105   5.5225   5.5431   5.5555   5.5642   5.5723   5.5951
  5.6146   5.6313   5.6353   5.6521   5.6862   5.6973   5.7106   5.7281
  5.7679   5.7978   5.8234   5.9850   6.0008   6.0680   6.0993   6.1356
  6.2165   6.2184   6.2309   6.2377   6.2540   6.2746   6.2920   6.3124
  6.3895   6.4107   9.4468  10.5561  12.4472  12.8435  13.1883  13.8140
 14.1062  14.2349  14.3001  14.6884
 --------------------------------------------------------------
 
          Ground-State Mulliken Net Atomic Charges

     Atom                 Charge (a.u.)
  ----------------------------------------
      1 C                    -0.077520
      2 C                    -0.343024
      3 C                    -0.041184
      4 H                     0.176239
      5 C                     0.095184
      6 S                    -0.198276
      7 C                    -0.301164
      8 H                     0.116546
      9 H                     0.114578
     10 H                     0.113021
     11 C                    -0.088323
     12 C                    -0.224963
     13 C                     0.025839
     14 H                     0.188843
     15 C                    -0.221564
     16 S                     0.015411
     17 C                    -0.268388
     18 H                     0.103097
     19 H                     0.108147
     20 H                     0.107072
     21 H                     0.197184
     22 H                     0.109953
     23 H                     0.110214
     24 H                     0.183079
  ----------------------------------------
  Sum of atomic charges =     0.000000

 -----------------------------------------------------------------
                    Cartesian Multipole Moments
 -----------------------------------------------------------------
    Charge (ESU x 10^10)
                -0.0000
    Dipole Moment (Debye)
         X       0.6052      Y       0.4062      Z      -0.6784
       Tot       0.9957
    Quadrupole Moments (Debye-Ang)
        XX     -85.2300     XY       7.4789     YY     -81.1707
        XZ       0.3951     YZ       3.9526     ZZ     -85.1371
    Octopole Moments (Debye-Ang^2)
       XXX    -145.2896    XXY      88.0427    XYY     -43.5823
       YYY     179.5758    XXZ      -1.4520    XYZ      -1.5657
       YYZ      -0.5453    XZZ     -48.8883    YZZ      73.0715
       ZZZ      -2.2155
    Hexadecapole Moments (Debye-Ang^3)
      XXXX    -704.5182   XXXY    -213.0105   XXYY    -526.7045
      XYYY    -223.2367   YYYY   -2322.4111   XXXZ    -131.9274
      XXYZ     -28.5325   XYYZ     -43.1735   YYYZ     -68.5971
      XXZZ    -300.3513   XYZZ     -61.9856   YYZZ    -581.0836
      XZZZ    -123.1373   YZZZ     -25.8853   ZZZZ   -1077.7954
 -----------------------------------------------------------------
 Total job time:  742.29s(wall), 738.35s(cpu) 
 Sun Jul 10 06:18:33 2022

        *************************************************************
        *                                                           *
        *  Thank you very much for using Q-Chem.  Have a nice day.  *
        *                                                           *
        *************************************************************


remove work dirs ./qchem1939124.0 -- ./qchem1939124.-1
rm -rf ./qchem1939124
