You are running Q-Chem version: 5.4.0

#
# job setting
#
local host:  exp-1-46
current dir: /expanse/lustre/scratch/theleonzhang/temp_project/Hydrogenated_Rotation_Test
input file:  Methylthiophene_Phi_20_Theta_330_Methylthiophene_Hydrogenated.qcin
output file: 
nprocs     : 0
nthreads   : 1
#
# qchem installation setting
#
QC:          /cm/shared/apps/spack/cpu/opt/spack/linux-centos8-zen2/gcc-10.2.0/qchem-5.4-akfmr7b3t57bfs6qan3padb2wnb2i7cl
QCAUX:       /cm/shared/apps/spack/cpu/opt/spack/linux-centos8-zen2/gcc-10.2.0/qchem-5.4-akfmr7b3t57bfs6qan3padb2wnb2i7cl/qcaux
QCPROG:      /cm/shared/apps/spack/cpu/opt/spack/linux-centos8-zen2/gcc-10.2.0/qchem-5.4-akfmr7b3t57bfs6qan3padb2wnb2i7cl/exe/qcprog.exe_s
QCPROG_S:    /cm/shared/apps/spack/cpu/opt/spack/linux-centos8-zen2/gcc-10.2.0/qchem-5.4-akfmr7b3t57bfs6qan3padb2wnb2i7cl/exe/qcprog.exe_s
PARALLEL:    -DSERIAL
QCMPI:       mpich
#
# qchem directory setting
#
qcrun:       qchem4076927
QCSCRATCH:   .
QCLOCALSCR:  
QCTMPDIR:    .
QCFILEPREF:  ./qchem4076927
QCSAVEDIR:   
workdirs:    ./qchem4076927
workdir0:    ./qchem4076927
partmpdirs =  
#
# parallel setting
#
QCRSH:           ssh
QCMPI:           mpich
QCMPIRUN:        /cm/shared/apps/spack/cpu/opt/spack/linux-centos8-zen2/gcc-10.2.0/qchem-5.4-akfmr7b3t57bfs6qan3padb2wnb2i7cl/bin/mpi/mpirun_qchem
QCMACHINEFILE:   ./qchem4076927/hostfile

#
# env setting
#
exported envs:   QC QCAUX QCSCRATCH QCRUNNAME QCFILEPREF QCPROG QCPROG_S GUIFILE

Running Job 1 of 1 Methylthiophene_Phi_20_Theta_330_Methylthiophene_Hydrogenated.qcin
qchem Methylthiophene_Phi_20_Theta_330_Methylthiophene_Hydrogenated.qcin_4076927.0 ./qchem4076927/ 0
/cm/shared/apps/spack/cpu/opt/spack/linux-centos8-zen2/gcc-10.2.0/qchem-5.4-akfmr7b3t57bfs6qan3padb2wnb2i7cl/exe/qcprog.exe_s Methylthiophene_Phi_20_Theta_330_Methylthiophene_Hydrogenated.qcin_4076927.0 ./qchem4076927/
                  Welcome to Q-Chem
     A Quantum Leap Into The Future Of Chemistry


 Q-Chem 5.4, Q-Chem, Inc., Pleasanton, CA (2021)

 License issued to: University of California, San Diego (site)

 E. Epifanovsky,  A. T. B. Gilbert,  Xintian Feng,  Joonho Lee,  Yuezhi Mao,  
 N. Mardirossian,  P. Pokhilko,  A. White,  M. Wormit,  M. P. Coons,  
 A. L. Dempwolff,  Zhengting Gan,  D. Hait,  P. R. Horn,  L. D. Jacobson,  
 I. Kaliman,  J. Kussmann,  A. W. Lange,  Ka Un Lao,  D. S. Levine,  Jie Liu,  
 S. C. McKenzie,  A. F. Morrison,  K. Nanda,  F. Plasser,  D. R. Rehn,  
 M. L. Vidal,  Zhi-Qiang You,  Ying Zhu,  B. Alam,  B. Albrecht,  
 A. Aldossary,  E. Alguire,  J. H. Andersen,  D. Barton,  K. Begam,  A. Behn,  
 Y. A. Bernard,  E. J. Berquist,  H. Burton,  A. Carreras,  K. Carter-Fenk,  
 R. Chakraborty,  A. D. Chien,  K. D. Closser,  V. Cofer-Shabica,  
 S. Dasgupta,  Jia Deng,  M. de Wergifosse,  M. Diedenhofen,  Hainam Do,  
 S. Ehlert,  Po-Tung Fang,  S. Fatehi,  Qingguo Feng,  J. Gayvert,  
 Qinghui Ge,  G. Gidofalvi,  M. Goldey,  J. Gomes,  C. Gonzalez-Espinoza,  
 S. Gulania,  A. Gunina,  M. W. D. Hanson-Heine,  P. H. P. Harbach,  
 A. W. Hauser,  M. F. Herbst,  M. Hernandez Vera,  M. Hodecker,  
 Z. C. Holden,  S. Houck,  Xunkun Huang,  Kerwin Hui,  B. C. Huynh,  
 M. Ivanov,  Hyunjun Ji,  Hanjie Jiang,  B. Kaduk,  S. Kaehler,  
 K. Khistyaev,  Jaehoon Kim,  P. Klunzinger,  Z. Koczor-Benda,  
 Joong Hoon Koh,  D. Kosenkov,  L. Koulias,  T. Kowalczyk,  C. M. Krauter,  
 K. Kue,  A. Kunitsa,  T. Kus,  A. Landau,  K. V. Lawler,  D. Lefrancois,  
 S. Lehtola,  Rain Li,  Yi-Pei Li,  Jiashu Liang,  M. Liebenthal,  
 Hung-Hsuan Lin,  You-Sheng Lin,  Fenglai Liu,  Kuan-Yu Liu,  
 M. Loipersberger,  A. Luenser,  A. Manjanath,  P. Manohar,  E. Mansoor,  
 S. F. Manzer,  Shan-Ping Mao,  A. V. Marenich,  T. Markovich,  S. Mason,  
 S. A. Maurer,  P. F. McLaughlin,  M. F. S. J. Menger,  J.-M. Mewes,  
 S. A. Mewes,  P. Morgante,  J. W. Mullinax,  T. S. Nguyen-Beck,  
 K. J. Oosterbaan,  G. Paran,  Alexander C. Paul,  Suranjan K. Paul,  
 F. Pavosevic,  Zheng Pei,  S. Prager,  E. I. Proynov,  E. Ramos,  B. Rana,  
 A. E. Rask,  A. Rettig,  R. M. Richard,  F. Rob,  E. Rossomme,  T. Scheele,  
 M. Scheurer,  M. Schneider,  N. Sergueev,  S. M. Sharada,  W. Skomorowski,  
 D. W. Small,  C. J. Stein,  Yu-Chuan Su,  E. J. Sundstrom,  Zhen Tao,  
 J. Thirman,  T. Tsuchimochi,  N. M. Tubman,  S. P. Veccham,  O. Vydrov,  
 J. Wenzel,  J. Witte,  A. Yamada,  Kun Yao,  S. Yeganeh,  S. R. Yost,  
 A. Zech,  Igor Ying Zhang,  Xing Zhang,  Yu Zhang,  D. Zuev,  
 A. Aspuru-Guzik,  A. T. Bell,  N. A. Besley,  K. B. Bravaya,  B. R. Brooks,  
 D. Casanova,  Jeng-Da Chai,  S. Coriani,  C. J. Cramer,  
 A. E. DePrince, III,  R. A. DiStasio Jr.,  A. Dreuw,  B. D. Dunietz,  
 T. R. Furlani,  W. A. Goddard III,  S. Grimme,  S. Hammes-Schiffer,  
 T. Head-Gordon,  W. J. Hehre,  Chao-Ping Hsu,  T.-C. Jagau,  Yousung Jung,  
 A. Klamt,  Jing Kong,  D. S. Lambrecht,  WanZhen Liang,  N. J. Mayhall,  
 C. W. McCurdy,  J. B. Neaton,  C. Ochsenfeld,  J. A. Parkhill,  R. Peverati,  
 V. A. Rassolov,  Yihan Shao,  L. V. Slipchenko,  T. Stauch,  R. P. Steele,  
 J. E. Subotnik,  A. J. W. Thom,  A. Tkatchenko,  D. G. Truhlar,  
 T. Van Voorhis,  T. A. Wesolowski,  K. B. Whaley,  H. L. Woodcock III,  
 P. M. Zimmerman,  S. Faraji,  P. M. W. Gill,  M. Head-Gordon,  
 J. M. Herbert,  A. I. Krylov

 Contributors to earlier versions of Q-Chem not listed above: 
 R. D. Adamson,  B. Austin,  R. Baer,  J. Baker,  G. J. O. Beran,  
 K. Brandhorst,  S. T. Brown,  E. F. C. Byrd,  A. K. Chakraborty,  
 G. K. L. Chan,  Chun-Min Chang,  Yunqing Chen,  C.-L. Cheng,  
 Siu Hung Chien,  D. M. Chipman,  D. L. Crittenden,  H. Dachsel,  
 R. J. Doerksen,  A. D. Dutoi,  R. G. Edgar,  J. Fosso-Tande,  
 L. Fusti-Molnar,  D. Ghosh,  A. Ghysels,  A. Golubeva-Zadorozhnaya,  
 J. Gonthier,  M. S. Gordon,  S. R. Gwaltney,  G. Hawkins,  J. E. Herr,  
 A. Heyden,  S. Hirata,  E. G. Hohenstein,  G. Kedziora,  F. J. Keil,  
 C. Kelley,  Jihan Kim,  R. A. King,  R. Z. Khaliullin,  P. P. Korambath,  
 W. Kurlancheek,  A. Laurent,  A. M. Lee,  M. S. Lee,  S. V. Levchenko,  
 Ching Yeh Lin,  D. Liotard,  E. Livshits,  R. C. Lochan,  I. Lotan,  
 L. A. Martinez-Martinez,  P. E. Maslen,  N. Nair,  D. P. O'Neill,  
 D. Neuhauser,  E. Neuscamman,  C. M. Oana,  R. Olivares-Amaya,  R. Olson,  
 T. M. Perrine,  B. Peters,  P. A. Pieniazek,  A. Prociuk,  Y. M. Rhee,  
 J. Ritchie,  M. A. Rohrdanz,  E. Rosta,  N. J. Russ,  H. F. Schaefer III,  
 M. W. Schmidt,  N. E. Schultz,  S. Sharma,  N. Shenvi,  C. D. Sherrill,  
 A. C. Simmonett,  A. Sodt,  T. Stein,  D. Stuck,  K. S. Thanthiriwatte,  
 V. Vanovschi,  L. Vogt,  Tao Wang,  A. Warshel,  M. A. Watson,  
 C. F. Williams,  Q. Wu,  X. Xu,  Jun Yang,  W. Zhang,  Yan Zhao

 Please cite Q-Chem as follows:
 Y. Shao et al., Mol. Phys. 113, 184-215 (2015)
 DOI: 10.1080/00268976.2014.952696

 Q-Chem 5.4.0 for Intel X86 EM64T Linux

 Parts of Q-Chem use Armadillo 9.800.1 (Horizon Scraper).
 http://arma.sourceforge.net/

 Q-Chem begins on Sun Jul 10 05:26:26 2022  

 Host: 
0

     Scratch files written to ./qchem4076927//
 May1621 |scratch|qcdevops|jenkins|workspace|build_RNUM    
 Processing $rem in /cm/shared/apps/spack/cpu/opt/spack/linux-centos8-zen2/gcc-10.2.0/qchem-5.4-akfmr7b3t57bfs6qan3padb2wnb2i7cl/config/preferences:
 Processing $rem in /home/theleonzhang/.qchemrc:
 Symmetry turned off for PCM/SM12/SMD calculation
 Core orbitals will be frozen

 Checking the input file for inconsistencies... 	...done.

--------------------------------------------------------------
User input:
--------------------------------------------------------------
$molecule
0 1
C	0.386946	-3.866725	0.671636
C	-0.306544	-3.703963	-0.530345
C	-0.533261	-2.357056	-0.923770
H	-0.651857	-4.561092	-1.128109
C	0.000000	-1.440664	0.000000
S	0.772250	-2.286957	1.337557
C	-1.260680	-1.978743	-2.184153
H	-1.583283	-2.878678	-2.742769
H	-0.622180	-1.376015	-2.863347
H	-2.168011	-1.375728	-1.971094
C	0.000000	0.000000	0.000000
C	0.295399	0.811508	1.099446
C	0.768742	2.111949	0.776721
H	0.169256	0.464952	2.136088
C	0.844232	2.319291	-0.612546
S	0.322342	0.885558	-1.486809
C	1.140796	3.134091	1.814609
H	0.995218	2.734123	2.836676
H	0.526006	4.054142	1.726239
H	2.203157	3.443680	1.726228
H	1.168902	3.211257	-1.161575
H	1.336254	-4.392713	0.521098
H	-0.218374	-4.392347	1.418509
H	-0.935365	-1.440391	0.539900
$end

$rem
JOBTYPE		SP
EXCHANGE	HF
CORRELATION	pRIMP2
BASIS		cc-pvtz
METHOD		rimp2
AUX_BASIS	rimp2-cc-pvtz
SOLVENT_METHOD	PCM
PURECART	11111
SYMMETRY	false
MEM_TOTAL	110000
SCF_CONVERGENCE = 6
THRESH=10
$end



$solvent
dielectric 4.90
$end
--------------------------------------------------------------
 ----------------------------------------------------------------
             Standard Nuclear Orientation (Angstroms)
    I     Atom           X                Y                Z
 ----------------------------------------------------------------
    1      C       0.3869460000    -3.8667250000     0.6716360000
    2      C      -0.3065440000    -3.7039630000    -0.5303450000
    3      C      -0.5332610000    -2.3570560000    -0.9237700000
    4      H      -0.6518570000    -4.5610920000    -1.1281090000
    5      C       0.0000000000    -1.4406640000     0.0000000000
    6      S       0.7722500000    -2.2869570000     1.3375570000
    7      C      -1.2606800000    -1.9787430000    -2.1841530000
    8      H      -1.5832830000    -2.8786780000    -2.7427690000
    9      H      -0.6221800000    -1.3760150000    -2.8633470000
   10      H      -2.1680110000    -1.3757280000    -1.9710940000
   11      C       0.0000000000     0.0000000000     0.0000000000
   12      C       0.2953990000     0.8115080000     1.0994460000
   13      C       0.7687420000     2.1119490000     0.7767210000
   14      H       0.1692560000     0.4649520000     2.1360880000
   15      C       0.8442320000     2.3192910000    -0.6125460000
   16      S       0.3223420000     0.8855580000    -1.4868090000
   17      C       1.1407960000     3.1340910000     1.8146090000
   18      H       0.9952180000     2.7341230000     2.8366760000
   19      H       0.5260060000     4.0541420000     1.7262390000
   20      H       2.2031570000     3.4436800000     1.7262280000
   21      H       1.1689020000     3.2112570000    -1.1615750000
   22      H       1.3362540000    -4.3927130000     0.5210980000
   23      H      -0.2183740000    -4.3923470000     1.4185090000
   24      H      -0.9353650000    -1.4403910000     0.5399000000
 ----------------------------------------------------------------
 Nuclear Repulsion Energy =         877.19402748 hartrees
 There are       52 alpha and       52 beta electrons

 Q-Chem warning in module forms1/BasisType.C, line 2236:

 You are not using the predefined 5D/6D in this basis set.

 Requested basis set is cc-pVTZ
 There are 196 shells and 536 basis functions

 Total QAlloc Memory Limit 110000 MB
 Mega-Array Size       188 MB
 MEM_STATIC part       192 MB
 Discretize the solute cavity surface with Lebedev spheres
	Using 110 Lebedev grid points for each H atom
	Using 194 Lebedev grid points for other atoms
	Atomic van der Waals radii will be scaled by 1.20
 Remove points where switching function is < 1.0e-08
 Keep 1597 surface tesserae and discard 2051 interior tesserae
 Molecular Surface Area = 232.522 Angst**2
 Requested basis set is rimp2-cc-pVTZ
 There are 414 shells and 1414 basis functions
 A cutoff of  1.0D-10 yielded  13879 shell pairs
 There are    100581 function pairs (    128982 Cartesian)
 Smallest overlap matrix eigenvalue = 6.36E-05

 Scale SEOQF with 1.000000e-01/1.000000e-01/1.000000e-01

 Standard Electronic Orientation quadrupole field applied
 Nucleus-field energy     =     0.0000000243 hartrees
 Guess from superposition of atomic densities
 Warning:  Energy on first SCF cycle will be non-variational
 SAD guess density has 104.000000 electrons

 -----------------------------------------------------------------------
  General SCF calculation program by
  Eric Jon Sundstrom, Paul Horn, Yuezhi Mao, Dmitri Zuev, Alec White,
  David Stuck, Shaama M.S., Shane Yost, Joonho Lee, David Small,
  Daniel Levine, Susi Lehtola, Hugh Burton, Evgeny Epifanovsky,
  Bang C. Huynh
 -----------------------------------------------------------------------
 Hartree-Fock
 A restricted SCF calculation will be
 performed using DIIS
 SCF converges when DIIS error is below 1.0e-06
 ---------------------------------------
  Cycle       Energy         DIIS error
 ---------------------------------------
    1   -1186.0420634773      2.39e-02  
    2   -1180.6056942809      1.56e-03  
    3   -1180.7305718314      6.27e-04  
    4   -1180.7454124502      3.45e-04  
    5   -1180.7508610868      5.87e-05  
    6   -1180.7511058577      2.44e-05  
    7   -1180.7511629282      8.67e-06  
    8   -1180.7511754430      4.20e-06  
    9   -1180.7511782897      1.45e-06  
   10   -1180.7511787407      5.17e-07  Convergence criterion met
 ---------------------------------------
 SCF time:   CPU 563.86s  wall 567.00s 

************** Final PCM Free Energy Summary **************
 G_electrostatic  =      -0.00844284 hartree =      -5.29795989 kcal/mol
 G_cavitation     =       0.00000000 hartree =       0.00000000 kcal/mol
 G_dispersion     =       0.00000000 hartree =       0.00000000 kcal/mol
 G_repulsion      =       0.00000000 hartree =       0.00000000 kcal/mol
 --------------------------------------------------
 Non-electrostatic Free Energy =       0.00000000 hartree =       0.00000000 kcal/mol
 Total                         =      -0.00844284 hartree =      -5.29795989 kcal/mol
 --------------------------------------------------
 SCF Energy (H0 + V/2)                       =   -1180.75117874 
 Solute Internal Energy (H0)                 =   -1180.74273590 
 Total Free Energy (H0 + V/2 + non-elec)     =   -1180.75117874 hartree
                                             = -740932.54755417 kcal/mol
***********************************************************

 SCF   energy in the final basis set =    -1180.7511787407
 Total energy in the final basis set =    -1180.7511787407


 --------------------------------------------------------------
  Generalized many-body perturbation theory program
  by Joonho Lee, Fazle Rob, Xintian Feng, Evgeny Epifanovsky

 No regularization used 
 (reg. param. = 0.0000e+00)
  (P|Q)^-1/2 Time:  CPU 2.31 s  wall 2.32 s

 In RI-MP2 calculation: 
 # of frozen core orbitals: 20

 Components of the RIMP2 correlation energy:
        aaaa    correlation energy =        -0.2518979263 a.u.
        abab    correlation energy =        -1.5043801728 a.u.
        bbbb    correlation energy =        -0.2518979263 a.u.
        non-Brillouin singles      =        -0.0000000000 a.u.
        total same-spin energy     =        -0.5037958525 a.u.
        total opposite-spin energy =        -1.5043801728 a.u.

 Total  RIMP2   correlation energy =        -2.0081760253 a.u.
        RIMP2         total energy =     -1182.7593547660 a.u.

 RI-MP2 Energy Time:  CPU 118.13 s  wall 118.63 s
 
 --------------------------------------------------------------
 
                    Orbital Energies (a.u.)
 --------------------------------------------------------------
 
 Alpha MOs
 -- Occupied --
-91.9808 -91.9446 -11.2851 -11.2645 -11.2585 -11.2577 -11.2510 -11.2424
-11.2366 -11.2330 -11.2282 -11.2213  -8.9809  -8.9492  -6.6618  -6.6612
 -6.6606  -6.6305  -6.6295  -6.6282  -1.2009  -1.1529  -1.0596  -1.0277
 -1.0072  -0.9568  -0.9151  -0.9014  -0.8151  -0.7702  -0.7226  -0.7012
 -0.6608  -0.6450  -0.6108  -0.5886  -0.5823  -0.5744  -0.5676  -0.5536
 -0.5415  -0.5344  -0.5150  -0.5092  -0.4881  -0.4802  -0.4584  -0.4476
 -0.3572  -0.3423  -0.3236  -0.2656
 -- Virtual --
  0.0946   0.1327   0.1438   0.1483   0.1584   0.1699   0.1774   0.1834
  0.1926   0.1979   0.2054   0.2092   0.2268   0.2316   0.2394   0.2410
  0.2547   0.2636   0.2764   0.2974   0.3280   0.3359   0.3460   0.3594
  0.3682   0.3775   0.3841   0.3912   0.4004   0.4116   0.4156   0.4257
  0.4366   0.4544   0.4590   0.4647   0.4705   0.4754   0.4818   0.5032
  0.5048   0.5153   0.5215   0.5326   0.5343   0.5431   0.5462   0.5517
  0.5637   0.5736   0.5799   0.6000   0.6083   0.6109   0.6144   0.6174
  0.6209   0.6251   0.6343   0.6368   0.6400   0.6449   0.6464   0.6564
  0.6605   0.6746   0.6835   0.6940   0.6967   0.7062   0.7204   0.7253
  0.7330   0.7524   0.7565   0.7800   0.7915   0.8016   0.8078   0.8184
  0.8325   0.8469   0.8516   0.8678   0.8854   0.8948   0.9007   0.9169
  0.9247   0.9386   0.9437   0.9605   0.9786   0.9886   0.9992   1.0134
  1.0207   1.0239   1.0382   1.0512   1.0543   1.0654   1.0734   1.0828
  1.0917   1.0984   1.1055   1.1183   1.1397   1.1513   1.1591   1.1637
  1.1698   1.1859   1.1948   1.2051   1.2184   1.2252   1.2328   1.2451
  1.2548   1.2721   1.2762   1.2780   1.2865   1.2886   1.2977   1.3147
  1.3165   1.3253   1.3319   1.3557   1.3888   1.3947   1.3983   1.4066
  1.4179   1.4307   1.4422   1.4609   1.4683   1.4736   1.4831   1.4973
  1.5041   1.5139   1.5187   1.5262   1.5317   1.5387   1.5519   1.5587
  1.5637   1.5807   1.5906   1.5942   1.6099   1.6200   1.6321   1.6389
  1.6526   1.6677   1.6766   1.6841   1.6974   1.7205   1.7230   1.7406
  1.7427   1.7619   1.7754   1.7940   1.8115   1.8194   1.8351   1.8493
  1.8817   1.9208   1.9368   1.9428   1.9558   1.9747   1.9822   2.0063
  2.0182   2.0214   2.0410   2.0612   2.0733   2.0947   2.1485   2.1627
  2.1832   2.2007   2.2111   2.2209   2.2344   2.2457   2.2691   2.2735
  2.2908   2.3093   2.3209   2.3691   2.4085   2.4281   2.4551   2.4729
  2.4946   2.5091   2.5385   2.5597   2.5724   2.5893   2.5971   2.6193
  2.6334   2.6429   2.6574   2.6646   2.6766   2.6877   2.6974   2.7284
  2.7449   2.7459   2.7684   2.7749   2.7758   2.7817   2.7928   2.8171
  2.8279   2.8375   2.8532   2.8816   2.8957   2.9029   2.9167   2.9308
  2.9473   2.9524   2.9741   2.9812   2.9965   3.0151   3.0290   3.0415
  3.0502   3.0819   3.0851   3.0981   3.1119   3.1131   3.1250   3.1388
  3.1508   3.1589   3.1695   3.1713   3.1770   3.1949   3.2106   3.2173
  3.2258   3.2455   3.2505   3.2523   3.2723   3.2808   3.2822   3.2997
  3.3068   3.3228   3.3266   3.3389   3.3394   3.3486   3.3562   3.3680
  3.3764   3.3818   3.3950   3.4036   3.4090   3.4144   3.4198   3.4259
  3.4332   3.4445   3.4588   3.4718   3.4759   3.4910   3.4986   3.5037
  3.5133   3.5199   3.5253   3.5474   3.5502   3.5611   3.5721   3.5745
  3.5923   3.6035   3.6142   3.6265   3.6298   3.6419   3.6490   3.6606
  3.6737   3.6788   3.6926   3.7034   3.7205   3.7268   3.7310   3.7401
  3.7419   3.7556   3.7677   3.7794   3.7833   3.7889   3.8064   3.8120
  3.8283   3.8350   3.8530   3.8617   3.8759   3.8834   3.9085   3.9136
  3.9358   3.9425   3.9489   3.9707   3.9761   3.9800   4.0078   4.0100
  4.0259   4.0441   4.0493   4.0528   4.0672   4.0863   4.0941   4.1070
  4.1233   4.1354   4.1414   4.1489   4.1620   4.1723   4.1855   4.2105
  4.2146   4.2173   4.2322   4.2357   4.2472   4.2746   4.2786   4.2828
  4.2831   4.2982   4.3197   4.3322   4.3465   4.3521   4.3534   4.3656
  4.3727   4.3909   4.4030   4.4064   4.4124   4.4195   4.4273   4.4551
  4.4606   4.4709   4.4821   4.4856   4.5092   4.5240   4.5463   4.5833
  4.5887   4.5989   4.6071   4.6244   4.6289   4.6440   4.6655   4.6898
  4.7076   4.7188   4.7373   4.7504   4.7797   4.8085   4.8296   4.8476
  4.8517   4.8688   4.8864   4.9012   4.9135   4.9528   4.9725   4.9776
  5.0193   5.0516   5.0629   5.1021   5.1133   5.1257   5.1510   5.1624
  5.1930   5.2216   5.2422   5.2647   5.2781   5.2925   5.3066   5.3188
  5.3399   5.3682   5.3774   5.3894   5.4102   5.4183   5.4404   5.4576
  5.4719   5.5071   5.5186   5.5407   5.5556   5.5589   5.5700   5.5850
  5.6239   5.6334   5.6539   5.6667   5.6745   5.7003   5.7082   5.7380
  5.7575   5.7871   5.8383   5.9817   6.0222   6.0879   6.1297   6.1373
  6.2164   6.2233   6.2289   6.2460   6.2529   6.2842   6.3038   6.3155
  6.3878   6.4813   9.6040  10.6995  12.1171  12.9757  13.1787  13.9159
 14.1247  14.2487  14.3306  14.6716
 --------------------------------------------------------------
 
          Ground-State Mulliken Net Atomic Charges

     Atom                 Charge (a.u.)
  ----------------------------------------
      1 C                    -0.078339
      2 C                    -0.321957
      3 C                    -0.047064
      4 H                     0.177775
      5 C                     0.120700
      6 S                    -0.176934
      7 C                    -0.294185
      8 H                     0.117885
      9 H                     0.111228
     10 H                     0.111450
     11 C                    -0.022011
     12 C                    -0.331837
     13 C                     0.057436
     14 H                     0.182336
     15 C                    -0.265977
     16 S                     0.011421
     17 C                    -0.272106
     18 H                     0.102779
     19 H                     0.107912
     20 H                     0.109130
     21 H                     0.194412
     22 H                     0.113062
     23 H                     0.110567
     24 H                     0.182316
  ----------------------------------------
  Sum of atomic charges =     0.000000

 -----------------------------------------------------------------
                    Cartesian Multipole Moments
 -----------------------------------------------------------------
    Charge (ESU x 10^10)
                -0.0000
    Dipole Moment (Debye)
         X      -1.4324      Y      -0.0825      Z      -0.1622
       Tot       1.4439
    Quadrupole Moments (Debye-Ang)
        XX     -90.7204     XY       6.3746     YY     -74.5510
        XZ       0.5013     YZ       3.4933     ZZ     -85.4812
    Octopole Moments (Debye-Ang^2)
       XXX     -71.6413    XXY      52.4891    XYY     -13.7425
       YYY     125.2820    XXZ      -2.2531    XYZ      -2.7857
       YYZ      -0.7416    XZZ     -24.9402    YZZ      53.8187
       ZZZ       0.4885
    Hexadecapole Moments (Debye-Ang^3)
      XXXX    -403.2507   XXXY    -158.4981   XXYY    -557.8629
      XYYY    -125.2913   YYYY   -2685.8726   XXXZ    -158.2210
      XXYZ     -22.7522   XYYZ     -42.7718   YYYZ    -101.6634
      XXZZ    -230.0138   XYZZ     -29.1704   YYZZ    -626.0275
      XZZZ    -151.3411   YZZZ     -68.7011   ZZZZ    -960.6573
 -----------------------------------------------------------------
 Total job time:  687.56s(wall), 683.05s(cpu) 
 Sun Jul 10 05:37:54 2022

        *************************************************************
        *                                                           *
        *  Thank you very much for using Q-Chem.  Have a nice day.  *
        *                                                           *
        *************************************************************


remove work dirs ./qchem4076927.0 -- ./qchem4076927.-1
rm -rf ./qchem4076927
You are running Q-Chem version: 5.4.0

#
# job setting
#
local host:  exp-3-09
current dir: /expanse/lustre/scratch/theleonzhang/temp_project/Hydrogenated_Rotation_Test
input file:  Methylthiophene_Phi_20_Theta_330_Methylthiophene_Hydrogenated.qcin
output file: 
nprocs     : 0
nthreads   : 1
#
# qchem installation setting
#
QC:          /cm/shared/apps/spack/cpu/opt/spack/linux-centos8-zen2/gcc-10.2.0/qchem-5.4-akfmr7b3t57bfs6qan3padb2wnb2i7cl
QCAUX:       /cm/shared/apps/spack/cpu/opt/spack/linux-centos8-zen2/gcc-10.2.0/qchem-5.4-akfmr7b3t57bfs6qan3padb2wnb2i7cl/qcaux
QCPROG:      /cm/shared/apps/spack/cpu/opt/spack/linux-centos8-zen2/gcc-10.2.0/qchem-5.4-akfmr7b3t57bfs6qan3padb2wnb2i7cl/exe/qcprog.exe_s
QCPROG_S:    /cm/shared/apps/spack/cpu/opt/spack/linux-centos8-zen2/gcc-10.2.0/qchem-5.4-akfmr7b3t57bfs6qan3padb2wnb2i7cl/exe/qcprog.exe_s
PARALLEL:    -DSERIAL
QCMPI:       mpich
#
# qchem directory setting
#
qcrun:       qchem977193
QCSCRATCH:   .
QCLOCALSCR:  
QCTMPDIR:    .
QCFILEPREF:  ./qchem977193
QCSAVEDIR:   
workdirs:    ./qchem977193
workdir0:    ./qchem977193
partmpdirs =  
#
# parallel setting
#
QCRSH:           ssh
QCMPI:           mpich
QCMPIRUN:        /cm/shared/apps/spack/cpu/opt/spack/linux-centos8-zen2/gcc-10.2.0/qchem-5.4-akfmr7b3t57bfs6qan3padb2wnb2i7cl/bin/mpi/mpirun_qchem
QCMACHINEFILE:   ./qchem977193/hostfile

#
# env setting
#
exported envs:   QC QCAUX QCSCRATCH QCRUNNAME QCFILEPREF QCPROG QCPROG_S GUIFILE

Running Job 1 of 1 Methylthiophene_Phi_20_Theta_330_Methylthiophene_Hydrogenated.qcin
qchem Methylthiophene_Phi_20_Theta_330_Methylthiophene_Hydrogenated.qcin_977193.0 ./qchem977193/ 0
/cm/shared/apps/spack/cpu/opt/spack/linux-centos8-zen2/gcc-10.2.0/qchem-5.4-akfmr7b3t57bfs6qan3padb2wnb2i7cl/exe/qcprog.exe_s Methylthiophene_Phi_20_Theta_330_Methylthiophene_Hydrogenated.qcin_977193.0 ./qchem977193/
                  Welcome to Q-Chem
     A Quantum Leap Into The Future Of Chemistry


 Q-Chem 5.4, Q-Chem, Inc., Pleasanton, CA (2021)

 License issued to: University of California, San Diego (site)

 E. Epifanovsky,  A. T. B. Gilbert,  Xintian Feng,  Joonho Lee,  Yuezhi Mao,  
 N. Mardirossian,  P. Pokhilko,  A. White,  M. Wormit,  M. P. Coons,  
 A. L. Dempwolff,  Zhengting Gan,  D. Hait,  P. R. Horn,  L. D. Jacobson,  
 I. Kaliman,  J. Kussmann,  A. W. Lange,  Ka Un Lao,  D. S. Levine,  Jie Liu,  
 S. C. McKenzie,  A. F. Morrison,  K. Nanda,  F. Plasser,  D. R. Rehn,  
 M. L. Vidal,  Zhi-Qiang You,  Ying Zhu,  B. Alam,  B. Albrecht,  
 A. Aldossary,  E. Alguire,  J. H. Andersen,  D. Barton,  K. Begam,  A. Behn,  
 Y. A. Bernard,  E. J. Berquist,  H. Burton,  A. Carreras,  K. Carter-Fenk,  
 R. Chakraborty,  A. D. Chien,  K. D. Closser,  V. Cofer-Shabica,  
 S. Dasgupta,  Jia Deng,  M. de Wergifosse,  M. Diedenhofen,  Hainam Do,  
 S. Ehlert,  Po-Tung Fang,  S. Fatehi,  Qingguo Feng,  J. Gayvert,  
 Qinghui Ge,  G. Gidofalvi,  M. Goldey,  J. Gomes,  C. Gonzalez-Espinoza,  
 S. Gulania,  A. Gunina,  M. W. D. Hanson-Heine,  P. H. P. Harbach,  
 A. W. Hauser,  M. F. Herbst,  M. Hernandez Vera,  M. Hodecker,  
 Z. C. Holden,  S. Houck,  Xunkun Huang,  Kerwin Hui,  B. C. Huynh,  
 M. Ivanov,  Hyunjun Ji,  Hanjie Jiang,  B. Kaduk,  S. Kaehler,  
 K. Khistyaev,  Jaehoon Kim,  P. Klunzinger,  Z. Koczor-Benda,  
 Joong Hoon Koh,  D. Kosenkov,  L. Koulias,  T. Kowalczyk,  C. M. Krauter,  
 K. Kue,  A. Kunitsa,  T. Kus,  A. Landau,  K. V. Lawler,  D. Lefrancois,  
 S. Lehtola,  Rain Li,  Yi-Pei Li,  Jiashu Liang,  M. Liebenthal,  
 Hung-Hsuan Lin,  You-Sheng Lin,  Fenglai Liu,  Kuan-Yu Liu,  
 M. Loipersberger,  A. Luenser,  A. Manjanath,  P. Manohar,  E. Mansoor,  
 S. F. Manzer,  Shan-Ping Mao,  A. V. Marenich,  T. Markovich,  S. Mason,  
 S. A. Maurer,  P. F. McLaughlin,  M. F. S. J. Menger,  J.-M. Mewes,  
 S. A. Mewes,  P. Morgante,  J. W. Mullinax,  T. S. Nguyen-Beck,  
 K. J. Oosterbaan,  G. Paran,  Alexander C. Paul,  Suranjan K. Paul,  
 F. Pavosevic,  Zheng Pei,  S. Prager,  E. I. Proynov,  E. Ramos,  B. Rana,  
 A. E. Rask,  A. Rettig,  R. M. Richard,  F. Rob,  E. Rossomme,  T. Scheele,  
 M. Scheurer,  M. Schneider,  N. Sergueev,  S. M. Sharada,  W. Skomorowski,  
 D. W. Small,  C. J. Stein,  Yu-Chuan Su,  E. J. Sundstrom,  Zhen Tao,  
 J. Thirman,  T. Tsuchimochi,  N. M. Tubman,  S. P. Veccham,  O. Vydrov,  
 J. Wenzel,  J. Witte,  A. Yamada,  Kun Yao,  S. Yeganeh,  S. R. Yost,  
 A. Zech,  Igor Ying Zhang,  Xing Zhang,  Yu Zhang,  D. Zuev,  
 A. Aspuru-Guzik,  A. T. Bell,  N. A. Besley,  K. B. Bravaya,  B. R. Brooks,  
 D. Casanova,  Jeng-Da Chai,  S. Coriani,  C. J. Cramer,  
 A. E. DePrince, III,  R. A. DiStasio Jr.,  A. Dreuw,  B. D. Dunietz,  
 T. R. Furlani,  W. A. Goddard III,  S. Grimme,  S. Hammes-Schiffer,  
 T. Head-Gordon,  W. J. Hehre,  Chao-Ping Hsu,  T.-C. Jagau,  Yousung Jung,  
 A. Klamt,  Jing Kong,  D. S. Lambrecht,  WanZhen Liang,  N. J. Mayhall,  
 C. W. McCurdy,  J. B. Neaton,  C. Ochsenfeld,  J. A. Parkhill,  R. Peverati,  
 V. A. Rassolov,  Yihan Shao,  L. V. Slipchenko,  T. Stauch,  R. P. Steele,  
 J. E. Subotnik,  A. J. W. Thom,  A. Tkatchenko,  D. G. Truhlar,  
 T. Van Voorhis,  T. A. Wesolowski,  K. B. Whaley,  H. L. Woodcock III,  
 P. M. Zimmerman,  S. Faraji,  P. M. W. Gill,  M. Head-Gordon,  
 J. M. Herbert,  A. I. Krylov

 Contributors to earlier versions of Q-Chem not listed above: 
 R. D. Adamson,  B. Austin,  R. Baer,  J. Baker,  G. J. O. Beran,  
 K. Brandhorst,  S. T. Brown,  E. F. C. Byrd,  A. K. Chakraborty,  
 G. K. L. Chan,  Chun-Min Chang,  Yunqing Chen,  C.-L. Cheng,  
 Siu Hung Chien,  D. M. Chipman,  D. L. Crittenden,  H. Dachsel,  
 R. J. Doerksen,  A. D. Dutoi,  R. G. Edgar,  J. Fosso-Tande,  
 L. Fusti-Molnar,  D. Ghosh,  A. Ghysels,  A. Golubeva-Zadorozhnaya,  
 J. Gonthier,  M. S. Gordon,  S. R. Gwaltney,  G. Hawkins,  J. E. Herr,  
 A. Heyden,  S. Hirata,  E. G. Hohenstein,  G. Kedziora,  F. J. Keil,  
 C. Kelley,  Jihan Kim,  R. A. King,  R. Z. Khaliullin,  P. P. Korambath,  
 W. Kurlancheek,  A. Laurent,  A. M. Lee,  M. S. Lee,  S. V. Levchenko,  
 Ching Yeh Lin,  D. Liotard,  E. Livshits,  R. C. Lochan,  I. Lotan,  
 L. A. Martinez-Martinez,  P. E. Maslen,  N. Nair,  D. P. O'Neill,  
 D. Neuhauser,  E. Neuscamman,  C. M. Oana,  R. Olivares-Amaya,  R. Olson,  
 T. M. Perrine,  B. Peters,  P. A. Pieniazek,  A. Prociuk,  Y. M. Rhee,  
 J. Ritchie,  M. A. Rohrdanz,  E. Rosta,  N. J. Russ,  H. F. Schaefer III,  
 M. W. Schmidt,  N. E. Schultz,  S. Sharma,  N. Shenvi,  C. D. Sherrill,  
 A. C. Simmonett,  A. Sodt,  T. Stein,  D. Stuck,  K. S. Thanthiriwatte,  
 V. Vanovschi,  L. Vogt,  Tao Wang,  A. Warshel,  M. A. Watson,  
 C. F. Williams,  Q. Wu,  X. Xu,  Jun Yang,  W. Zhang,  Yan Zhao

 Please cite Q-Chem as follows:
 Y. Shao et al., Mol. Phys. 113, 184-215 (2015)
 DOI: 10.1080/00268976.2014.952696

 Q-Chem 5.4.0 for Intel X86 EM64T Linux

 Parts of Q-Chem use Armadillo 9.800.1 (Horizon Scraper).
 http://arma.sourceforge.net/

 Q-Chem begins on Sun Jul 10 05:46:50 2022  

 Host: 
0

     Scratch files written to ./qchem977193//
 May1621 |scratch|qcdevops|jenkins|workspace|build_RNUM    
 Processing $rem in /cm/shared/apps/spack/cpu/opt/spack/linux-centos8-zen2/gcc-10.2.0/qchem-5.4-akfmr7b3t57bfs6qan3padb2wnb2i7cl/config/preferences:
 Processing $rem in /home/theleonzhang/.qchemrc:
 Symmetry turned off for PCM/SM12/SMD calculation
 Core orbitals will be frozen

 Checking the input file for inconsistencies... 	...done.

--------------------------------------------------------------
User input:
--------------------------------------------------------------
$molecule
0 1
C	0.386946	-3.866725	0.671636
C	-0.306544	-3.703963	-0.530345
C	-0.533261	-2.357056	-0.923770
H	-0.651857	-4.561092	-1.128109
C	0.000000	-1.440664	0.000000
S	0.772250	-2.286957	1.337557
C	-1.260680	-1.978743	-2.184153
H	-1.583283	-2.878678	-2.742769
H	-0.622180	-1.376015	-2.863347
H	-2.168011	-1.375728	-1.971094
C	0.000000	0.000000	0.000000
C	0.295399	0.811508	1.099446
C	0.768742	2.111949	0.776721
H	0.169256	0.464952	2.136088
C	0.844232	2.319291	-0.612546
S	0.322342	0.885558	-1.486809
C	1.140796	3.134091	1.814609
H	0.995218	2.734123	2.836676
H	0.526006	4.054142	1.726239
H	2.203157	3.443680	1.726228
H	1.168902	3.211257	-1.161575
H	1.336254	-4.392713	0.521098
H	-0.218374	-4.392347	1.418509
H	-0.935365	-1.440391	0.539900
$end

$rem
JOBTYPE		SP
EXCHANGE	HF
CORRELATION	pRIMP2
BASIS		cc-pvtz
METHOD		rimp2
AUX_BASIS	rimp2-cc-pvtz
SOLVENT_METHOD	PCM
PURECART	11111
SYMMETRY	false
MEM_TOTAL	110000
SCF_CONVERGENCE = 6
THRESH=10
$end



$solvent
dielectric 4.90
$end
--------------------------------------------------------------
 ----------------------------------------------------------------
             Standard Nuclear Orientation (Angstroms)
    I     Atom           X                Y                Z
 ----------------------------------------------------------------
    1      C       0.3869460000    -3.8667250000     0.6716360000
    2      C      -0.3065440000    -3.7039630000    -0.5303450000
    3      C      -0.5332610000    -2.3570560000    -0.9237700000
    4      H      -0.6518570000    -4.5610920000    -1.1281090000
    5      C       0.0000000000    -1.4406640000     0.0000000000
    6      S       0.7722500000    -2.2869570000     1.3375570000
    7      C      -1.2606800000    -1.9787430000    -2.1841530000
    8      H      -1.5832830000    -2.8786780000    -2.7427690000
    9      H      -0.6221800000    -1.3760150000    -2.8633470000
   10      H      -2.1680110000    -1.3757280000    -1.9710940000
   11      C       0.0000000000     0.0000000000     0.0000000000
   12      C       0.2953990000     0.8115080000     1.0994460000
   13      C       0.7687420000     2.1119490000     0.7767210000
   14      H       0.1692560000     0.4649520000     2.1360880000
   15      C       0.8442320000     2.3192910000    -0.6125460000
   16      S       0.3223420000     0.8855580000    -1.4868090000
   17      C       1.1407960000     3.1340910000     1.8146090000
   18      H       0.9952180000     2.7341230000     2.8366760000
   19      H       0.5260060000     4.0541420000     1.7262390000
   20      H       2.2031570000     3.4436800000     1.7262280000
   21      H       1.1689020000     3.2112570000    -1.1615750000
   22      H       1.3362540000    -4.3927130000     0.5210980000
   23      H      -0.2183740000    -4.3923470000     1.4185090000
   24      H      -0.9353650000    -1.4403910000     0.5399000000
 ----------------------------------------------------------------
 Nuclear Repulsion Energy =         877.19402748 hartrees
 There are       52 alpha and       52 beta electrons

 Q-Chem warning in module forms1/BasisType.C, line 2236:

 You are not using the predefined 5D/6D in this basis set.

 Requested basis set is cc-pVTZ
 There are 196 shells and 536 basis functions

 Total QAlloc Memory Limit 110000 MB
 Mega-Array Size       188 MB
 MEM_STATIC part       192 MB
 Discretize the solute cavity surface with Lebedev spheres
	Using 110 Lebedev grid points for each H atom
	Using 194 Lebedev grid points for other atoms
	Atomic van der Waals radii will be scaled by 1.20
 Remove points where switching function is < 1.0e-08
 Keep 1597 surface tesserae and discard 2051 interior tesserae
 Molecular Surface Area = 232.522 Angst**2
 Requested basis set is rimp2-cc-pVTZ
 There are 414 shells and 1414 basis functions
 A cutoff of  1.0D-10 yielded  13879 shell pairs
 There are    100581 function pairs (    128982 Cartesian)
 Smallest overlap matrix eigenvalue = 6.36E-05

 Scale SEOQF with 1.000000e-01/1.000000e-01/1.000000e-01

 Standard Electronic Orientation quadrupole field applied
 Nucleus-field energy     =     0.0000000243 hartrees
 Guess from superposition of atomic densities
 Warning:  Energy on first SCF cycle will be non-variational
 SAD guess density has 104.000000 electrons

 -----------------------------------------------------------------------
  General SCF calculation program by
  Eric Jon Sundstrom, Paul Horn, Yuezhi Mao, Dmitri Zuev, Alec White,
  David Stuck, Shaama M.S., Shane Yost, Joonho Lee, David Small,
  Daniel Levine, Susi Lehtola, Hugh Burton, Evgeny Epifanovsky,
  Bang C. Huynh
 -----------------------------------------------------------------------
 Hartree-Fock
 A restricted SCF calculation will be
 performed using DIIS
 SCF converges when DIIS error is below 1.0e-06
 ---------------------------------------
  Cycle       Energy         DIIS error
 ---------------------------------------
    1   -1186.0420634773      2.39e-02  
    2   -1180.6056942809      1.56e-03  
    3   -1180.7305718314      6.27e-04  
    4   -1180.7454124502      3.45e-04  
    5   -1180.7508610868      5.87e-05  
    6   -1180.7511058577      2.44e-05  
    7   -1180.7511629282      8.67e-06  
    8   -1180.7511754430      4.20e-06  
    9   -1180.7511782897      1.45e-06  
   10   -1180.7511787407      5.17e-07  Convergence criterion met
 ---------------------------------------
 SCF time:   CPU 562.02s  wall 564.00s 

************** Final PCM Free Energy Summary **************
 G_electrostatic  =      -0.00844284 hartree =      -5.29795989 kcal/mol
 G_cavitation     =       0.00000000 hartree =       0.00000000 kcal/mol
 G_dispersion     =       0.00000000 hartree =       0.00000000 kcal/mol
 G_repulsion      =       0.00000000 hartree =       0.00000000 kcal/mol
 --------------------------------------------------
 Non-electrostatic Free Energy =       0.00000000 hartree =       0.00000000 kcal/mol
 Total                         =      -0.00844284 hartree =      -5.29795989 kcal/mol
 --------------------------------------------------
 SCF Energy (H0 + V/2)                       =   -1180.75117874 
 Solute Internal Energy (H0)                 =   -1180.74273590 
 Total Free Energy (H0 + V/2 + non-elec)     =   -1180.75117874 hartree
                                             = -740932.54755417 kcal/mol
***********************************************************

 SCF   energy in the final basis set =    -1180.7511787407
 Total energy in the final basis set =    -1180.7511787407


 --------------------------------------------------------------
  Generalized many-body perturbation theory program
  by Joonho Lee, Fazle Rob, Xintian Feng, Evgeny Epifanovsky

 No regularization used 
 (reg. param. = 0.0000e+00)
  (P|Q)^-1/2 Time:  CPU 1.89 s  wall 1.90 s

 In RI-MP2 calculation: 
 # of frozen core orbitals: 20

 Components of the RIMP2 correlation energy:
        aaaa    correlation energy =        -0.2518979263 a.u.
        abab    correlation energy =        -1.5043801728 a.u.
        bbbb    correlation energy =        -0.2518979263 a.u.
        non-Brillouin singles      =        -0.0000000000 a.u.
        total same-spin energy     =        -0.5037958525 a.u.
        total opposite-spin energy =        -1.5043801728 a.u.

 Total  RIMP2   correlation energy =        -2.0081760253 a.u.
        RIMP2         total energy =     -1182.7593547660 a.u.

 RI-MP2 Energy Time:  CPU 79.13 s  wall 79.38 s
 
 --------------------------------------------------------------
 
                    Orbital Energies (a.u.)
 --------------------------------------------------------------
 
 Alpha MOs
 -- Occupied --
-91.9808 -91.9446 -11.2851 -11.2645 -11.2585 -11.2577 -11.2510 -11.2424
-11.2366 -11.2330 -11.2282 -11.2213  -8.9809  -8.9492  -6.6618  -6.6612
 -6.6606  -6.6305  -6.6295  -6.6282  -1.2009  -1.1529  -1.0596  -1.0277
 -1.0072  -0.9568  -0.9151  -0.9014  -0.8151  -0.7702  -0.7226  -0.7012
 -0.6608  -0.6450  -0.6108  -0.5886  -0.5823  -0.5744  -0.5676  -0.5536
 -0.5415  -0.5344  -0.5150  -0.5092  -0.4881  -0.4802  -0.4584  -0.4476
 -0.3572  -0.3423  -0.3236  -0.2656
 -- Virtual --
  0.0946   0.1327   0.1438   0.1483   0.1584   0.1699   0.1774   0.1834
  0.1926   0.1979   0.2054   0.2092   0.2268   0.2316   0.2394   0.2410
  0.2547   0.2636   0.2764   0.2974   0.3280   0.3359   0.3460   0.3594
  0.3682   0.3775   0.3841   0.3912   0.4004   0.4116   0.4156   0.4257
  0.4366   0.4544   0.4590   0.4647   0.4705   0.4754   0.4818   0.5032
  0.5048   0.5153   0.5215   0.5326   0.5343   0.5431   0.5462   0.5517
  0.5637   0.5736   0.5799   0.6000   0.6083   0.6109   0.6144   0.6174
  0.6209   0.6251   0.6343   0.6368   0.6400   0.6449   0.6464   0.6564
  0.6605   0.6746   0.6835   0.6940   0.6967   0.7062   0.7204   0.7253
  0.7330   0.7524   0.7565   0.7800   0.7915   0.8016   0.8078   0.8184
  0.8325   0.8469   0.8516   0.8678   0.8854   0.8948   0.9007   0.9169
  0.9247   0.9386   0.9437   0.9605   0.9786   0.9886   0.9992   1.0134
  1.0207   1.0239   1.0382   1.0512   1.0543   1.0654   1.0734   1.0828
  1.0917   1.0984   1.1055   1.1183   1.1397   1.1513   1.1591   1.1637
  1.1698   1.1859   1.1948   1.2051   1.2184   1.2252   1.2328   1.2451
  1.2548   1.2721   1.2762   1.2780   1.2865   1.2886   1.2977   1.3147
  1.3165   1.3253   1.3319   1.3557   1.3888   1.3947   1.3983   1.4066
  1.4179   1.4307   1.4422   1.4609   1.4683   1.4736   1.4831   1.4973
  1.5041   1.5139   1.5187   1.5262   1.5317   1.5387   1.5519   1.5587
  1.5637   1.5807   1.5906   1.5942   1.6099   1.6200   1.6321   1.6389
  1.6526   1.6677   1.6766   1.6841   1.6974   1.7205   1.7230   1.7406
  1.7427   1.7619   1.7754   1.7940   1.8115   1.8194   1.8351   1.8493
  1.8817   1.9208   1.9368   1.9428   1.9558   1.9747   1.9822   2.0063
  2.0182   2.0214   2.0410   2.0612   2.0733   2.0947   2.1485   2.1627
  2.1832   2.2007   2.2111   2.2209   2.2344   2.2457   2.2691   2.2735
  2.2908   2.3093   2.3209   2.3691   2.4085   2.4281   2.4551   2.4729
  2.4946   2.5091   2.5385   2.5597   2.5724   2.5893   2.5971   2.6193
  2.6334   2.6429   2.6574   2.6646   2.6766   2.6877   2.6974   2.7284
  2.7449   2.7459   2.7684   2.7749   2.7758   2.7817   2.7928   2.8171
  2.8279   2.8375   2.8532   2.8816   2.8957   2.9029   2.9167   2.9308
  2.9473   2.9524   2.9741   2.9812   2.9965   3.0151   3.0290   3.0415
  3.0502   3.0819   3.0851   3.0981   3.1119   3.1131   3.1250   3.1388
  3.1508   3.1589   3.1695   3.1713   3.1770   3.1949   3.2106   3.2173
  3.2258   3.2455   3.2505   3.2523   3.2723   3.2808   3.2822   3.2997
  3.3068   3.3228   3.3266   3.3389   3.3394   3.3486   3.3562   3.3680
  3.3764   3.3818   3.3950   3.4036   3.4090   3.4144   3.4198   3.4259
  3.4332   3.4445   3.4588   3.4718   3.4759   3.4910   3.4986   3.5037
  3.5133   3.5199   3.5253   3.5474   3.5502   3.5611   3.5721   3.5745
  3.5923   3.6035   3.6142   3.6265   3.6298   3.6419   3.6490   3.6606
  3.6737   3.6788   3.6926   3.7034   3.7205   3.7268   3.7310   3.7401
  3.7419   3.7556   3.7677   3.7794   3.7833   3.7889   3.8064   3.8120
  3.8283   3.8350   3.8530   3.8617   3.8759   3.8834   3.9085   3.9136
  3.9358   3.9425   3.9489   3.9707   3.9761   3.9800   4.0078   4.0100
  4.0259   4.0441   4.0493   4.0528   4.0672   4.0863   4.0941   4.1070
  4.1233   4.1354   4.1414   4.1489   4.1620   4.1723   4.1855   4.2105
  4.2146   4.2173   4.2322   4.2357   4.2472   4.2746   4.2786   4.2828
  4.2831   4.2982   4.3197   4.3322   4.3465   4.3521   4.3534   4.3656
  4.3727   4.3909   4.4030   4.4064   4.4124   4.4195   4.4273   4.4551
  4.4606   4.4709   4.4821   4.4856   4.5092   4.5240   4.5463   4.5833
  4.5887   4.5989   4.6071   4.6244   4.6289   4.6440   4.6655   4.6898
  4.7076   4.7188   4.7373   4.7504   4.7797   4.8085   4.8296   4.8476
  4.8517   4.8688   4.8864   4.9012   4.9135   4.9528   4.9725   4.9776
  5.0193   5.0516   5.0629   5.1021   5.1133   5.1257   5.1510   5.1624
  5.1930   5.2216   5.2422   5.2647   5.2781   5.2925   5.3066   5.3188
  5.3399   5.3682   5.3774   5.3894   5.4102   5.4183   5.4404   5.4576
  5.4719   5.5071   5.5186   5.5407   5.5556   5.5589   5.5700   5.5850
  5.6239   5.6334   5.6539   5.6667   5.6745   5.7003   5.7082   5.7380
  5.7575   5.7871   5.8383   5.9817   6.0222   6.0879   6.1297   6.1373
  6.2164   6.2233   6.2289   6.2460   6.2529   6.2842   6.3038   6.3155
  6.3878   6.4813   9.6040  10.6995  12.1171  12.9757  13.1787  13.9159
 14.1247  14.2487  14.3306  14.6716
 --------------------------------------------------------------
 
          Ground-State Mulliken Net Atomic Charges

     Atom                 Charge (a.u.)
  ----------------------------------------
      1 C                    -0.078339
      2 C                    -0.321957
      3 C                    -0.047064
      4 H                     0.177775
      5 C                     0.120700
      6 S                    -0.176934
      7 C                    -0.294185
      8 H                     0.117885
      9 H                     0.111228
     10 H                     0.111450
     11 C                    -0.022011
     12 C                    -0.331837
     13 C                     0.057436
     14 H                     0.182336
     15 C                    -0.265977
     16 S                     0.011421
     17 C                    -0.272106
     18 H                     0.102779
     19 H                     0.107912
     20 H                     0.109130
     21 H                     0.194412
     22 H                     0.113062
     23 H                     0.110567
     24 H                     0.182316
  ----------------------------------------
  Sum of atomic charges =     0.000000

 -----------------------------------------------------------------
                    Cartesian Multipole Moments
 -----------------------------------------------------------------
    Charge (ESU x 10^10)
                -0.0000
    Dipole Moment (Debye)
         X      -1.4324      Y      -0.0825      Z      -0.1622
       Tot       1.4439
    Quadrupole Moments (Debye-Ang)
        XX     -90.7204     XY       6.3746     YY     -74.5510
        XZ       0.5013     YZ       3.4933     ZZ     -85.4812
    Octopole Moments (Debye-Ang^2)
       XXX     -71.6413    XXY      52.4891    XYY     -13.7425
       YYY     125.2820    XXZ      -2.2531    XYZ      -2.7857
       YYZ      -0.7416    XZZ     -24.9402    YZZ      53.8187
       ZZZ       0.4885
    Hexadecapole Moments (Debye-Ang^3)
      XXXX    -403.2507   XXXY    -158.4981   XXYY    -557.8629
      XYYY    -125.2913   YYYY   -2685.8726   XXXZ    -158.2210
      XXYZ     -22.7522   XYYZ     -42.7718   YYYZ    -101.6634
      XXZZ    -230.0138   XYZZ     -29.1704   YYZZ    -626.0275
      XZZZ    -151.3411   YZZZ     -68.7011   ZZZZ    -960.6573
 -----------------------------------------------------------------
 Total job time:  644.71s(wall), 642.04s(cpu) 
 Sun Jul 10 05:57:35 2022

        *************************************************************
        *                                                           *
        *  Thank you very much for using Q-Chem.  Have a nice day.  *
        *                                                           *
        *************************************************************


remove work dirs ./qchem977193.0 -- ./qchem977193.-1
rm -rf ./qchem977193
