You are running Q-Chem version: 5.4.0

#
# job setting
#
local host:  exp-1-46
current dir: /expanse/lustre/scratch/theleonzhang/temp_project/Hydrogenated_Rotation_Test
input file:  Methylthiophene_Phi_20_Theta_340_Methylthiophene_Hydrogenated.qcin
output file: 
nprocs     : 0
nthreads   : 1
#
# qchem installation setting
#
QC:          /cm/shared/apps/spack/cpu/opt/spack/linux-centos8-zen2/gcc-10.2.0/qchem-5.4-akfmr7b3t57bfs6qan3padb2wnb2i7cl
QCAUX:       /cm/shared/apps/spack/cpu/opt/spack/linux-centos8-zen2/gcc-10.2.0/qchem-5.4-akfmr7b3t57bfs6qan3padb2wnb2i7cl/qcaux
QCPROG:      /cm/shared/apps/spack/cpu/opt/spack/linux-centos8-zen2/gcc-10.2.0/qchem-5.4-akfmr7b3t57bfs6qan3padb2wnb2i7cl/exe/qcprog.exe_s
QCPROG_S:    /cm/shared/apps/spack/cpu/opt/spack/linux-centos8-zen2/gcc-10.2.0/qchem-5.4-akfmr7b3t57bfs6qan3padb2wnb2i7cl/exe/qcprog.exe_s
PARALLEL:    -DSERIAL
QCMPI:       mpich
#
# qchem directory setting
#
qcrun:       qchem4086325
QCSCRATCH:   .
QCLOCALSCR:  
QCTMPDIR:    .
QCFILEPREF:  ./qchem4086325
QCSAVEDIR:   
workdirs:    ./qchem4086325
workdir0:    ./qchem4086325
partmpdirs =  
#
# parallel setting
#
QCRSH:           ssh
QCMPI:           mpich
QCMPIRUN:        /cm/shared/apps/spack/cpu/opt/spack/linux-centos8-zen2/gcc-10.2.0/qchem-5.4-akfmr7b3t57bfs6qan3padb2wnb2i7cl/bin/mpi/mpirun_qchem
QCMACHINEFILE:   ./qchem4086325/hostfile

#
# env setting
#
exported envs:   QC QCAUX QCSCRATCH QCRUNNAME QCFILEPREF QCPROG QCPROG_S GUIFILE

Running Job 1 of 1 Methylthiophene_Phi_20_Theta_340_Methylthiophene_Hydrogenated.qcin
qchem Methylthiophene_Phi_20_Theta_340_Methylthiophene_Hydrogenated.qcin_4086325.0 ./qchem4086325/ 0
/cm/shared/apps/spack/cpu/opt/spack/linux-centos8-zen2/gcc-10.2.0/qchem-5.4-akfmr7b3t57bfs6qan3padb2wnb2i7cl/exe/qcprog.exe_s Methylthiophene_Phi_20_Theta_340_Methylthiophene_Hydrogenated.qcin_4086325.0 ./qchem4086325/
                  Welcome to Q-Chem
     A Quantum Leap Into The Future Of Chemistry


 Q-Chem 5.4, Q-Chem, Inc., Pleasanton, CA (2021)

 License issued to: University of California, San Diego (site)

 E. Epifanovsky,  A. T. B. Gilbert,  Xintian Feng,  Joonho Lee,  Yuezhi Mao,  
 N. Mardirossian,  P. Pokhilko,  A. White,  M. Wormit,  M. P. Coons,  
 A. L. Dempwolff,  Zhengting Gan,  D. Hait,  P. R. Horn,  L. D. Jacobson,  
 I. Kaliman,  J. Kussmann,  A. W. Lange,  Ka Un Lao,  D. S. Levine,  Jie Liu,  
 S. C. McKenzie,  A. F. Morrison,  K. Nanda,  F. Plasser,  D. R. Rehn,  
 M. L. Vidal,  Zhi-Qiang You,  Ying Zhu,  B. Alam,  B. Albrecht,  
 A. Aldossary,  E. Alguire,  J. H. Andersen,  D. Barton,  K. Begam,  A. Behn,  
 Y. A. Bernard,  E. J. Berquist,  H. Burton,  A. Carreras,  K. Carter-Fenk,  
 R. Chakraborty,  A. D. Chien,  K. D. Closser,  V. Cofer-Shabica,  
 S. Dasgupta,  Jia Deng,  M. de Wergifosse,  M. Diedenhofen,  Hainam Do,  
 S. Ehlert,  Po-Tung Fang,  S. Fatehi,  Qingguo Feng,  J. Gayvert,  
 Qinghui Ge,  G. Gidofalvi,  M. Goldey,  J. Gomes,  C. Gonzalez-Espinoza,  
 S. Gulania,  A. Gunina,  M. W. D. Hanson-Heine,  P. H. P. Harbach,  
 A. W. Hauser,  M. F. Herbst,  M. Hernandez Vera,  M. Hodecker,  
 Z. C. Holden,  S. Houck,  Xunkun Huang,  Kerwin Hui,  B. C. Huynh,  
 M. Ivanov,  Hyunjun Ji,  Hanjie Jiang,  B. Kaduk,  S. Kaehler,  
 K. Khistyaev,  Jaehoon Kim,  P. Klunzinger,  Z. Koczor-Benda,  
 Joong Hoon Koh,  D. Kosenkov,  L. Koulias,  T. Kowalczyk,  C. M. Krauter,  
 K. Kue,  A. Kunitsa,  T. Kus,  A. Landau,  K. V. Lawler,  D. Lefrancois,  
 S. Lehtola,  Rain Li,  Yi-Pei Li,  Jiashu Liang,  M. Liebenthal,  
 Hung-Hsuan Lin,  You-Sheng Lin,  Fenglai Liu,  Kuan-Yu Liu,  
 M. Loipersberger,  A. Luenser,  A. Manjanath,  P. Manohar,  E. Mansoor,  
 S. F. Manzer,  Shan-Ping Mao,  A. V. Marenich,  T. Markovich,  S. Mason,  
 S. A. Maurer,  P. F. McLaughlin,  M. F. S. J. Menger,  J.-M. Mewes,  
 S. A. Mewes,  P. Morgante,  J. W. Mullinax,  T. S. Nguyen-Beck,  
 K. J. Oosterbaan,  G. Paran,  Alexander C. Paul,  Suranjan K. Paul,  
 F. Pavosevic,  Zheng Pei,  S. Prager,  E. I. Proynov,  E. Ramos,  B. Rana,  
 A. E. Rask,  A. Rettig,  R. M. Richard,  F. Rob,  E. Rossomme,  T. Scheele,  
 M. Scheurer,  M. Schneider,  N. Sergueev,  S. M. Sharada,  W. Skomorowski,  
 D. W. Small,  C. J. Stein,  Yu-Chuan Su,  E. J. Sundstrom,  Zhen Tao,  
 J. Thirman,  T. Tsuchimochi,  N. M. Tubman,  S. P. Veccham,  O. Vydrov,  
 J. Wenzel,  J. Witte,  A. Yamada,  Kun Yao,  S. Yeganeh,  S. R. Yost,  
 A. Zech,  Igor Ying Zhang,  Xing Zhang,  Yu Zhang,  D. Zuev,  
 A. Aspuru-Guzik,  A. T. Bell,  N. A. Besley,  K. B. Bravaya,  B. R. Brooks,  
 D. Casanova,  Jeng-Da Chai,  S. Coriani,  C. J. Cramer,  
 A. E. DePrince, III,  R. A. DiStasio Jr.,  A. Dreuw,  B. D. Dunietz,  
 T. R. Furlani,  W. A. Goddard III,  S. Grimme,  S. Hammes-Schiffer,  
 T. Head-Gordon,  W. J. Hehre,  Chao-Ping Hsu,  T.-C. Jagau,  Yousung Jung,  
 A. Klamt,  Jing Kong,  D. S. Lambrecht,  WanZhen Liang,  N. J. Mayhall,  
 C. W. McCurdy,  J. B. Neaton,  C. Ochsenfeld,  J. A. Parkhill,  R. Peverati,  
 V. A. Rassolov,  Yihan Shao,  L. V. Slipchenko,  T. Stauch,  R. P. Steele,  
 J. E. Subotnik,  A. J. W. Thom,  A. Tkatchenko,  D. G. Truhlar,  
 T. Van Voorhis,  T. A. Wesolowski,  K. B. Whaley,  H. L. Woodcock III,  
 P. M. Zimmerman,  S. Faraji,  P. M. W. Gill,  M. Head-Gordon,  
 J. M. Herbert,  A. I. Krylov

 Contributors to earlier versions of Q-Chem not listed above: 
 R. D. Adamson,  B. Austin,  R. Baer,  J. Baker,  G. J. O. Beran,  
 K. Brandhorst,  S. T. Brown,  E. F. C. Byrd,  A. K. Chakraborty,  
 G. K. L. Chan,  Chun-Min Chang,  Yunqing Chen,  C.-L. Cheng,  
 Siu Hung Chien,  D. M. Chipman,  D. L. Crittenden,  H. Dachsel,  
 R. J. Doerksen,  A. D. Dutoi,  R. G. Edgar,  J. Fosso-Tande,  
 L. Fusti-Molnar,  D. Ghosh,  A. Ghysels,  A. Golubeva-Zadorozhnaya,  
 J. Gonthier,  M. S. Gordon,  S. R. Gwaltney,  G. Hawkins,  J. E. Herr,  
 A. Heyden,  S. Hirata,  E. G. Hohenstein,  G. Kedziora,  F. J. Keil,  
 C. Kelley,  Jihan Kim,  R. A. King,  R. Z. Khaliullin,  P. P. Korambath,  
 W. Kurlancheek,  A. Laurent,  A. M. Lee,  M. S. Lee,  S. V. Levchenko,  
 Ching Yeh Lin,  D. Liotard,  E. Livshits,  R. C. Lochan,  I. Lotan,  
 L. A. Martinez-Martinez,  P. E. Maslen,  N. Nair,  D. P. O'Neill,  
 D. Neuhauser,  E. Neuscamman,  C. M. Oana,  R. Olivares-Amaya,  R. Olson,  
 T. M. Perrine,  B. Peters,  P. A. Pieniazek,  A. Prociuk,  Y. M. Rhee,  
 J. Ritchie,  M. A. Rohrdanz,  E. Rosta,  N. J. Russ,  H. F. Schaefer III,  
 M. W. Schmidt,  N. E. Schultz,  S. Sharma,  N. Shenvi,  C. D. Sherrill,  
 A. C. Simmonett,  A. Sodt,  T. Stein,  D. Stuck,  K. S. Thanthiriwatte,  
 V. Vanovschi,  L. Vogt,  Tao Wang,  A. Warshel,  M. A. Watson,  
 C. F. Williams,  Q. Wu,  X. Xu,  Jun Yang,  W. Zhang,  Yan Zhao

 Please cite Q-Chem as follows:
 Y. Shao et al., Mol. Phys. 113, 184-215 (2015)
 DOI: 10.1080/00268976.2014.952696

 Q-Chem 5.4.0 for Intel X86 EM64T Linux

 Parts of Q-Chem use Armadillo 9.800.1 (Horizon Scraper).
 http://arma.sourceforge.net/

 Q-Chem begins on Sun Jul 10 05:37:54 2022  

 Host: 
0

     Scratch files written to ./qchem4086325//
 May1621 |scratch|qcdevops|jenkins|workspace|build_RNUM    
 Processing $rem in /cm/shared/apps/spack/cpu/opt/spack/linux-centos8-zen2/gcc-10.2.0/qchem-5.4-akfmr7b3t57bfs6qan3padb2wnb2i7cl/config/preferences:
 Processing $rem in /home/theleonzhang/.qchemrc:
 Symmetry turned off for PCM/SM12/SMD calculation
 Core orbitals will be frozen

 Checking the input file for inconsistencies... 	...done.

--------------------------------------------------------------
User input:
--------------------------------------------------------------
$molecule
0 1
C	0.264439	-3.866725	0.728625
C	-0.209794	-3.703963	-0.575519
C	-0.364749	-2.357056	-1.002336
H	-0.446060	-4.561092	-1.224165
C	0.000000	-1.440664	0.000000
S	0.528253	-2.286957	1.451336
C	-0.862253	-1.978743	-2.369885
H	-1.082953	-2.878678	-2.976034
H	-0.115513	-1.376015	-2.927887
H	-1.792797	-1.375728	-2.317620
C	0.000000	0.000000	0.000000
C	0.295399	0.811508	1.099446
C	0.768742	2.111949	0.776721
H	0.169256	0.464952	2.136088
C	0.844232	2.319291	-0.612546
S	0.322342	0.885558	-1.486809
C	1.140796	3.134091	1.814609
H	0.995218	2.734123	2.836676
H	0.526006	4.054142	1.726239
H	2.203157	3.443680	1.726228
H	1.168902	3.211257	-1.161575
H	1.225465	-4.392713	0.745219
H	-0.461378	-4.392347	1.359038
H	-1.014907	-1.440391	0.369273
$end

$rem
JOBTYPE		SP
EXCHANGE	HF
CORRELATION	pRIMP2
BASIS		cc-pvtz
METHOD		rimp2
AUX_BASIS	rimp2-cc-pvtz
SOLVENT_METHOD	PCM
PURECART	11111
SYMMETRY	false
MEM_TOTAL	110000
SCF_CONVERGENCE = 6
THRESH=10
$end



$solvent
dielectric 4.90
$end
--------------------------------------------------------------
 ----------------------------------------------------------------
             Standard Nuclear Orientation (Angstroms)
    I     Atom           X                Y                Z
 ----------------------------------------------------------------
    1      C       0.2644390000    -3.8667250000     0.7286250000
    2      C      -0.2097940000    -3.7039630000    -0.5755190000
    3      C      -0.3647490000    -2.3570560000    -1.0023360000
    4      H      -0.4460600000    -4.5610920000    -1.2241650000
    5      C       0.0000000000    -1.4406640000     0.0000000000
    6      S       0.5282530000    -2.2869570000     1.4513360000
    7      C      -0.8622530000    -1.9787430000    -2.3698850000
    8      H      -1.0829530000    -2.8786780000    -2.9760340000
    9      H      -0.1155130000    -1.3760150000    -2.9278870000
   10      H      -1.7927970000    -1.3757280000    -2.3176200000
   11      C       0.0000000000     0.0000000000     0.0000000000
   12      C       0.2953990000     0.8115080000     1.0994460000
   13      C       0.7687420000     2.1119490000     0.7767210000
   14      H       0.1692560000     0.4649520000     2.1360880000
   15      C       0.8442320000     2.3192910000    -0.6125460000
   16      S       0.3223420000     0.8855580000    -1.4868090000
   17      C       1.1407960000     3.1340910000     1.8146090000
   18      H       0.9952180000     2.7341230000     2.8366760000
   19      H       0.5260060000     4.0541420000     1.7262390000
   20      H       2.2031570000     3.4436800000     1.7262280000
   21      H       1.1689020000     3.2112570000    -1.1615750000
   22      H       1.2254650000    -4.3927130000     0.7452190000
   23      H      -0.4613780000    -4.3923470000     1.3590380000
   24      H      -1.0149070000    -1.4403910000     0.3692730000
 ----------------------------------------------------------------
 Nuclear Repulsion Energy =         877.97975879 hartrees
 There are       52 alpha and       52 beta electrons

 Q-Chem warning in module forms1/BasisType.C, line 2236:

 You are not using the predefined 5D/6D in this basis set.

 Requested basis set is cc-pVTZ
 There are 196 shells and 536 basis functions

 Total QAlloc Memory Limit 110000 MB
 Mega-Array Size       188 MB
 MEM_STATIC part       192 MB
 Discretize the solute cavity surface with Lebedev spheres
	Using 110 Lebedev grid points for each H atom
	Using 194 Lebedev grid points for other atoms
	Atomic van der Waals radii will be scaled by 1.20
 Remove points where switching function is < 1.0e-08
 Keep 1594 surface tesserae and discard 2054 interior tesserae
 Molecular Surface Area = 230.791 Angst**2
 Requested basis set is rimp2-cc-pVTZ
 There are 414 shells and 1414 basis functions
 A cutoff of  1.0D-10 yielded  13892 shell pairs
 There are    100668 function pairs (    129097 Cartesian)
 Smallest overlap matrix eigenvalue = 6.24E-05

 Scale SEOQF with 1.000000e-01/1.000000e-01/1.000000e-01

 Standard Electronic Orientation quadrupole field applied
 Nucleus-field energy     =     0.0000000222 hartrees
 Guess from superposition of atomic densities
 Warning:  Energy on first SCF cycle will be non-variational
 SAD guess density has 104.000000 electrons

 -----------------------------------------------------------------------
  General SCF calculation program by
  Eric Jon Sundstrom, Paul Horn, Yuezhi Mao, Dmitri Zuev, Alec White,
  David Stuck, Shaama M.S., Shane Yost, Joonho Lee, David Small,
  Daniel Levine, Susi Lehtola, Hugh Burton, Evgeny Epifanovsky,
  Bang C. Huynh
 -----------------------------------------------------------------------
 Hartree-Fock
 A restricted SCF calculation will be
 performed using DIIS
 SCF converges when DIIS error is below 1.0e-06
 ---------------------------------------
  Cycle       Energy         DIIS error
 ---------------------------------------
    1   -1186.0514666752      2.39e-02  
    2   -1180.6023601754      1.57e-03  
    3   -1180.7278303965      6.43e-04  
    4   -1180.7432705728      3.50e-04  
    5   -1180.7488913673      5.91e-05  
    6   -1180.7491395669      2.45e-05  
    7   -1180.7491967171      8.62e-06  
    8   -1180.7492088214      4.14e-06  
    9   -1180.7492115150      1.42e-06  
   10   -1180.7492119409      5.15e-07  Convergence criterion met
 ---------------------------------------
 SCF time:   CPU 568.98s  wall 571.00s 

************** Final PCM Free Energy Summary **************
 G_electrostatic  =      -0.00833168 hartree =      -5.22821037 kcal/mol
 G_cavitation     =       0.00000000 hartree =       0.00000000 kcal/mol
 G_dispersion     =       0.00000000 hartree =       0.00000000 kcal/mol
 G_repulsion      =       0.00000000 hartree =       0.00000000 kcal/mol
 --------------------------------------------------
 Non-electrostatic Free Energy =       0.00000000 hartree =       0.00000000 kcal/mol
 Total                         =      -0.00833168 hartree =      -5.22821037 kcal/mol
 --------------------------------------------------
 SCF Energy (H0 + V/2)                       =   -1180.74921194 
 Solute Internal Energy (H0)                 =   -1180.74088026 
 Total Free Energy (H0 + V/2 + non-elec)     =   -1180.74921194 hartree
                                             = -740931.31336872 kcal/mol
***********************************************************

 SCF   energy in the final basis set =    -1180.7492119409
 Total energy in the final basis set =    -1180.7492119409


 --------------------------------------------------------------
  Generalized many-body perturbation theory program
  by Joonho Lee, Fazle Rob, Xintian Feng, Evgeny Epifanovsky

 No regularization used 
 (reg. param. = 0.0000e+00)
  (P|Q)^-1/2 Time:  CPU 2.31 s  wall 2.32 s

 In RI-MP2 calculation: 
 # of frozen core orbitals: 20

 Components of the RIMP2 correlation energy:
        aaaa    correlation energy =        -0.2520214941 a.u.
        abab    correlation energy =        -1.5046106239 a.u.
        bbbb    correlation energy =        -0.2520214941 a.u.
        non-Brillouin singles      =        -0.0000000000 a.u.
        total same-spin energy     =        -0.5040429881 a.u.
        total opposite-spin energy =        -1.5046106239 a.u.

 Total  RIMP2   correlation energy =        -2.0086536120 a.u.
        RIMP2         total energy =     -1182.7578655529 a.u.

 RI-MP2 Energy Time:  CPU 118.73 s  wall 119.22 s
 
 --------------------------------------------------------------
 
                    Orbital Energies (a.u.)
 --------------------------------------------------------------
 
 Alpha MOs
 -- Occupied --
-91.9808 -91.9455 -11.2864 -11.2654 -11.2587 -11.2568 -11.2507 -11.2430
-11.2349 -11.2330 -11.2279 -11.2217  -8.9809  -8.9501  -6.6618  -6.6612
 -6.6606  -6.6314  -6.6304  -6.6291  -1.2017  -1.1527  -1.0601  -1.0282
 -1.0072  -0.9566  -0.9157  -0.9016  -0.8151  -0.7713  -0.7201  -0.7026
 -0.6604  -0.6464  -0.6109  -0.5898  -0.5828  -0.5741  -0.5678  -0.5540
 -0.5415  -0.5345  -0.5154  -0.5103  -0.4877  -0.4805  -0.4580  -0.4464
 -0.3582  -0.3418  -0.3253  -0.2640
 -- Virtual --
  0.0970   0.1330   0.1442   0.1493   0.1589   0.1703   0.1781   0.1832
  0.1906   0.1966   0.2054   0.2111   0.2273   0.2312   0.2399   0.2410
  0.2542   0.2602   0.2764   0.3005   0.3251   0.3362   0.3469   0.3607
  0.3709   0.3760   0.3851   0.3928   0.4068   0.4136   0.4175   0.4278
  0.4395   0.4539   0.4594   0.4617   0.4757   0.4796   0.4825   0.5044
  0.5080   0.5134   0.5212   0.5316   0.5386   0.5462   0.5481   0.5539
  0.5681   0.5736   0.5814   0.6007   0.6093   0.6115   0.6152   0.6174
  0.6212   0.6243   0.6325   0.6367   0.6394   0.6451   0.6487   0.6565
  0.6596   0.6733   0.6833   0.6914   0.6973   0.7143   0.7193   0.7267
  0.7367   0.7520   0.7579   0.7815   0.7911   0.7997   0.8093   0.8186
  0.8372   0.8493   0.8552   0.8653   0.8834   0.8986   0.9059   0.9183
  0.9301   0.9367   0.9465   0.9628   0.9754   0.9871   0.9999   1.0118
  1.0138   1.0232   1.0389   1.0492   1.0574   1.0632   1.0785   1.0798
  1.0887   1.0978   1.1069   1.1179   1.1412   1.1520   1.1581   1.1644
  1.1685   1.1857   1.1912   1.2105   1.2189   1.2234   1.2330   1.2482
  1.2600   1.2677   1.2746   1.2783   1.2810   1.2896   1.3003   1.3077
  1.3225   1.3249   1.3315   1.3597   1.3855   1.3957   1.3969   1.4018
  1.4167   1.4283   1.4429   1.4574   1.4706   1.4770   1.4802   1.4941
  1.5080   1.5148   1.5213   1.5304   1.5328   1.5403   1.5514   1.5536
  1.5659   1.5805   1.5897   1.5923   1.6105   1.6232   1.6332   1.6433
  1.6506   1.6692   1.6778   1.6847   1.7003   1.7180   1.7247   1.7400
  1.7479   1.7647   1.7803   1.7998   1.8108   1.8191   1.8387   1.8490
  1.8882   1.9242   1.9322   1.9418   1.9598   1.9763   1.9896   1.9968
  2.0172   2.0216   2.0484   2.0623   2.0768   2.0939   2.1438   2.1626
  2.1857   2.2017   2.2107   2.2204   2.2269   2.2421   2.2746   2.2817
  2.2895   2.3103   2.3309   2.3702   2.4095   2.4362   2.4557   2.4725
  2.4903   2.5092   2.5415   2.5552   2.5760   2.5871   2.5957   2.6190
  2.6395   2.6451   2.6568   2.6626   2.6738   2.6902   2.7037   2.7342
  2.7447   2.7507   2.7668   2.7739   2.7775   2.7794   2.7947   2.8193
  2.8246   2.8349   2.8522   2.8828   2.8924   2.8994   2.9095   2.9320
  2.9558   2.9632   2.9742   2.9788   2.9948   3.0133   3.0335   3.0444
  3.0520   3.0758   3.0900   3.1034   3.1073   3.1136   3.1248   3.1364
  3.1486   3.1587   3.1682   3.1742   3.1822   3.1933   3.2124   3.2218
  3.2246   3.2455   3.2541   3.2543   3.2722   3.2759   3.2900   3.3023
  3.3059   3.3254   3.3303   3.3407   3.3454   3.3487   3.3597   3.3685
  3.3782   3.3828   3.3883   3.3972   3.4101   3.4178   3.4192   3.4242
  3.4344   3.4447   3.4584   3.4723   3.4788   3.4900   3.4964   3.5032
  3.5084   3.5179   3.5253   3.5434   3.5498   3.5629   3.5748   3.5760
  3.5922   3.6077   3.6142   3.6282   3.6317   3.6438   3.6473   3.6563
  3.6712   3.6834   3.6952   3.7041   3.7209   3.7247   3.7340   3.7382
  3.7435   3.7583   3.7696   3.7793   3.7800   3.7868   3.8096   3.8151
  3.8283   3.8350   3.8556   3.8622   3.8725   3.8845   3.9006   3.9171
  3.9319   3.9402   3.9571   3.9696   3.9767   3.9811   4.0043   4.0119
  4.0250   4.0430   4.0478   4.0524   4.0660   4.0849   4.0924   4.1057
  4.1215   4.1329   4.1457   4.1549   4.1602   4.1768   4.1826   4.2091
  4.2131   4.2217   4.2340   4.2363   4.2497   4.2721   4.2775   4.2827
  4.2871   4.2992   4.3242   4.3402   4.3476   4.3518   4.3526   4.3638
  4.3723   4.3909   4.4034   4.4122   4.4154   4.4236   4.4342   4.4573
  4.4610   4.4691   4.4769   4.4853   4.5116   4.5248   4.5504   4.5800
  4.5882   4.5999   4.6081   4.6296   4.6352   4.6414   4.6667   4.6949
  4.7093   4.7212   4.7410   4.7647   4.7818   4.8113   4.8226   4.8345
  4.8529   4.8687   4.8918   4.8979   4.9181   4.9481   4.9714   4.9760
  5.0262   5.0581   5.0739   5.0992   5.1138   5.1251   5.1515   5.1704
  5.1949   5.2205   5.2451   5.2639   5.2823   5.2934   5.3065   5.3240
  5.3447   5.3677   5.3749   5.3922   5.4101   5.4152   5.4403   5.4581
  5.4746   5.5090   5.5186   5.5413   5.5547   5.5598   5.5679   5.5891
  5.6233   5.6351   5.6520   5.6697   5.6743   5.6983   5.7047   5.7368
  5.7590   5.7890   5.8424   5.9866   6.0088   6.0917   6.1317   6.1425
  6.2178   6.2279   6.2288   6.2460   6.2597   6.2847   6.3030   6.3156
  6.4029   6.4781   9.5836  10.7252  12.1197  12.9749  13.1738  13.9230
 14.1195  14.2569  14.3548  14.6943
 --------------------------------------------------------------
 
          Ground-State Mulliken Net Atomic Charges

     Atom                 Charge (a.u.)
  ----------------------------------------
      1 C                    -0.076162
      2 C                    -0.323056
      3 C                    -0.046020
      4 H                     0.178419
      5 C                     0.127912
      6 S                    -0.180396
      7 C                    -0.303297
      8 H                     0.120035
      9 H                     0.112009
     10 H                     0.114102
     11 C                    -0.018436
     12 C                    -0.336257
     13 C                     0.061193
     14 H                     0.179652
     15 C                    -0.273117
     16 S                     0.012696
     17 C                    -0.271413
     18 H                     0.102794
     19 H                     0.108037
     20 H                     0.109047
     21 H                     0.194540
     22 H                     0.113165
     23 H                     0.111015
     24 H                     0.183537
  ----------------------------------------
  Sum of atomic charges =     0.000000

 -----------------------------------------------------------------
                    Cartesian Multipole Moments
 -----------------------------------------------------------------
    Charge (ESU x 10^10)
                -0.0000
    Dipole Moment (Debye)
         X      -1.1509      Y      -0.2295      Z      -0.5211
       Tot       1.2840
    Quadrupole Moments (Debye-Ang)
        XX     -90.7333     XY       5.8464     YY     -74.4557
        XZ       0.3761     YZ       3.9699     ZZ     -85.4172
    Octopole Moments (Debye-Ang^2)
       XXX     -71.6429    XXY      52.8774    XYY     -14.0852
       YYY     123.6154    XXZ      -0.8158    XYZ      -1.9686
       YYZ      -0.8145    XZZ     -24.3277    YZZ      52.8907
       ZZZ      -1.7137
    Hexadecapole Moments (Debye-Ang^3)
      XXXX    -324.8685   XXXY    -161.4924   XXYY    -549.2851
      XYYY    -125.7119   YYYY   -2682.2751   XXXZ    -127.2106
      XXYZ     -27.6982   XYYZ     -36.2222   YYYZ    -101.6389
      XXZZ    -233.0738   XYZZ     -31.9865   YYZZ    -634.1120
      XZZZ    -120.4354   YZZZ     -61.2347   ZZZZ   -1031.3771
 -----------------------------------------------------------------
 Total job time:  693.87s(wall), 688.74s(cpu) 
 Sun Jul 10 05:49:28 2022

        *************************************************************
        *                                                           *
        *  Thank you very much for using Q-Chem.  Have a nice day.  *
        *                                                           *
        *************************************************************


remove work dirs ./qchem4086325.0 -- ./qchem4086325.-1
rm -rf ./qchem4086325
You are running Q-Chem version: 5.4.0

#
# job setting
#
local host:  exp-3-09
current dir: /expanse/lustre/scratch/theleonzhang/temp_project/Hydrogenated_Rotation_Test
input file:  Methylthiophene_Phi_20_Theta_340_Methylthiophene_Hydrogenated.qcin
output file: 
nprocs     : 0
nthreads   : 1
#
# qchem installation setting
#
QC:          /cm/shared/apps/spack/cpu/opt/spack/linux-centos8-zen2/gcc-10.2.0/qchem-5.4-akfmr7b3t57bfs6qan3padb2wnb2i7cl
QCAUX:       /cm/shared/apps/spack/cpu/opt/spack/linux-centos8-zen2/gcc-10.2.0/qchem-5.4-akfmr7b3t57bfs6qan3padb2wnb2i7cl/qcaux
QCPROG:      /cm/shared/apps/spack/cpu/opt/spack/linux-centos8-zen2/gcc-10.2.0/qchem-5.4-akfmr7b3t57bfs6qan3padb2wnb2i7cl/exe/qcprog.exe_s
QCPROG_S:    /cm/shared/apps/spack/cpu/opt/spack/linux-centos8-zen2/gcc-10.2.0/qchem-5.4-akfmr7b3t57bfs6qan3padb2wnb2i7cl/exe/qcprog.exe_s
PARALLEL:    -DSERIAL
QCMPI:       mpich
#
# qchem directory setting
#
qcrun:       qchem978936
QCSCRATCH:   .
QCLOCALSCR:  
QCTMPDIR:    .
QCFILEPREF:  ./qchem978936
QCSAVEDIR:   
workdirs:    ./qchem978936
workdir0:    ./qchem978936
partmpdirs =  
#
# parallel setting
#
QCRSH:           ssh
QCMPI:           mpich
QCMPIRUN:        /cm/shared/apps/spack/cpu/opt/spack/linux-centos8-zen2/gcc-10.2.0/qchem-5.4-akfmr7b3t57bfs6qan3padb2wnb2i7cl/bin/mpi/mpirun_qchem
QCMACHINEFILE:   ./qchem978936/hostfile

#
# env setting
#
exported envs:   QC QCAUX QCSCRATCH QCRUNNAME QCFILEPREF QCPROG QCPROG_S GUIFILE

Running Job 1 of 1 Methylthiophene_Phi_20_Theta_340_Methylthiophene_Hydrogenated.qcin
qchem Methylthiophene_Phi_20_Theta_340_Methylthiophene_Hydrogenated.qcin_978936.0 ./qchem978936/ 0
/cm/shared/apps/spack/cpu/opt/spack/linux-centos8-zen2/gcc-10.2.0/qchem-5.4-akfmr7b3t57bfs6qan3padb2wnb2i7cl/exe/qcprog.exe_s Methylthiophene_Phi_20_Theta_340_Methylthiophene_Hydrogenated.qcin_978936.0 ./qchem978936/
                  Welcome to Q-Chem
     A Quantum Leap Into The Future Of Chemistry


 Q-Chem 5.4, Q-Chem, Inc., Pleasanton, CA (2021)

 License issued to: University of California, San Diego (site)

 E. Epifanovsky,  A. T. B. Gilbert,  Xintian Feng,  Joonho Lee,  Yuezhi Mao,  
 N. Mardirossian,  P. Pokhilko,  A. White,  M. Wormit,  M. P. Coons,  
 A. L. Dempwolff,  Zhengting Gan,  D. Hait,  P. R. Horn,  L. D. Jacobson,  
 I. Kaliman,  J. Kussmann,  A. W. Lange,  Ka Un Lao,  D. S. Levine,  Jie Liu,  
 S. C. McKenzie,  A. F. Morrison,  K. Nanda,  F. Plasser,  D. R. Rehn,  
 M. L. Vidal,  Zhi-Qiang You,  Ying Zhu,  B. Alam,  B. Albrecht,  
 A. Aldossary,  E. Alguire,  J. H. Andersen,  D. Barton,  K. Begam,  A. Behn,  
 Y. A. Bernard,  E. J. Berquist,  H. Burton,  A. Carreras,  K. Carter-Fenk,  
 R. Chakraborty,  A. D. Chien,  K. D. Closser,  V. Cofer-Shabica,  
 S. Dasgupta,  Jia Deng,  M. de Wergifosse,  M. Diedenhofen,  Hainam Do,  
 S. Ehlert,  Po-Tung Fang,  S. Fatehi,  Qingguo Feng,  J. Gayvert,  
 Qinghui Ge,  G. Gidofalvi,  M. Goldey,  J. Gomes,  C. Gonzalez-Espinoza,  
 S. Gulania,  A. Gunina,  M. W. D. Hanson-Heine,  P. H. P. Harbach,  
 A. W. Hauser,  M. F. Herbst,  M. Hernandez Vera,  M. Hodecker,  
 Z. C. Holden,  S. Houck,  Xunkun Huang,  Kerwin Hui,  B. C. Huynh,  
 M. Ivanov,  Hyunjun Ji,  Hanjie Jiang,  B. Kaduk,  S. Kaehler,  
 K. Khistyaev,  Jaehoon Kim,  P. Klunzinger,  Z. Koczor-Benda,  
 Joong Hoon Koh,  D. Kosenkov,  L. Koulias,  T. Kowalczyk,  C. M. Krauter,  
 K. Kue,  A. Kunitsa,  T. Kus,  A. Landau,  K. V. Lawler,  D. Lefrancois,  
 S. Lehtola,  Rain Li,  Yi-Pei Li,  Jiashu Liang,  M. Liebenthal,  
 Hung-Hsuan Lin,  You-Sheng Lin,  Fenglai Liu,  Kuan-Yu Liu,  
 M. Loipersberger,  A. Luenser,  A. Manjanath,  P. Manohar,  E. Mansoor,  
 S. F. Manzer,  Shan-Ping Mao,  A. V. Marenich,  T. Markovich,  S. Mason,  
 S. A. Maurer,  P. F. McLaughlin,  M. F. S. J. Menger,  J.-M. Mewes,  
 S. A. Mewes,  P. Morgante,  J. W. Mullinax,  T. S. Nguyen-Beck,  
 K. J. Oosterbaan,  G. Paran,  Alexander C. Paul,  Suranjan K. Paul,  
 F. Pavosevic,  Zheng Pei,  S. Prager,  E. I. Proynov,  E. Ramos,  B. Rana,  
 A. E. Rask,  A. Rettig,  R. M. Richard,  F. Rob,  E. Rossomme,  T. Scheele,  
 M. Scheurer,  M. Schneider,  N. Sergueev,  S. M. Sharada,  W. Skomorowski,  
 D. W. Small,  C. J. Stein,  Yu-Chuan Su,  E. J. Sundstrom,  Zhen Tao,  
 J. Thirman,  T. Tsuchimochi,  N. M. Tubman,  S. P. Veccham,  O. Vydrov,  
 J. Wenzel,  J. Witte,  A. Yamada,  Kun Yao,  S. Yeganeh,  S. R. Yost,  
 A. Zech,  Igor Ying Zhang,  Xing Zhang,  Yu Zhang,  D. Zuev,  
 A. Aspuru-Guzik,  A. T. Bell,  N. A. Besley,  K. B. Bravaya,  B. R. Brooks,  
 D. Casanova,  Jeng-Da Chai,  S. Coriani,  C. J. Cramer,  
 A. E. DePrince, III,  R. A. DiStasio Jr.,  A. Dreuw,  B. D. Dunietz,  
 T. R. Furlani,  W. A. Goddard III,  S. Grimme,  S. Hammes-Schiffer,  
 T. Head-Gordon,  W. J. Hehre,  Chao-Ping Hsu,  T.-C. Jagau,  Yousung Jung,  
 A. Klamt,  Jing Kong,  D. S. Lambrecht,  WanZhen Liang,  N. J. Mayhall,  
 C. W. McCurdy,  J. B. Neaton,  C. Ochsenfeld,  J. A. Parkhill,  R. Peverati,  
 V. A. Rassolov,  Yihan Shao,  L. V. Slipchenko,  T. Stauch,  R. P. Steele,  
 J. E. Subotnik,  A. J. W. Thom,  A. Tkatchenko,  D. G. Truhlar,  
 T. Van Voorhis,  T. A. Wesolowski,  K. B. Whaley,  H. L. Woodcock III,  
 P. M. Zimmerman,  S. Faraji,  P. M. W. Gill,  M. Head-Gordon,  
 J. M. Herbert,  A. I. Krylov

 Contributors to earlier versions of Q-Chem not listed above: 
 R. D. Adamson,  B. Austin,  R. Baer,  J. Baker,  G. J. O. Beran,  
 K. Brandhorst,  S. T. Brown,  E. F. C. Byrd,  A. K. Chakraborty,  
 G. K. L. Chan,  Chun-Min Chang,  Yunqing Chen,  C.-L. Cheng,  
 Siu Hung Chien,  D. M. Chipman,  D. L. Crittenden,  H. Dachsel,  
 R. J. Doerksen,  A. D. Dutoi,  R. G. Edgar,  J. Fosso-Tande,  
 L. Fusti-Molnar,  D. Ghosh,  A. Ghysels,  A. Golubeva-Zadorozhnaya,  
 J. Gonthier,  M. S. Gordon,  S. R. Gwaltney,  G. Hawkins,  J. E. Herr,  
 A. Heyden,  S. Hirata,  E. G. Hohenstein,  G. Kedziora,  F. J. Keil,  
 C. Kelley,  Jihan Kim,  R. A. King,  R. Z. Khaliullin,  P. P. Korambath,  
 W. Kurlancheek,  A. Laurent,  A. M. Lee,  M. S. Lee,  S. V. Levchenko,  
 Ching Yeh Lin,  D. Liotard,  E. Livshits,  R. C. Lochan,  I. Lotan,  
 L. A. Martinez-Martinez,  P. E. Maslen,  N. Nair,  D. P. O'Neill,  
 D. Neuhauser,  E. Neuscamman,  C. M. Oana,  R. Olivares-Amaya,  R. Olson,  
 T. M. Perrine,  B. Peters,  P. A. Pieniazek,  A. Prociuk,  Y. M. Rhee,  
 J. Ritchie,  M. A. Rohrdanz,  E. Rosta,  N. J. Russ,  H. F. Schaefer III,  
 M. W. Schmidt,  N. E. Schultz,  S. Sharma,  N. Shenvi,  C. D. Sherrill,  
 A. C. Simmonett,  A. Sodt,  T. Stein,  D. Stuck,  K. S. Thanthiriwatte,  
 V. Vanovschi,  L. Vogt,  Tao Wang,  A. Warshel,  M. A. Watson,  
 C. F. Williams,  Q. Wu,  X. Xu,  Jun Yang,  W. Zhang,  Yan Zhao

 Please cite Q-Chem as follows:
 Y. Shao et al., Mol. Phys. 113, 184-215 (2015)
 DOI: 10.1080/00268976.2014.952696

 Q-Chem 5.4.0 for Intel X86 EM64T Linux

 Parts of Q-Chem use Armadillo 9.800.1 (Horizon Scraper).
 http://arma.sourceforge.net/

 Q-Chem begins on Sun Jul 10 05:57:35 2022  

 Host: 
0

     Scratch files written to ./qchem978936//
 May1621 |scratch|qcdevops|jenkins|workspace|build_RNUM    
 Processing $rem in /cm/shared/apps/spack/cpu/opt/spack/linux-centos8-zen2/gcc-10.2.0/qchem-5.4-akfmr7b3t57bfs6qan3padb2wnb2i7cl/config/preferences:
 Processing $rem in /home/theleonzhang/.qchemrc:
 Symmetry turned off for PCM/SM12/SMD calculation
 Core orbitals will be frozen

 Checking the input file for inconsistencies... 	...done.

--------------------------------------------------------------
User input:
--------------------------------------------------------------
$molecule
0 1
C	0.264439	-3.866725	0.728625
C	-0.209794	-3.703963	-0.575519
C	-0.364749	-2.357056	-1.002336
H	-0.446060	-4.561092	-1.224165
C	0.000000	-1.440664	0.000000
S	0.528253	-2.286957	1.451336
C	-0.862253	-1.978743	-2.369885
H	-1.082953	-2.878678	-2.976034
H	-0.115513	-1.376015	-2.927887
H	-1.792797	-1.375728	-2.317620
C	0.000000	0.000000	0.000000
C	0.295399	0.811508	1.099446
C	0.768742	2.111949	0.776721
H	0.169256	0.464952	2.136088
C	0.844232	2.319291	-0.612546
S	0.322342	0.885558	-1.486809
C	1.140796	3.134091	1.814609
H	0.995218	2.734123	2.836676
H	0.526006	4.054142	1.726239
H	2.203157	3.443680	1.726228
H	1.168902	3.211257	-1.161575
H	1.225465	-4.392713	0.745219
H	-0.461378	-4.392347	1.359038
H	-1.014907	-1.440391	0.369273
$end

$rem
JOBTYPE		SP
EXCHANGE	HF
CORRELATION	pRIMP2
BASIS		cc-pvtz
METHOD		rimp2
AUX_BASIS	rimp2-cc-pvtz
SOLVENT_METHOD	PCM
PURECART	11111
SYMMETRY	false
MEM_TOTAL	110000
SCF_CONVERGENCE = 6
THRESH=10
$end



$solvent
dielectric 4.90
$end
--------------------------------------------------------------
 ----------------------------------------------------------------
             Standard Nuclear Orientation (Angstroms)
    I     Atom           X                Y                Z
 ----------------------------------------------------------------
    1      C       0.2644390000    -3.8667250000     0.7286250000
    2      C      -0.2097940000    -3.7039630000    -0.5755190000
    3      C      -0.3647490000    -2.3570560000    -1.0023360000
    4      H      -0.4460600000    -4.5610920000    -1.2241650000
    5      C       0.0000000000    -1.4406640000     0.0000000000
    6      S       0.5282530000    -2.2869570000     1.4513360000
    7      C      -0.8622530000    -1.9787430000    -2.3698850000
    8      H      -1.0829530000    -2.8786780000    -2.9760340000
    9      H      -0.1155130000    -1.3760150000    -2.9278870000
   10      H      -1.7927970000    -1.3757280000    -2.3176200000
   11      C       0.0000000000     0.0000000000     0.0000000000
   12      C       0.2953990000     0.8115080000     1.0994460000
   13      C       0.7687420000     2.1119490000     0.7767210000
   14      H       0.1692560000     0.4649520000     2.1360880000
   15      C       0.8442320000     2.3192910000    -0.6125460000
   16      S       0.3223420000     0.8855580000    -1.4868090000
   17      C       1.1407960000     3.1340910000     1.8146090000
   18      H       0.9952180000     2.7341230000     2.8366760000
   19      H       0.5260060000     4.0541420000     1.7262390000
   20      H       2.2031570000     3.4436800000     1.7262280000
   21      H       1.1689020000     3.2112570000    -1.1615750000
   22      H       1.2254650000    -4.3927130000     0.7452190000
   23      H      -0.4613780000    -4.3923470000     1.3590380000
   24      H      -1.0149070000    -1.4403910000     0.3692730000
 ----------------------------------------------------------------
 Nuclear Repulsion Energy =         877.97975879 hartrees
 There are       52 alpha and       52 beta electrons

 Q-Chem warning in module forms1/BasisType.C, line 2236:

 You are not using the predefined 5D/6D in this basis set.

 Requested basis set is cc-pVTZ
 There are 196 shells and 536 basis functions

 Total QAlloc Memory Limit 110000 MB
 Mega-Array Size       188 MB
 MEM_STATIC part       192 MB
 Discretize the solute cavity surface with Lebedev spheres
	Using 110 Lebedev grid points for each H atom
	Using 194 Lebedev grid points for other atoms
	Atomic van der Waals radii will be scaled by 1.20
 Remove points where switching function is < 1.0e-08
 Keep 1594 surface tesserae and discard 2054 interior tesserae
 Molecular Surface Area = 230.791 Angst**2
 Requested basis set is rimp2-cc-pVTZ
 There are 414 shells and 1414 basis functions
 A cutoff of  1.0D-10 yielded  13892 shell pairs
 There are    100668 function pairs (    129097 Cartesian)
 Smallest overlap matrix eigenvalue = 6.24E-05

 Scale SEOQF with 1.000000e-01/1.000000e-01/1.000000e-01

 Standard Electronic Orientation quadrupole field applied
 Nucleus-field energy     =     0.0000000222 hartrees
 Guess from superposition of atomic densities
 Warning:  Energy on first SCF cycle will be non-variational
 SAD guess density has 104.000000 electrons

 -----------------------------------------------------------------------
  General SCF calculation program by
  Eric Jon Sundstrom, Paul Horn, Yuezhi Mao, Dmitri Zuev, Alec White,
  David Stuck, Shaama M.S., Shane Yost, Joonho Lee, David Small,
  Daniel Levine, Susi Lehtola, Hugh Burton, Evgeny Epifanovsky,
  Bang C. Huynh
 -----------------------------------------------------------------------
 Hartree-Fock
 A restricted SCF calculation will be
 performed using DIIS
 SCF converges when DIIS error is below 1.0e-06
 ---------------------------------------
  Cycle       Energy         DIIS error
 ---------------------------------------
    1   -1186.0514666752      2.39e-02  
    2   -1180.6023601754      1.57e-03  
    3   -1180.7278303965      6.43e-04  
    4   -1180.7432705728      3.50e-04  
    5   -1180.7488913673      5.91e-05  
    6   -1180.7491395669      2.45e-05  
    7   -1180.7491967171      8.62e-06  
    8   -1180.7492088214      4.14e-06  
    9   -1180.7492115150      1.42e-06  
   10   -1180.7492119409      5.15e-07  Convergence criterion met
 ---------------------------------------
 SCF time:   CPU 566.14s  wall 568.00s 

************** Final PCM Free Energy Summary **************
 G_electrostatic  =      -0.00833168 hartree =      -5.22821037 kcal/mol
 G_cavitation     =       0.00000000 hartree =       0.00000000 kcal/mol
 G_dispersion     =       0.00000000 hartree =       0.00000000 kcal/mol
 G_repulsion      =       0.00000000 hartree =       0.00000000 kcal/mol
 --------------------------------------------------
 Non-electrostatic Free Energy =       0.00000000 hartree =       0.00000000 kcal/mol
 Total                         =      -0.00833168 hartree =      -5.22821037 kcal/mol
 --------------------------------------------------
 SCF Energy (H0 + V/2)                       =   -1180.74921194 
 Solute Internal Energy (H0)                 =   -1180.74088026 
 Total Free Energy (H0 + V/2 + non-elec)     =   -1180.74921194 hartree
                                             = -740931.31336872 kcal/mol
***********************************************************

 SCF   energy in the final basis set =    -1180.7492119409
 Total energy in the final basis set =    -1180.7492119409


 --------------------------------------------------------------
  Generalized many-body perturbation theory program
  by Joonho Lee, Fazle Rob, Xintian Feng, Evgeny Epifanovsky

 No regularization used 
 (reg. param. = 0.0000e+00)
  (P|Q)^-1/2 Time:  CPU 1.89 s  wall 1.89 s

 In RI-MP2 calculation: 
 # of frozen core orbitals: 20

 Components of the RIMP2 correlation energy:
        aaaa    correlation energy =        -0.2520214941 a.u.
        abab    correlation energy =        -1.5046106239 a.u.
        bbbb    correlation energy =        -0.2520214941 a.u.
        non-Brillouin singles      =        -0.0000000000 a.u.
        total same-spin energy     =        -0.5040429881 a.u.
        total opposite-spin energy =        -1.5046106239 a.u.

 Total  RIMP2   correlation energy =        -2.0086536120 a.u.
        RIMP2         total energy =     -1182.7578655529 a.u.

 RI-MP2 Energy Time:  CPU 79.21 s  wall 79.47 s
 
 --------------------------------------------------------------
 
                    Orbital Energies (a.u.)
 --------------------------------------------------------------
 
 Alpha MOs
 -- Occupied --
-91.9808 -91.9455 -11.2864 -11.2654 -11.2587 -11.2568 -11.2507 -11.2430
-11.2349 -11.2330 -11.2279 -11.2217  -8.9809  -8.9501  -6.6618  -6.6612
 -6.6606  -6.6314  -6.6304  -6.6291  -1.2017  -1.1527  -1.0601  -1.0282
 -1.0072  -0.9566  -0.9157  -0.9016  -0.8151  -0.7713  -0.7201  -0.7026
 -0.6604  -0.6464  -0.6109  -0.5898  -0.5828  -0.5741  -0.5678  -0.5540
 -0.5415  -0.5345  -0.5154  -0.5103  -0.4877  -0.4805  -0.4580  -0.4464
 -0.3582  -0.3418  -0.3253  -0.2640
 -- Virtual --
  0.0970   0.1330   0.1442   0.1493   0.1589   0.1703   0.1781   0.1832
  0.1906   0.1966   0.2054   0.2111   0.2273   0.2312   0.2399   0.2410
  0.2542   0.2602   0.2764   0.3005   0.3251   0.3362   0.3469   0.3607
  0.3709   0.3760   0.3851   0.3928   0.4068   0.4136   0.4175   0.4278
  0.4395   0.4539   0.4594   0.4617   0.4757   0.4796   0.4825   0.5044
  0.5080   0.5134   0.5212   0.5316   0.5386   0.5462   0.5481   0.5539
  0.5681   0.5736   0.5814   0.6007   0.6093   0.6115   0.6152   0.6174
  0.6212   0.6243   0.6325   0.6367   0.6394   0.6451   0.6487   0.6565
  0.6596   0.6733   0.6833   0.6914   0.6973   0.7143   0.7193   0.7267
  0.7367   0.7520   0.7579   0.7815   0.7911   0.7997   0.8093   0.8186
  0.8372   0.8493   0.8552   0.8653   0.8834   0.8986   0.9059   0.9183
  0.9301   0.9367   0.9465   0.9628   0.9754   0.9871   0.9999   1.0118
  1.0138   1.0232   1.0389   1.0492   1.0574   1.0632   1.0785   1.0798
  1.0887   1.0978   1.1069   1.1179   1.1412   1.1520   1.1581   1.1644
  1.1685   1.1857   1.1912   1.2105   1.2189   1.2234   1.2330   1.2482
  1.2600   1.2677   1.2746   1.2783   1.2810   1.2896   1.3003   1.3077
  1.3225   1.3249   1.3315   1.3597   1.3855   1.3957   1.3969   1.4018
  1.4167   1.4283   1.4429   1.4574   1.4706   1.4770   1.4802   1.4941
  1.5080   1.5148   1.5213   1.5304   1.5328   1.5403   1.5514   1.5536
  1.5659   1.5805   1.5897   1.5923   1.6105   1.6232   1.6332   1.6433
  1.6506   1.6692   1.6778   1.6847   1.7003   1.7180   1.7247   1.7400
  1.7479   1.7647   1.7803   1.7998   1.8108   1.8191   1.8387   1.8490
  1.8882   1.9242   1.9322   1.9418   1.9598   1.9763   1.9896   1.9968
  2.0172   2.0216   2.0484   2.0623   2.0768   2.0939   2.1438   2.1626
  2.1857   2.2017   2.2107   2.2204   2.2269   2.2421   2.2746   2.2817
  2.2895   2.3103   2.3309   2.3702   2.4095   2.4362   2.4557   2.4725
  2.4903   2.5092   2.5415   2.5552   2.5760   2.5871   2.5957   2.6190
  2.6395   2.6451   2.6568   2.6626   2.6738   2.6902   2.7037   2.7342
  2.7447   2.7507   2.7668   2.7739   2.7775   2.7794   2.7947   2.8193
  2.8246   2.8349   2.8522   2.8828   2.8924   2.8994   2.9095   2.9320
  2.9558   2.9632   2.9742   2.9788   2.9948   3.0133   3.0335   3.0444
  3.0520   3.0758   3.0900   3.1034   3.1073   3.1136   3.1248   3.1364
  3.1486   3.1587   3.1682   3.1742   3.1822   3.1933   3.2124   3.2218
  3.2246   3.2455   3.2541   3.2543   3.2722   3.2759   3.2900   3.3023
  3.3059   3.3254   3.3303   3.3407   3.3454   3.3487   3.3597   3.3685
  3.3782   3.3828   3.3883   3.3972   3.4101   3.4178   3.4192   3.4242
  3.4344   3.4447   3.4584   3.4723   3.4788   3.4900   3.4964   3.5032
  3.5084   3.5179   3.5253   3.5434   3.5498   3.5629   3.5748   3.5760
  3.5922   3.6077   3.6142   3.6282   3.6317   3.6438   3.6473   3.6563
  3.6712   3.6834   3.6952   3.7041   3.7209   3.7247   3.7340   3.7382
  3.7435   3.7583   3.7696   3.7793   3.7800   3.7868   3.8096   3.8151
  3.8283   3.8350   3.8556   3.8622   3.8725   3.8845   3.9006   3.9171
  3.9319   3.9402   3.9571   3.9696   3.9767   3.9811   4.0043   4.0119
  4.0250   4.0430   4.0478   4.0524   4.0660   4.0849   4.0924   4.1057
  4.1215   4.1329   4.1457   4.1549   4.1602   4.1768   4.1826   4.2091
  4.2131   4.2217   4.2340   4.2363   4.2497   4.2721   4.2775   4.2827
  4.2871   4.2992   4.3242   4.3402   4.3476   4.3518   4.3526   4.3638
  4.3723   4.3909   4.4034   4.4122   4.4154   4.4236   4.4342   4.4573
  4.4610   4.4691   4.4769   4.4853   4.5116   4.5248   4.5504   4.5800
  4.5882   4.5999   4.6081   4.6296   4.6352   4.6414   4.6667   4.6949
  4.7093   4.7212   4.7410   4.7647   4.7818   4.8113   4.8226   4.8345
  4.8529   4.8687   4.8918   4.8979   4.9181   4.9481   4.9714   4.9760
  5.0262   5.0581   5.0739   5.0992   5.1138   5.1251   5.1515   5.1704
  5.1949   5.2205   5.2451   5.2639   5.2823   5.2934   5.3065   5.3240
  5.3447   5.3677   5.3749   5.3922   5.4101   5.4152   5.4403   5.4581
  5.4746   5.5090   5.5186   5.5413   5.5547   5.5598   5.5679   5.5891
  5.6233   5.6351   5.6520   5.6697   5.6743   5.6983   5.7047   5.7368
  5.7590   5.7890   5.8424   5.9866   6.0088   6.0917   6.1317   6.1425
  6.2178   6.2279   6.2288   6.2460   6.2597   6.2847   6.3030   6.3156
  6.4029   6.4781   9.5836  10.7252  12.1197  12.9749  13.1738  13.9230
 14.1195  14.2569  14.3548  14.6943
 --------------------------------------------------------------
 
          Ground-State Mulliken Net Atomic Charges

     Atom                 Charge (a.u.)
  ----------------------------------------
      1 C                    -0.076162
      2 C                    -0.323056
      3 C                    -0.046020
      4 H                     0.178419
      5 C                     0.127912
      6 S                    -0.180396
      7 C                    -0.303297
      8 H                     0.120035
      9 H                     0.112009
     10 H                     0.114102
     11 C                    -0.018436
     12 C                    -0.336257
     13 C                     0.061193
     14 H                     0.179652
     15 C                    -0.273117
     16 S                     0.012696
     17 C                    -0.271413
     18 H                     0.102794
     19 H                     0.108037
     20 H                     0.109047
     21 H                     0.194540
     22 H                     0.113165
     23 H                     0.111015
     24 H                     0.183537
  ----------------------------------------
  Sum of atomic charges =     0.000000

 -----------------------------------------------------------------
                    Cartesian Multipole Moments
 -----------------------------------------------------------------
    Charge (ESU x 10^10)
                -0.0000
    Dipole Moment (Debye)
         X      -1.1509      Y      -0.2295      Z      -0.5211
       Tot       1.2840
    Quadrupole Moments (Debye-Ang)
        XX     -90.7333     XY       5.8464     YY     -74.4557
        XZ       0.3761     YZ       3.9699     ZZ     -85.4172
    Octopole Moments (Debye-Ang^2)
       XXX     -71.6429    XXY      52.8774    XYY     -14.0852
       YYY     123.6154    XXZ      -0.8158    XYZ      -1.9686
       YYZ      -0.8145    XZZ     -24.3277    YZZ      52.8907
       ZZZ      -1.7137
    Hexadecapole Moments (Debye-Ang^3)
      XXXX    -324.8685   XXXY    -161.4924   XXYY    -549.2851
      XYYY    -125.7119   YYYY   -2682.2751   XXXZ    -127.2106
      XXYZ     -27.6982   XYYZ     -36.2222   YYYZ    -101.6389
      XXZZ    -233.0738   XYZZ     -31.9865   YYZZ    -634.1120
      XZZZ    -120.4354   YZZZ     -61.2347   ZZZZ   -1031.3771
 -----------------------------------------------------------------
 Total job time:  650.20s(wall), 646.26s(cpu) 
 Sun Jul 10 06:08:25 2022

        *************************************************************
        *                                                           *
        *  Thank you very much for using Q-Chem.  Have a nice day.  *
        *                                                           *
        *************************************************************


remove work dirs ./qchem978936.0 -- ./qchem978936.-1
rm -rf ./qchem978936
