You are running Q-Chem version: 5.4.0

#
# job setting
#
local host:  exp-1-17
current dir: /expanse/lustre/scratch/theleonzhang/temp_project/Hydrogenated_Rotation_Test
input file:  Methylthiophene_Phi_0_Theta_180_Methylthiophene_Hydrogenated.qcin
output file: 
nprocs     : 0
nthreads   : 1
#
# qchem installation setting
#
QC:          /cm/shared/apps/spack/cpu/opt/spack/linux-centos8-zen2/gcc-10.2.0/qchem-5.4-akfmr7b3t57bfs6qan3padb2wnb2i7cl
QCAUX:       /cm/shared/apps/spack/cpu/opt/spack/linux-centos8-zen2/gcc-10.2.0/qchem-5.4-akfmr7b3t57bfs6qan3padb2wnb2i7cl/qcaux
QCPROG:      /cm/shared/apps/spack/cpu/opt/spack/linux-centos8-zen2/gcc-10.2.0/qchem-5.4-akfmr7b3t57bfs6qan3padb2wnb2i7cl/exe/qcprog.exe_s
QCPROG_S:    /cm/shared/apps/spack/cpu/opt/spack/linux-centos8-zen2/gcc-10.2.0/qchem-5.4-akfmr7b3t57bfs6qan3padb2wnb2i7cl/exe/qcprog.exe_s
PARALLEL:    -DSERIAL
QCMPI:       mpich
#
# qchem directory setting
#
qcrun:       qchem3519829
QCSCRATCH:   .
QCLOCALSCR:  
QCTMPDIR:    .
QCFILEPREF:  ./qchem3519829
QCSAVEDIR:   
workdirs:    ./qchem3519829
workdir0:    ./qchem3519829
partmpdirs =  
#
# parallel setting
#
QCRSH:           ssh
QCMPI:           mpich
QCMPIRUN:        /cm/shared/apps/spack/cpu/opt/spack/linux-centos8-zen2/gcc-10.2.0/qchem-5.4-akfmr7b3t57bfs6qan3padb2wnb2i7cl/bin/mpi/mpirun_qchem
QCMACHINEFILE:   ./qchem3519829/hostfile

#
# env setting
#
exported envs:   QC QCAUX QCSCRATCH QCRUNNAME QCFILEPREF QCPROG QCPROG_S GUIFILE

Running Job 1 of 1 Methylthiophene_Phi_0_Theta_180_Methylthiophene_Hydrogenated.qcin
qchem Methylthiophene_Phi_0_Theta_180_Methylthiophene_Hydrogenated.qcin_3519829.0 ./qchem3519829/ 0
/cm/shared/apps/spack/cpu/opt/spack/linux-centos8-zen2/gcc-10.2.0/qchem-5.4-akfmr7b3t57bfs6qan3padb2wnb2i7cl/exe/qcprog.exe_s Methylthiophene_Phi_0_Theta_180_Methylthiophene_Hydrogenated.qcin_3519829.0 ./qchem3519829/
                  Welcome to Q-Chem
     A Quantum Leap Into The Future Of Chemistry


 Q-Chem 5.4, Q-Chem, Inc., Pleasanton, CA (2021)

 License issued to: University of California, San Diego (site)

 E. Epifanovsky,  A. T. B. Gilbert,  Xintian Feng,  Joonho Lee,  Yuezhi Mao,  
 N. Mardirossian,  P. Pokhilko,  A. White,  M. Wormit,  M. P. Coons,  
 A. L. Dempwolff,  Zhengting Gan,  D. Hait,  P. R. Horn,  L. D. Jacobson,  
 I. Kaliman,  J. Kussmann,  A. W. Lange,  Ka Un Lao,  D. S. Levine,  Jie Liu,  
 S. C. McKenzie,  A. F. Morrison,  K. Nanda,  F. Plasser,  D. R. Rehn,  
 M. L. Vidal,  Zhi-Qiang You,  Ying Zhu,  B. Alam,  B. Albrecht,  
 A. Aldossary,  E. Alguire,  J. H. Andersen,  D. Barton,  K. Begam,  A. Behn,  
 Y. A. Bernard,  E. J. Berquist,  H. Burton,  A. Carreras,  K. Carter-Fenk,  
 R. Chakraborty,  A. D. Chien,  K. D. Closser,  V. Cofer-Shabica,  
 S. Dasgupta,  Jia Deng,  M. de Wergifosse,  M. Diedenhofen,  Hainam Do,  
 S. Ehlert,  Po-Tung Fang,  S. Fatehi,  Qingguo Feng,  J. Gayvert,  
 Qinghui Ge,  G. Gidofalvi,  M. Goldey,  J. Gomes,  C. Gonzalez-Espinoza,  
 S. Gulania,  A. Gunina,  M. W. D. Hanson-Heine,  P. H. P. Harbach,  
 A. W. Hauser,  M. F. Herbst,  M. Hernandez Vera,  M. Hodecker,  
 Z. C. Holden,  S. Houck,  Xunkun Huang,  Kerwin Hui,  B. C. Huynh,  
 M. Ivanov,  Hyunjun Ji,  Hanjie Jiang,  B. Kaduk,  S. Kaehler,  
 K. Khistyaev,  Jaehoon Kim,  P. Klunzinger,  Z. Koczor-Benda,  
 Joong Hoon Koh,  D. Kosenkov,  L. Koulias,  T. Kowalczyk,  C. M. Krauter,  
 K. Kue,  A. Kunitsa,  T. Kus,  A. Landau,  K. V. Lawler,  D. Lefrancois,  
 S. Lehtola,  Rain Li,  Yi-Pei Li,  Jiashu Liang,  M. Liebenthal,  
 Hung-Hsuan Lin,  You-Sheng Lin,  Fenglai Liu,  Kuan-Yu Liu,  
 M. Loipersberger,  A. Luenser,  A. Manjanath,  P. Manohar,  E. Mansoor,  
 S. F. Manzer,  Shan-Ping Mao,  A. V. Marenich,  T. Markovich,  S. Mason,  
 S. A. Maurer,  P. F. McLaughlin,  M. F. S. J. Menger,  J.-M. Mewes,  
 S. A. Mewes,  P. Morgante,  J. W. Mullinax,  T. S. Nguyen-Beck,  
 K. J. Oosterbaan,  G. Paran,  Alexander C. Paul,  Suranjan K. Paul,  
 F. Pavosevic,  Zheng Pei,  S. Prager,  E. I. Proynov,  E. Ramos,  B. Rana,  
 A. E. Rask,  A. Rettig,  R. M. Richard,  F. Rob,  E. Rossomme,  T. Scheele,  
 M. Scheurer,  M. Schneider,  N. Sergueev,  S. M. Sharada,  W. Skomorowski,  
 D. W. Small,  C. J. Stein,  Yu-Chuan Su,  E. J. Sundstrom,  Zhen Tao,  
 J. Thirman,  T. Tsuchimochi,  N. M. Tubman,  S. P. Veccham,  O. Vydrov,  
 J. Wenzel,  J. Witte,  A. Yamada,  Kun Yao,  S. Yeganeh,  S. R. Yost,  
 A. Zech,  Igor Ying Zhang,  Xing Zhang,  Yu Zhang,  D. Zuev,  
 A. Aspuru-Guzik,  A. T. Bell,  N. A. Besley,  K. B. Bravaya,  B. R. Brooks,  
 D. Casanova,  Jeng-Da Chai,  S. Coriani,  C. J. Cramer,  
 A. E. DePrince, III,  R. A. DiStasio Jr.,  A. Dreuw,  B. D. Dunietz,  
 T. R. Furlani,  W. A. Goddard III,  S. Grimme,  S. Hammes-Schiffer,  
 T. Head-Gordon,  W. J. Hehre,  Chao-Ping Hsu,  T.-C. Jagau,  Yousung Jung,  
 A. Klamt,  Jing Kong,  D. S. Lambrecht,  WanZhen Liang,  N. J. Mayhall,  
 C. W. McCurdy,  J. B. Neaton,  C. Ochsenfeld,  J. A. Parkhill,  R. Peverati,  
 V. A. Rassolov,  Yihan Shao,  L. V. Slipchenko,  T. Stauch,  R. P. Steele,  
 J. E. Subotnik,  A. J. W. Thom,  A. Tkatchenko,  D. G. Truhlar,  
 T. Van Voorhis,  T. A. Wesolowski,  K. B. Whaley,  H. L. Woodcock III,  
 P. M. Zimmerman,  S. Faraji,  P. M. W. Gill,  M. Head-Gordon,  
 J. M. Herbert,  A. I. Krylov

 Contributors to earlier versions of Q-Chem not listed above: 
 R. D. Adamson,  B. Austin,  R. Baer,  J. Baker,  G. J. O. Beran,  
 K. Brandhorst,  S. T. Brown,  E. F. C. Byrd,  A. K. Chakraborty,  
 G. K. L. Chan,  Chun-Min Chang,  Yunqing Chen,  C.-L. Cheng,  
 Siu Hung Chien,  D. M. Chipman,  D. L. Crittenden,  H. Dachsel,  
 R. J. Doerksen,  A. D. Dutoi,  R. G. Edgar,  J. Fosso-Tande,  
 L. Fusti-Molnar,  D. Ghosh,  A. Ghysels,  A. Golubeva-Zadorozhnaya,  
 J. Gonthier,  M. S. Gordon,  S. R. Gwaltney,  G. Hawkins,  J. E. Herr,  
 A. Heyden,  S. Hirata,  E. G. Hohenstein,  G. Kedziora,  F. J. Keil,  
 C. Kelley,  Jihan Kim,  R. A. King,  R. Z. Khaliullin,  P. P. Korambath,  
 W. Kurlancheek,  A. Laurent,  A. M. Lee,  M. S. Lee,  S. V. Levchenko,  
 Ching Yeh Lin,  D. Liotard,  E. Livshits,  R. C. Lochan,  I. Lotan,  
 L. A. Martinez-Martinez,  P. E. Maslen,  N. Nair,  D. P. O'Neill,  
 D. Neuhauser,  E. Neuscamman,  C. M. Oana,  R. Olivares-Amaya,  R. Olson,  
 T. M. Perrine,  B. Peters,  P. A. Pieniazek,  A. Prociuk,  Y. M. Rhee,  
 J. Ritchie,  M. A. Rohrdanz,  E. Rosta,  N. J. Russ,  H. F. Schaefer III,  
 M. W. Schmidt,  N. E. Schultz,  S. Sharma,  N. Shenvi,  C. D. Sherrill,  
 A. C. Simmonett,  A. Sodt,  T. Stein,  D. Stuck,  K. S. Thanthiriwatte,  
 V. Vanovschi,  L. Vogt,  Tao Wang,  A. Warshel,  M. A. Watson,  
 C. F. Williams,  Q. Wu,  X. Xu,  Jun Yang,  W. Zhang,  Yan Zhao

 Please cite Q-Chem as follows:
 Y. Shao et al., Mol. Phys. 113, 184-215 (2015)
 DOI: 10.1080/00268976.2014.952696

 Q-Chem 5.4.0 for Intel X86 EM64T Linux

 Parts of Q-Chem use Armadillo 9.800.1 (Horizon Scraper).
 http://arma.sourceforge.net/

 Q-Chem begins on Sun Jul 10 02:10:53 2022  

 Host: 
0

     Scratch files written to ./qchem3519829//
 May1621 |scratch|qcdevops|jenkins|workspace|build_RNUM    
 Processing $rem in /cm/shared/apps/spack/cpu/opt/spack/linux-centos8-zen2/gcc-10.2.0/qchem-5.4-akfmr7b3t57bfs6qan3padb2wnb2i7cl/config/preferences:
 Processing $rem in /home/theleonzhang/.qchemrc:
 Symmetry turned off for PCM/SM12/SMD calculation
 Core orbitals will be frozen

 Checking the input file for inconsistencies... 	...done.

--------------------------------------------------------------
User input:
--------------------------------------------------------------
$molecule
0 1
C	0.000713	-3.866725	-0.775127
C	0.000302	-3.703963	0.612565
C	-0.000067	-2.357056	1.066639
H	0.000470	-4.561092	1.302900
C	0.000000	-1.440664	0.000000
S	-0.000009	-2.286957	-1.544483
C	-0.000295	-1.978743	2.521872
H	-0.000221	-2.878678	3.166949
H	-0.892850	-1.376015	2.790821
H	0.892005	-1.375728	2.791023
C	0.000000	0.000000	0.000000
C	0.000033	0.863600	1.099446
C	0.000052	2.247508	0.776721
H	0.000026	0.494801	2.136088
C	0.000074	2.468165	-0.612546
S	0.000024	0.942399	-1.486809
C	0.000075	3.335257	1.814609
H	0.000074	2.909620	2.836676
H	-0.892314	3.989552	1.726239
H	0.892483	3.989525	1.726228
H	0.000094	3.417382	-1.161575
H	-0.896681	-4.392713	-1.119411
H	0.898372	-4.392347	-1.119277
H	-1.080000	-1.440937	-0.000115
$end

$rem
JOBTYPE		SP
EXCHANGE	HF
CORRELATION	pRIMP2
BASIS		cc-pvtz
METHOD		rimp2
AUX_BASIS	rimp2-cc-pvtz
SOLVENT_METHOD	PCM
PURECART	11111
SYMMETRY	false
MEM_TOTAL	110000
SCF_CONVERGENCE = 6
THRESH=10
$end



$solvent
dielectric 4.90
$end
--------------------------------------------------------------
 ----------------------------------------------------------------
             Standard Nuclear Orientation (Angstroms)
    I     Atom           X                Y                Z
 ----------------------------------------------------------------
    1      C       0.0007130000    -3.8667250000    -0.7751270000
    2      C       0.0003020000    -3.7039630000     0.6125650000
    3      C      -0.0000670000    -2.3570560000     1.0666390000
    4      H       0.0004700000    -4.5610920000     1.3029000000
    5      C       0.0000000000    -1.4406640000     0.0000000000
    6      S      -0.0000090000    -2.2869570000    -1.5444830000
    7      C      -0.0002950000    -1.9787430000     2.5218720000
    8      H      -0.0002210000    -2.8786780000     3.1669490000
    9      H      -0.8928500000    -1.3760150000     2.7908210000
   10      H       0.8920050000    -1.3757280000     2.7910230000
   11      C       0.0000000000     0.0000000000     0.0000000000
   12      C       0.0000330000     0.8636000000     1.0994460000
   13      C       0.0000520000     2.2475080000     0.7767210000
   14      H       0.0000260000     0.4948010000     2.1360880000
   15      C       0.0000740000     2.4681650000    -0.6125460000
   16      S       0.0000240000     0.9423990000    -1.4868090000
   17      C       0.0000750000     3.3352570000     1.8146090000
   18      H       0.0000740000     2.9096200000     2.8366760000
   19      H      -0.8923140000     3.9895520000     1.7262390000
   20      H       0.8924830000     3.9895250000     1.7262280000
   21      H       0.0000940000     3.4173820000    -1.1615750000
   22      H      -0.8966810000    -4.3927130000    -1.1194110000
   23      H       0.8983720000    -4.3923470000    -1.1192770000
   24      H      -1.0800000000    -1.4409370000    -0.0001150000
 ----------------------------------------------------------------
 Nuclear Repulsion Energy =         876.01519156 hartrees
 There are       52 alpha and       52 beta electrons

 Q-Chem warning in module forms1/BasisType.C, line 2236:

 You are not using the predefined 5D/6D in this basis set.

 Requested basis set is cc-pVTZ
 There are 196 shells and 536 basis functions

 Total QAlloc Memory Limit 110000 MB
 Mega-Array Size       188 MB
 MEM_STATIC part       192 MB
 Discretize the solute cavity surface with Lebedev spheres
	Using 110 Lebedev grid points for each H atom
	Using 194 Lebedev grid points for other atoms
	Atomic van der Waals radii will be scaled by 1.20
 Remove points where switching function is < 1.0e-08
 Keep 1571 surface tesserae and discard 2077 interior tesserae
 Molecular Surface Area = 232.443 Angst**2
 Requested basis set is rimp2-cc-pVTZ
 There are 414 shells and 1414 basis functions
 A cutoff of  1.0D-10 yielded  14029 shell pairs
 There are    101571 function pairs (    130133 Cartesian)
 Smallest overlap matrix eigenvalue = 3.92E-05

 Scale SEOQF with 1.000000e+00/1.000000e-01/1.000000e-01

 Standard Electronic Orientation quadrupole field applied
 Nucleus-field energy     =     0.0000000230 hartrees
 Guess from superposition of atomic densities
 Warning:  Energy on first SCF cycle will be non-variational
 SAD guess density has 104.000000 electrons

 -----------------------------------------------------------------------
  General SCF calculation program by
  Eric Jon Sundstrom, Paul Horn, Yuezhi Mao, Dmitri Zuev, Alec White,
  David Stuck, Shaama M.S., Shane Yost, Joonho Lee, David Small,
  Daniel Levine, Susi Lehtola, Hugh Burton, Evgeny Epifanovsky,
  Bang C. Huynh
 -----------------------------------------------------------------------
 Hartree-Fock
 A restricted SCF calculation will be
 performed using DIIS
 SCF converges when DIIS error is below 1.0e-06
 ---------------------------------------
  Cycle       Energy         DIIS error
 ---------------------------------------
    1   -1186.0578204486      2.39e-02  
    2   -1180.6074559384      1.60e-03  
    3   -1180.7345062897      6.74e-04  
    4   -1180.7513493579      3.49e-04  
    5   -1180.7570742089      5.95e-05  
    6   -1180.7573241964      2.50e-05  
    7   -1180.7573833835      8.71e-06  
    8   -1180.7573957634      4.20e-06  
    9   -1180.7573984612      1.40e-06  
   10   -1180.7573988740      5.11e-07  Convergence criterion met
 ---------------------------------------
 SCF time:   CPU 577.82s  wall 580.00s 

************** Final PCM Free Energy Summary **************
 G_electrostatic  =      -0.00960743 hartree =      -6.02875129 kcal/mol
 G_cavitation     =       0.00000000 hartree =       0.00000000 kcal/mol
 G_dispersion     =       0.00000000 hartree =       0.00000000 kcal/mol
 G_repulsion      =       0.00000000 hartree =       0.00000000 kcal/mol
 --------------------------------------------------
 Non-electrostatic Free Energy =       0.00000000 hartree =       0.00000000 kcal/mol
 Total                         =      -0.00960743 hartree =      -6.02875129 kcal/mol
 --------------------------------------------------
 SCF Energy (H0 + V/2)                       =   -1180.75739887 
 Solute Internal Energy (H0)                 =   -1180.74779145 
 Total Free Energy (H0 + V/2 + non-elec)     =   -1180.75739887 hartree
                                             = -740936.45074676 kcal/mol
***********************************************************

 SCF   energy in the final basis set =    -1180.7573988740
 Total energy in the final basis set =    -1180.7573988740


 --------------------------------------------------------------
  Generalized many-body perturbation theory program
  by Joonho Lee, Fazle Rob, Xintian Feng, Evgeny Epifanovsky

 No regularization used 
 (reg. param. = 0.0000e+00)
  (P|Q)^-1/2 Time:  CPU 1.90 s  wall 1.90 s

 In RI-MP2 calculation: 
 # of frozen core orbitals: 20

 Components of the RIMP2 correlation energy:
        aaaa    correlation energy =        -0.2514350103 a.u.
        abab    correlation energy =        -1.5026118959 a.u.
        bbbb    correlation energy =        -0.2514350103 a.u.
        non-Brillouin singles      =        -0.0000000000 a.u.
        total same-spin energy     =        -0.5028700206 a.u.
        total opposite-spin energy =        -1.5026118959 a.u.

 Total  RIMP2   correlation energy =        -2.0054819165 a.u.
        RIMP2         total energy =     -1182.7628807905 a.u.

 RI-MP2 Energy Time:  CPU 79.56 s  wall 79.90 s
 
 --------------------------------------------------------------
 
                    Orbital Energies (a.u.)
 --------------------------------------------------------------
 
 Alpha MOs
 -- Occupied --
-91.9841 -91.9466 -11.2911 -11.2670 -11.2627 -11.2523 -11.2496 -11.2451
-11.2346 -11.2279 -11.2270 -11.2246  -8.9837  -8.9514  -6.6647  -6.6641
 -6.6635  -6.6328  -6.6317  -6.6305  -1.2031  -1.1521  -1.0608  -1.0327
 -1.0012  -0.9615  -0.9169  -0.8993  -0.8188  -0.7639  -0.7277  -0.7057
 -0.6582  -0.6492  -0.6105  -0.5947  -0.5853  -0.5687  -0.5608  -0.5515
 -0.5459  -0.5363  -0.5242  -0.5009  -0.4870  -0.4822  -0.4700  -0.4431
 -0.3617  -0.3440  -0.3241  -0.2640
 -- Virtual --
  0.1074   0.1308   0.1395   0.1482   0.1563   0.1706   0.1749   0.1860
  0.1889   0.2029   0.2081   0.2141   0.2180   0.2326   0.2380   0.2417
  0.2640   0.2720   0.2916   0.3077   0.3141   0.3227   0.3542   0.3635
  0.3738   0.3764   0.3853   0.3937   0.4021   0.4065   0.4167   0.4249
  0.4330   0.4593   0.4646   0.4706   0.4746   0.4791   0.4860   0.4967
  0.5128   0.5220   0.5284   0.5331   0.5363   0.5467   0.5491   0.5636
  0.5773   0.5854   0.5862   0.5955   0.6018   0.6134   0.6187   0.6224
  0.6252   0.6302   0.6311   0.6374   0.6424   0.6507   0.6547   0.6602
  0.6700   0.6738   0.6778   0.6925   0.6984   0.7187   0.7235   0.7319
  0.7499   0.7552   0.7667   0.7710   0.7895   0.8077   0.8168   0.8249
  0.8352   0.8406   0.8545   0.8818   0.8821   0.8953   0.9032   0.9107
  0.9460   0.9500   0.9600   0.9663   0.9840   0.9897   1.0011   1.0106
  1.0234   1.0386   1.0462   1.0518   1.0613   1.0715   1.0727   1.0796
  1.0866   1.0936   1.1098   1.1334   1.1425   1.1465   1.1575   1.1726
  1.1808   1.1862   1.2038   1.2095   1.2155   1.2263   1.2293   1.2407
  1.2498   1.2568   1.2586   1.2740   1.2838   1.2894   1.3093   1.3134
  1.3196   1.3332   1.3554   1.3605   1.3675   1.3798   1.4166   1.4202
  1.4357   1.4395   1.4518   1.4680   1.4709   1.4850   1.4926   1.4960
  1.5159   1.5195   1.5269   1.5343   1.5358   1.5412   1.5496   1.5657
  1.5714   1.6004   1.6056   1.6128   1.6205   1.6315   1.6427   1.6497
  1.6570   1.6614   1.6784   1.6969   1.6995   1.7147   1.7220   1.7369
  1.7461   1.7634   1.7837   1.7919   1.8422   1.8451   1.8655   1.8754
  1.8821   1.9004   1.9029   1.9270   1.9489   1.9726   1.9911   1.9998
  2.0214   2.0459   2.0484   2.0592   2.0977   2.1140   2.1302   2.1807
  2.1832   2.2017   2.2101   2.2198   2.2361   2.2500   2.2657   2.2803
  2.2977   2.3088   2.3445   2.3845   2.4064   2.4432   2.4627   2.4705
  2.4907   2.5129   2.5313   2.5469   2.5600   2.5953   2.6001   2.6143
  2.6291   2.6565   2.6616   2.6688   2.6891   2.7015   2.7286   2.7396
  2.7513   2.7612   2.7666   2.7724   2.7842   2.7964   2.8040   2.8128
  2.8299   2.8582   2.8661   2.8853   2.8956   2.9039   2.9111   2.9152
  2.9374   2.9540   2.9783   3.0030   3.0070   3.0257   3.0391   3.0571
  3.0723   3.0823   3.0976   3.1100   3.1140   3.1199   3.1265   3.1430
  3.1469   3.1519   3.1602   3.1758   3.1832   3.1935   3.2037   3.2146
  3.2176   3.2369   3.2460   3.2658   3.2704   3.2810   3.2953   3.3015
  3.3081   3.3251   3.3316   3.3439   3.3460   3.3579   3.3644   3.3744
  3.3825   3.3829   3.3865   3.3896   3.4140   3.4207   3.4248   3.4333
  3.4366   3.4510   3.4594   3.4647   3.4851   3.4917   3.4966   3.5077
  3.5162   3.5241   3.5312   3.5409   3.5448   3.5565   3.5584   3.5755
  3.5835   3.6022   3.6076   3.6139   3.6330   3.6407   3.6515   3.6551
  3.6670   3.6819   3.6920   3.7043   3.7094   3.7224   3.7335   3.7438
  3.7493   3.7636   3.7693   3.7757   3.7866   3.7916   3.8102   3.8189
  3.8240   3.8317   3.8624   3.8708   3.8770   3.8839   3.8978   3.9065
  3.9272   3.9451   3.9581   3.9715   3.9787   3.9916   4.0101   4.0311
  4.0406   4.0466   4.0546   4.0592   4.0771   4.0807   4.0954   4.0981
  4.1301   4.1418   4.1493   4.1601   4.1653   4.1798   4.1808   4.1904
  4.2076   4.2198   4.2289   4.2426   4.2560   4.2638   4.2784   4.2871
  4.3065   4.3094   4.3279   4.3371   4.3430   4.3589   4.3656   4.3752
  4.3894   4.4016   4.4032   4.4188   4.4203   4.4412   4.4453   4.4506
  4.4657   4.4801   4.4913   4.5009   4.5166   4.5272   4.5687   4.5776
  4.5860   4.6018   4.6121   4.6146   4.6433   4.6520   4.6551   4.6895
  4.6963   4.7226   4.7712   4.7742   4.8014   4.8030   4.8242   4.8506
  4.8665   4.8745   4.8883   4.9200   4.9430   4.9720   4.9854   5.0048
  5.0541   5.0778   5.1089   5.1179   5.1216   5.1276   5.1653   5.1931
  5.2249   5.2419   5.2582   5.2686   5.2942   5.3047   5.3197   5.3377
  5.3581   5.3689   5.3765   5.3991   5.4159   5.4254   5.4380   5.4441
  5.4633   5.5265   5.5336   5.5500   5.5526   5.5647   5.5786   5.5989
  5.6170   5.6256   5.6339   5.6511   5.6874   5.7063   5.7141   5.7468
  5.7726   5.7938   5.8478   5.9710   6.0303   6.0947   6.1368   6.1864
  6.2189   6.2272   6.2437   6.2577   6.2745   6.2879   6.3280   6.4334
  6.4843   6.6113   9.5924  11.1526  12.0388  12.9756  13.1984  13.9857
 14.1358  14.2193  14.4199  15.2610
 --------------------------------------------------------------
 
          Ground-State Mulliken Net Atomic Charges

     Atom                 Charge (a.u.)
  ----------------------------------------
      1 C                    -0.071989
      2 C                    -0.311416
      3 C                    -0.058097
      4 H                     0.179479
      5 C                     0.140773
      6 S                    -0.180001
      7 C                    -0.305385
      8 H                     0.123723
      9 H                     0.105979
     10 H                     0.111064
     11 C                    -0.062602
     12 C                    -0.269286
     13 C                     0.033685
     14 H                     0.189815
     15 C                    -0.286971
     16 S                     0.004718
     17 C                    -0.273266
     18 H                     0.100352
     19 H                     0.108469
     20 H                     0.108459
     21 H                     0.196845
     22 H                     0.111886
     23 H                     0.113939
     24 H                     0.189827
  ----------------------------------------
  Sum of atomic charges =     0.000000

 -----------------------------------------------------------------
                    Cartesian Multipole Moments
 -----------------------------------------------------------------
    Charge (ESU x 10^10)
                -0.0000
    Dipole Moment (Debye)
         X      -0.8898      Y      -0.6338      Z       3.7455
       Tot       3.9016
    Quadrupole Moments (Debye-Ang)
        XX     -91.7823     XY       1.4916     YY     -72.6317
        XZ       0.2457     YZ      -2.3351     ZZ     -85.6937
    Octopole Moments (Debye-Ang^2)
       XXX       0.3803    XXY      43.4140    XYY      -1.9261
       YYY     111.2731    XXZ      -3.1207    XYZ      -0.7033
       YYZ      -4.3774    XZZ       0.2111    YZZ      48.4088
       ZZZ       8.3031
    Hexadecapole Moments (Debye-Ang^3)
      XXXX    -135.5474   XXXY      -0.0921   XXYY    -554.8646
      XYYY       3.2769   YYYY   -2756.1653   XXXZ       0.5956
      XXYZ     -27.5629   XYYZ       2.0724   YYYZ    -104.2247
      XXZZ    -219.8470   XYZZ       0.4170   YYZZ    -657.4091
      XZZZ       1.9690   YZZZ    -133.5994   ZZZZ   -1097.4625
 -----------------------------------------------------------------
 Total job time:  663.09s(wall), 658.30s(cpu) 
 Sun Jul 10 02:21:57 2022

        *************************************************************
        *                                                           *
        *  Thank you very much for using Q-Chem.  Have a nice day.  *
        *                                                           *
        *************************************************************


remove work dirs ./qchem3519829.0 -- ./qchem3519829.-1
rm -rf ./qchem3519829
You are running Q-Chem version: 5.4.0

#
# job setting
#
local host:  exp-2-18
current dir: /expanse/lustre/scratch/theleonzhang/temp_project/Hydrogenated_Rotation_Test
input file:  Methylthiophene_Phi_0_Theta_180_Methylthiophene_Hydrogenated.qcin
output file: 
nprocs     : 0
nthreads   : 1
#
# qchem installation setting
#
QC:          /cm/shared/apps/spack/cpu/opt/spack/linux-centos8-zen2/gcc-10.2.0/qchem-5.4-akfmr7b3t57bfs6qan3padb2wnb2i7cl
QCAUX:       /cm/shared/apps/spack/cpu/opt/spack/linux-centos8-zen2/gcc-10.2.0/qchem-5.4-akfmr7b3t57bfs6qan3padb2wnb2i7cl/qcaux
QCPROG:      /cm/shared/apps/spack/cpu/opt/spack/linux-centos8-zen2/gcc-10.2.0/qchem-5.4-akfmr7b3t57bfs6qan3padb2wnb2i7cl/exe/qcprog.exe_s
QCPROG_S:    /cm/shared/apps/spack/cpu/opt/spack/linux-centos8-zen2/gcc-10.2.0/qchem-5.4-akfmr7b3t57bfs6qan3padb2wnb2i7cl/exe/qcprog.exe_s
PARALLEL:    -DSERIAL
QCMPI:       mpich
#
# qchem directory setting
#
qcrun:       qchem1895605
QCSCRATCH:   .
QCLOCALSCR:  
QCTMPDIR:    .
QCFILEPREF:  ./qchem1895605
QCSAVEDIR:   
workdirs:    ./qchem1895605
workdir0:    ./qchem1895605
partmpdirs =  
#
# parallel setting
#
QCRSH:           ssh
QCMPI:           mpich
QCMPIRUN:        /cm/shared/apps/spack/cpu/opt/spack/linux-centos8-zen2/gcc-10.2.0/qchem-5.4-akfmr7b3t57bfs6qan3padb2wnb2i7cl/bin/mpi/mpirun_qchem
QCMACHINEFILE:   ./qchem1895605/hostfile

#
# env setting
#
exported envs:   QC QCAUX QCSCRATCH QCRUNNAME QCFILEPREF QCPROG QCPROG_S GUIFILE

Running Job 1 of 1 Methylthiophene_Phi_0_Theta_180_Methylthiophene_Hydrogenated.qcin
qchem Methylthiophene_Phi_0_Theta_180_Methylthiophene_Hydrogenated.qcin_1895605.0 ./qchem1895605/ 0
/cm/shared/apps/spack/cpu/opt/spack/linux-centos8-zen2/gcc-10.2.0/qchem-5.4-akfmr7b3t57bfs6qan3padb2wnb2i7cl/exe/qcprog.exe_s Methylthiophene_Phi_0_Theta_180_Methylthiophene_Hydrogenated.qcin_1895605.0 ./qchem1895605/
                  Welcome to Q-Chem
     A Quantum Leap Into The Future Of Chemistry


 Q-Chem 5.4, Q-Chem, Inc., Pleasanton, CA (2021)

 License issued to: University of California, San Diego (site)

 E. Epifanovsky,  A. T. B. Gilbert,  Xintian Feng,  Joonho Lee,  Yuezhi Mao,  
 N. Mardirossian,  P. Pokhilko,  A. White,  M. Wormit,  M. P. Coons,  
 A. L. Dempwolff,  Zhengting Gan,  D. Hait,  P. R. Horn,  L. D. Jacobson,  
 I. Kaliman,  J. Kussmann,  A. W. Lange,  Ka Un Lao,  D. S. Levine,  Jie Liu,  
 S. C. McKenzie,  A. F. Morrison,  K. Nanda,  F. Plasser,  D. R. Rehn,  
 M. L. Vidal,  Zhi-Qiang You,  Ying Zhu,  B. Alam,  B. Albrecht,  
 A. Aldossary,  E. Alguire,  J. H. Andersen,  D. Barton,  K. Begam,  A. Behn,  
 Y. A. Bernard,  E. J. Berquist,  H. Burton,  A. Carreras,  K. Carter-Fenk,  
 R. Chakraborty,  A. D. Chien,  K. D. Closser,  V. Cofer-Shabica,  
 S. Dasgupta,  Jia Deng,  M. de Wergifosse,  M. Diedenhofen,  Hainam Do,  
 S. Ehlert,  Po-Tung Fang,  S. Fatehi,  Qingguo Feng,  J. Gayvert,  
 Qinghui Ge,  G. Gidofalvi,  M. Goldey,  J. Gomes,  C. Gonzalez-Espinoza,  
 S. Gulania,  A. Gunina,  M. W. D. Hanson-Heine,  P. H. P. Harbach,  
 A. W. Hauser,  M. F. Herbst,  M. Hernandez Vera,  M. Hodecker,  
 Z. C. Holden,  S. Houck,  Xunkun Huang,  Kerwin Hui,  B. C. Huynh,  
 M. Ivanov,  Hyunjun Ji,  Hanjie Jiang,  B. Kaduk,  S. Kaehler,  
 K. Khistyaev,  Jaehoon Kim,  P. Klunzinger,  Z. Koczor-Benda,  
 Joong Hoon Koh,  D. Kosenkov,  L. Koulias,  T. Kowalczyk,  C. M. Krauter,  
 K. Kue,  A. Kunitsa,  T. Kus,  A. Landau,  K. V. Lawler,  D. Lefrancois,  
 S. Lehtola,  Rain Li,  Yi-Pei Li,  Jiashu Liang,  M. Liebenthal,  
 Hung-Hsuan Lin,  You-Sheng Lin,  Fenglai Liu,  Kuan-Yu Liu,  
 M. Loipersberger,  A. Luenser,  A. Manjanath,  P. Manohar,  E. Mansoor,  
 S. F. Manzer,  Shan-Ping Mao,  A. V. Marenich,  T. Markovich,  S. Mason,  
 S. A. Maurer,  P. F. McLaughlin,  M. F. S. J. Menger,  J.-M. Mewes,  
 S. A. Mewes,  P. Morgante,  J. W. Mullinax,  T. S. Nguyen-Beck,  
 K. J. Oosterbaan,  G. Paran,  Alexander C. Paul,  Suranjan K. Paul,  
 F. Pavosevic,  Zheng Pei,  S. Prager,  E. I. Proynov,  E. Ramos,  B. Rana,  
 A. E. Rask,  A. Rettig,  R. M. Richard,  F. Rob,  E. Rossomme,  T. Scheele,  
 M. Scheurer,  M. Schneider,  N. Sergueev,  S. M. Sharada,  W. Skomorowski,  
 D. W. Small,  C. J. Stein,  Yu-Chuan Su,  E. J. Sundstrom,  Zhen Tao,  
 J. Thirman,  T. Tsuchimochi,  N. M. Tubman,  S. P. Veccham,  O. Vydrov,  
 J. Wenzel,  J. Witte,  A. Yamada,  Kun Yao,  S. Yeganeh,  S. R. Yost,  
 A. Zech,  Igor Ying Zhang,  Xing Zhang,  Yu Zhang,  D. Zuev,  
 A. Aspuru-Guzik,  A. T. Bell,  N. A. Besley,  K. B. Bravaya,  B. R. Brooks,  
 D. Casanova,  Jeng-Da Chai,  S. Coriani,  C. J. Cramer,  
 A. E. DePrince, III,  R. A. DiStasio Jr.,  A. Dreuw,  B. D. Dunietz,  
 T. R. Furlani,  W. A. Goddard III,  S. Grimme,  S. Hammes-Schiffer,  
 T. Head-Gordon,  W. J. Hehre,  Chao-Ping Hsu,  T.-C. Jagau,  Yousung Jung,  
 A. Klamt,  Jing Kong,  D. S. Lambrecht,  WanZhen Liang,  N. J. Mayhall,  
 C. W. McCurdy,  J. B. Neaton,  C. Ochsenfeld,  J. A. Parkhill,  R. Peverati,  
 V. A. Rassolov,  Yihan Shao,  L. V. Slipchenko,  T. Stauch,  R. P. Steele,  
 J. E. Subotnik,  A. J. W. Thom,  A. Tkatchenko,  D. G. Truhlar,  
 T. Van Voorhis,  T. A. Wesolowski,  K. B. Whaley,  H. L. Woodcock III,  
 P. M. Zimmerman,  S. Faraji,  P. M. W. Gill,  M. Head-Gordon,  
 J. M. Herbert,  A. I. Krylov

 Contributors to earlier versions of Q-Chem not listed above: 
 R. D. Adamson,  B. Austin,  R. Baer,  J. Baker,  G. J. O. Beran,  
 K. Brandhorst,  S. T. Brown,  E. F. C. Byrd,  A. K. Chakraborty,  
 G. K. L. Chan,  Chun-Min Chang,  Yunqing Chen,  C.-L. Cheng,  
 Siu Hung Chien,  D. M. Chipman,  D. L. Crittenden,  H. Dachsel,  
 R. J. Doerksen,  A. D. Dutoi,  R. G. Edgar,  J. Fosso-Tande,  
 L. Fusti-Molnar,  D. Ghosh,  A. Ghysels,  A. Golubeva-Zadorozhnaya,  
 J. Gonthier,  M. S. Gordon,  S. R. Gwaltney,  G. Hawkins,  J. E. Herr,  
 A. Heyden,  S. Hirata,  E. G. Hohenstein,  G. Kedziora,  F. J. Keil,  
 C. Kelley,  Jihan Kim,  R. A. King,  R. Z. Khaliullin,  P. P. Korambath,  
 W. Kurlancheek,  A. Laurent,  A. M. Lee,  M. S. Lee,  S. V. Levchenko,  
 Ching Yeh Lin,  D. Liotard,  E. Livshits,  R. C. Lochan,  I. Lotan,  
 L. A. Martinez-Martinez,  P. E. Maslen,  N. Nair,  D. P. O'Neill,  
 D. Neuhauser,  E. Neuscamman,  C. M. Oana,  R. Olivares-Amaya,  R. Olson,  
 T. M. Perrine,  B. Peters,  P. A. Pieniazek,  A. Prociuk,  Y. M. Rhee,  
 J. Ritchie,  M. A. Rohrdanz,  E. Rosta,  N. J. Russ,  H. F. Schaefer III,  
 M. W. Schmidt,  N. E. Schultz,  S. Sharma,  N. Shenvi,  C. D. Sherrill,  
 A. C. Simmonett,  A. Sodt,  T. Stein,  D. Stuck,  K. S. Thanthiriwatte,  
 V. Vanovschi,  L. Vogt,  Tao Wang,  A. Warshel,  M. A. Watson,  
 C. F. Williams,  Q. Wu,  X. Xu,  Jun Yang,  W. Zhang,  Yan Zhao

 Please cite Q-Chem as follows:
 Y. Shao et al., Mol. Phys. 113, 184-215 (2015)
 DOI: 10.1080/00268976.2014.952696

 Q-Chem 5.4.0 for Intel X86 EM64T Linux

 Parts of Q-Chem use Armadillo 9.800.1 (Horizon Scraper).
 http://arma.sourceforge.net/

 Q-Chem begins on Sun Jul 10 02:43:12 2022  

 Host: 
0

     Scratch files written to ./qchem1895605//
 May1621 |scratch|qcdevops|jenkins|workspace|build_RNUM    
 Processing $rem in /cm/shared/apps/spack/cpu/opt/spack/linux-centos8-zen2/gcc-10.2.0/qchem-5.4-akfmr7b3t57bfs6qan3padb2wnb2i7cl/config/preferences:
 Processing $rem in /home/theleonzhang/.qchemrc:
 Symmetry turned off for PCM/SM12/SMD calculation
 Core orbitals will be frozen

 Checking the input file for inconsistencies... 	...done.

--------------------------------------------------------------
User input:
--------------------------------------------------------------
$molecule
0 1
C	0.000713	-3.866725	-0.775127
C	0.000302	-3.703963	0.612565
C	-0.000067	-2.357056	1.066639
H	0.000470	-4.561092	1.302900
C	0.000000	-1.440664	0.000000
S	-0.000009	-2.286957	-1.544483
C	-0.000295	-1.978743	2.521872
H	-0.000221	-2.878678	3.166949
H	-0.892850	-1.376015	2.790821
H	0.892005	-1.375728	2.791023
C	0.000000	0.000000	0.000000
C	0.000033	0.863600	1.099446
C	0.000052	2.247508	0.776721
H	0.000026	0.494801	2.136088
C	0.000074	2.468165	-0.612546
S	0.000024	0.942399	-1.486809
C	0.000075	3.335257	1.814609
H	0.000074	2.909620	2.836676
H	-0.892314	3.989552	1.726239
H	0.892483	3.989525	1.726228
H	0.000094	3.417382	-1.161575
H	-0.896681	-4.392713	-1.119411
H	0.898372	-4.392347	-1.119277
H	-1.080000	-1.440937	-0.000115
$end

$rem
JOBTYPE		SP
EXCHANGE	HF
CORRELATION	pRIMP2
BASIS		cc-pvtz
METHOD		rimp2
AUX_BASIS	rimp2-cc-pvtz
SOLVENT_METHOD	PCM
PURECART	11111
SYMMETRY	false
MEM_TOTAL	110000
SCF_CONVERGENCE = 6
THRESH=10
$end



$solvent
dielectric 4.90
$end
--------------------------------------------------------------
 ----------------------------------------------------------------
             Standard Nuclear Orientation (Angstroms)
    I     Atom           X                Y                Z
 ----------------------------------------------------------------
    1      C       0.0007130000    -3.8667250000    -0.7751270000
    2      C       0.0003020000    -3.7039630000     0.6125650000
    3      C      -0.0000670000    -2.3570560000     1.0666390000
    4      H       0.0004700000    -4.5610920000     1.3029000000
    5      C       0.0000000000    -1.4406640000     0.0000000000
    6      S      -0.0000090000    -2.2869570000    -1.5444830000
    7      C      -0.0002950000    -1.9787430000     2.5218720000
    8      H      -0.0002210000    -2.8786780000     3.1669490000
    9      H      -0.8928500000    -1.3760150000     2.7908210000
   10      H       0.8920050000    -1.3757280000     2.7910230000
   11      C       0.0000000000     0.0000000000     0.0000000000
   12      C       0.0000330000     0.8636000000     1.0994460000
   13      C       0.0000520000     2.2475080000     0.7767210000
   14      H       0.0000260000     0.4948010000     2.1360880000
   15      C       0.0000740000     2.4681650000    -0.6125460000
   16      S       0.0000240000     0.9423990000    -1.4868090000
   17      C       0.0000750000     3.3352570000     1.8146090000
   18      H       0.0000740000     2.9096200000     2.8366760000
   19      H      -0.8923140000     3.9895520000     1.7262390000
   20      H       0.8924830000     3.9895250000     1.7262280000
   21      H       0.0000940000     3.4173820000    -1.1615750000
   22      H      -0.8966810000    -4.3927130000    -1.1194110000
   23      H       0.8983720000    -4.3923470000    -1.1192770000
   24      H      -1.0800000000    -1.4409370000    -0.0001150000
 ----------------------------------------------------------------
 Nuclear Repulsion Energy =         876.01519156 hartrees
 There are       52 alpha and       52 beta electrons

 Q-Chem warning in module forms1/BasisType.C, line 2236:

 You are not using the predefined 5D/6D in this basis set.

 Requested basis set is cc-pVTZ
 There are 196 shells and 536 basis functions

 Total QAlloc Memory Limit 110000 MB
 Mega-Array Size       188 MB
 MEM_STATIC part       192 MB
 Discretize the solute cavity surface with Lebedev spheres
	Using 110 Lebedev grid points for each H atom
	Using 194 Lebedev grid points for other atoms
	Atomic van der Waals radii will be scaled by 1.20
 Remove points where switching function is < 1.0e-08
 Keep 1571 surface tesserae and discard 2077 interior tesserae
 Molecular Surface Area = 232.443 Angst**2
 Requested basis set is rimp2-cc-pVTZ
 There are 414 shells and 1414 basis functions
 A cutoff of  1.0D-10 yielded  14029 shell pairs
 There are    101571 function pairs (    130133 Cartesian)
 Smallest overlap matrix eigenvalue = 3.92E-05

 Scale SEOQF with 1.000000e+00/1.000000e-01/1.000000e-01

 Standard Electronic Orientation quadrupole field applied
 Nucleus-field energy     =     0.0000000230 hartrees
 Guess from superposition of atomic densities
 Warning:  Energy on first SCF cycle will be non-variational
 SAD guess density has 104.000000 electrons

 -----------------------------------------------------------------------
  General SCF calculation program by
  Eric Jon Sundstrom, Paul Horn, Yuezhi Mao, Dmitri Zuev, Alec White,
  David Stuck, Shaama M.S., Shane Yost, Joonho Lee, David Small,
  Daniel Levine, Susi Lehtola, Hugh Burton, Evgeny Epifanovsky,
  Bang C. Huynh
 -----------------------------------------------------------------------
 Hartree-Fock
 A restricted SCF calculation will be
 performed using DIIS
 SCF converges when DIIS error is below 1.0e-06
 ---------------------------------------
  Cycle       Energy         DIIS error
 ---------------------------------------
    1   -1186.0578204486      2.39e-02  
    2   -1180.6074559384      1.60e-03  
    3   -1180.7345062897      6.74e-04  
    4   -1180.7513493579      3.49e-04  
    5   -1180.7570742089      5.95e-05  
    6   -1180.7573241964      2.50e-05  
    7   -1180.7573833835      8.71e-06  
    8   -1180.7573957634      4.20e-06  
    9   -1180.7573984612      1.40e-06  
   10   -1180.7573988740      5.11e-07  Convergence criterion met
 ---------------------------------------
 SCF time:   CPU 583.36s  wall 586.00s 

************** Final PCM Free Energy Summary **************
 G_electrostatic  =      -0.00960743 hartree =      -6.02875129 kcal/mol
 G_cavitation     =       0.00000000 hartree =       0.00000000 kcal/mol
 G_dispersion     =       0.00000000 hartree =       0.00000000 kcal/mol
 G_repulsion      =       0.00000000 hartree =       0.00000000 kcal/mol
 --------------------------------------------------
 Non-electrostatic Free Energy =       0.00000000 hartree =       0.00000000 kcal/mol
 Total                         =      -0.00960743 hartree =      -6.02875129 kcal/mol
 --------------------------------------------------
 SCF Energy (H0 + V/2)                       =   -1180.75739887 
 Solute Internal Energy (H0)                 =   -1180.74779145 
 Total Free Energy (H0 + V/2 + non-elec)     =   -1180.75739887 hartree
                                             = -740936.45074676 kcal/mol
***********************************************************

 SCF   energy in the final basis set =    -1180.7573988740
 Total energy in the final basis set =    -1180.7573988740


 --------------------------------------------------------------
  Generalized many-body perturbation theory program
  by Joonho Lee, Fazle Rob, Xintian Feng, Evgeny Epifanovsky

 No regularization used 
 (reg. param. = 0.0000e+00)
  (P|Q)^-1/2 Time:  CPU 1.89 s  wall 1.90 s

 In RI-MP2 calculation: 
 # of frozen core orbitals: 20

 Components of the RIMP2 correlation energy:
        aaaa    correlation energy =        -0.2514350103 a.u.
        abab    correlation energy =        -1.5026118959 a.u.
        bbbb    correlation energy =        -0.2514350103 a.u.
        non-Brillouin singles      =        -0.0000000000 a.u.
        total same-spin energy     =        -0.5028700206 a.u.
        total opposite-spin energy =        -1.5026118959 a.u.

 Total  RIMP2   correlation energy =        -2.0054819165 a.u.
        RIMP2         total energy =     -1182.7628807905 a.u.

 RI-MP2 Energy Time:  CPU 79.55 s  wall 79.79 s
 
 --------------------------------------------------------------
 
                    Orbital Energies (a.u.)
 --------------------------------------------------------------
 
 Alpha MOs
 -- Occupied --
-91.9841 -91.9466 -11.2911 -11.2670 -11.2627 -11.2523 -11.2496 -11.2451
-11.2346 -11.2279 -11.2270 -11.2246  -8.9837  -8.9514  -6.6647  -6.6641
 -6.6635  -6.6328  -6.6317  -6.6305  -1.2031  -1.1521  -1.0608  -1.0327
 -1.0012  -0.9615  -0.9169  -0.8993  -0.8188  -0.7639  -0.7277  -0.7057
 -0.6582  -0.6492  -0.6105  -0.5947  -0.5853  -0.5687  -0.5608  -0.5515
 -0.5459  -0.5363  -0.5242  -0.5009  -0.4870  -0.4822  -0.4700  -0.4431
 -0.3617  -0.3440  -0.3241  -0.2640
 -- Virtual --
  0.1074   0.1308   0.1395   0.1482   0.1563   0.1706   0.1749   0.1860
  0.1889   0.2029   0.2081   0.2141   0.2180   0.2326   0.2380   0.2417
  0.2640   0.2720   0.2916   0.3077   0.3141   0.3227   0.3542   0.3635
  0.3738   0.3764   0.3853   0.3937   0.4021   0.4065   0.4167   0.4249
  0.4330   0.4593   0.4646   0.4706   0.4746   0.4791   0.4860   0.4967
  0.5128   0.5220   0.5284   0.5331   0.5363   0.5467   0.5491   0.5636
  0.5773   0.5854   0.5862   0.5955   0.6018   0.6134   0.6187   0.6224
  0.6252   0.6302   0.6311   0.6374   0.6424   0.6507   0.6547   0.6602
  0.6700   0.6738   0.6778   0.6925   0.6984   0.7187   0.7235   0.7319
  0.7499   0.7552   0.7667   0.7710   0.7895   0.8077   0.8168   0.8249
  0.8352   0.8406   0.8545   0.8818   0.8821   0.8953   0.9032   0.9107
  0.9460   0.9500   0.9600   0.9663   0.9840   0.9897   1.0011   1.0106
  1.0234   1.0386   1.0462   1.0518   1.0613   1.0715   1.0727   1.0796
  1.0866   1.0936   1.1098   1.1334   1.1425   1.1465   1.1575   1.1726
  1.1808   1.1862   1.2038   1.2095   1.2155   1.2263   1.2293   1.2407
  1.2498   1.2568   1.2586   1.2740   1.2838   1.2894   1.3093   1.3134
  1.3196   1.3332   1.3554   1.3605   1.3675   1.3798   1.4166   1.4202
  1.4357   1.4395   1.4518   1.4680   1.4709   1.4850   1.4926   1.4960
  1.5159   1.5195   1.5269   1.5343   1.5358   1.5412   1.5496   1.5657
  1.5714   1.6004   1.6056   1.6128   1.6205   1.6315   1.6427   1.6497
  1.6570   1.6614   1.6784   1.6969   1.6995   1.7147   1.7220   1.7369
  1.7461   1.7634   1.7837   1.7919   1.8422   1.8451   1.8655   1.8754
  1.8821   1.9004   1.9029   1.9270   1.9489   1.9726   1.9911   1.9998
  2.0214   2.0459   2.0484   2.0592   2.0977   2.1140   2.1302   2.1807
  2.1832   2.2017   2.2101   2.2198   2.2361   2.2500   2.2657   2.2803
  2.2977   2.3088   2.3445   2.3845   2.4064   2.4432   2.4627   2.4705
  2.4907   2.5129   2.5313   2.5469   2.5600   2.5953   2.6001   2.6143
  2.6291   2.6565   2.6616   2.6688   2.6891   2.7015   2.7286   2.7396
  2.7513   2.7612   2.7666   2.7724   2.7842   2.7964   2.8040   2.8128
  2.8299   2.8582   2.8661   2.8853   2.8956   2.9039   2.9111   2.9152
  2.9374   2.9540   2.9783   3.0030   3.0070   3.0257   3.0391   3.0571
  3.0723   3.0823   3.0976   3.1100   3.1140   3.1199   3.1265   3.1430
  3.1469   3.1519   3.1602   3.1758   3.1832   3.1935   3.2037   3.2146
  3.2176   3.2369   3.2460   3.2658   3.2704   3.2810   3.2953   3.3015
  3.3081   3.3251   3.3316   3.3439   3.3460   3.3579   3.3644   3.3744
  3.3825   3.3829   3.3865   3.3896   3.4140   3.4207   3.4248   3.4333
  3.4366   3.4510   3.4594   3.4647   3.4851   3.4917   3.4966   3.5077
  3.5162   3.5241   3.5312   3.5409   3.5448   3.5565   3.5584   3.5755
  3.5835   3.6022   3.6076   3.6139   3.6330   3.6407   3.6515   3.6551
  3.6670   3.6819   3.6920   3.7043   3.7094   3.7224   3.7335   3.7438
  3.7493   3.7636   3.7693   3.7757   3.7866   3.7916   3.8102   3.8189
  3.8240   3.8317   3.8624   3.8708   3.8770   3.8839   3.8978   3.9065
  3.9272   3.9451   3.9581   3.9715   3.9787   3.9916   4.0101   4.0311
  4.0406   4.0466   4.0546   4.0592   4.0771   4.0807   4.0954   4.0981
  4.1301   4.1418   4.1493   4.1601   4.1653   4.1798   4.1808   4.1904
  4.2076   4.2198   4.2289   4.2426   4.2560   4.2638   4.2784   4.2871
  4.3065   4.3094   4.3279   4.3371   4.3430   4.3589   4.3656   4.3752
  4.3894   4.4016   4.4032   4.4188   4.4203   4.4412   4.4453   4.4506
  4.4657   4.4801   4.4913   4.5009   4.5166   4.5272   4.5687   4.5776
  4.5860   4.6018   4.6121   4.6146   4.6433   4.6520   4.6551   4.6895
  4.6963   4.7226   4.7712   4.7742   4.8014   4.8030   4.8242   4.8506
  4.8665   4.8745   4.8883   4.9200   4.9430   4.9720   4.9854   5.0048
  5.0541   5.0778   5.1089   5.1179   5.1216   5.1276   5.1653   5.1931
  5.2249   5.2419   5.2582   5.2686   5.2942   5.3047   5.3197   5.3377
  5.3581   5.3689   5.3765   5.3991   5.4159   5.4254   5.4380   5.4441
  5.4633   5.5265   5.5336   5.5500   5.5526   5.5647   5.5786   5.5989
  5.6170   5.6256   5.6339   5.6511   5.6874   5.7063   5.7141   5.7468
  5.7726   5.7938   5.8478   5.9710   6.0303   6.0947   6.1368   6.1864
  6.2189   6.2272   6.2437   6.2577   6.2745   6.2879   6.3280   6.4334
  6.4843   6.6113   9.5924  11.1526  12.0388  12.9756  13.1984  13.9857
 14.1358  14.2193  14.4199  15.2610
 --------------------------------------------------------------
 
          Ground-State Mulliken Net Atomic Charges

     Atom                 Charge (a.u.)
  ----------------------------------------
      1 C                    -0.071989
      2 C                    -0.311416
      3 C                    -0.058097
      4 H                     0.179479
      5 C                     0.140773
      6 S                    -0.180001
      7 C                    -0.305385
      8 H                     0.123723
      9 H                     0.105979
     10 H                     0.111064
     11 C                    -0.062602
     12 C                    -0.269286
     13 C                     0.033685
     14 H                     0.189815
     15 C                    -0.286971
     16 S                     0.004718
     17 C                    -0.273266
     18 H                     0.100352
     19 H                     0.108469
     20 H                     0.108459
     21 H                     0.196845
     22 H                     0.111886
     23 H                     0.113939
     24 H                     0.189827
  ----------------------------------------
  Sum of atomic charges =     0.000000

 -----------------------------------------------------------------
                    Cartesian Multipole Moments
 -----------------------------------------------------------------
    Charge (ESU x 10^10)
                -0.0000
    Dipole Moment (Debye)
         X      -0.8898      Y      -0.6338      Z       3.7455
       Tot       3.9016
    Quadrupole Moments (Debye-Ang)
        XX     -91.7823     XY       1.4916     YY     -72.6317
        XZ       0.2457     YZ      -2.3351     ZZ     -85.6937
    Octopole Moments (Debye-Ang^2)
       XXX       0.3803    XXY      43.4140    XYY      -1.9261
       YYY     111.2731    XXZ      -3.1207    XYZ      -0.7033
       YYZ      -4.3774    XZZ       0.2111    YZZ      48.4088
       ZZZ       8.3031
    Hexadecapole Moments (Debye-Ang^3)
      XXXX    -135.5474   XXXY      -0.0921   XXYY    -554.8646
      XYYY       3.2769   YYYY   -2756.1653   XXXZ       0.5956
      XXYZ     -27.5629   XYYZ       2.0724   YYYZ    -104.2247
      XXZZ    -219.8470   XYZZ       0.4170   YYZZ    -657.4091
      XZZZ       1.9690   YZZZ    -133.5994   ZZZZ   -1097.4625
 -----------------------------------------------------------------
 Total job time:  667.90s(wall), 663.86s(cpu) 
 Sun Jul 10 02:54:20 2022

        *************************************************************
        *                                                           *
        *  Thank you very much for using Q-Chem.  Have a nice day.  *
        *                                                           *
        *************************************************************


remove work dirs ./qchem1895605.0 -- ./qchem1895605.-1
rm -rf ./qchem1895605
