You are running Q-Chem version: 5.4.0

#
# job setting
#
local host:  exp-1-44
current dir: /expanse/lustre/scratch/theleonzhang/temp_project/Hydrogenated_Rotation_Test
input file:  Methylthiophene_Phi_10_Theta_210_Methylthiophene_Hydrogenated.qcin
output file: 
nprocs     : 0
nthreads   : 1
#
# qchem installation setting
#
QC:          /cm/shared/apps/spack/cpu/opt/spack/linux-centos8-zen2/gcc-10.2.0/qchem-5.4-akfmr7b3t57bfs6qan3padb2wnb2i7cl
QCAUX:       /cm/shared/apps/spack/cpu/opt/spack/linux-centos8-zen2/gcc-10.2.0/qchem-5.4-akfmr7b3t57bfs6qan3padb2wnb2i7cl/qcaux
QCPROG:      /cm/shared/apps/spack/cpu/opt/spack/linux-centos8-zen2/gcc-10.2.0/qchem-5.4-akfmr7b3t57bfs6qan3padb2wnb2i7cl/exe/qcprog.exe_s
QCPROG_S:    /cm/shared/apps/spack/cpu/opt/spack/linux-centos8-zen2/gcc-10.2.0/qchem-5.4-akfmr7b3t57bfs6qan3padb2wnb2i7cl/exe/qcprog.exe_s
PARALLEL:    -DSERIAL
QCMPI:       mpich
#
# qchem directory setting
#
qcrun:       qchem1700614
QCSCRATCH:   .
QCLOCALSCR:  
QCTMPDIR:    .
QCFILEPREF:  ./qchem1700614
QCSAVEDIR:   
workdirs:    ./qchem1700614
workdir0:    ./qchem1700614
partmpdirs =  
#
# parallel setting
#
QCRSH:           ssh
QCMPI:           mpich
QCMPIRUN:        /cm/shared/apps/spack/cpu/opt/spack/linux-centos8-zen2/gcc-10.2.0/qchem-5.4-akfmr7b3t57bfs6qan3padb2wnb2i7cl/bin/mpi/mpirun_qchem
QCMACHINEFILE:   ./qchem1700614/hostfile

#
# env setting
#
exported envs:   QC QCAUX QCSCRATCH QCRUNNAME QCFILEPREF QCPROG QCPROG_S GUIFILE

Running Job 1 of 1 Methylthiophene_Phi_10_Theta_210_Methylthiophene_Hydrogenated.qcin
qchem Methylthiophene_Phi_10_Theta_210_Methylthiophene_Hydrogenated.qcin_1700614.0 ./qchem1700614/ 0
/cm/shared/apps/spack/cpu/opt/spack/linux-centos8-zen2/gcc-10.2.0/qchem-5.4-akfmr7b3t57bfs6qan3padb2wnb2i7cl/exe/qcprog.exe_s Methylthiophene_Phi_10_Theta_210_Methylthiophene_Hydrogenated.qcin_1700614.0 ./qchem1700614/
                  Welcome to Q-Chem
     A Quantum Leap Into The Future Of Chemistry


 Q-Chem 5.4, Q-Chem, Inc., Pleasanton, CA (2021)

 License issued to: University of California, San Diego (site)

 E. Epifanovsky,  A. T. B. Gilbert,  Xintian Feng,  Joonho Lee,  Yuezhi Mao,  
 N. Mardirossian,  P. Pokhilko,  A. White,  M. Wormit,  M. P. Coons,  
 A. L. Dempwolff,  Zhengting Gan,  D. Hait,  P. R. Horn,  L. D. Jacobson,  
 I. Kaliman,  J. Kussmann,  A. W. Lange,  Ka Un Lao,  D. S. Levine,  Jie Liu,  
 S. C. McKenzie,  A. F. Morrison,  K. Nanda,  F. Plasser,  D. R. Rehn,  
 M. L. Vidal,  Zhi-Qiang You,  Ying Zhu,  B. Alam,  B. Albrecht,  
 A. Aldossary,  E. Alguire,  J. H. Andersen,  D. Barton,  K. Begam,  A. Behn,  
 Y. A. Bernard,  E. J. Berquist,  H. Burton,  A. Carreras,  K. Carter-Fenk,  
 R. Chakraborty,  A. D. Chien,  K. D. Closser,  V. Cofer-Shabica,  
 S. Dasgupta,  Jia Deng,  M. de Wergifosse,  M. Diedenhofen,  Hainam Do,  
 S. Ehlert,  Po-Tung Fang,  S. Fatehi,  Qingguo Feng,  J. Gayvert,  
 Qinghui Ge,  G. Gidofalvi,  M. Goldey,  J. Gomes,  C. Gonzalez-Espinoza,  
 S. Gulania,  A. Gunina,  M. W. D. Hanson-Heine,  P. H. P. Harbach,  
 A. W. Hauser,  M. F. Herbst,  M. Hernandez Vera,  M. Hodecker,  
 Z. C. Holden,  S. Houck,  Xunkun Huang,  Kerwin Hui,  B. C. Huynh,  
 M. Ivanov,  Hyunjun Ji,  Hanjie Jiang,  B. Kaduk,  S. Kaehler,  
 K. Khistyaev,  Jaehoon Kim,  P. Klunzinger,  Z. Koczor-Benda,  
 Joong Hoon Koh,  D. Kosenkov,  L. Koulias,  T. Kowalczyk,  C. M. Krauter,  
 K. Kue,  A. Kunitsa,  T. Kus,  A. Landau,  K. V. Lawler,  D. Lefrancois,  
 S. Lehtola,  Rain Li,  Yi-Pei Li,  Jiashu Liang,  M. Liebenthal,  
 Hung-Hsuan Lin,  You-Sheng Lin,  Fenglai Liu,  Kuan-Yu Liu,  
 M. Loipersberger,  A. Luenser,  A. Manjanath,  P. Manohar,  E. Mansoor,  
 S. F. Manzer,  Shan-Ping Mao,  A. V. Marenich,  T. Markovich,  S. Mason,  
 S. A. Maurer,  P. F. McLaughlin,  M. F. S. J. Menger,  J.-M. Mewes,  
 S. A. Mewes,  P. Morgante,  J. W. Mullinax,  T. S. Nguyen-Beck,  
 K. J. Oosterbaan,  G. Paran,  Alexander C. Paul,  Suranjan K. Paul,  
 F. Pavosevic,  Zheng Pei,  S. Prager,  E. I. Proynov,  E. Ramos,  B. Rana,  
 A. E. Rask,  A. Rettig,  R. M. Richard,  F. Rob,  E. Rossomme,  T. Scheele,  
 M. Scheurer,  M. Schneider,  N. Sergueev,  S. M. Sharada,  W. Skomorowski,  
 D. W. Small,  C. J. Stein,  Yu-Chuan Su,  E. J. Sundstrom,  Zhen Tao,  
 J. Thirman,  T. Tsuchimochi,  N. M. Tubman,  S. P. Veccham,  O. Vydrov,  
 J. Wenzel,  J. Witte,  A. Yamada,  Kun Yao,  S. Yeganeh,  S. R. Yost,  
 A. Zech,  Igor Ying Zhang,  Xing Zhang,  Yu Zhang,  D. Zuev,  
 A. Aspuru-Guzik,  A. T. Bell,  N. A. Besley,  K. B. Bravaya,  B. R. Brooks,  
 D. Casanova,  Jeng-Da Chai,  S. Coriani,  C. J. Cramer,  
 A. E. DePrince, III,  R. A. DiStasio Jr.,  A. Dreuw,  B. D. Dunietz,  
 T. R. Furlani,  W. A. Goddard III,  S. Grimme,  S. Hammes-Schiffer,  
 T. Head-Gordon,  W. J. Hehre,  Chao-Ping Hsu,  T.-C. Jagau,  Yousung Jung,  
 A. Klamt,  Jing Kong,  D. S. Lambrecht,  WanZhen Liang,  N. J. Mayhall,  
 C. W. McCurdy,  J. B. Neaton,  C. Ochsenfeld,  J. A. Parkhill,  R. Peverati,  
 V. A. Rassolov,  Yihan Shao,  L. V. Slipchenko,  T. Stauch,  R. P. Steele,  
 J. E. Subotnik,  A. J. W. Thom,  A. Tkatchenko,  D. G. Truhlar,  
 T. Van Voorhis,  T. A. Wesolowski,  K. B. Whaley,  H. L. Woodcock III,  
 P. M. Zimmerman,  S. Faraji,  P. M. W. Gill,  M. Head-Gordon,  
 J. M. Herbert,  A. I. Krylov

 Contributors to earlier versions of Q-Chem not listed above: 
 R. D. Adamson,  B. Austin,  R. Baer,  J. Baker,  G. J. O. Beran,  
 K. Brandhorst,  S. T. Brown,  E. F. C. Byrd,  A. K. Chakraborty,  
 G. K. L. Chan,  Chun-Min Chang,  Yunqing Chen,  C.-L. Cheng,  
 Siu Hung Chien,  D. M. Chipman,  D. L. Crittenden,  H. Dachsel,  
 R. J. Doerksen,  A. D. Dutoi,  R. G. Edgar,  J. Fosso-Tande,  
 L. Fusti-Molnar,  D. Ghosh,  A. Ghysels,  A. Golubeva-Zadorozhnaya,  
 J. Gonthier,  M. S. Gordon,  S. R. Gwaltney,  G. Hawkins,  J. E. Herr,  
 A. Heyden,  S. Hirata,  E. G. Hohenstein,  G. Kedziora,  F. J. Keil,  
 C. Kelley,  Jihan Kim,  R. A. King,  R. Z. Khaliullin,  P. P. Korambath,  
 W. Kurlancheek,  A. Laurent,  A. M. Lee,  M. S. Lee,  S. V. Levchenko,  
 Ching Yeh Lin,  D. Liotard,  E. Livshits,  R. C. Lochan,  I. Lotan,  
 L. A. Martinez-Martinez,  P. E. Maslen,  N. Nair,  D. P. O'Neill,  
 D. Neuhauser,  E. Neuscamman,  C. M. Oana,  R. Olivares-Amaya,  R. Olson,  
 T. M. Perrine,  B. Peters,  P. A. Pieniazek,  A. Prociuk,  Y. M. Rhee,  
 J. Ritchie,  M. A. Rohrdanz,  E. Rosta,  N. J. Russ,  H. F. Schaefer III,  
 M. W. Schmidt,  N. E. Schultz,  S. Sharma,  N. Shenvi,  C. D. Sherrill,  
 A. C. Simmonett,  A. Sodt,  T. Stein,  D. Stuck,  K. S. Thanthiriwatte,  
 V. Vanovschi,  L. Vogt,  Tao Wang,  A. Warshel,  M. A. Watson,  
 C. F. Williams,  Q. Wu,  X. Xu,  Jun Yang,  W. Zhang,  Yan Zhao

 Please cite Q-Chem as follows:
 Y. Shao et al., Mol. Phys. 113, 184-215 (2015)
 DOI: 10.1080/00268976.2014.952696

 Q-Chem 5.4.0 for Intel X86 EM64T Linux

 Parts of Q-Chem use Armadillo 9.800.1 (Horizon Scraper).
 http://arma.sourceforge.net/

 Q-Chem begins on Sun Jul 10 02:49:56 2022  

 Host: 
0

     Scratch files written to ./qchem1700614//
 May1621 |scratch|qcdevops|jenkins|workspace|build_RNUM    
 Processing $rem in /cm/shared/apps/spack/cpu/opt/spack/linux-centos8-zen2/gcc-10.2.0/qchem-5.4-akfmr7b3t57bfs6qan3padb2wnb2i7cl/config/preferences:
 Processing $rem in /home/theleonzhang/.qchemrc:
 Symmetry turned off for PCM/SM12/SMD calculation
 Core orbitals will be frozen

 Checking the input file for inconsistencies... 	...done.

--------------------------------------------------------------
User input:
--------------------------------------------------------------
$molecule
0 1
C	0.388181	-3.866725	-0.670924
C	-0.306020	-3.703963	0.530648
C	-0.533378	-2.357056	0.923703
H	-0.651043	-4.561092	1.128579
C	-0.000000	-1.440664	-0.000000
S	0.772234	-2.286957	-1.337567
C	-1.261192	-1.978743	2.183857
H	-1.583666	-2.878678	2.742548
H	-2.168641	-1.376015	1.970497
H	-0.623012	-1.375728	2.863099
C	0.000000	0.000000	0.000000
C	0.149995	0.850475	1.099446
C	0.390327	2.213354	0.776721
H	0.085947	0.487279	2.136088
C	0.428665	2.430655	-0.612546
S	0.163670	0.928078	-1.486809
C	0.579235	3.284574	1.814609
H	0.505323	2.865404	2.836676
H	-0.185980	4.083890	1.726239
H	1.571698	3.773937	1.726228
H	0.593515	3.365448	-1.161575
H	-0.216843	-4.392713	-1.417779
H	1.337652	-4.392347	-0.520136
H	-0.935250	-1.440937	-0.540100
$end

$rem
JOBTYPE		SP
EXCHANGE	HF
CORRELATION	pRIMP2
BASIS		cc-pvtz
METHOD		rimp2
AUX_BASIS	rimp2-cc-pvtz
SOLVENT_METHOD	PCM
PURECART	11111
SYMMETRY	false
MEM_TOTAL	110000
SCF_CONVERGENCE = 6
THRESH=10
$end



$solvent
dielectric 4.90
$end
--------------------------------------------------------------
 ----------------------------------------------------------------
             Standard Nuclear Orientation (Angstroms)
    I     Atom           X                Y                Z
 ----------------------------------------------------------------
    1      C       0.3881810000    -3.8667250000    -0.6709240000
    2      C      -0.3060200000    -3.7039630000     0.5306480000
    3      C      -0.5333780000    -2.3570560000     0.9237030000
    4      H      -0.6510430000    -4.5610920000     1.1285790000
    5      C       0.0000000000    -1.4406640000     0.0000000000
    6      S       0.7722340000    -2.2869570000    -1.3375670000
    7      C      -1.2611920000    -1.9787430000     2.1838570000
    8      H      -1.5836660000    -2.8786780000     2.7425480000
    9      H      -2.1686410000    -1.3760150000     1.9704970000
   10      H      -0.6230120000    -1.3757280000     2.8630990000
   11      C       0.0000000000     0.0000000000     0.0000000000
   12      C       0.1499950000     0.8504750000     1.0994460000
   13      C       0.3903270000     2.2133540000     0.7767210000
   14      H       0.0859470000     0.4872790000     2.1360880000
   15      C       0.4286650000     2.4306550000    -0.6125460000
   16      S       0.1636700000     0.9280780000    -1.4868090000
   17      C       0.5792350000     3.2845740000     1.8146090000
   18      H       0.5053230000     2.8654040000     2.8366760000
   19      H      -0.1859800000     4.0838900000     1.7262390000
   20      H       1.5716980000     3.7739370000     1.7262280000
   21      H       0.5935150000     3.3654480000    -1.1615750000
   22      H      -0.2168430000    -4.3927130000    -1.4177790000
   23      H       1.3376520000    -4.3923470000    -0.5201360000
   24      H      -0.9352500000    -1.4409370000    -0.5401000000
 ----------------------------------------------------------------
 Nuclear Repulsion Energy =         875.50113594 hartrees
 There are       52 alpha and       52 beta electrons

 Q-Chem warning in module forms1/BasisType.C, line 2236:

 You are not using the predefined 5D/6D in this basis set.

 Requested basis set is cc-pVTZ
 There are 196 shells and 536 basis functions

 Total QAlloc Memory Limit 110000 MB
 Mega-Array Size       188 MB
 MEM_STATIC part       192 MB
 Discretize the solute cavity surface with Lebedev spheres
	Using 110 Lebedev grid points for each H atom
	Using 194 Lebedev grid points for other atoms
	Atomic van der Waals radii will be scaled by 1.20
 Remove points where switching function is < 1.0e-08
 Keep 1591 surface tesserae and discard 2057 interior tesserae
 Molecular Surface Area = 233.128 Angst**2
 Requested basis set is rimp2-cc-pVTZ
 There are 414 shells and 1414 basis functions
 A cutoff of  1.0D-10 yielded  13997 shell pairs
 There are    101419 function pairs (    130003 Cartesian)
 Smallest overlap matrix eigenvalue = 6.14E-05

 Scale SEOQF with 1.000000e-01/1.000000e-01/1.000000e-01

 Standard Electronic Orientation quadrupole field applied
 Nucleus-field energy     =     0.0000000250 hartrees
 Guess from superposition of atomic densities
 Warning:  Energy on first SCF cycle will be non-variational
 SAD guess density has 104.000000 electrons

 -----------------------------------------------------------------------
  General SCF calculation program by
  Eric Jon Sundstrom, Paul Horn, Yuezhi Mao, Dmitri Zuev, Alec White,
  David Stuck, Shaama M.S., Shane Yost, Joonho Lee, David Small,
  Daniel Levine, Susi Lehtola, Hugh Burton, Evgeny Epifanovsky,
  Bang C. Huynh
 -----------------------------------------------------------------------
 Hartree-Fock
 A restricted SCF calculation will be
 performed using DIIS
 SCF converges when DIIS error is below 1.0e-06
 ---------------------------------------
  Cycle       Energy         DIIS error
 ---------------------------------------
    1   -1186.0401433304      2.39e-02  
    2   -1180.6084317891      1.58e-03  
    3   -1180.7345397016      6.43e-04  
    4   -1180.7501220532      3.42e-04  
    5   -1180.7555540186      5.97e-05  
    6   -1180.7558073966      2.49e-05  
    7   -1180.7558687814      9.04e-06  
    8   -1180.7558825205      4.40e-06  
    9   -1180.7558855674      1.45e-06  
   10   -1180.7558860192      5.12e-07  Convergence criterion met
 ---------------------------------------
 SCF time:   CPU 571.69s  wall 575.00s 

************** Final PCM Free Energy Summary **************
 G_electrostatic  =      -0.00954237 hartree =      -5.98792941 kcal/mol
 G_cavitation     =       0.00000000 hartree =       0.00000000 kcal/mol
 G_dispersion     =       0.00000000 hartree =       0.00000000 kcal/mol
 G_repulsion      =       0.00000000 hartree =       0.00000000 kcal/mol
 --------------------------------------------------
 Non-electrostatic Free Energy =       0.00000000 hartree =       0.00000000 kcal/mol
 Total                         =      -0.00954237 hartree =      -5.98792941 kcal/mol
 --------------------------------------------------
 SCF Energy (H0 + V/2)                       =   -1180.75588602 
 Solute Internal Energy (H0)                 =   -1180.74634365 
 Total Free Energy (H0 + V/2 + non-elec)     =   -1180.75588602 hartree
                                             = -740935.50141606 kcal/mol
***********************************************************

 SCF   energy in the final basis set =    -1180.7558860192
 Total energy in the final basis set =    -1180.7558860192


 --------------------------------------------------------------
  Generalized many-body perturbation theory program
  by Joonho Lee, Fazle Rob, Xintian Feng, Evgeny Epifanovsky

 No regularization used 
 (reg. param. = 0.0000e+00)
  (P|Q)^-1/2 Time:  CPU 1.90 s  wall 1.91 s

 In RI-MP2 calculation: 
 # of frozen core orbitals: 20

 Components of the RIMP2 correlation energy:
        aaaa    correlation energy =        -0.2512550517 a.u.
        abab    correlation energy =        -1.5028704203 a.u.
        bbbb    correlation energy =        -0.2512550517 a.u.
        non-Brillouin singles      =        -0.0000000000 a.u.
        total same-spin energy     =        -0.5025101035 a.u.
        total opposite-spin energy =        -1.5028704203 a.u.

 Total  RIMP2   correlation energy =        -2.0053805238 a.u.
        RIMP2         total energy =     -1182.7612665430 a.u.

 RI-MP2 Energy Time:  CPU 80.41 s  wall 80.72 s
 
 --------------------------------------------------------------
 
                    Orbital Energies (a.u.)
 --------------------------------------------------------------
 
 Alpha MOs
 -- Occupied --
-91.9840 -91.9452 -11.2864 -11.2656 -11.2591 -11.2576 -11.2501 -11.2433
-11.2336 -11.2324 -11.2282 -11.2224  -8.9838  -8.9499  -6.6647  -6.6642
 -6.6635  -6.6312  -6.6302  -6.6289  -1.2012  -1.1528  -1.0598  -1.0309
 -1.0008  -0.9628  -0.9148  -0.8998  -0.8174  -0.7619  -0.7360  -0.7035
 -0.6553  -0.6430  -0.6102  -0.5926  -0.5826  -0.5684  -0.5654  -0.5528
 -0.5457  -0.5341  -0.5194  -0.5037  -0.4884  -0.4810  -0.4676  -0.4462
 -0.3580  -0.3432  -0.3237  -0.2667
 -- Virtual --
  0.0995   0.1323   0.1405   0.1480   0.1580   0.1698   0.1789   0.1866
  0.1917   0.2026   0.2068   0.2169   0.2238   0.2310   0.2395   0.2407
  0.2538   0.2708   0.2805   0.3017   0.3177   0.3297   0.3511   0.3629
  0.3664   0.3785   0.3813   0.3919   0.4021   0.4100   0.4134   0.4201
  0.4399   0.4484   0.4645   0.4681   0.4784   0.4822   0.4829   0.4924
  0.4953   0.5119   0.5155   0.5293   0.5399   0.5468   0.5515   0.5614
  0.5653   0.5793   0.5852   0.5921   0.6016   0.6036   0.6126   0.6194
  0.6247   0.6301   0.6314   0.6330   0.6399   0.6498   0.6512   0.6596
  0.6674   0.6768   0.6844   0.6919   0.7049   0.7113   0.7207   0.7231
  0.7361   0.7476   0.7681   0.7729   0.7766   0.7941   0.8024   0.8263
  0.8337   0.8494   0.8633   0.8685   0.8879   0.8923   0.9012   0.9135
  0.9319   0.9390   0.9483   0.9600   0.9696   0.9851   1.0034   1.0159
  1.0234   1.0294   1.0405   1.0443   1.0485   1.0688   1.0723   1.0790
  1.0884   1.0948   1.1057   1.1311   1.1424   1.1458   1.1637   1.1714
  1.1836   1.1920   1.1982   1.2068   1.2109   1.2206   1.2342   1.2452
  1.2486   1.2596   1.2625   1.2787   1.2829   1.2887   1.2996   1.3062
  1.3194   1.3259   1.3452   1.3625   1.3743   1.3860   1.4043   1.4172
  1.4266   1.4309   1.4374   1.4556   1.4722   1.4778   1.4886   1.4978
  1.5053   1.5136   1.5202   1.5326   1.5393   1.5426   1.5472   1.5561
  1.5683   1.5812   1.5907   1.5941   1.6250   1.6311   1.6327   1.6456
  1.6523   1.6706   1.6732   1.6918   1.7023   1.7197   1.7333   1.7353
  1.7492   1.7551   1.7788   1.7993   1.8186   1.8344   1.8435   1.8550
  1.8895   1.9016   1.9109   1.9239   1.9377   1.9744   1.9845   2.0026
  2.0203   2.0402   2.0574   2.0614   2.0843   2.1142   2.1345   2.1603
  2.1899   2.1950   2.2139   2.2245   2.2329   2.2460   2.2716   2.2780
  2.2949   2.3180   2.3213   2.3824   2.4200   2.4499   2.4574   2.4704
  2.4971   2.5149   2.5319   2.5399   2.5650   2.5685   2.5909   2.6021
  2.6229   2.6489   2.6582   2.6715   2.6838   2.6926   2.7092   2.7315
  2.7445   2.7609   2.7629   2.7829   2.7854   2.7875   2.8073   2.8162
  2.8424   2.8444   2.8537   2.8631   2.8856   2.8977   2.9120   2.9317
  2.9395   2.9590   2.9741   2.9923   2.9989   3.0257   3.0327   3.0438
  3.0517   3.0704   3.0870   3.1098   3.1108   3.1192   3.1202   3.1375
  3.1461   3.1488   3.1580   3.1714   3.1789   3.1880   3.2026   3.2187
  3.2352   3.2432   3.2464   3.2551   3.2796   3.2863   3.2982   3.3138
  3.3189   3.3280   3.3351   3.3428   3.3491   3.3534   3.3599   3.3639
  3.3702   3.3819   3.3919   3.3948   3.4063   3.4161   3.4274   3.4296
  3.4403   3.4459   3.4577   3.4701   3.4760   3.4790   3.4957   3.5046
  3.5116   3.5211   3.5338   3.5398   3.5480   3.5599   3.5680   3.5890
  3.5947   3.5984   3.6150   3.6207   3.6290   3.6306   3.6423   3.6602
  3.6658   3.6696   3.6884   3.6969   3.7082   3.7202   3.7386   3.7448
  3.7514   3.7570   3.7688   3.7752   3.7857   3.7887   3.7966   3.8123
  3.8282   3.8390   3.8589   3.8664   3.8748   3.8844   3.8941   3.9170
  3.9322   3.9366   3.9584   3.9675   3.9708   3.9842   4.0052   4.0232
  4.0305   4.0450   4.0480   4.0614   4.0644   4.0742   4.0943   4.1034
  4.1227   4.1300   4.1490   4.1528   4.1670   4.1719   4.1835   4.2083
  4.2149   4.2211   4.2261   4.2419   4.2455   4.2605   4.2685   4.2861
  4.2978   4.3073   4.3175   4.3244   4.3452   4.3569   4.3657   4.3723
  4.3790   4.3937   4.4005   4.4071   4.4175   4.4335   4.4444   4.4564
  4.4648   4.4756   4.4818   4.4936   4.5013   4.5051   4.5367   4.5679
  4.5890   4.5994   4.6078   4.6228   4.6325   4.6472   4.6517   4.6829
  4.7013   4.7293   4.7628   4.7673   4.7816   4.8070   4.8225   4.8433
  4.8627   4.8683   4.8927   4.9107   4.9420   4.9628   4.9908   5.0070
  5.0182   5.0446   5.0950   5.1056   5.1183   5.1269   5.1625   5.1831
  5.1993   5.2315   5.2442   5.2617   5.2847   5.2966   5.3081   5.3279
  5.3521   5.3722   5.3790   5.4056   5.4118   5.4159   5.4356   5.4430
  5.4753   5.5181   5.5270   5.5391   5.5534   5.5639   5.5738   5.5994
  5.6123   5.6246   5.6284   5.6669   5.6973   5.7010   5.7084   5.7322
  5.7665   5.7912   5.8363   5.9861   6.0425   6.0840   6.1236   6.1701
  6.2084   6.2279   6.2385   6.2477   6.2711   6.2955   6.3072   6.3811
  6.4184   6.5557   9.4765  10.9592  12.0471  12.9638  13.2099  13.9712
 14.0852  14.1999  14.3687  14.8413
 --------------------------------------------------------------
 
          Ground-State Mulliken Net Atomic Charges

     Atom                 Charge (a.u.)
  ----------------------------------------
      1 C                    -0.076048
      2 C                    -0.323124
      3 C                    -0.032048
      4 H                     0.178000
      5 C                     0.123514
      6 S                    -0.174465
      7 C                    -0.289898
      8 H                     0.118156
      9 H                     0.111242
     10 H                     0.104463
     11 C                    -0.094759
     12 C                    -0.240898
     13 C                     0.020461
     14 H                     0.191886
     15 C                    -0.256744
     16 S                    -0.000953
     17 C                    -0.274025
     18 H                     0.100881
     19 H                     0.108241
     20 H                     0.108875
     21 H                     0.197411
     22 H                     0.111060
     23 H                     0.114880
     24 H                     0.173893
  ----------------------------------------
  Sum of atomic charges =     0.000000

 -----------------------------------------------------------------
                    Cartesian Multipole Moments
 -----------------------------------------------------------------
    Charge (ESU x 10^10)
                -0.0000
    Dipole Moment (Debye)
         X      -1.6679      Y      -0.1254      Z       3.0301
       Tot       3.4611
    Quadrupole Moments (Debye-Ang)
        XX     -91.6774     XY       4.7105     YY     -73.1811
        XZ       0.1390     YZ      -1.2229     ZZ     -85.6033
    Octopole Moments (Debye-Ang^2)
       XXX     -35.9983    XXY      45.6122    XYY      -6.7235
       YYY     118.5113    XXZ      -0.2967    XYZ       1.8047
       YYZ      -5.5548    XZZ     -14.0685    YZZ      51.1210
       ZZZ       5.4128
    Hexadecapole Moments (Debye-Ang^3)
      XXXX    -315.8880   XXXY     -86.0261   XXYY    -568.0508
      XYYY     -64.4396   YYYY   -2743.4555   XXXZ     110.6717
      XXYZ     -37.7271   XYYZ      19.3325   YYYZ    -103.2807
      XXZZ    -218.2833   XYZZ      -8.9061   YYZZ    -637.4855
      XZZZ     101.2000   YZZZ    -117.0701   ZZZZ    -962.2420
 -----------------------------------------------------------------
 Total job time:  660.44s(wall), 653.01s(cpu) 
 Sun Jul 10 03:00:56 2022

        *************************************************************
        *                                                           *
        *  Thank you very much for using Q-Chem.  Have a nice day.  *
        *                                                           *
        *************************************************************


remove work dirs ./qchem1700614.0 -- ./qchem1700614.-1
rm -rf ./qchem1700614
You are running Q-Chem version: 5.4.0

#
# job setting
#
local host:  exp-1-04
current dir: /expanse/lustre/scratch/theleonzhang/temp_project/Hydrogenated_Rotation_Test
input file:  Methylthiophene_Phi_10_Theta_210_Methylthiophene_Hydrogenated.qcin
output file: 
nprocs     : 0
nthreads   : 1
#
# qchem installation setting
#
QC:          /cm/shared/apps/spack/cpu/opt/spack/linux-centos8-zen2/gcc-10.2.0/qchem-5.4-akfmr7b3t57bfs6qan3padb2wnb2i7cl
QCAUX:       /cm/shared/apps/spack/cpu/opt/spack/linux-centos8-zen2/gcc-10.2.0/qchem-5.4-akfmr7b3t57bfs6qan3padb2wnb2i7cl/qcaux
QCPROG:      /cm/shared/apps/spack/cpu/opt/spack/linux-centos8-zen2/gcc-10.2.0/qchem-5.4-akfmr7b3t57bfs6qan3padb2wnb2i7cl/exe/qcprog.exe_s
QCPROG_S:    /cm/shared/apps/spack/cpu/opt/spack/linux-centos8-zen2/gcc-10.2.0/qchem-5.4-akfmr7b3t57bfs6qan3padb2wnb2i7cl/exe/qcprog.exe_s
PARALLEL:    -DSERIAL
QCMPI:       mpich
#
# qchem directory setting
#
qcrun:       qchem1245594
QCSCRATCH:   .
QCLOCALSCR:  
QCTMPDIR:    .
QCFILEPREF:  ./qchem1245594
QCSAVEDIR:   
workdirs:    ./qchem1245594
workdir0:    ./qchem1245594
partmpdirs =  
#
# parallel setting
#
QCRSH:           ssh
QCMPI:           mpich
QCMPIRUN:        /cm/shared/apps/spack/cpu/opt/spack/linux-centos8-zen2/gcc-10.2.0/qchem-5.4-akfmr7b3t57bfs6qan3padb2wnb2i7cl/bin/mpi/mpirun_qchem
QCMACHINEFILE:   ./qchem1245594/hostfile

#
# env setting
#
exported envs:   QC QCAUX QCSCRATCH QCRUNNAME QCFILEPREF QCPROG QCPROG_S GUIFILE

Running Job 1 of 1 Methylthiophene_Phi_10_Theta_210_Methylthiophene_Hydrogenated.qcin
qchem Methylthiophene_Phi_10_Theta_210_Methylthiophene_Hydrogenated.qcin_1245594.0 ./qchem1245594/ 0
/cm/shared/apps/spack/cpu/opt/spack/linux-centos8-zen2/gcc-10.2.0/qchem-5.4-akfmr7b3t57bfs6qan3padb2wnb2i7cl/exe/qcprog.exe_s Methylthiophene_Phi_10_Theta_210_Methylthiophene_Hydrogenated.qcin_1245594.0 ./qchem1245594/
                  Welcome to Q-Chem
     A Quantum Leap Into The Future Of Chemistry


 Q-Chem 5.4, Q-Chem, Inc., Pleasanton, CA (2021)

 License issued to: University of California, San Diego (site)

 E. Epifanovsky,  A. T. B. Gilbert,  Xintian Feng,  Joonho Lee,  Yuezhi Mao,  
 N. Mardirossian,  P. Pokhilko,  A. White,  M. Wormit,  M. P. Coons,  
 A. L. Dempwolff,  Zhengting Gan,  D. Hait,  P. R. Horn,  L. D. Jacobson,  
 I. Kaliman,  J. Kussmann,  A. W. Lange,  Ka Un Lao,  D. S. Levine,  Jie Liu,  
 S. C. McKenzie,  A. F. Morrison,  K. Nanda,  F. Plasser,  D. R. Rehn,  
 M. L. Vidal,  Zhi-Qiang You,  Ying Zhu,  B. Alam,  B. Albrecht,  
 A. Aldossary,  E. Alguire,  J. H. Andersen,  D. Barton,  K. Begam,  A. Behn,  
 Y. A. Bernard,  E. J. Berquist,  H. Burton,  A. Carreras,  K. Carter-Fenk,  
 R. Chakraborty,  A. D. Chien,  K. D. Closser,  V. Cofer-Shabica,  
 S. Dasgupta,  Jia Deng,  M. de Wergifosse,  M. Diedenhofen,  Hainam Do,  
 S. Ehlert,  Po-Tung Fang,  S. Fatehi,  Qingguo Feng,  J. Gayvert,  
 Qinghui Ge,  G. Gidofalvi,  M. Goldey,  J. Gomes,  C. Gonzalez-Espinoza,  
 S. Gulania,  A. Gunina,  M. W. D. Hanson-Heine,  P. H. P. Harbach,  
 A. W. Hauser,  M. F. Herbst,  M. Hernandez Vera,  M. Hodecker,  
 Z. C. Holden,  S. Houck,  Xunkun Huang,  Kerwin Hui,  B. C. Huynh,  
 M. Ivanov,  Hyunjun Ji,  Hanjie Jiang,  B. Kaduk,  S. Kaehler,  
 K. Khistyaev,  Jaehoon Kim,  P. Klunzinger,  Z. Koczor-Benda,  
 Joong Hoon Koh,  D. Kosenkov,  L. Koulias,  T. Kowalczyk,  C. M. Krauter,  
 K. Kue,  A. Kunitsa,  T. Kus,  A. Landau,  K. V. Lawler,  D. Lefrancois,  
 S. Lehtola,  Rain Li,  Yi-Pei Li,  Jiashu Liang,  M. Liebenthal,  
 Hung-Hsuan Lin,  You-Sheng Lin,  Fenglai Liu,  Kuan-Yu Liu,  
 M. Loipersberger,  A. Luenser,  A. Manjanath,  P. Manohar,  E. Mansoor,  
 S. F. Manzer,  Shan-Ping Mao,  A. V. Marenich,  T. Markovich,  S. Mason,  
 S. A. Maurer,  P. F. McLaughlin,  M. F. S. J. Menger,  J.-M. Mewes,  
 S. A. Mewes,  P. Morgante,  J. W. Mullinax,  T. S. Nguyen-Beck,  
 K. J. Oosterbaan,  G. Paran,  Alexander C. Paul,  Suranjan K. Paul,  
 F. Pavosevic,  Zheng Pei,  S. Prager,  E. I. Proynov,  E. Ramos,  B. Rana,  
 A. E. Rask,  A. Rettig,  R. M. Richard,  F. Rob,  E. Rossomme,  T. Scheele,  
 M. Scheurer,  M. Schneider,  N. Sergueev,  S. M. Sharada,  W. Skomorowski,  
 D. W. Small,  C. J. Stein,  Yu-Chuan Su,  E. J. Sundstrom,  Zhen Tao,  
 J. Thirman,  T. Tsuchimochi,  N. M. Tubman,  S. P. Veccham,  O. Vydrov,  
 J. Wenzel,  J. Witte,  A. Yamada,  Kun Yao,  S. Yeganeh,  S. R. Yost,  
 A. Zech,  Igor Ying Zhang,  Xing Zhang,  Yu Zhang,  D. Zuev,  
 A. Aspuru-Guzik,  A. T. Bell,  N. A. Besley,  K. B. Bravaya,  B. R. Brooks,  
 D. Casanova,  Jeng-Da Chai,  S. Coriani,  C. J. Cramer,  
 A. E. DePrince, III,  R. A. DiStasio Jr.,  A. Dreuw,  B. D. Dunietz,  
 T. R. Furlani,  W. A. Goddard III,  S. Grimme,  S. Hammes-Schiffer,  
 T. Head-Gordon,  W. J. Hehre,  Chao-Ping Hsu,  T.-C. Jagau,  Yousung Jung,  
 A. Klamt,  Jing Kong,  D. S. Lambrecht,  WanZhen Liang,  N. J. Mayhall,  
 C. W. McCurdy,  J. B. Neaton,  C. Ochsenfeld,  J. A. Parkhill,  R. Peverati,  
 V. A. Rassolov,  Yihan Shao,  L. V. Slipchenko,  T. Stauch,  R. P. Steele,  
 J. E. Subotnik,  A. J. W. Thom,  A. Tkatchenko,  D. G. Truhlar,  
 T. Van Voorhis,  T. A. Wesolowski,  K. B. Whaley,  H. L. Woodcock III,  
 P. M. Zimmerman,  S. Faraji,  P. M. W. Gill,  M. Head-Gordon,  
 J. M. Herbert,  A. I. Krylov

 Contributors to earlier versions of Q-Chem not listed above: 
 R. D. Adamson,  B. Austin,  R. Baer,  J. Baker,  G. J. O. Beran,  
 K. Brandhorst,  S. T. Brown,  E. F. C. Byrd,  A. K. Chakraborty,  
 G. K. L. Chan,  Chun-Min Chang,  Yunqing Chen,  C.-L. Cheng,  
 Siu Hung Chien,  D. M. Chipman,  D. L. Crittenden,  H. Dachsel,  
 R. J. Doerksen,  A. D. Dutoi,  R. G. Edgar,  J. Fosso-Tande,  
 L. Fusti-Molnar,  D. Ghosh,  A. Ghysels,  A. Golubeva-Zadorozhnaya,  
 J. Gonthier,  M. S. Gordon,  S. R. Gwaltney,  G. Hawkins,  J. E. Herr,  
 A. Heyden,  S. Hirata,  E. G. Hohenstein,  G. Kedziora,  F. J. Keil,  
 C. Kelley,  Jihan Kim,  R. A. King,  R. Z. Khaliullin,  P. P. Korambath,  
 W. Kurlancheek,  A. Laurent,  A. M. Lee,  M. S. Lee,  S. V. Levchenko,  
 Ching Yeh Lin,  D. Liotard,  E. Livshits,  R. C. Lochan,  I. Lotan,  
 L. A. Martinez-Martinez,  P. E. Maslen,  N. Nair,  D. P. O'Neill,  
 D. Neuhauser,  E. Neuscamman,  C. M. Oana,  R. Olivares-Amaya,  R. Olson,  
 T. M. Perrine,  B. Peters,  P. A. Pieniazek,  A. Prociuk,  Y. M. Rhee,  
 J. Ritchie,  M. A. Rohrdanz,  E. Rosta,  N. J. Russ,  H. F. Schaefer III,  
 M. W. Schmidt,  N. E. Schultz,  S. Sharma,  N. Shenvi,  C. D. Sherrill,  
 A. C. Simmonett,  A. Sodt,  T. Stein,  D. Stuck,  K. S. Thanthiriwatte,  
 V. Vanovschi,  L. Vogt,  Tao Wang,  A. Warshel,  M. A. Watson,  
 C. F. Williams,  Q. Wu,  X. Xu,  Jun Yang,  W. Zhang,  Yan Zhao

 Please cite Q-Chem as follows:
 Y. Shao et al., Mol. Phys. 113, 184-215 (2015)
 DOI: 10.1080/00268976.2014.952696

 Q-Chem 5.4.0 for Intel X86 EM64T Linux

 Parts of Q-Chem use Armadillo 9.800.1 (Horizon Scraper).
 http://arma.sourceforge.net/

 Q-Chem begins on Sun Jul 10 03:24:47 2022  

 Host: 
0

     Scratch files written to ./qchem1245594//
 May1621 |scratch|qcdevops|jenkins|workspace|build_RNUM    
 Processing $rem in /cm/shared/apps/spack/cpu/opt/spack/linux-centos8-zen2/gcc-10.2.0/qchem-5.4-akfmr7b3t57bfs6qan3padb2wnb2i7cl/config/preferences:
 Processing $rem in /home/theleonzhang/.qchemrc:
 Symmetry turned off for PCM/SM12/SMD calculation
 Core orbitals will be frozen

 Checking the input file for inconsistencies... 	...done.

--------------------------------------------------------------
User input:
--------------------------------------------------------------
$molecule
0 1
C	0.388181	-3.866725	-0.670924
C	-0.306020	-3.703963	0.530648
C	-0.533378	-2.357056	0.923703
H	-0.651043	-4.561092	1.128579
C	-0.000000	-1.440664	-0.000000
S	0.772234	-2.286957	-1.337567
C	-1.261192	-1.978743	2.183857
H	-1.583666	-2.878678	2.742548
H	-2.168641	-1.376015	1.970497
H	-0.623012	-1.375728	2.863099
C	0.000000	0.000000	0.000000
C	0.149995	0.850475	1.099446
C	0.390327	2.213354	0.776721
H	0.085947	0.487279	2.136088
C	0.428665	2.430655	-0.612546
S	0.163670	0.928078	-1.486809
C	0.579235	3.284574	1.814609
H	0.505323	2.865404	2.836676
H	-0.185980	4.083890	1.726239
H	1.571698	3.773937	1.726228
H	0.593515	3.365448	-1.161575
H	-0.216843	-4.392713	-1.417779
H	1.337652	-4.392347	-0.520136
H	-0.935250	-1.440937	-0.540100
$end

$rem
JOBTYPE		SP
EXCHANGE	HF
CORRELATION	pRIMP2
BASIS		cc-pvtz
METHOD		rimp2
AUX_BASIS	rimp2-cc-pvtz
SOLVENT_METHOD	PCM
PURECART	11111
SYMMETRY	false
MEM_TOTAL	110000
SCF_CONVERGENCE = 6
THRESH=10
$end



$solvent
dielectric 4.90
$end
--------------------------------------------------------------
 ----------------------------------------------------------------
             Standard Nuclear Orientation (Angstroms)
    I     Atom           X                Y                Z
 ----------------------------------------------------------------
    1      C       0.3881810000    -3.8667250000    -0.6709240000
    2      C      -0.3060200000    -3.7039630000     0.5306480000
    3      C      -0.5333780000    -2.3570560000     0.9237030000
    4      H      -0.6510430000    -4.5610920000     1.1285790000
    5      C       0.0000000000    -1.4406640000     0.0000000000
    6      S       0.7722340000    -2.2869570000    -1.3375670000
    7      C      -1.2611920000    -1.9787430000     2.1838570000
    8      H      -1.5836660000    -2.8786780000     2.7425480000
    9      H      -2.1686410000    -1.3760150000     1.9704970000
   10      H      -0.6230120000    -1.3757280000     2.8630990000
   11      C       0.0000000000     0.0000000000     0.0000000000
   12      C       0.1499950000     0.8504750000     1.0994460000
   13      C       0.3903270000     2.2133540000     0.7767210000
   14      H       0.0859470000     0.4872790000     2.1360880000
   15      C       0.4286650000     2.4306550000    -0.6125460000
   16      S       0.1636700000     0.9280780000    -1.4868090000
   17      C       0.5792350000     3.2845740000     1.8146090000
   18      H       0.5053230000     2.8654040000     2.8366760000
   19      H      -0.1859800000     4.0838900000     1.7262390000
   20      H       1.5716980000     3.7739370000     1.7262280000
   21      H       0.5935150000     3.3654480000    -1.1615750000
   22      H      -0.2168430000    -4.3927130000    -1.4177790000
   23      H       1.3376520000    -4.3923470000    -0.5201360000
   24      H      -0.9352500000    -1.4409370000    -0.5401000000
 ----------------------------------------------------------------
 Nuclear Repulsion Energy =         875.50113594 hartrees
 There are       52 alpha and       52 beta electrons

 Q-Chem warning in module forms1/BasisType.C, line 2236:

 You are not using the predefined 5D/6D in this basis set.

 Requested basis set is cc-pVTZ
 There are 196 shells and 536 basis functions

 Total QAlloc Memory Limit 110000 MB
 Mega-Array Size       188 MB
 MEM_STATIC part       192 MB
 Discretize the solute cavity surface with Lebedev spheres
	Using 110 Lebedev grid points for each H atom
	Using 194 Lebedev grid points for other atoms
	Atomic van der Waals radii will be scaled by 1.20
 Remove points where switching function is < 1.0e-08
 Keep 1591 surface tesserae and discard 2057 interior tesserae
 Molecular Surface Area = 233.128 Angst**2
 Requested basis set is rimp2-cc-pVTZ
 There are 414 shells and 1414 basis functions
 A cutoff of  1.0D-10 yielded  13997 shell pairs
 There are    101419 function pairs (    130003 Cartesian)
 Smallest overlap matrix eigenvalue = 6.14E-05

 Scale SEOQF with 1.000000e-01/1.000000e-01/1.000000e-01

 Standard Electronic Orientation quadrupole field applied
 Nucleus-field energy     =     0.0000000250 hartrees
 Guess from superposition of atomic densities
 Warning:  Energy on first SCF cycle will be non-variational
 SAD guess density has 104.000000 electrons

 -----------------------------------------------------------------------
  General SCF calculation program by
  Eric Jon Sundstrom, Paul Horn, Yuezhi Mao, Dmitri Zuev, Alec White,
  David Stuck, Shaama M.S., Shane Yost, Joonho Lee, David Small,
  Daniel Levine, Susi Lehtola, Hugh Burton, Evgeny Epifanovsky,
  Bang C. Huynh
 -----------------------------------------------------------------------
 Hartree-Fock
 A restricted SCF calculation will be
 performed using DIIS
 SCF converges when DIIS error is below 1.0e-06
 ---------------------------------------
  Cycle       Energy         DIIS error
 ---------------------------------------
    1   -1186.0401433304      2.39e-02  
    2   -1180.6084317891      1.58e-03  
    3   -1180.7345397016      6.43e-04  
    4   -1180.7501220532      3.42e-04  
    5   -1180.7555540186      5.97e-05  
    6   -1180.7558073966      2.49e-05  
    7   -1180.7558687814      9.04e-06  
    8   -1180.7558825205      4.40e-06  
    9   -1180.7558855674      1.45e-06  
   10   -1180.7558860192      5.12e-07  Convergence criterion met
 ---------------------------------------
 SCF time:   CPU 568.74s  wall 572.00s 

************** Final PCM Free Energy Summary **************
 G_electrostatic  =      -0.00954237 hartree =      -5.98792941 kcal/mol
 G_cavitation     =       0.00000000 hartree =       0.00000000 kcal/mol
 G_dispersion     =       0.00000000 hartree =       0.00000000 kcal/mol
 G_repulsion      =       0.00000000 hartree =       0.00000000 kcal/mol
 --------------------------------------------------
 Non-electrostatic Free Energy =       0.00000000 hartree =       0.00000000 kcal/mol
 Total                         =      -0.00954237 hartree =      -5.98792941 kcal/mol
 --------------------------------------------------
 SCF Energy (H0 + V/2)                       =   -1180.75588602 
 Solute Internal Energy (H0)                 =   -1180.74634365 
 Total Free Energy (H0 + V/2 + non-elec)     =   -1180.75588602 hartree
                                             = -740935.50141606 kcal/mol
***********************************************************

 SCF   energy in the final basis set =    -1180.7558860192
 Total energy in the final basis set =    -1180.7558860192


 --------------------------------------------------------------
  Generalized many-body perturbation theory program
  by Joonho Lee, Fazle Rob, Xintian Feng, Evgeny Epifanovsky

 No regularization used 
 (reg. param. = 0.0000e+00)
  (P|Q)^-1/2 Time:  CPU 1.91 s  wall 1.92 s

 In RI-MP2 calculation: 
 # of frozen core orbitals: 20

 Components of the RIMP2 correlation energy:
        aaaa    correlation energy =        -0.2512550517 a.u.
        abab    correlation energy =        -1.5028704203 a.u.
        bbbb    correlation energy =        -0.2512550517 a.u.
        non-Brillouin singles      =        -0.0000000000 a.u.
        total same-spin energy     =        -0.5025101035 a.u.
        total opposite-spin energy =        -1.5028704203 a.u.

 Total  RIMP2   correlation energy =        -2.0053805238 a.u.
        RIMP2         total energy =     -1182.7612665430 a.u.

 RI-MP2 Energy Time:  CPU 79.76 s  wall 80.17 s
 
 --------------------------------------------------------------
 
                    Orbital Energies (a.u.)
 --------------------------------------------------------------
 
 Alpha MOs
 -- Occupied --
-91.9840 -91.9452 -11.2864 -11.2656 -11.2591 -11.2576 -11.2501 -11.2433
-11.2336 -11.2324 -11.2282 -11.2224  -8.9838  -8.9499  -6.6647  -6.6642
 -6.6635  -6.6312  -6.6302  -6.6289  -1.2012  -1.1528  -1.0598  -1.0309
 -1.0008  -0.9628  -0.9148  -0.8998  -0.8174  -0.7619  -0.7360  -0.7035
 -0.6553  -0.6430  -0.6102  -0.5926  -0.5826  -0.5684  -0.5654  -0.5528
 -0.5457  -0.5341  -0.5194  -0.5037  -0.4884  -0.4810  -0.4676  -0.4462
 -0.3580  -0.3432  -0.3237  -0.2667
 -- Virtual --
  0.0995   0.1323   0.1405   0.1480   0.1580   0.1698   0.1789   0.1866
  0.1917   0.2026   0.2068   0.2169   0.2238   0.2310   0.2395   0.2407
  0.2538   0.2708   0.2805   0.3017   0.3177   0.3297   0.3511   0.3629
  0.3664   0.3785   0.3813   0.3919   0.4021   0.4100   0.4134   0.4201
  0.4399   0.4484   0.4645   0.4681   0.4784   0.4822   0.4829   0.4924
  0.4953   0.5119   0.5155   0.5293   0.5399   0.5468   0.5515   0.5614
  0.5653   0.5793   0.5852   0.5921   0.6016   0.6036   0.6126   0.6194
  0.6247   0.6301   0.6314   0.6330   0.6399   0.6498   0.6512   0.6596
  0.6674   0.6768   0.6844   0.6919   0.7049   0.7113   0.7207   0.7231
  0.7361   0.7476   0.7681   0.7729   0.7766   0.7941   0.8024   0.8263
  0.8337   0.8494   0.8633   0.8685   0.8879   0.8923   0.9012   0.9135
  0.9319   0.9390   0.9483   0.9600   0.9696   0.9851   1.0034   1.0159
  1.0234   1.0294   1.0405   1.0443   1.0485   1.0688   1.0723   1.0790
  1.0884   1.0948   1.1057   1.1311   1.1424   1.1458   1.1637   1.1714
  1.1836   1.1920   1.1982   1.2068   1.2109   1.2206   1.2342   1.2452
  1.2486   1.2596   1.2625   1.2787   1.2829   1.2887   1.2996   1.3062
  1.3194   1.3259   1.3452   1.3625   1.3743   1.3860   1.4043   1.4172
  1.4266   1.4309   1.4374   1.4556   1.4722   1.4778   1.4886   1.4978
  1.5053   1.5136   1.5202   1.5326   1.5393   1.5426   1.5472   1.5561
  1.5683   1.5812   1.5907   1.5941   1.6250   1.6311   1.6327   1.6456
  1.6523   1.6706   1.6732   1.6918   1.7023   1.7197   1.7333   1.7353
  1.7492   1.7551   1.7788   1.7993   1.8186   1.8344   1.8435   1.8550
  1.8895   1.9016   1.9109   1.9239   1.9377   1.9744   1.9845   2.0026
  2.0203   2.0402   2.0574   2.0614   2.0843   2.1142   2.1345   2.1603
  2.1899   2.1950   2.2139   2.2245   2.2329   2.2460   2.2716   2.2780
  2.2949   2.3180   2.3213   2.3824   2.4200   2.4499   2.4574   2.4704
  2.4971   2.5149   2.5319   2.5399   2.5650   2.5685   2.5909   2.6021
  2.6229   2.6489   2.6582   2.6715   2.6838   2.6926   2.7092   2.7315
  2.7445   2.7609   2.7629   2.7829   2.7854   2.7875   2.8073   2.8162
  2.8424   2.8444   2.8537   2.8631   2.8856   2.8977   2.9120   2.9317
  2.9395   2.9590   2.9741   2.9923   2.9989   3.0257   3.0327   3.0438
  3.0517   3.0704   3.0870   3.1098   3.1108   3.1192   3.1202   3.1375
  3.1461   3.1488   3.1580   3.1714   3.1789   3.1880   3.2026   3.2187
  3.2352   3.2432   3.2464   3.2551   3.2796   3.2863   3.2982   3.3138
  3.3189   3.3280   3.3351   3.3428   3.3491   3.3534   3.3599   3.3639
  3.3702   3.3819   3.3919   3.3948   3.4063   3.4161   3.4274   3.4296
  3.4403   3.4459   3.4577   3.4701   3.4760   3.4790   3.4957   3.5046
  3.5116   3.5211   3.5338   3.5398   3.5480   3.5599   3.5680   3.5890
  3.5947   3.5984   3.6150   3.6207   3.6290   3.6306   3.6423   3.6602
  3.6658   3.6696   3.6884   3.6969   3.7082   3.7202   3.7386   3.7448
  3.7514   3.7570   3.7688   3.7752   3.7857   3.7887   3.7966   3.8123
  3.8282   3.8390   3.8589   3.8664   3.8748   3.8844   3.8941   3.9170
  3.9322   3.9366   3.9584   3.9675   3.9708   3.9842   4.0052   4.0232
  4.0305   4.0450   4.0480   4.0614   4.0644   4.0742   4.0943   4.1034
  4.1227   4.1300   4.1490   4.1528   4.1670   4.1719   4.1835   4.2083
  4.2149   4.2211   4.2261   4.2419   4.2455   4.2605   4.2685   4.2861
  4.2978   4.3073   4.3175   4.3244   4.3452   4.3569   4.3657   4.3723
  4.3790   4.3937   4.4005   4.4071   4.4175   4.4335   4.4444   4.4564
  4.4648   4.4756   4.4818   4.4936   4.5013   4.5051   4.5367   4.5679
  4.5890   4.5994   4.6078   4.6228   4.6325   4.6472   4.6517   4.6829
  4.7013   4.7293   4.7628   4.7673   4.7816   4.8070   4.8225   4.8433
  4.8627   4.8683   4.8927   4.9107   4.9420   4.9628   4.9908   5.0070
  5.0182   5.0446   5.0950   5.1056   5.1183   5.1269   5.1625   5.1831
  5.1993   5.2315   5.2442   5.2617   5.2847   5.2966   5.3081   5.3279
  5.3521   5.3722   5.3790   5.4056   5.4118   5.4159   5.4356   5.4430
  5.4753   5.5181   5.5270   5.5391   5.5534   5.5639   5.5738   5.5994
  5.6123   5.6246   5.6284   5.6669   5.6973   5.7010   5.7084   5.7322
  5.7665   5.7912   5.8363   5.9861   6.0425   6.0840   6.1236   6.1701
  6.2084   6.2279   6.2385   6.2477   6.2711   6.2955   6.3072   6.3811
  6.4184   6.5557   9.4765  10.9592  12.0471  12.9638  13.2099  13.9712
 14.0852  14.1999  14.3687  14.8413
 --------------------------------------------------------------
 
          Ground-State Mulliken Net Atomic Charges

     Atom                 Charge (a.u.)
  ----------------------------------------
      1 C                    -0.076048
      2 C                    -0.323124
      3 C                    -0.032048
      4 H                     0.178000
      5 C                     0.123514
      6 S                    -0.174465
      7 C                    -0.289898
      8 H                     0.118156
      9 H                     0.111242
     10 H                     0.104463
     11 C                    -0.094759
     12 C                    -0.240898
     13 C                     0.020461
     14 H                     0.191886
     15 C                    -0.256744
     16 S                    -0.000953
     17 C                    -0.274025
     18 H                     0.100881
     19 H                     0.108241
     20 H                     0.108875
     21 H                     0.197411
     22 H                     0.111060
     23 H                     0.114880
     24 H                     0.173893
  ----------------------------------------
  Sum of atomic charges =     0.000000

 -----------------------------------------------------------------
                    Cartesian Multipole Moments
 -----------------------------------------------------------------
    Charge (ESU x 10^10)
                -0.0000
    Dipole Moment (Debye)
         X      -1.6679      Y      -0.1254      Z       3.0301
       Tot       3.4611
    Quadrupole Moments (Debye-Ang)
        XX     -91.6774     XY       4.7105     YY     -73.1811
        XZ       0.1390     YZ      -1.2229     ZZ     -85.6033
    Octopole Moments (Debye-Ang^2)
       XXX     -35.9983    XXY      45.6122    XYY      -6.7235
       YYY     118.5113    XXZ      -0.2967    XYZ       1.8047
       YYZ      -5.5548    XZZ     -14.0685    YZZ      51.1210
       ZZZ       5.4128
    Hexadecapole Moments (Debye-Ang^3)
      XXXX    -315.8880   XXXY     -86.0261   XXYY    -568.0508
      XYYY     -64.4396   YYYY   -2743.4555   XXXZ     110.6717
      XXYZ     -37.7271   XYYZ      19.3325   YYYZ    -103.2807
      XXZZ    -218.2833   XYZZ      -8.9061   YYZZ    -637.4855
      XZZZ     101.2000   YZZZ    -117.0701   ZZZZ    -962.2420
 -----------------------------------------------------------------
 Total job time:  654.04s(wall), 649.43s(cpu) 
 Sun Jul 10 03:35:41 2022

        *************************************************************
        *                                                           *
        *  Thank you very much for using Q-Chem.  Have a nice day.  *
        *                                                           *
        *************************************************************


remove work dirs ./qchem1245594.0 -- ./qchem1245594.-1
rm -rf ./qchem1245594
