You are running Q-Chem version: 5.4.0

#
# job setting
#
local host:  exp-1-41
current dir: /expanse/lustre/scratch/theleonzhang/temp_project/Hydrogenated_Rotation_Test
input file:  Methylthiophene_Phi_40_Theta_280_Methylthiophene_Hydrogenated.qcin
output file: 
nprocs     : 0
nthreads   : 1
#
# qchem installation setting
#
QC:          /cm/shared/apps/spack/cpu/opt/spack/linux-centos8-zen2/gcc-10.2.0/qchem-5.4-akfmr7b3t57bfs6qan3padb2wnb2i7cl
QCAUX:       /cm/shared/apps/spack/cpu/opt/spack/linux-centos8-zen2/gcc-10.2.0/qchem-5.4-akfmr7b3t57bfs6qan3padb2wnb2i7cl/qcaux
QCPROG:      /cm/shared/apps/spack/cpu/opt/spack/linux-centos8-zen2/gcc-10.2.0/qchem-5.4-akfmr7b3t57bfs6qan3padb2wnb2i7cl/exe/qcprog.exe_s
QCPROG_S:    /cm/shared/apps/spack/cpu/opt/spack/linux-centos8-zen2/gcc-10.2.0/qchem-5.4-akfmr7b3t57bfs6qan3padb2wnb2i7cl/exe/qcprog.exe_s
PARALLEL:    -DSERIAL
QCMPI:       mpich
#
# qchem directory setting
#
qcrun:       qchem1159378
QCSCRATCH:   .
QCLOCALSCR:  
QCTMPDIR:    .
QCFILEPREF:  ./qchem1159378
QCSAVEDIR:   
workdirs:    ./qchem1159378
workdir0:    ./qchem1159378
partmpdirs =  
#
# parallel setting
#
QCRSH:           ssh
QCMPI:           mpich
QCMPIRUN:        /cm/shared/apps/spack/cpu/opt/spack/linux-centos8-zen2/gcc-10.2.0/qchem-5.4-akfmr7b3t57bfs6qan3padb2wnb2i7cl/bin/mpi/mpirun_qchem
QCMACHINEFILE:   ./qchem1159378/hostfile

#
# env setting
#
exported envs:   QC QCAUX QCSCRATCH QCRUNNAME QCFILEPREF QCPROG QCPROG_S GUIFILE

Running Job 1 of 1 Methylthiophene_Phi_40_Theta_280_Methylthiophene_Hydrogenated.qcin
qchem Methylthiophene_Phi_40_Theta_280_Methylthiophene_Hydrogenated.qcin_1159378.0 ./qchem1159378/ 0
/cm/shared/apps/spack/cpu/opt/spack/linux-centos8-zen2/gcc-10.2.0/qchem-5.4-akfmr7b3t57bfs6qan3padb2wnb2i7cl/exe/qcprog.exe_s Methylthiophene_Phi_40_Theta_280_Methylthiophene_Hydrogenated.qcin_1159378.0 ./qchem1159378/
                  Welcome to Q-Chem
     A Quantum Leap Into The Future Of Chemistry


 Q-Chem 5.4, Q-Chem, Inc., Pleasanton, CA (2021)

 License issued to: University of California, San Diego (site)

 E. Epifanovsky,  A. T. B. Gilbert,  Xintian Feng,  Joonho Lee,  Yuezhi Mao,  
 N. Mardirossian,  P. Pokhilko,  A. White,  M. Wormit,  M. P. Coons,  
 A. L. Dempwolff,  Zhengting Gan,  D. Hait,  P. R. Horn,  L. D. Jacobson,  
 I. Kaliman,  J. Kussmann,  A. W. Lange,  Ka Un Lao,  D. S. Levine,  Jie Liu,  
 S. C. McKenzie,  A. F. Morrison,  K. Nanda,  F. Plasser,  D. R. Rehn,  
 M. L. Vidal,  Zhi-Qiang You,  Ying Zhu,  B. Alam,  B. Albrecht,  
 A. Aldossary,  E. Alguire,  J. H. Andersen,  D. Barton,  K. Begam,  A. Behn,  
 Y. A. Bernard,  E. J. Berquist,  H. Burton,  A. Carreras,  K. Carter-Fenk,  
 R. Chakraborty,  A. D. Chien,  K. D. Closser,  V. Cofer-Shabica,  
 S. Dasgupta,  Jia Deng,  M. de Wergifosse,  M. Diedenhofen,  Hainam Do,  
 S. Ehlert,  Po-Tung Fang,  S. Fatehi,  Qingguo Feng,  J. Gayvert,  
 Qinghui Ge,  G. Gidofalvi,  M. Goldey,  J. Gomes,  C. Gonzalez-Espinoza,  
 S. Gulania,  A. Gunina,  M. W. D. Hanson-Heine,  P. H. P. Harbach,  
 A. W. Hauser,  M. F. Herbst,  M. Hernandez Vera,  M. Hodecker,  
 Z. C. Holden,  S. Houck,  Xunkun Huang,  Kerwin Hui,  B. C. Huynh,  
 M. Ivanov,  Hyunjun Ji,  Hanjie Jiang,  B. Kaduk,  S. Kaehler,  
 K. Khistyaev,  Jaehoon Kim,  P. Klunzinger,  Z. Koczor-Benda,  
 Joong Hoon Koh,  D. Kosenkov,  L. Koulias,  T. Kowalczyk,  C. M. Krauter,  
 K. Kue,  A. Kunitsa,  T. Kus,  A. Landau,  K. V. Lawler,  D. Lefrancois,  
 S. Lehtola,  Rain Li,  Yi-Pei Li,  Jiashu Liang,  M. Liebenthal,  
 Hung-Hsuan Lin,  You-Sheng Lin,  Fenglai Liu,  Kuan-Yu Liu,  
 M. Loipersberger,  A. Luenser,  A. Manjanath,  P. Manohar,  E. Mansoor,  
 S. F. Manzer,  Shan-Ping Mao,  A. V. Marenich,  T. Markovich,  S. Mason,  
 S. A. Maurer,  P. F. McLaughlin,  M. F. S. J. Menger,  J.-M. Mewes,  
 S. A. Mewes,  P. Morgante,  J. W. Mullinax,  T. S. Nguyen-Beck,  
 K. J. Oosterbaan,  G. Paran,  Alexander C. Paul,  Suranjan K. Paul,  
 F. Pavosevic,  Zheng Pei,  S. Prager,  E. I. Proynov,  E. Ramos,  B. Rana,  
 A. E. Rask,  A. Rettig,  R. M. Richard,  F. Rob,  E. Rossomme,  T. Scheele,  
 M. Scheurer,  M. Schneider,  N. Sergueev,  S. M. Sharada,  W. Skomorowski,  
 D. W. Small,  C. J. Stein,  Yu-Chuan Su,  E. J. Sundstrom,  Zhen Tao,  
 J. Thirman,  T. Tsuchimochi,  N. M. Tubman,  S. P. Veccham,  O. Vydrov,  
 J. Wenzel,  J. Witte,  A. Yamada,  Kun Yao,  S. Yeganeh,  S. R. Yost,  
 A. Zech,  Igor Ying Zhang,  Xing Zhang,  Yu Zhang,  D. Zuev,  
 A. Aspuru-Guzik,  A. T. Bell,  N. A. Besley,  K. B. Bravaya,  B. R. Brooks,  
 D. Casanova,  Jeng-Da Chai,  S. Coriani,  C. J. Cramer,  
 A. E. DePrince, III,  R. A. DiStasio Jr.,  A. Dreuw,  B. D. Dunietz,  
 T. R. Furlani,  W. A. Goddard III,  S. Grimme,  S. Hammes-Schiffer,  
 T. Head-Gordon,  W. J. Hehre,  Chao-Ping Hsu,  T.-C. Jagau,  Yousung Jung,  
 A. Klamt,  Jing Kong,  D. S. Lambrecht,  WanZhen Liang,  N. J. Mayhall,  
 C. W. McCurdy,  J. B. Neaton,  C. Ochsenfeld,  J. A. Parkhill,  R. Peverati,  
 V. A. Rassolov,  Yihan Shao,  L. V. Slipchenko,  T. Stauch,  R. P. Steele,  
 J. E. Subotnik,  A. J. W. Thom,  A. Tkatchenko,  D. G. Truhlar,  
 T. Van Voorhis,  T. A. Wesolowski,  K. B. Whaley,  H. L. Woodcock III,  
 P. M. Zimmerman,  S. Faraji,  P. M. W. Gill,  M. Head-Gordon,  
 J. M. Herbert,  A. I. Krylov

 Contributors to earlier versions of Q-Chem not listed above: 
 R. D. Adamson,  B. Austin,  R. Baer,  J. Baker,  G. J. O. Beran,  
 K. Brandhorst,  S. T. Brown,  E. F. C. Byrd,  A. K. Chakraborty,  
 G. K. L. Chan,  Chun-Min Chang,  Yunqing Chen,  C.-L. Cheng,  
 Siu Hung Chien,  D. M. Chipman,  D. L. Crittenden,  H. Dachsel,  
 R. J. Doerksen,  A. D. Dutoi,  R. G. Edgar,  J. Fosso-Tande,  
 L. Fusti-Molnar,  D. Ghosh,  A. Ghysels,  A. Golubeva-Zadorozhnaya,  
 J. Gonthier,  M. S. Gordon,  S. R. Gwaltney,  G. Hawkins,  J. E. Herr,  
 A. Heyden,  S. Hirata,  E. G. Hohenstein,  G. Kedziora,  F. J. Keil,  
 C. Kelley,  Jihan Kim,  R. A. King,  R. Z. Khaliullin,  P. P. Korambath,  
 W. Kurlancheek,  A. Laurent,  A. M. Lee,  M. S. Lee,  S. V. Levchenko,  
 Ching Yeh Lin,  D. Liotard,  E. Livshits,  R. C. Lochan,  I. Lotan,  
 L. A. Martinez-Martinez,  P. E. Maslen,  N. Nair,  D. P. O'Neill,  
 D. Neuhauser,  E. Neuscamman,  C. M. Oana,  R. Olivares-Amaya,  R. Olson,  
 T. M. Perrine,  B. Peters,  P. A. Pieniazek,  A. Prociuk,  Y. M. Rhee,  
 J. Ritchie,  M. A. Rohrdanz,  E. Rosta,  N. J. Russ,  H. F. Schaefer III,  
 M. W. Schmidt,  N. E. Schultz,  S. Sharma,  N. Shenvi,  C. D. Sherrill,  
 A. C. Simmonett,  A. Sodt,  T. Stein,  D. Stuck,  K. S. Thanthiriwatte,  
 V. Vanovschi,  L. Vogt,  Tao Wang,  A. Warshel,  M. A. Watson,  
 C. F. Williams,  Q. Wu,  X. Xu,  Jun Yang,  W. Zhang,  Yan Zhao

 Please cite Q-Chem as follows:
 Y. Shao et al., Mol. Phys. 113, 184-215 (2015)
 DOI: 10.1080/00268976.2014.952696

 Q-Chem 5.4.0 for Intel X86 EM64T Linux

 Parts of Q-Chem use Armadillo 9.800.1 (Horizon Scraper).
 http://arma.sourceforge.net/

 Q-Chem begins on Sun Jul 10 04:28:41 2022  

 Host: 
0

     Scratch files written to ./qchem1159378//
 May1621 |scratch|qcdevops|jenkins|workspace|build_RNUM    
 Processing $rem in /cm/shared/apps/spack/cpu/opt/spack/linux-centos8-zen2/gcc-10.2.0/qchem-5.4-akfmr7b3t57bfs6qan3padb2wnb2i7cl/config/preferences:
 Processing $rem in /home/theleonzhang/.qchemrc:
 Symmetry turned off for PCM/SM12/SMD calculation
 Core orbitals will be frozen

 Checking the input file for inconsistencies... 	...done.

--------------------------------------------------------------
User input:
--------------------------------------------------------------
$molecule
0 1
C	0.763228	-3.866725	0.135301
C	-0.603311	-3.703963	-0.106073
C	-1.050423	-2.357056	-0.185286
H	-1.283188	-4.561092	-0.225783
C	-0.000000	-1.440664	-0.000000
S	1.521021	-2.286957	0.268187
C	-2.483507	-1.978743	-0.438209
H	-3.118798	-2.878678	-0.550153
H	-2.593381	-1.376015	-1.363906
H	-2.903516	-1.375728	0.393798
C	0.000000	0.000000	0.000000
C	0.555137	0.661535	1.099446
C	1.444710	1.721658	0.776721
H	0.318072	0.379023	2.136088
C	1.586563	1.890676	-0.612546
S	0.605781	0.721904	-1.486809
C	2.143920	2.554907	1.814609
H	1.870325	2.228851	2.836676
H	1.880882	3.629742	1.726239
H	3.248098	2.482476	1.726228
H	2.196723	2.617806	-1.161575
H	1.258111	-4.392713	-0.688674
H	0.946272	-4.392347	1.079084
H	-0.187654	-1.440391	1.063572
$end

$rem
JOBTYPE		SP
EXCHANGE	HF
CORRELATION	pRIMP2
BASIS		cc-pvtz
METHOD		rimp2
AUX_BASIS	rimp2-cc-pvtz
SOLVENT_METHOD	PCM
PURECART	11111
SYMMETRY	false
MEM_TOTAL	110000
SCF_CONVERGENCE = 6
THRESH=10
$end



$solvent
dielectric 4.90
$end
--------------------------------------------------------------
 ----------------------------------------------------------------
             Standard Nuclear Orientation (Angstroms)
    I     Atom           X                Y                Z
 ----------------------------------------------------------------
    1      C       0.7632280000    -3.8667250000     0.1353010000
    2      C      -0.6033110000    -3.7039630000    -0.1060730000
    3      C      -1.0504230000    -2.3570560000    -0.1852860000
    4      H      -1.2831880000    -4.5610920000    -0.2257830000
    5      C       0.0000000000    -1.4406640000     0.0000000000
    6      S       1.5210210000    -2.2869570000     0.2681870000
    7      C      -2.4835070000    -1.9787430000    -0.4382090000
    8      H      -3.1187980000    -2.8786780000    -0.5501530000
    9      H      -2.5933810000    -1.3760150000    -1.3639060000
   10      H      -2.9035160000    -1.3757280000     0.3937980000
   11      C       0.0000000000     0.0000000000     0.0000000000
   12      C       0.5551370000     0.6615350000     1.0994460000
   13      C       1.4447100000     1.7216580000     0.7767210000
   14      H       0.3180720000     0.3790230000     2.1360880000
   15      C       1.5865630000     1.8906760000    -0.6125460000
   16      S       0.6057810000     0.7219040000    -1.4868090000
   17      C       2.1439200000     2.5549070000     1.8146090000
   18      H       1.8703250000     2.2288510000     2.8366760000
   19      H       1.8808820000     3.6297420000     1.7262390000
   20      H       3.2480980000     2.4824760000     1.7262280000
   21      H       2.1967230000     2.6178060000    -1.1615750000
   22      H       1.2581110000    -4.3927130000    -0.6886740000
   23      H       0.9462720000    -4.3923470000     1.0790840000
   24      H      -0.1876540000    -1.4403910000     1.0635720000
 ----------------------------------------------------------------
 Nuclear Repulsion Energy =         884.28395622 hartrees
 There are       52 alpha and       52 beta electrons

 Q-Chem warning in module forms1/BasisType.C, line 2236:

 You are not using the predefined 5D/6D in this basis set.

 Requested basis set is cc-pVTZ
 There are 196 shells and 536 basis functions

 Total QAlloc Memory Limit 110000 MB
 Mega-Array Size       188 MB
 MEM_STATIC part       192 MB
 Discretize the solute cavity surface with Lebedev spheres
	Using 110 Lebedev grid points for each H atom
	Using 194 Lebedev grid points for other atoms
	Atomic van der Waals radii will be scaled by 1.20
 Remove points where switching function is < 1.0e-08
 Keep 1607 surface tesserae and discard 2041 interior tesserae
 Molecular Surface Area = 236.063 Angst**2
 Requested basis set is rimp2-cc-pVTZ
 There are 414 shells and 1414 basis functions
 A cutoff of  1.0D-10 yielded  14100 shell pairs
 There are    102228 function pairs (    131173 Cartesian)
 Smallest overlap matrix eigenvalue = 7.09E-05

 Scale SEOQF with 1.000000e-01/1.000000e-01/1.000000e-01

 Standard Electronic Orientation quadrupole field applied
 Nucleus-field energy     =     0.0000000340 hartrees
 Guess from superposition of atomic densities
 Warning:  Energy on first SCF cycle will be non-variational
 SAD guess density has 104.000000 electrons

 -----------------------------------------------------------------------
  General SCF calculation program by
  Eric Jon Sundstrom, Paul Horn, Yuezhi Mao, Dmitri Zuev, Alec White,
  David Stuck, Shaama M.S., Shane Yost, Joonho Lee, David Small,
  Daniel Levine, Susi Lehtola, Hugh Burton, Evgeny Epifanovsky,
  Bang C. Huynh
 -----------------------------------------------------------------------
 Hartree-Fock
 A restricted SCF calculation will be
 performed using DIIS
 SCF converges when DIIS error is below 1.0e-06
 ---------------------------------------
  Cycle       Energy         DIIS error
 ---------------------------------------
    1   -1186.0663349866      2.40e-02  
    2   -1180.5946265396      1.53e-03  
    3   -1180.7185736061      5.32e-04  
    4   -1180.7312129622      2.87e-04  
    5   -1180.7349475755      5.80e-05  
    6   -1180.7351854165      2.43e-05  
    7   -1180.7352488916      1.01e-05  
    8   -1180.7352666053      4.82e-06  
    9   -1180.7352712044      1.85e-06  
   10   -1180.7352719708      6.22e-07  Convergence criterion met
 ---------------------------------------
 SCF time:   CPU 571.72s  wall 582.00s 

************** Final PCM Free Energy Summary **************
 G_electrostatic  =      -0.00960527 hartree =      -6.02739715 kcal/mol
 G_cavitation     =       0.00000000 hartree =       0.00000000 kcal/mol
 G_dispersion     =       0.00000000 hartree =       0.00000000 kcal/mol
 G_repulsion      =       0.00000000 hartree =       0.00000000 kcal/mol
 --------------------------------------------------
 Non-electrostatic Free Energy =       0.00000000 hartree =       0.00000000 kcal/mol
 Total                         =      -0.00960527 hartree =      -6.02739715 kcal/mol
 --------------------------------------------------
 SCF Energy (H0 + V/2)                       =   -1180.73527197 
 Solute Internal Energy (H0)                 =   -1180.72566670 
 Total Free Energy (H0 + V/2 + non-elec)     =   -1180.73527197 hartree
                                             = -740922.56590541 kcal/mol
***********************************************************

 SCF   energy in the final basis set =    -1180.7352719708
 Total energy in the final basis set =    -1180.7352719708


 --------------------------------------------------------------
  Generalized many-body perturbation theory program
  by Joonho Lee, Fazle Rob, Xintian Feng, Evgeny Epifanovsky

 No regularization used 
 (reg. param. = 0.0000e+00)
  (P|Q)^-1/2 Time:  CPU 1.90 s  wall 1.90 s

 In RI-MP2 calculation: 
 # of frozen core orbitals: 20

 Components of the RIMP2 correlation energy:
        aaaa    correlation energy =        -0.2524516010 a.u.
        abab    correlation energy =        -1.5068690047 a.u.
        bbbb    correlation energy =        -0.2524516010 a.u.
        non-Brillouin singles      =        -0.0000000000 a.u.
        total same-spin energy     =        -0.5049032020 a.u.
        total opposite-spin energy =        -1.5068690047 a.u.

 Total  RIMP2   correlation energy =        -2.0117722067 a.u.
        RIMP2         total energy =     -1182.7470441775 a.u.

 RI-MP2 Energy Time:  CPU 80.03 s  wall 80.25 s
 
 --------------------------------------------------------------
 
                    Orbital Energies (a.u.)
 --------------------------------------------------------------
 
 Alpha MOs
 -- Occupied --
-91.9778 -91.9388 -11.2754 -11.2677 -11.2577 -11.2523 -11.2516 -11.2512
-11.2387 -11.2302 -11.2297 -11.2151  -8.9783  -8.9436  -6.6592  -6.6585
 -6.6580  -6.6249  -6.6239  -6.6226  -1.1995  -1.1539  -1.0574  -1.0252
 -1.0059  -0.9581  -0.9106  -0.9016  -0.8128  -0.7608  -0.7387  -0.6976
 -0.6584  -0.6387  -0.6111  -0.5892  -0.5805  -0.5725  -0.5651  -0.5495
 -0.5399  -0.5326  -0.5088  -0.5070  -0.4921  -0.4698  -0.4579  -0.4474
 -0.3577  -0.3365  -0.3129  -0.2792
 -- Virtual --
  0.0726   0.1336   0.1408   0.1529   0.1587   0.1702   0.1763   0.1809
  0.1877   0.1996   0.2063   0.2141   0.2273   0.2324   0.2334   0.2453
  0.2476   0.2594   0.2676   0.3011   0.3086   0.3232   0.3399   0.3506
  0.3621   0.3764   0.3788   0.3862   0.3982   0.4032   0.4103   0.4234
  0.4293   0.4385   0.4479   0.4561   0.4688   0.4745   0.4797   0.4849
  0.4952   0.5094   0.5108   0.5224   0.5321   0.5374   0.5522   0.5605
  0.5645   0.5718   0.5894   0.5954   0.6052   0.6095   0.6158   0.6233
  0.6239   0.6283   0.6324   0.6400   0.6412   0.6471   0.6546   0.6559
  0.6645   0.6713   0.6807   0.6862   0.6937   0.6949   0.7179   0.7319
  0.7404   0.7454   0.7535   0.7734   0.7802   0.7934   0.8064   0.8187
  0.8278   0.8356   0.8484   0.8549   0.8632   0.9071   0.9094   0.9168
  0.9258   0.9396   0.9452   0.9677   0.9715   0.9879   0.9897   1.0132
  1.0192   1.0293   1.0411   1.0532   1.0564   1.0640   1.0765   1.0829
  1.0913   1.1001   1.1129   1.1318   1.1402   1.1504   1.1572   1.1682
  1.1774   1.1792   1.1852   1.2086   1.2176   1.2222   1.2412   1.2491
  1.2516   1.2646   1.2679   1.2790   1.2831   1.2877   1.2952   1.3083
  1.3155   1.3361   1.3462   1.3643   1.3774   1.3916   1.4071   1.4130
  1.4167   1.4310   1.4456   1.4526   1.4664   1.4813   1.4872   1.4976
  1.5017   1.5154   1.5220   1.5354   1.5412   1.5455   1.5523   1.5547
  1.5658   1.5751   1.5836   1.5954   1.5999   1.6113   1.6232   1.6322
  1.6398   1.6601   1.6710   1.6817   1.6978   1.7106   1.7229   1.7368
  1.7498   1.7583   1.7703   1.7923   1.8006   1.8220   1.8453   1.8581
  1.8702   1.9075   1.9402   1.9588   1.9612   1.9713   1.9935   2.0009
  2.0260   2.0310   2.0467   2.0700   2.0846   2.1015   2.1185   2.1521
  2.1765   2.1942   2.2002   2.2120   2.2281   2.2427   2.2585   2.2743
  2.2904   2.3369   2.3415   2.3640   2.4009   2.4362   2.4619   2.4717
  2.5002   2.5174   2.5295   2.5440   2.5726   2.5924   2.6068   2.6131
  2.6320   2.6480   2.6593   2.6715   2.6766   2.6928   2.7039   2.7343
  2.7409   2.7546   2.7735   2.7802   2.7862   2.7958   2.8047   2.8266
  2.8438   2.8492   2.8559   2.8757   2.8922   2.9064   2.9209   2.9407
  2.9457   2.9553   2.9822   2.9896   3.0036   3.0146   3.0301   3.0420
  3.0473   3.0575   3.0878   3.1070   3.1115   3.1163   3.1373   3.1454
  3.1556   3.1583   3.1679   3.1745   3.1879   3.1941   3.2050   3.2195
  3.2314   3.2418   3.2470   3.2549   3.2657   3.2811   3.2921   3.3078
  3.3109   3.3275   3.3299   3.3405   3.3411   3.3520   3.3606   3.3655
  3.3705   3.3752   3.3847   3.3944   3.4048   3.4105   3.4196   3.4303
  3.4423   3.4489   3.4539   3.4614   3.4904   3.4944   3.5060   3.5085
  3.5236   3.5274   3.5400   3.5452   3.5508   3.5604   3.5736   3.5777
  3.5893   3.6134   3.6295   3.6316   3.6386   3.6491   3.6517   3.6697
  3.6829   3.6866   3.6998   3.7130   3.7141   3.7276   3.7341   3.7408
  3.7497   3.7573   3.7620   3.7817   3.7870   3.8041   3.8081   3.8198
  3.8277   3.8493   3.8529   3.8665   3.8785   3.8895   3.8960   3.9211
  3.9324   3.9503   3.9586   3.9668   3.9764   3.9801   4.0106   4.0154
  4.0175   4.0343   4.0490   4.0624   4.0675   4.0844   4.1061   4.1088
  4.1175   4.1341   4.1382   4.1622   4.1643   4.1765   4.1900   4.1968
  4.2099   4.2221   4.2333   4.2502   4.2575   4.2639   4.2685   4.2821
  4.2914   4.2957   4.3217   4.3332   4.3426   4.3546   4.3623   4.3682
  4.3764   4.3909   4.4002   4.4040   4.4135   4.4240   4.4339   4.4395
  4.4600   4.4644   4.4786   4.4873   4.5038   4.5212   4.5305   4.5561
  4.5737   4.6005   4.6134   4.6230   4.6323   4.6567   4.6710   4.6773
  4.6873   4.7237   4.7339   4.7576   4.7713   4.8185   4.8369   4.8486
  4.8706   4.8812   4.8950   4.9042   4.9355   4.9540   4.9664   4.9720
  5.0215   5.0507   5.0880   5.1098   5.1205   5.1242   5.1459   5.1612
  5.1692   5.2144   5.2215   5.2684   5.2842   5.2980   5.3121   5.3152
  5.3346   5.3620   5.3867   5.3990   5.4074   5.4252   5.4417   5.4565
  5.4880   5.5082   5.5278   5.5420   5.5533   5.5608   5.5668   5.5879
  5.6263   5.6352   5.6563   5.6763   5.6844   5.7111   5.7135   5.7234
  5.7592   5.7904   5.8194   5.9621   5.9997   6.0283   6.1093   6.1266
  6.2040   6.2233   6.2236   6.2294   6.2439   6.2795   6.2865   6.3207
  6.3855   6.4266   9.4825  10.5496  12.3608  12.8491  13.1547  13.8853
 14.1158  14.2337  14.2606  14.6053
 --------------------------------------------------------------
 
          Ground-State Mulliken Net Atomic Charges

     Atom                 Charge (a.u.)
  ----------------------------------------
      1 C                    -0.075975
      2 C                    -0.326638
      3 C                    -0.043611
      4 H                     0.174084
      5 C                     0.060868
      6 S                    -0.176534
      7 C                    -0.272909
      8 H                     0.112759
      9 H                     0.105838
     10 H                     0.101865
     11 C                    -0.065138
     12 C                    -0.249934
     13 C                     0.043207
     14 H                     0.182105
     15 C                    -0.212351
     16 S                     0.008358
     17 C                    -0.267150
     18 H                     0.102251
     19 H                     0.107467
     20 H                     0.108246
     21 H                     0.198652
     22 H                     0.111033
     23 H                     0.107456
     24 H                     0.166053
  ----------------------------------------
  Sum of atomic charges =     0.000000

 -----------------------------------------------------------------
                    Cartesian Multipole Moments
 -----------------------------------------------------------------
    Charge (ESU x 10^10)
                -0.0000
    Dipole Moment (Debye)
         X      -0.8997      Y       0.8363      Z       1.9632
       Tot       2.3158
    Quadrupole Moments (Debye-Ang)
        XX     -87.0388     XY       9.4615     YY     -78.7952
        XZ       0.9529     YZ       0.1035     ZZ     -85.6965
    Octopole Moments (Debye-Ang^2)
       XXX    -132.5016    XXY      72.7782    XYY     -29.1019
       YYY     161.4237    XXZ      -4.1799    XYZ      -3.1074
       YYZ      -0.6205    XZZ     -38.3638    YZZ      70.2837
       ZZZ       5.2689
    Hexadecapole Moments (Debye-Ang^3)
      XXXX   -1084.9646   XXXY    -187.7598   XXYY    -586.0212
      XYYY    -213.2528   YYYY   -2474.0286   XXXZ    -108.4349
      XXYZ     -23.6464   XYYZ     -36.6319   YYYZ     -83.3481
      XXZZ    -275.5935   XYZZ     -69.5449   YYZZ    -543.5257
      XZZZ    -112.3434   YZZZ     -73.2538   ZZZZ    -553.6087
 -----------------------------------------------------------------
 Total job time:  664.61s(wall), 652.67s(cpu) 
 Sun Jul 10 04:39:45 2022

        *************************************************************
        *                                                           *
        *  Thank you very much for using Q-Chem.  Have a nice day.  *
        *                                                           *
        *************************************************************


remove work dirs ./qchem1159378.0 -- ./qchem1159378.-1
rm -rf ./qchem1159378
