You are running Q-Chem version: 5.4.0

#
# job setting
#
local host:  exp-1-46
current dir: /expanse/lustre/scratch/theleonzhang/temp_project/Hydrogenated_Rotation_Test
input file:  Methylthiophene_Phi_20_Theta_300_Methylthiophene_Hydrogenated.qcin
output file: 
nprocs     : 0
nthreads   : 1
#
# qchem installation setting
#
QC:          /cm/shared/apps/spack/cpu/opt/spack/linux-centos8-zen2/gcc-10.2.0/qchem-5.4-akfmr7b3t57bfs6qan3padb2wnb2i7cl
QCAUX:       /cm/shared/apps/spack/cpu/opt/spack/linux-centos8-zen2/gcc-10.2.0/qchem-5.4-akfmr7b3t57bfs6qan3padb2wnb2i7cl/qcaux
QCPROG:      /cm/shared/apps/spack/cpu/opt/spack/linux-centos8-zen2/gcc-10.2.0/qchem-5.4-akfmr7b3t57bfs6qan3padb2wnb2i7cl/exe/qcprog.exe_s
QCPROG_S:    /cm/shared/apps/spack/cpu/opt/spack/linux-centos8-zen2/gcc-10.2.0/qchem-5.4-akfmr7b3t57bfs6qan3padb2wnb2i7cl/exe/qcprog.exe_s
PARALLEL:    -DSERIAL
QCMPI:       mpich
#
# qchem directory setting
#
qcrun:       qchem4063083
QCSCRATCH:   .
QCLOCALSCR:  
QCTMPDIR:    .
QCFILEPREF:  ./qchem4063083
QCSAVEDIR:   
workdirs:    ./qchem4063083
workdir0:    ./qchem4063083
partmpdirs =  
#
# parallel setting
#
QCRSH:           ssh
QCMPI:           mpich
QCMPIRUN:        /cm/shared/apps/spack/cpu/opt/spack/linux-centos8-zen2/gcc-10.2.0/qchem-5.4-akfmr7b3t57bfs6qan3padb2wnb2i7cl/bin/mpi/mpirun_qchem
QCMACHINEFILE:   ./qchem4063083/hostfile

#
# env setting
#
exported envs:   QC QCAUX QCSCRATCH QCRUNNAME QCFILEPREF QCPROG QCPROG_S GUIFILE

Running Job 1 of 1 Methylthiophene_Phi_20_Theta_300_Methylthiophene_Hydrogenated.qcin
qchem Methylthiophene_Phi_20_Theta_300_Methylthiophene_Hydrogenated.qcin_4063083.0 ./qchem4063083/ 0
/cm/shared/apps/spack/cpu/opt/spack/linux-centos8-zen2/gcc-10.2.0/qchem-5.4-akfmr7b3t57bfs6qan3padb2wnb2i7cl/exe/qcprog.exe_s Methylthiophene_Phi_20_Theta_300_Methylthiophene_Hydrogenated.qcin_4063083.0 ./qchem4063083/
                  Welcome to Q-Chem
     A Quantum Leap Into The Future Of Chemistry


 Q-Chem 5.4, Q-Chem, Inc., Pleasanton, CA (2021)

 License issued to: University of California, San Diego (site)

 E. Epifanovsky,  A. T. B. Gilbert,  Xintian Feng,  Joonho Lee,  Yuezhi Mao,  
 N. Mardirossian,  P. Pokhilko,  A. White,  M. Wormit,  M. P. Coons,  
 A. L. Dempwolff,  Zhengting Gan,  D. Hait,  P. R. Horn,  L. D. Jacobson,  
 I. Kaliman,  J. Kussmann,  A. W. Lange,  Ka Un Lao,  D. S. Levine,  Jie Liu,  
 S. C. McKenzie,  A. F. Morrison,  K. Nanda,  F. Plasser,  D. R. Rehn,  
 M. L. Vidal,  Zhi-Qiang You,  Ying Zhu,  B. Alam,  B. Albrecht,  
 A. Aldossary,  E. Alguire,  J. H. Andersen,  D. Barton,  K. Begam,  A. Behn,  
 Y. A. Bernard,  E. J. Berquist,  H. Burton,  A. Carreras,  K. Carter-Fenk,  
 R. Chakraborty,  A. D. Chien,  K. D. Closser,  V. Cofer-Shabica,  
 S. Dasgupta,  Jia Deng,  M. de Wergifosse,  M. Diedenhofen,  Hainam Do,  
 S. Ehlert,  Po-Tung Fang,  S. Fatehi,  Qingguo Feng,  J. Gayvert,  
 Qinghui Ge,  G. Gidofalvi,  M. Goldey,  J. Gomes,  C. Gonzalez-Espinoza,  
 S. Gulania,  A. Gunina,  M. W. D. Hanson-Heine,  P. H. P. Harbach,  
 A. W. Hauser,  M. F. Herbst,  M. Hernandez Vera,  M. Hodecker,  
 Z. C. Holden,  S. Houck,  Xunkun Huang,  Kerwin Hui,  B. C. Huynh,  
 M. Ivanov,  Hyunjun Ji,  Hanjie Jiang,  B. Kaduk,  S. Kaehler,  
 K. Khistyaev,  Jaehoon Kim,  P. Klunzinger,  Z. Koczor-Benda,  
 Joong Hoon Koh,  D. Kosenkov,  L. Koulias,  T. Kowalczyk,  C. M. Krauter,  
 K. Kue,  A. Kunitsa,  T. Kus,  A. Landau,  K. V. Lawler,  D. Lefrancois,  
 S. Lehtola,  Rain Li,  Yi-Pei Li,  Jiashu Liang,  M. Liebenthal,  
 Hung-Hsuan Lin,  You-Sheng Lin,  Fenglai Liu,  Kuan-Yu Liu,  
 M. Loipersberger,  A. Luenser,  A. Manjanath,  P. Manohar,  E. Mansoor,  
 S. F. Manzer,  Shan-Ping Mao,  A. V. Marenich,  T. Markovich,  S. Mason,  
 S. A. Maurer,  P. F. McLaughlin,  M. F. S. J. Menger,  J.-M. Mewes,  
 S. A. Mewes,  P. Morgante,  J. W. Mullinax,  T. S. Nguyen-Beck,  
 K. J. Oosterbaan,  G. Paran,  Alexander C. Paul,  Suranjan K. Paul,  
 F. Pavosevic,  Zheng Pei,  S. Prager,  E. I. Proynov,  E. Ramos,  B. Rana,  
 A. E. Rask,  A. Rettig,  R. M. Richard,  F. Rob,  E. Rossomme,  T. Scheele,  
 M. Scheurer,  M. Schneider,  N. Sergueev,  S. M. Sharada,  W. Skomorowski,  
 D. W. Small,  C. J. Stein,  Yu-Chuan Su,  E. J. Sundstrom,  Zhen Tao,  
 J. Thirman,  T. Tsuchimochi,  N. M. Tubman,  S. P. Veccham,  O. Vydrov,  
 J. Wenzel,  J. Witte,  A. Yamada,  Kun Yao,  S. Yeganeh,  S. R. Yost,  
 A. Zech,  Igor Ying Zhang,  Xing Zhang,  Yu Zhang,  D. Zuev,  
 A. Aspuru-Guzik,  A. T. Bell,  N. A. Besley,  K. B. Bravaya,  B. R. Brooks,  
 D. Casanova,  Jeng-Da Chai,  S. Coriani,  C. J. Cramer,  
 A. E. DePrince, III,  R. A. DiStasio Jr.,  A. Dreuw,  B. D. Dunietz,  
 T. R. Furlani,  W. A. Goddard III,  S. Grimme,  S. Hammes-Schiffer,  
 T. Head-Gordon,  W. J. Hehre,  Chao-Ping Hsu,  T.-C. Jagau,  Yousung Jung,  
 A. Klamt,  Jing Kong,  D. S. Lambrecht,  WanZhen Liang,  N. J. Mayhall,  
 C. W. McCurdy,  J. B. Neaton,  C. Ochsenfeld,  J. A. Parkhill,  R. Peverati,  
 V. A. Rassolov,  Yihan Shao,  L. V. Slipchenko,  T. Stauch,  R. P. Steele,  
 J. E. Subotnik,  A. J. W. Thom,  A. Tkatchenko,  D. G. Truhlar,  
 T. Van Voorhis,  T. A. Wesolowski,  K. B. Whaley,  H. L. Woodcock III,  
 P. M. Zimmerman,  S. Faraji,  P. M. W. Gill,  M. Head-Gordon,  
 J. M. Herbert,  A. I. Krylov

 Contributors to earlier versions of Q-Chem not listed above: 
 R. D. Adamson,  B. Austin,  R. Baer,  J. Baker,  G. J. O. Beran,  
 K. Brandhorst,  S. T. Brown,  E. F. C. Byrd,  A. K. Chakraborty,  
 G. K. L. Chan,  Chun-Min Chang,  Yunqing Chen,  C.-L. Cheng,  
 Siu Hung Chien,  D. M. Chipman,  D. L. Crittenden,  H. Dachsel,  
 R. J. Doerksen,  A. D. Dutoi,  R. G. Edgar,  J. Fosso-Tande,  
 L. Fusti-Molnar,  D. Ghosh,  A. Ghysels,  A. Golubeva-Zadorozhnaya,  
 J. Gonthier,  M. S. Gordon,  S. R. Gwaltney,  G. Hawkins,  J. E. Herr,  
 A. Heyden,  S. Hirata,  E. G. Hohenstein,  G. Kedziora,  F. J. Keil,  
 C. Kelley,  Jihan Kim,  R. A. King,  R. Z. Khaliullin,  P. P. Korambath,  
 W. Kurlancheek,  A. Laurent,  A. M. Lee,  M. S. Lee,  S. V. Levchenko,  
 Ching Yeh Lin,  D. Liotard,  E. Livshits,  R. C. Lochan,  I. Lotan,  
 L. A. Martinez-Martinez,  P. E. Maslen,  N. Nair,  D. P. O'Neill,  
 D. Neuhauser,  E. Neuscamman,  C. M. Oana,  R. Olivares-Amaya,  R. Olson,  
 T. M. Perrine,  B. Peters,  P. A. Pieniazek,  A. Prociuk,  Y. M. Rhee,  
 J. Ritchie,  M. A. Rohrdanz,  E. Rosta,  N. J. Russ,  H. F. Schaefer III,  
 M. W. Schmidt,  N. E. Schultz,  S. Sharma,  N. Shenvi,  C. D. Sherrill,  
 A. C. Simmonett,  A. Sodt,  T. Stein,  D. Stuck,  K. S. Thanthiriwatte,  
 V. Vanovschi,  L. Vogt,  Tao Wang,  A. Warshel,  M. A. Watson,  
 C. F. Williams,  Q. Wu,  X. Xu,  Jun Yang,  W. Zhang,  Yan Zhao

 Please cite Q-Chem as follows:
 Y. Shao et al., Mol. Phys. 113, 184-215 (2015)
 DOI: 10.1080/00268976.2014.952696

 Q-Chem 5.4.0 for Intel X86 EM64T Linux

 Parts of Q-Chem use Armadillo 9.800.1 (Horizon Scraper).
 http://arma.sourceforge.net/

 Q-Chem begins on Sun Jul 10 04:52:19 2022  

 Host: 
0

     Scratch files written to ./qchem4063083//
 May1621 |scratch|qcdevops|jenkins|workspace|build_RNUM    
 Processing $rem in /cm/shared/apps/spack/cpu/opt/spack/linux-centos8-zen2/gcc-10.2.0/qchem-5.4-akfmr7b3t57bfs6qan3padb2wnb2i7cl/config/preferences:
 Processing $rem in /home/theleonzhang/.qchemrc:
 Symmetry turned off for PCM/SM12/SMD calculation
 Core orbitals will be frozen

 Checking the input file for inconsistencies... 	...done.

--------------------------------------------------------------
User input:
--------------------------------------------------------------
$molecule
0 1
C	0.670924	-3.866725	0.388181
C	-0.530648	-3.703963	-0.306020
C	-0.923703	-2.357056	-0.533378
H	-1.128579	-4.561092	-0.651043
C	0.000000	-1.440664	0.000000
S	1.337567	-2.286957	0.772234
C	-2.183857	-1.978743	-1.261192
H	-2.742548	-2.878678	-1.583666
H	-1.970497	-1.376015	-2.168641
H	-2.863099	-1.375728	-0.623012
C	0.000000	0.000000	0.000000
C	0.295399	0.811508	1.099446
C	0.768742	2.111949	0.776721
H	0.169256	0.464952	2.136088
C	0.844232	2.319291	-0.612546
S	0.322342	0.885558	-1.486809
C	1.140796	3.134091	1.814609
H	0.995218	2.734123	2.836676
H	0.526006	4.054142	1.726239
H	2.203157	3.443680	1.726228
H	1.168902	3.211257	-1.161575
H	1.417779	-4.392713	-0.216843
H	0.520136	-4.392347	1.337652
H	-0.540100	-1.440391	0.935250
$end

$rem
JOBTYPE		SP
EXCHANGE	HF
CORRELATION	pRIMP2
BASIS		cc-pvtz
METHOD		rimp2
AUX_BASIS	rimp2-cc-pvtz
SOLVENT_METHOD	PCM
PURECART	11111
SYMMETRY	false
MEM_TOTAL	110000
SCF_CONVERGENCE = 6
THRESH=10
$end



$solvent
dielectric 4.90
$end
--------------------------------------------------------------
 ----------------------------------------------------------------
             Standard Nuclear Orientation (Angstroms)
    I     Atom           X                Y                Z
 ----------------------------------------------------------------
    1      C       0.6709240000    -3.8667250000     0.3881810000
    2      C      -0.5306480000    -3.7039630000    -0.3060200000
    3      C      -0.9237030000    -2.3570560000    -0.5333780000
    4      H      -1.1285790000    -4.5610920000    -0.6510430000
    5      C       0.0000000000    -1.4406640000     0.0000000000
    6      S       1.3375670000    -2.2869570000     0.7722340000
    7      C      -2.1838570000    -1.9787430000    -1.2611920000
    8      H      -2.7425480000    -2.8786780000    -1.5836660000
    9      H      -1.9704970000    -1.3760150000    -2.1686410000
   10      H      -2.8630990000    -1.3757280000    -0.6230120000
   11      C       0.0000000000     0.0000000000     0.0000000000
   12      C       0.2953990000     0.8115080000     1.0994460000
   13      C       0.7687420000     2.1119490000     0.7767210000
   14      H       0.1692560000     0.4649520000     2.1360880000
   15      C       0.8442320000     2.3192910000    -0.6125460000
   16      S       0.3223420000     0.8855580000    -1.4868090000
   17      C       1.1407960000     3.1340910000     1.8146090000
   18      H       0.9952180000     2.7341230000     2.8366760000
   19      H       0.5260060000     4.0541420000     1.7262390000
   20      H       2.2031570000     3.4436800000     1.7262280000
   21      H       1.1689020000     3.2112570000    -1.1615750000
   22      H       1.4177790000    -4.3927130000    -0.2168430000
   23      H       0.5201360000    -4.3923470000     1.3376520000
   24      H      -0.5401000000    -1.4403910000     0.9352500000
 ----------------------------------------------------------------
 Nuclear Repulsion Energy =         874.90221535 hartrees
 There are       52 alpha and       52 beta electrons

 Q-Chem warning in module forms1/BasisType.C, line 2236:

 You are not using the predefined 5D/6D in this basis set.

 Requested basis set is cc-pVTZ
 There are 196 shells and 536 basis functions

 Total QAlloc Memory Limit 110000 MB
 Mega-Array Size       188 MB
 MEM_STATIC part       192 MB
 Discretize the solute cavity surface with Lebedev spheres
	Using 110 Lebedev grid points for each H atom
	Using 194 Lebedev grid points for other atoms
	Atomic van der Waals radii will be scaled by 1.20
 Remove points where switching function is < 1.0e-08
 Keep 1619 surface tesserae and discard 2029 interior tesserae
 Molecular Surface Area = 237.051 Angst**2
 Requested basis set is rimp2-cc-pVTZ
 There are 414 shells and 1414 basis functions
 A cutoff of  1.0D-10 yielded  13890 shell pairs
 There are    100572 function pairs (    128983 Cartesian)
 Smallest overlap matrix eigenvalue = 6.69E-05

 Scale SEOQF with 1.000000e-01/1.000000e-01/1.000000e-01

 Standard Electronic Orientation quadrupole field applied
 Nucleus-field energy     =     0.0000000325 hartrees
 Guess from superposition of atomic densities
 Warning:  Energy on first SCF cycle will be non-variational
 SAD guess density has 104.000000 electrons

 -----------------------------------------------------------------------
  General SCF calculation program by
  Eric Jon Sundstrom, Paul Horn, Yuezhi Mao, Dmitri Zuev, Alec White,
  David Stuck, Shaama M.S., Shane Yost, Joonho Lee, David Small,
  Daniel Levine, Susi Lehtola, Hugh Burton, Evgeny Epifanovsky,
  Bang C. Huynh
 -----------------------------------------------------------------------
 Hartree-Fock
 A restricted SCF calculation will be
 performed using DIIS
 SCF converges when DIIS error is below 1.0e-06
 ---------------------------------------
  Cycle       Energy         DIIS error
 ---------------------------------------
    1   -1186.0253297691      2.39e-02  
    2   -1180.6147513595      1.54e-03  
    3   -1180.7382596127      5.82e-04  
    4   -1180.7516472871      3.27e-04  
    5   -1180.7564512293      5.84e-05  
    6   -1180.7566904157      2.41e-05  
    7   -1180.7567489606      9.00e-06  
    8   -1180.7567631826      4.39e-06  
    9   -1180.7567665491      1.55e-06  
   10   -1180.7567670723      5.26e-07  Convergence criterion met
 ---------------------------------------
 SCF time:   CPU 558.32s  wall 561.00s 

************** Final PCM Free Energy Summary **************
 G_electrostatic  =      -0.00897331 hartree =      -5.63083501 kcal/mol
 G_cavitation     =       0.00000000 hartree =       0.00000000 kcal/mol
 G_dispersion     =       0.00000000 hartree =       0.00000000 kcal/mol
 G_repulsion      =       0.00000000 hartree =       0.00000000 kcal/mol
 --------------------------------------------------
 Non-electrostatic Free Energy =       0.00000000 hartree =       0.00000000 kcal/mol
 Total                         =      -0.00897331 hartree =      -5.63083501 kcal/mol
 --------------------------------------------------
 SCF Energy (H0 + V/2)                       =   -1180.75676707 
 Solute Internal Energy (H0)                 =   -1180.74779377 
 Total Free Energy (H0 + V/2 + non-elec)     =   -1180.75676707 hartree
                                             = -740936.05428523 kcal/mol
***********************************************************

 SCF   energy in the final basis set =    -1180.7567670723
 Total energy in the final basis set =    -1180.7567670723


 --------------------------------------------------------------
  Generalized many-body perturbation theory program
  by Joonho Lee, Fazle Rob, Xintian Feng, Evgeny Epifanovsky

 No regularization used 
 (reg. param. = 0.0000e+00)
  (P|Q)^-1/2 Time:  CPU 2.32 s  wall 2.33 s

 In RI-MP2 calculation: 
 # of frozen core orbitals: 20

 Components of the RIMP2 correlation energy:
        aaaa    correlation energy =        -0.2514886304 a.u.
        abab    correlation energy =        -1.5036585460 a.u.
        bbbb    correlation energy =        -0.2514886304 a.u.
        non-Brillouin singles      =        -0.0000000000 a.u.
        total same-spin energy     =        -0.5029772607 a.u.
        total opposite-spin energy =        -1.5036585460 a.u.

 Total  RIMP2   correlation energy =        -2.0066358067 a.u.
        RIMP2         total energy =     -1182.7634028790 a.u.

 RI-MP2 Energy Time:  CPU 117.37 s  wall 117.89 s
 
 --------------------------------------------------------------
 
                    Orbital Energies (a.u.)
 --------------------------------------------------------------
 
 Alpha MOs
 -- Occupied --
-91.9799 -91.9420 -11.2800 -11.2648 -11.2620 -11.2553 -11.2512 -11.2432
-11.2407 -11.2318 -11.2290 -11.2193  -8.9800  -8.9466  -6.6609  -6.6603
 -6.6598  -6.6279  -6.6269  -6.6256  -1.1987  -1.1536  -1.0582  -1.0261
 -1.0067  -0.9580  -0.9130  -0.9010  -0.8147  -0.7655  -0.7312  -0.6994
 -0.6606  -0.6415  -0.6107  -0.5879  -0.5807  -0.5731  -0.5667  -0.5511
 -0.5412  -0.5329  -0.5131  -0.5071  -0.4902  -0.4792  -0.4588  -0.4492
 -0.3556  -0.3420  -0.3166  -0.2750
 -- Virtual --
  0.0893   0.1322   0.1427   0.1483   0.1576   0.1699   0.1764   0.1825
  0.1912   0.2003   0.2053   0.2090   0.2293   0.2323   0.2371   0.2439
  0.2541   0.2589   0.2765   0.2958   0.3208   0.3360   0.3420   0.3512
  0.3639   0.3740   0.3819   0.3891   0.3974   0.4068   0.4152   0.4211
  0.4279   0.4479   0.4523   0.4638   0.4691   0.4733   0.4751   0.4885
  0.4964   0.5106   0.5219   0.5277   0.5290   0.5422   0.5518   0.5570
  0.5620   0.5694   0.5845   0.5936   0.6054   0.6080   0.6125   0.6168
  0.6225   0.6273   0.6354   0.6383   0.6428   0.6447   0.6480   0.6516
  0.6694   0.6712   0.6750   0.6861   0.6920   0.7009   0.7126   0.7288
  0.7337   0.7486   0.7558   0.7793   0.7875   0.8038   0.8093   0.8202
  0.8240   0.8325   0.8419   0.8525   0.8745   0.8837   0.9031   0.9180
  0.9241   0.9529   0.9566   0.9659   0.9775   0.9928   1.0018   1.0066
  1.0116   1.0231   1.0425   1.0488   1.0554   1.0704   1.0731   1.0807
  1.0916   1.0950   1.1039   1.1219   1.1407   1.1421   1.1549   1.1663
  1.1705   1.1843   1.2011   1.2082   1.2178   1.2262   1.2365   1.2429
  1.2559   1.2636   1.2666   1.2746   1.2874   1.2896   1.3048   1.3106
  1.3232   1.3293   1.3422   1.3498   1.3738   1.3939   1.4026   1.4182
  1.4215   1.4332   1.4455   1.4489   1.4725   1.4835   1.4880   1.4994
  1.5090   1.5132   1.5197   1.5308   1.5346   1.5381   1.5494   1.5572
  1.5673   1.5805   1.5857   1.6002   1.6018   1.6093   1.6261   1.6327
  1.6431   1.6630   1.6718   1.6888   1.6984   1.7198   1.7237   1.7359
  1.7436   1.7587   1.7710   1.7748   1.8075   1.8228   1.8267   1.8636
  1.8658   1.9165   1.9278   1.9488   1.9643   1.9659   1.9936   1.9991
  2.0137   2.0301   2.0424   2.0584   2.0894   2.1152   2.1391   2.1562
  2.1823   2.1909   2.2059   2.2152   2.2415   2.2495   2.2674   2.2755
  2.3083   2.3159   2.3308   2.3610   2.4104   2.4280   2.4414   2.4684
  2.4879   2.5164   2.5372   2.5499   2.5533   2.5796   2.6049   2.6101
  2.6270   2.6398   2.6587   2.6656   2.6755   2.6865   2.6950   2.7303
  2.7466   2.7500   2.7657   2.7735   2.7759   2.7886   2.8028   2.8116
  2.8419   2.8474   2.8512   2.8758   2.8957   2.9014   2.9089   2.9272
  2.9362   2.9655   2.9766   3.0063   3.0130   3.0139   3.0202   3.0383
  3.0445   3.0646   3.0760   3.0916   3.1110   3.1155   3.1259   3.1371
  3.1415   3.1621   3.1670   3.1705   3.1816   3.1855   3.2018   3.2066
  3.2276   3.2439   3.2545   3.2593   3.2784   3.2841   3.2914   3.3013
  3.3151   3.3188   3.3303   3.3330   3.3395   3.3562   3.3623   3.3638
  3.3760   3.3872   3.3902   3.4007   3.4057   3.4145   3.4232   3.4374
  3.4398   3.4501   3.4597   3.4616   3.4790   3.4990   3.5100   3.5125
  3.5162   3.5264   3.5307   3.5350   3.5487   3.5650   3.5688   3.5799
  3.5968   3.6085   3.6104   3.6204   3.6341   3.6401   3.6501   3.6638
  3.6744   3.6845   3.6926   3.6967   3.7208   3.7292   3.7311   3.7405
  3.7442   3.7663   3.7712   3.7762   3.7925   3.7982   3.8029   3.8046
  3.8279   3.8453   3.8523   3.8625   3.8718   3.8879   3.8998   3.9088
  3.9386   3.9452   3.9550   3.9607   3.9687   3.9801   4.0048   4.0106
  4.0205   4.0283   4.0420   4.0595   4.0682   4.0903   4.0996   4.1034
  4.1229   4.1243   4.1393   4.1518   4.1617   4.1693   4.1823   4.1939
  4.2126   4.2202   4.2293   4.2423   4.2507   4.2666   4.2702   4.2820
  4.2949   4.3004   4.3045   4.3287   4.3380   4.3587   4.3623   4.3679
  4.3729   4.3829   4.3999   4.4072   4.4116   4.4191   4.4301   4.4399
  4.4527   4.4604   4.4697   4.4835   4.5113   4.5210   4.5330   4.5419
  4.5659   4.6006   4.6123   4.6204   4.6285   4.6532   4.6594   4.6728
  4.6961   4.7246   4.7327   4.7563   4.7908   4.8098   4.8226   4.8390
  4.8596   4.8619   4.8889   4.8978   4.9390   4.9523   4.9569   4.9690
  5.0126   5.0484   5.0800   5.0974   5.1113   5.1251   5.1449   5.1617
  5.1889   5.2165   5.2277   5.2675   5.2792   5.2872   5.3115   5.3128
  5.3358   5.3679   5.3824   5.3970   5.4086   5.4273   5.4406   5.4544
  5.4797   5.5080   5.5262   5.5408   5.5506   5.5629   5.5716   5.5808
  5.6222   5.6325   5.6585   5.6692   5.6936   5.7020   5.7122   5.7298
  5.7623   5.7882   5.8299   5.9783   6.0099   6.0695   6.1159   6.1447
  6.2050   6.2212   6.2272   6.2382   6.2430   6.2799   6.3012   6.3145
  6.3721   6.4831   9.5461  10.6774  12.0478  12.9193  13.1834  13.9162
 14.1245  14.2336  14.2997  14.6297
 --------------------------------------------------------------
 
          Ground-State Mulliken Net Atomic Charges

     Atom                 Charge (a.u.)
  ----------------------------------------
      1 C                    -0.078498
      2 C                    -0.322610
      3 C                    -0.038842
      4 H                     0.176212
      5 C                     0.094032
      6 S                    -0.172906
      7 C                    -0.271046
      8 H                     0.113417
      9 H                     0.105350
     10 H                     0.104586
     11 C                    -0.049852
     12 C                    -0.288166
     13 C                     0.041278
     14 H                     0.185121
     15 C                    -0.241289
     16 S                     0.005291
     17 C                    -0.270943
     18 H                     0.102476
     19 H                     0.107606
     20 H                     0.108924
     21 H                     0.196439
     22 H                     0.112290
     23 H                     0.109627
     24 H                     0.171502
  ----------------------------------------
  Sum of atomic charges =     0.000000

 -----------------------------------------------------------------
                    Cartesian Multipole Moments
 -----------------------------------------------------------------
    Charge (ESU x 10^10)
                -0.0000
    Dipole Moment (Debye)
         X      -1.8425      Y       0.4433      Z       1.0604
       Tot       2.1716
    Quadrupole Moments (Debye-Ang)
        XX     -90.6355     XY       7.3386     YY     -74.8641
        XZ       0.6961     YZ       1.6533     ZZ     -85.7163
    Octopole Moments (Debye-Ang^2)
       XXX     -75.3632    XXY      50.8689    XYY     -12.3880
       YYY     131.1531    XXZ      -4.8712    XYZ      -3.3666
       YYZ      -0.7625    XZZ     -22.1255    YZZ      57.3071
       ZZZ       5.3344
    Hexadecapole Moments (Debye-Ang^3)
      XXXX    -687.1697   XXXY    -137.0878   XXYY    -590.2708
      XYYY    -124.8116   YYYY   -2697.1237   XXXZ    -149.9492
      XXYZ     -15.5224   XYYZ     -42.0566   YYYZ    -104.1145
      XXZZ    -229.1677   XYZZ     -37.5339   YYZZ    -596.1380
      XZZZ    -158.0520   YZZZ     -88.6069   ZZZZ    -682.8694
 -----------------------------------------------------------------
 Total job time:  680.89s(wall), 676.72s(cpu) 
 Sun Jul 10 05:03:39 2022

        *************************************************************
        *                                                           *
        *  Thank you very much for using Q-Chem.  Have a nice day.  *
        *                                                           *
        *************************************************************


remove work dirs ./qchem4063083.0 -- ./qchem4063083.-1
rm -rf ./qchem4063083
You are running Q-Chem version: 5.4.0

#
# job setting
#
local host:  exp-3-09
current dir: /expanse/lustre/scratch/theleonzhang/temp_project/Hydrogenated_Rotation_Test
input file:  Methylthiophene_Phi_20_Theta_300_Methylthiophene_Hydrogenated.qcin
output file: 
nprocs     : 0
nthreads   : 1
#
# qchem installation setting
#
QC:          /cm/shared/apps/spack/cpu/opt/spack/linux-centos8-zen2/gcc-10.2.0/qchem-5.4-akfmr7b3t57bfs6qan3padb2wnb2i7cl
QCAUX:       /cm/shared/apps/spack/cpu/opt/spack/linux-centos8-zen2/gcc-10.2.0/qchem-5.4-akfmr7b3t57bfs6qan3padb2wnb2i7cl/qcaux
QCPROG:      /cm/shared/apps/spack/cpu/opt/spack/linux-centos8-zen2/gcc-10.2.0/qchem-5.4-akfmr7b3t57bfs6qan3padb2wnb2i7cl/exe/qcprog.exe_s
QCPROG_S:    /cm/shared/apps/spack/cpu/opt/spack/linux-centos8-zen2/gcc-10.2.0/qchem-5.4-akfmr7b3t57bfs6qan3padb2wnb2i7cl/exe/qcprog.exe_s
PARALLEL:    -DSERIAL
QCMPI:       mpich
#
# qchem directory setting
#
qcrun:       qchem964411
QCSCRATCH:   .
QCLOCALSCR:  
QCTMPDIR:    .
QCFILEPREF:  ./qchem964411
QCSAVEDIR:   
workdirs:    ./qchem964411
workdir0:    ./qchem964411
partmpdirs =  
#
# parallel setting
#
QCRSH:           ssh
QCMPI:           mpich
QCMPIRUN:        /cm/shared/apps/spack/cpu/opt/spack/linux-centos8-zen2/gcc-10.2.0/qchem-5.4-akfmr7b3t57bfs6qan3padb2wnb2i7cl/bin/mpi/mpirun_qchem
QCMACHINEFILE:   ./qchem964411/hostfile

#
# env setting
#
exported envs:   QC QCAUX QCSCRATCH QCRUNNAME QCFILEPREF QCPROG QCPROG_S GUIFILE

Running Job 1 of 1 Methylthiophene_Phi_20_Theta_300_Methylthiophene_Hydrogenated.qcin
qchem Methylthiophene_Phi_20_Theta_300_Methylthiophene_Hydrogenated.qcin_964411.0 ./qchem964411/ 0
/cm/shared/apps/spack/cpu/opt/spack/linux-centos8-zen2/gcc-10.2.0/qchem-5.4-akfmr7b3t57bfs6qan3padb2wnb2i7cl/exe/qcprog.exe_s Methylthiophene_Phi_20_Theta_300_Methylthiophene_Hydrogenated.qcin_964411.0 ./qchem964411/
                  Welcome to Q-Chem
     A Quantum Leap Into The Future Of Chemistry


 Q-Chem 5.4, Q-Chem, Inc., Pleasanton, CA (2021)

 License issued to: University of California, San Diego (site)

 E. Epifanovsky,  A. T. B. Gilbert,  Xintian Feng,  Joonho Lee,  Yuezhi Mao,  
 N. Mardirossian,  P. Pokhilko,  A. White,  M. Wormit,  M. P. Coons,  
 A. L. Dempwolff,  Zhengting Gan,  D. Hait,  P. R. Horn,  L. D. Jacobson,  
 I. Kaliman,  J. Kussmann,  A. W. Lange,  Ka Un Lao,  D. S. Levine,  Jie Liu,  
 S. C. McKenzie,  A. F. Morrison,  K. Nanda,  F. Plasser,  D. R. Rehn,  
 M. L. Vidal,  Zhi-Qiang You,  Ying Zhu,  B. Alam,  B. Albrecht,  
 A. Aldossary,  E. Alguire,  J. H. Andersen,  D. Barton,  K. Begam,  A. Behn,  
 Y. A. Bernard,  E. J. Berquist,  H. Burton,  A. Carreras,  K. Carter-Fenk,  
 R. Chakraborty,  A. D. Chien,  K. D. Closser,  V. Cofer-Shabica,  
 S. Dasgupta,  Jia Deng,  M. de Wergifosse,  M. Diedenhofen,  Hainam Do,  
 S. Ehlert,  Po-Tung Fang,  S. Fatehi,  Qingguo Feng,  J. Gayvert,  
 Qinghui Ge,  G. Gidofalvi,  M. Goldey,  J. Gomes,  C. Gonzalez-Espinoza,  
 S. Gulania,  A. Gunina,  M. W. D. Hanson-Heine,  P. H. P. Harbach,  
 A. W. Hauser,  M. F. Herbst,  M. Hernandez Vera,  M. Hodecker,  
 Z. C. Holden,  S. Houck,  Xunkun Huang,  Kerwin Hui,  B. C. Huynh,  
 M. Ivanov,  Hyunjun Ji,  Hanjie Jiang,  B. Kaduk,  S. Kaehler,  
 K. Khistyaev,  Jaehoon Kim,  P. Klunzinger,  Z. Koczor-Benda,  
 Joong Hoon Koh,  D. Kosenkov,  L. Koulias,  T. Kowalczyk,  C. M. Krauter,  
 K. Kue,  A. Kunitsa,  T. Kus,  A. Landau,  K. V. Lawler,  D. Lefrancois,  
 S. Lehtola,  Rain Li,  Yi-Pei Li,  Jiashu Liang,  M. Liebenthal,  
 Hung-Hsuan Lin,  You-Sheng Lin,  Fenglai Liu,  Kuan-Yu Liu,  
 M. Loipersberger,  A. Luenser,  A. Manjanath,  P. Manohar,  E. Mansoor,  
 S. F. Manzer,  Shan-Ping Mao,  A. V. Marenich,  T. Markovich,  S. Mason,  
 S. A. Maurer,  P. F. McLaughlin,  M. F. S. J. Menger,  J.-M. Mewes,  
 S. A. Mewes,  P. Morgante,  J. W. Mullinax,  T. S. Nguyen-Beck,  
 K. J. Oosterbaan,  G. Paran,  Alexander C. Paul,  Suranjan K. Paul,  
 F. Pavosevic,  Zheng Pei,  S. Prager,  E. I. Proynov,  E. Ramos,  B. Rana,  
 A. E. Rask,  A. Rettig,  R. M. Richard,  F. Rob,  E. Rossomme,  T. Scheele,  
 M. Scheurer,  M. Schneider,  N. Sergueev,  S. M. Sharada,  W. Skomorowski,  
 D. W. Small,  C. J. Stein,  Yu-Chuan Su,  E. J. Sundstrom,  Zhen Tao,  
 J. Thirman,  T. Tsuchimochi,  N. M. Tubman,  S. P. Veccham,  O. Vydrov,  
 J. Wenzel,  J. Witte,  A. Yamada,  Kun Yao,  S. Yeganeh,  S. R. Yost,  
 A. Zech,  Igor Ying Zhang,  Xing Zhang,  Yu Zhang,  D. Zuev,  
 A. Aspuru-Guzik,  A. T. Bell,  N. A. Besley,  K. B. Bravaya,  B. R. Brooks,  
 D. Casanova,  Jeng-Da Chai,  S. Coriani,  C. J. Cramer,  
 A. E. DePrince, III,  R. A. DiStasio Jr.,  A. Dreuw,  B. D. Dunietz,  
 T. R. Furlani,  W. A. Goddard III,  S. Grimme,  S. Hammes-Schiffer,  
 T. Head-Gordon,  W. J. Hehre,  Chao-Ping Hsu,  T.-C. Jagau,  Yousung Jung,  
 A. Klamt,  Jing Kong,  D. S. Lambrecht,  WanZhen Liang,  N. J. Mayhall,  
 C. W. McCurdy,  J. B. Neaton,  C. Ochsenfeld,  J. A. Parkhill,  R. Peverati,  
 V. A. Rassolov,  Yihan Shao,  L. V. Slipchenko,  T. Stauch,  R. P. Steele,  
 J. E. Subotnik,  A. J. W. Thom,  A. Tkatchenko,  D. G. Truhlar,  
 T. Van Voorhis,  T. A. Wesolowski,  K. B. Whaley,  H. L. Woodcock III,  
 P. M. Zimmerman,  S. Faraji,  P. M. W. Gill,  M. Head-Gordon,  
 J. M. Herbert,  A. I. Krylov

 Contributors to earlier versions of Q-Chem not listed above: 
 R. D. Adamson,  B. Austin,  R. Baer,  J. Baker,  G. J. O. Beran,  
 K. Brandhorst,  S. T. Brown,  E. F. C. Byrd,  A. K. Chakraborty,  
 G. K. L. Chan,  Chun-Min Chang,  Yunqing Chen,  C.-L. Cheng,  
 Siu Hung Chien,  D. M. Chipman,  D. L. Crittenden,  H. Dachsel,  
 R. J. Doerksen,  A. D. Dutoi,  R. G. Edgar,  J. Fosso-Tande,  
 L. Fusti-Molnar,  D. Ghosh,  A. Ghysels,  A. Golubeva-Zadorozhnaya,  
 J. Gonthier,  M. S. Gordon,  S. R. Gwaltney,  G. Hawkins,  J. E. Herr,  
 A. Heyden,  S. Hirata,  E. G. Hohenstein,  G. Kedziora,  F. J. Keil,  
 C. Kelley,  Jihan Kim,  R. A. King,  R. Z. Khaliullin,  P. P. Korambath,  
 W. Kurlancheek,  A. Laurent,  A. M. Lee,  M. S. Lee,  S. V. Levchenko,  
 Ching Yeh Lin,  D. Liotard,  E. Livshits,  R. C. Lochan,  I. Lotan,  
 L. A. Martinez-Martinez,  P. E. Maslen,  N. Nair,  D. P. O'Neill,  
 D. Neuhauser,  E. Neuscamman,  C. M. Oana,  R. Olivares-Amaya,  R. Olson,  
 T. M. Perrine,  B. Peters,  P. A. Pieniazek,  A. Prociuk,  Y. M. Rhee,  
 J. Ritchie,  M. A. Rohrdanz,  E. Rosta,  N. J. Russ,  H. F. Schaefer III,  
 M. W. Schmidt,  N. E. Schultz,  S. Sharma,  N. Shenvi,  C. D. Sherrill,  
 A. C. Simmonett,  A. Sodt,  T. Stein,  D. Stuck,  K. S. Thanthiriwatte,  
 V. Vanovschi,  L. Vogt,  Tao Wang,  A. Warshel,  M. A. Watson,  
 C. F. Williams,  Q. Wu,  X. Xu,  Jun Yang,  W. Zhang,  Yan Zhao

 Please cite Q-Chem as follows:
 Y. Shao et al., Mol. Phys. 113, 184-215 (2015)
 DOI: 10.1080/00268976.2014.952696

 Q-Chem 5.4.0 for Intel X86 EM64T Linux

 Parts of Q-Chem use Armadillo 9.800.1 (Horizon Scraper).
 http://arma.sourceforge.net/

 Q-Chem begins on Sun Jul 10 05:14:46 2022  

 Host: 
0

     Scratch files written to ./qchem964411//
 May1621 |scratch|qcdevops|jenkins|workspace|build_RNUM    
 Processing $rem in /cm/shared/apps/spack/cpu/opt/spack/linux-centos8-zen2/gcc-10.2.0/qchem-5.4-akfmr7b3t57bfs6qan3padb2wnb2i7cl/config/preferences:
 Processing $rem in /home/theleonzhang/.qchemrc:
 Symmetry turned off for PCM/SM12/SMD calculation
 Core orbitals will be frozen

 Checking the input file for inconsistencies... 	...done.

--------------------------------------------------------------
User input:
--------------------------------------------------------------
$molecule
0 1
C	0.670924	-3.866725	0.388181
C	-0.530648	-3.703963	-0.306020
C	-0.923703	-2.357056	-0.533378
H	-1.128579	-4.561092	-0.651043
C	0.000000	-1.440664	0.000000
S	1.337567	-2.286957	0.772234
C	-2.183857	-1.978743	-1.261192
H	-2.742548	-2.878678	-1.583666
H	-1.970497	-1.376015	-2.168641
H	-2.863099	-1.375728	-0.623012
C	0.000000	0.000000	0.000000
C	0.295399	0.811508	1.099446
C	0.768742	2.111949	0.776721
H	0.169256	0.464952	2.136088
C	0.844232	2.319291	-0.612546
S	0.322342	0.885558	-1.486809
C	1.140796	3.134091	1.814609
H	0.995218	2.734123	2.836676
H	0.526006	4.054142	1.726239
H	2.203157	3.443680	1.726228
H	1.168902	3.211257	-1.161575
H	1.417779	-4.392713	-0.216843
H	0.520136	-4.392347	1.337652
H	-0.540100	-1.440391	0.935250
$end

$rem
JOBTYPE		SP
EXCHANGE	HF
CORRELATION	pRIMP2
BASIS		cc-pvtz
METHOD		rimp2
AUX_BASIS	rimp2-cc-pvtz
SOLVENT_METHOD	PCM
PURECART	11111
SYMMETRY	false
MEM_TOTAL	110000
SCF_CONVERGENCE = 6
THRESH=10
$end



$solvent
dielectric 4.90
$end
--------------------------------------------------------------
 ----------------------------------------------------------------
             Standard Nuclear Orientation (Angstroms)
    I     Atom           X                Y                Z
 ----------------------------------------------------------------
    1      C       0.6709240000    -3.8667250000     0.3881810000
    2      C      -0.5306480000    -3.7039630000    -0.3060200000
    3      C      -0.9237030000    -2.3570560000    -0.5333780000
    4      H      -1.1285790000    -4.5610920000    -0.6510430000
    5      C       0.0000000000    -1.4406640000     0.0000000000
    6      S       1.3375670000    -2.2869570000     0.7722340000
    7      C      -2.1838570000    -1.9787430000    -1.2611920000
    8      H      -2.7425480000    -2.8786780000    -1.5836660000
    9      H      -1.9704970000    -1.3760150000    -2.1686410000
   10      H      -2.8630990000    -1.3757280000    -0.6230120000
   11      C       0.0000000000     0.0000000000     0.0000000000
   12      C       0.2953990000     0.8115080000     1.0994460000
   13      C       0.7687420000     2.1119490000     0.7767210000
   14      H       0.1692560000     0.4649520000     2.1360880000
   15      C       0.8442320000     2.3192910000    -0.6125460000
   16      S       0.3223420000     0.8855580000    -1.4868090000
   17      C       1.1407960000     3.1340910000     1.8146090000
   18      H       0.9952180000     2.7341230000     2.8366760000
   19      H       0.5260060000     4.0541420000     1.7262390000
   20      H       2.2031570000     3.4436800000     1.7262280000
   21      H       1.1689020000     3.2112570000    -1.1615750000
   22      H       1.4177790000    -4.3927130000    -0.2168430000
   23      H       0.5201360000    -4.3923470000     1.3376520000
   24      H      -0.5401000000    -1.4403910000     0.9352500000
 ----------------------------------------------------------------
 Nuclear Repulsion Energy =         874.90221535 hartrees
 There are       52 alpha and       52 beta electrons

 Q-Chem warning in module forms1/BasisType.C, line 2236:

 You are not using the predefined 5D/6D in this basis set.

 Requested basis set is cc-pVTZ
 There are 196 shells and 536 basis functions

 Total QAlloc Memory Limit 110000 MB
 Mega-Array Size       188 MB
 MEM_STATIC part       192 MB
 Discretize the solute cavity surface with Lebedev spheres
	Using 110 Lebedev grid points for each H atom
	Using 194 Lebedev grid points for other atoms
	Atomic van der Waals radii will be scaled by 1.20
 Remove points where switching function is < 1.0e-08
 Keep 1619 surface tesserae and discard 2029 interior tesserae
 Molecular Surface Area = 237.051 Angst**2
 Requested basis set is rimp2-cc-pVTZ
 There are 414 shells and 1414 basis functions
 A cutoff of  1.0D-10 yielded  13890 shell pairs
 There are    100572 function pairs (    128983 Cartesian)
 Smallest overlap matrix eigenvalue = 6.69E-05

 Scale SEOQF with 1.000000e-01/1.000000e-01/1.000000e-01

 Standard Electronic Orientation quadrupole field applied
 Nucleus-field energy     =     0.0000000325 hartrees
 Guess from superposition of atomic densities
 Warning:  Energy on first SCF cycle will be non-variational
 SAD guess density has 104.000000 electrons

 -----------------------------------------------------------------------
  General SCF calculation program by
  Eric Jon Sundstrom, Paul Horn, Yuezhi Mao, Dmitri Zuev, Alec White,
  David Stuck, Shaama M.S., Shane Yost, Joonho Lee, David Small,
  Daniel Levine, Susi Lehtola, Hugh Burton, Evgeny Epifanovsky,
  Bang C. Huynh
 -----------------------------------------------------------------------
 Hartree-Fock
 A restricted SCF calculation will be
 performed using DIIS
 SCF converges when DIIS error is below 1.0e-06
 ---------------------------------------
  Cycle       Energy         DIIS error
 ---------------------------------------
    1   -1186.0253297691      2.39e-02  
    2   -1180.6147513595      1.54e-03  
    3   -1180.7382596127      5.82e-04  
    4   -1180.7516472871      3.27e-04  
    5   -1180.7564512293      5.84e-05  
    6   -1180.7566904157      2.41e-05  
    7   -1180.7567489606      9.00e-06  
    8   -1180.7567631826      4.39e-06  
    9   -1180.7567665491      1.55e-06  
   10   -1180.7567670723      5.26e-07  Convergence criterion met
 ---------------------------------------
 SCF time:   CPU 557.41s  wall 560.00s 

************** Final PCM Free Energy Summary **************
 G_electrostatic  =      -0.00897331 hartree =      -5.63083501 kcal/mol
 G_cavitation     =       0.00000000 hartree =       0.00000000 kcal/mol
 G_dispersion     =       0.00000000 hartree =       0.00000000 kcal/mol
 G_repulsion      =       0.00000000 hartree =       0.00000000 kcal/mol
 --------------------------------------------------
 Non-electrostatic Free Energy =       0.00000000 hartree =       0.00000000 kcal/mol
 Total                         =      -0.00897331 hartree =      -5.63083501 kcal/mol
 --------------------------------------------------
 SCF Energy (H0 + V/2)                       =   -1180.75676707 
 Solute Internal Energy (H0)                 =   -1180.74779377 
 Total Free Energy (H0 + V/2 + non-elec)     =   -1180.75676707 hartree
                                             = -740936.05428523 kcal/mol
***********************************************************

 SCF   energy in the final basis set =    -1180.7567670723
 Total energy in the final basis set =    -1180.7567670723


 --------------------------------------------------------------
  Generalized many-body perturbation theory program
  by Joonho Lee, Fazle Rob, Xintian Feng, Evgeny Epifanovsky

 No regularization used 
 (reg. param. = 0.0000e+00)
  (P|Q)^-1/2 Time:  CPU 1.89 s  wall 1.90 s

 In RI-MP2 calculation: 
 # of frozen core orbitals: 20

 Components of the RIMP2 correlation energy:
        aaaa    correlation energy =        -0.2514886304 a.u.
        abab    correlation energy =        -1.5036585460 a.u.
        bbbb    correlation energy =        -0.2514886304 a.u.
        non-Brillouin singles      =        -0.0000000000 a.u.
        total same-spin energy     =        -0.5029772607 a.u.
        total opposite-spin energy =        -1.5036585460 a.u.

 Total  RIMP2   correlation energy =        -2.0066358067 a.u.
        RIMP2         total energy =     -1182.7634028790 a.u.

 RI-MP2 Energy Time:  CPU 79.23 s  wall 79.49 s
 
 --------------------------------------------------------------
 
                    Orbital Energies (a.u.)
 --------------------------------------------------------------
 
 Alpha MOs
 -- Occupied --
-91.9799 -91.9420 -11.2800 -11.2648 -11.2620 -11.2553 -11.2512 -11.2432
-11.2407 -11.2318 -11.2290 -11.2193  -8.9800  -8.9466  -6.6609  -6.6603
 -6.6598  -6.6279  -6.6269  -6.6256  -1.1987  -1.1536  -1.0582  -1.0261
 -1.0067  -0.9580  -0.9130  -0.9010  -0.8147  -0.7655  -0.7312  -0.6994
 -0.6606  -0.6415  -0.6107  -0.5879  -0.5807  -0.5731  -0.5667  -0.5511
 -0.5412  -0.5329  -0.5131  -0.5071  -0.4902  -0.4792  -0.4588  -0.4492
 -0.3556  -0.3420  -0.3166  -0.2750
 -- Virtual --
  0.0893   0.1322   0.1427   0.1483   0.1576   0.1699   0.1764   0.1825
  0.1912   0.2003   0.2053   0.2090   0.2293   0.2323   0.2371   0.2439
  0.2541   0.2589   0.2765   0.2958   0.3208   0.3360   0.3420   0.3512
  0.3639   0.3740   0.3819   0.3891   0.3974   0.4068   0.4152   0.4211
  0.4279   0.4479   0.4523   0.4638   0.4691   0.4733   0.4751   0.4885
  0.4964   0.5106   0.5219   0.5277   0.5290   0.5422   0.5518   0.5570
  0.5620   0.5694   0.5845   0.5936   0.6054   0.6080   0.6125   0.6168
  0.6225   0.6273   0.6354   0.6383   0.6428   0.6447   0.6480   0.6516
  0.6694   0.6712   0.6750   0.6861   0.6920   0.7009   0.7126   0.7288
  0.7337   0.7486   0.7558   0.7793   0.7875   0.8038   0.8093   0.8202
  0.8240   0.8325   0.8419   0.8525   0.8745   0.8837   0.9031   0.9180
  0.9241   0.9529   0.9566   0.9659   0.9775   0.9928   1.0018   1.0066
  1.0116   1.0231   1.0425   1.0488   1.0554   1.0704   1.0731   1.0807
  1.0916   1.0950   1.1039   1.1219   1.1407   1.1421   1.1549   1.1663
  1.1705   1.1843   1.2011   1.2082   1.2178   1.2262   1.2365   1.2429
  1.2559   1.2636   1.2666   1.2746   1.2874   1.2896   1.3048   1.3106
  1.3232   1.3293   1.3422   1.3498   1.3738   1.3939   1.4026   1.4182
  1.4215   1.4332   1.4455   1.4489   1.4725   1.4835   1.4880   1.4994
  1.5090   1.5132   1.5197   1.5308   1.5346   1.5381   1.5494   1.5572
  1.5673   1.5805   1.5857   1.6002   1.6018   1.6093   1.6261   1.6327
  1.6431   1.6630   1.6718   1.6888   1.6984   1.7198   1.7237   1.7359
  1.7436   1.7587   1.7710   1.7748   1.8075   1.8228   1.8267   1.8636
  1.8658   1.9165   1.9278   1.9488   1.9643   1.9659   1.9936   1.9991
  2.0137   2.0301   2.0424   2.0584   2.0894   2.1152   2.1391   2.1562
  2.1823   2.1909   2.2059   2.2152   2.2415   2.2495   2.2674   2.2755
  2.3083   2.3159   2.3308   2.3610   2.4104   2.4280   2.4414   2.4684
  2.4879   2.5164   2.5372   2.5499   2.5533   2.5796   2.6049   2.6101
  2.6270   2.6398   2.6587   2.6656   2.6755   2.6865   2.6950   2.7303
  2.7466   2.7500   2.7657   2.7735   2.7759   2.7886   2.8028   2.8116
  2.8419   2.8474   2.8512   2.8758   2.8957   2.9014   2.9089   2.9272
  2.9362   2.9655   2.9766   3.0063   3.0130   3.0139   3.0202   3.0383
  3.0445   3.0646   3.0760   3.0916   3.1110   3.1155   3.1259   3.1371
  3.1415   3.1621   3.1670   3.1705   3.1816   3.1855   3.2018   3.2066
  3.2276   3.2439   3.2545   3.2593   3.2784   3.2841   3.2914   3.3013
  3.3151   3.3188   3.3303   3.3330   3.3395   3.3562   3.3623   3.3638
  3.3760   3.3872   3.3902   3.4007   3.4057   3.4145   3.4232   3.4374
  3.4398   3.4501   3.4597   3.4616   3.4790   3.4990   3.5100   3.5125
  3.5162   3.5264   3.5307   3.5350   3.5487   3.5650   3.5688   3.5799
  3.5968   3.6085   3.6104   3.6204   3.6341   3.6401   3.6501   3.6638
  3.6744   3.6845   3.6926   3.6967   3.7208   3.7292   3.7311   3.7405
  3.7442   3.7663   3.7712   3.7762   3.7925   3.7982   3.8029   3.8046
  3.8279   3.8453   3.8523   3.8625   3.8718   3.8879   3.8998   3.9088
  3.9386   3.9452   3.9550   3.9607   3.9687   3.9801   4.0048   4.0106
  4.0205   4.0283   4.0420   4.0595   4.0682   4.0903   4.0996   4.1034
  4.1229   4.1243   4.1393   4.1518   4.1617   4.1693   4.1823   4.1939
  4.2126   4.2202   4.2293   4.2423   4.2507   4.2666   4.2702   4.2820
  4.2949   4.3004   4.3045   4.3287   4.3380   4.3587   4.3623   4.3679
  4.3729   4.3829   4.3999   4.4072   4.4116   4.4191   4.4301   4.4399
  4.4527   4.4604   4.4697   4.4835   4.5113   4.5210   4.5330   4.5419
  4.5659   4.6006   4.6123   4.6204   4.6285   4.6532   4.6594   4.6728
  4.6961   4.7246   4.7327   4.7563   4.7908   4.8098   4.8226   4.8390
  4.8596   4.8619   4.8889   4.8978   4.9390   4.9523   4.9569   4.9690
  5.0126   5.0484   5.0800   5.0974   5.1113   5.1251   5.1449   5.1617
  5.1889   5.2165   5.2277   5.2675   5.2792   5.2872   5.3115   5.3128
  5.3358   5.3679   5.3824   5.3970   5.4086   5.4273   5.4406   5.4544
  5.4797   5.5080   5.5262   5.5408   5.5506   5.5629   5.5716   5.5808
  5.6222   5.6325   5.6585   5.6692   5.6936   5.7020   5.7122   5.7298
  5.7623   5.7882   5.8299   5.9783   6.0099   6.0695   6.1159   6.1447
  6.2050   6.2212   6.2272   6.2382   6.2430   6.2799   6.3012   6.3145
  6.3721   6.4831   9.5461  10.6774  12.0478  12.9193  13.1834  13.9162
 14.1245  14.2336  14.2997  14.6297
 --------------------------------------------------------------
 
          Ground-State Mulliken Net Atomic Charges

     Atom                 Charge (a.u.)
  ----------------------------------------
      1 C                    -0.078498
      2 C                    -0.322610
      3 C                    -0.038842
      4 H                     0.176212
      5 C                     0.094032
      6 S                    -0.172906
      7 C                    -0.271046
      8 H                     0.113417
      9 H                     0.105350
     10 H                     0.104586
     11 C                    -0.049852
     12 C                    -0.288166
     13 C                     0.041278
     14 H                     0.185121
     15 C                    -0.241289
     16 S                     0.005291
     17 C                    -0.270943
     18 H                     0.102476
     19 H                     0.107606
     20 H                     0.108924
     21 H                     0.196439
     22 H                     0.112290
     23 H                     0.109627
     24 H                     0.171502
  ----------------------------------------
  Sum of atomic charges =     0.000000

 -----------------------------------------------------------------
                    Cartesian Multipole Moments
 -----------------------------------------------------------------
    Charge (ESU x 10^10)
                -0.0000
    Dipole Moment (Debye)
         X      -1.8425      Y       0.4433      Z       1.0604
       Tot       2.1716
    Quadrupole Moments (Debye-Ang)
        XX     -90.6355     XY       7.3386     YY     -74.8641
        XZ       0.6961     YZ       1.6533     ZZ     -85.7163
    Octopole Moments (Debye-Ang^2)
       XXX     -75.3632    XXY      50.8689    XYY     -12.3880
       YYY     131.1531    XXZ      -4.8712    XYZ      -3.3666
       YYZ      -0.7625    XZZ     -22.1255    YZZ      57.3071
       ZZZ       5.3344
    Hexadecapole Moments (Debye-Ang^3)
      XXXX    -687.1697   XXXY    -137.0878   XXYY    -590.2708
      XYYY    -124.8116   YYYY   -2697.1237   XXXZ    -149.9492
      XXYZ     -15.5224   XYYZ     -42.0566   YYYZ    -104.1145
      XXZZ    -229.1677   XYZZ     -37.5339   YYZZ    -596.1380
      XZZZ    -158.0520   YZZZ     -88.6069   ZZZZ    -682.8694
 -----------------------------------------------------------------
 Total job time:  640.69s(wall), 637.54s(cpu) 
 Sun Jul 10 05:25:27 2022

        *************************************************************
        *                                                           *
        *  Thank you very much for using Q-Chem.  Have a nice day.  *
        *                                                           *
        *************************************************************


remove work dirs ./qchem964411.0 -- ./qchem964411.-1
rm -rf ./qchem964411
