You are running Q-Chem version: 5.4.0

#
# job setting
#
local host:  exp-1-44
current dir: /expanse/lustre/scratch/theleonzhang/temp_project/Hydrogenated_Rotation_Test
input file:  Methylthiophene_Phi_10_Theta_170_Methylthiophene_Hydrogenated.qcin
output file: 
nprocs     : 0
nthreads   : 1
#
# qchem installation setting
#
QC:          /cm/shared/apps/spack/cpu/opt/spack/linux-centos8-zen2/gcc-10.2.0/qchem-5.4-akfmr7b3t57bfs6qan3padb2wnb2i7cl
QCAUX:       /cm/shared/apps/spack/cpu/opt/spack/linux-centos8-zen2/gcc-10.2.0/qchem-5.4-akfmr7b3t57bfs6qan3padb2wnb2i7cl/qcaux
QCPROG:      /cm/shared/apps/spack/cpu/opt/spack/linux-centos8-zen2/gcc-10.2.0/qchem-5.4-akfmr7b3t57bfs6qan3padb2wnb2i7cl/exe/qcprog.exe_s
QCPROG_S:    /cm/shared/apps/spack/cpu/opt/spack/linux-centos8-zen2/gcc-10.2.0/qchem-5.4-akfmr7b3t57bfs6qan3padb2wnb2i7cl/exe/qcprog.exe_s
PARALLEL:    -DSERIAL
QCMPI:       mpich
#
# qchem directory setting
#
qcrun:       qchem1685722
QCSCRATCH:   .
QCLOCALSCR:  
QCTMPDIR:    .
QCFILEPREF:  ./qchem1685722
QCSAVEDIR:   
workdirs:    ./qchem1685722
workdir0:    ./qchem1685722
partmpdirs =  
#
# parallel setting
#
QCRSH:           ssh
QCMPI:           mpich
QCMPIRUN:        /cm/shared/apps/spack/cpu/opt/spack/linux-centos8-zen2/gcc-10.2.0/qchem-5.4-akfmr7b3t57bfs6qan3padb2wnb2i7cl/bin/mpi/mpirun_qchem
QCMACHINEFILE:   ./qchem1685722/hostfile

#
# env setting
#
exported envs:   QC QCAUX QCSCRATCH QCRUNNAME QCFILEPREF QCPROG QCPROG_S GUIFILE

Running Job 1 of 1 Methylthiophene_Phi_10_Theta_170_Methylthiophene_Hydrogenated.qcin
qchem Methylthiophene_Phi_10_Theta_170_Methylthiophene_Hydrogenated.qcin_1685722.0 ./qchem1685722/ 0
/cm/shared/apps/spack/cpu/opt/spack/linux-centos8-zen2/gcc-10.2.0/qchem-5.4-akfmr7b3t57bfs6qan3padb2wnb2i7cl/exe/qcprog.exe_s Methylthiophene_Phi_10_Theta_170_Methylthiophene_Hydrogenated.qcin_1685722.0 ./qchem1685722/
                  Welcome to Q-Chem
     A Quantum Leap Into The Future Of Chemistry


 Q-Chem 5.4, Q-Chem, Inc., Pleasanton, CA (2021)

 License issued to: University of California, San Diego (site)

 E. Epifanovsky,  A. T. B. Gilbert,  Xintian Feng,  Joonho Lee,  Yuezhi Mao,  
 N. Mardirossian,  P. Pokhilko,  A. White,  M. Wormit,  M. P. Coons,  
 A. L. Dempwolff,  Zhengting Gan,  D. Hait,  P. R. Horn,  L. D. Jacobson,  
 I. Kaliman,  J. Kussmann,  A. W. Lange,  Ka Un Lao,  D. S. Levine,  Jie Liu,  
 S. C. McKenzie,  A. F. Morrison,  K. Nanda,  F. Plasser,  D. R. Rehn,  
 M. L. Vidal,  Zhi-Qiang You,  Ying Zhu,  B. Alam,  B. Albrecht,  
 A. Aldossary,  E. Alguire,  J. H. Andersen,  D. Barton,  K. Begam,  A. Behn,  
 Y. A. Bernard,  E. J. Berquist,  H. Burton,  A. Carreras,  K. Carter-Fenk,  
 R. Chakraborty,  A. D. Chien,  K. D. Closser,  V. Cofer-Shabica,  
 S. Dasgupta,  Jia Deng,  M. de Wergifosse,  M. Diedenhofen,  Hainam Do,  
 S. Ehlert,  Po-Tung Fang,  S. Fatehi,  Qingguo Feng,  J. Gayvert,  
 Qinghui Ge,  G. Gidofalvi,  M. Goldey,  J. Gomes,  C. Gonzalez-Espinoza,  
 S. Gulania,  A. Gunina,  M. W. D. Hanson-Heine,  P. H. P. Harbach,  
 A. W. Hauser,  M. F. Herbst,  M. Hernandez Vera,  M. Hodecker,  
 Z. C. Holden,  S. Houck,  Xunkun Huang,  Kerwin Hui,  B. C. Huynh,  
 M. Ivanov,  Hyunjun Ji,  Hanjie Jiang,  B. Kaduk,  S. Kaehler,  
 K. Khistyaev,  Jaehoon Kim,  P. Klunzinger,  Z. Koczor-Benda,  
 Joong Hoon Koh,  D. Kosenkov,  L. Koulias,  T. Kowalczyk,  C. M. Krauter,  
 K. Kue,  A. Kunitsa,  T. Kus,  A. Landau,  K. V. Lawler,  D. Lefrancois,  
 S. Lehtola,  Rain Li,  Yi-Pei Li,  Jiashu Liang,  M. Liebenthal,  
 Hung-Hsuan Lin,  You-Sheng Lin,  Fenglai Liu,  Kuan-Yu Liu,  
 M. Loipersberger,  A. Luenser,  A. Manjanath,  P. Manohar,  E. Mansoor,  
 S. F. Manzer,  Shan-Ping Mao,  A. V. Marenich,  T. Markovich,  S. Mason,  
 S. A. Maurer,  P. F. McLaughlin,  M. F. S. J. Menger,  J.-M. Mewes,  
 S. A. Mewes,  P. Morgante,  J. W. Mullinax,  T. S. Nguyen-Beck,  
 K. J. Oosterbaan,  G. Paran,  Alexander C. Paul,  Suranjan K. Paul,  
 F. Pavosevic,  Zheng Pei,  S. Prager,  E. I. Proynov,  E. Ramos,  B. Rana,  
 A. E. Rask,  A. Rettig,  R. M. Richard,  F. Rob,  E. Rossomme,  T. Scheele,  
 M. Scheurer,  M. Schneider,  N. Sergueev,  S. M. Sharada,  W. Skomorowski,  
 D. W. Small,  C. J. Stein,  Yu-Chuan Su,  E. J. Sundstrom,  Zhen Tao,  
 J. Thirman,  T. Tsuchimochi,  N. M. Tubman,  S. P. Veccham,  O. Vydrov,  
 J. Wenzel,  J. Witte,  A. Yamada,  Kun Yao,  S. Yeganeh,  S. R. Yost,  
 A. Zech,  Igor Ying Zhang,  Xing Zhang,  Yu Zhang,  D. Zuev,  
 A. Aspuru-Guzik,  A. T. Bell,  N. A. Besley,  K. B. Bravaya,  B. R. Brooks,  
 D. Casanova,  Jeng-Da Chai,  S. Coriani,  C. J. Cramer,  
 A. E. DePrince, III,  R. A. DiStasio Jr.,  A. Dreuw,  B. D. Dunietz,  
 T. R. Furlani,  W. A. Goddard III,  S. Grimme,  S. Hammes-Schiffer,  
 T. Head-Gordon,  W. J. Hehre,  Chao-Ping Hsu,  T.-C. Jagau,  Yousung Jung,  
 A. Klamt,  Jing Kong,  D. S. Lambrecht,  WanZhen Liang,  N. J. Mayhall,  
 C. W. McCurdy,  J. B. Neaton,  C. Ochsenfeld,  J. A. Parkhill,  R. Peverati,  
 V. A. Rassolov,  Yihan Shao,  L. V. Slipchenko,  T. Stauch,  R. P. Steele,  
 J. E. Subotnik,  A. J. W. Thom,  A. Tkatchenko,  D. G. Truhlar,  
 T. Van Voorhis,  T. A. Wesolowski,  K. B. Whaley,  H. L. Woodcock III,  
 P. M. Zimmerman,  S. Faraji,  P. M. W. Gill,  M. Head-Gordon,  
 J. M. Herbert,  A. I. Krylov

 Contributors to earlier versions of Q-Chem not listed above: 
 R. D. Adamson,  B. Austin,  R. Baer,  J. Baker,  G. J. O. Beran,  
 K. Brandhorst,  S. T. Brown,  E. F. C. Byrd,  A. K. Chakraborty,  
 G. K. L. Chan,  Chun-Min Chang,  Yunqing Chen,  C.-L. Cheng,  
 Siu Hung Chien,  D. M. Chipman,  D. L. Crittenden,  H. Dachsel,  
 R. J. Doerksen,  A. D. Dutoi,  R. G. Edgar,  J. Fosso-Tande,  
 L. Fusti-Molnar,  D. Ghosh,  A. Ghysels,  A. Golubeva-Zadorozhnaya,  
 J. Gonthier,  M. S. Gordon,  S. R. Gwaltney,  G. Hawkins,  J. E. Herr,  
 A. Heyden,  S. Hirata,  E. G. Hohenstein,  G. Kedziora,  F. J. Keil,  
 C. Kelley,  Jihan Kim,  R. A. King,  R. Z. Khaliullin,  P. P. Korambath,  
 W. Kurlancheek,  A. Laurent,  A. M. Lee,  M. S. Lee,  S. V. Levchenko,  
 Ching Yeh Lin,  D. Liotard,  E. Livshits,  R. C. Lochan,  I. Lotan,  
 L. A. Martinez-Martinez,  P. E. Maslen,  N. Nair,  D. P. O'Neill,  
 D. Neuhauser,  E. Neuscamman,  C. M. Oana,  R. Olivares-Amaya,  R. Olson,  
 T. M. Perrine,  B. Peters,  P. A. Pieniazek,  A. Prociuk,  Y. M. Rhee,  
 J. Ritchie,  M. A. Rohrdanz,  E. Rosta,  N. J. Russ,  H. F. Schaefer III,  
 M. W. Schmidt,  N. E. Schultz,  S. Sharma,  N. Shenvi,  C. D. Sherrill,  
 A. C. Simmonett,  A. Sodt,  T. Stein,  D. Stuck,  K. S. Thanthiriwatte,  
 V. Vanovschi,  L. Vogt,  Tao Wang,  A. Warshel,  M. A. Watson,  
 C. F. Williams,  Q. Wu,  X. Xu,  Jun Yang,  W. Zhang,  Yan Zhao

 Please cite Q-Chem as follows:
 Y. Shao et al., Mol. Phys. 113, 184-215 (2015)
 DOI: 10.1080/00268976.2014.952696

 Q-Chem 5.4.0 for Intel X86 EM64T Linux

 Parts of Q-Chem use Armadillo 9.800.1 (Horizon Scraper).
 http://arma.sourceforge.net/

 Q-Chem begins on Sun Jul 10 02:05:14 2022  

 Host: 
0

     Scratch files written to ./qchem1685722//
 May1621 |scratch|qcdevops|jenkins|workspace|build_RNUM    
 Processing $rem in /cm/shared/apps/spack/cpu/opt/spack/linux-centos8-zen2/gcc-10.2.0/qchem-5.4-akfmr7b3t57bfs6qan3padb2wnb2i7cl/config/preferences:
 Processing $rem in /home/theleonzhang/.qchemrc:
 Symmetry turned off for PCM/SM12/SMD calculation
 Core orbitals will be frozen

 Checking the input file for inconsistencies... 	...done.

--------------------------------------------------------------
User input:
--------------------------------------------------------------
$molecule
0 1
C	-0.133897	-3.866725	-0.763475
C	0.106669	-3.703963	0.603206
C	0.185154	-2.357056	1.050446
H	0.226709	-4.561092	1.283024
C	-0.000000	-1.440664	-0.000000
S	-0.268206	-2.286957	-1.521018
C	0.437628	-1.978743	2.483610
H	0.549717	-2.878678	3.118875
H	-0.394664	-1.376015	2.903464
H	1.363110	-1.375728	2.593726
C	0.000000	0.000000	0.000000
C	0.149995	0.850475	1.099446
C	0.390327	2.213354	0.776721
H	0.085947	0.487279	2.136088
C	0.428665	2.430655	-0.612546
S	0.163670	0.928078	-1.486809
C	0.579235	3.284574	1.814609
H	0.505323	2.865404	2.836676
H	-0.185980	4.083890	1.726239
H	1.571698	3.773937	1.726228
H	0.593515	3.365448	-1.161575
H	-1.077442	-4.392713	-0.946698
H	0.690363	-4.392347	-1.258274
H	-1.063612	-1.440937	0.187427
$end

$rem
JOBTYPE		SP
EXCHANGE	HF
CORRELATION	pRIMP2
BASIS		cc-pvtz
METHOD		rimp2
AUX_BASIS	rimp2-cc-pvtz
SOLVENT_METHOD	PCM
PURECART	11111
SYMMETRY	false
MEM_TOTAL	110000
SCF_CONVERGENCE = 6
THRESH=10
$end



$solvent
dielectric 4.90
$end
--------------------------------------------------------------
 ----------------------------------------------------------------
             Standard Nuclear Orientation (Angstroms)
    I     Atom           X                Y                Z
 ----------------------------------------------------------------
    1      C      -0.1338970000    -3.8667250000    -0.7634750000
    2      C       0.1066690000    -3.7039630000     0.6032060000
    3      C       0.1851540000    -2.3570560000     1.0504460000
    4      H       0.2267090000    -4.5610920000     1.2830240000
    5      C       0.0000000000    -1.4406640000     0.0000000000
    6      S      -0.2682060000    -2.2869570000    -1.5210180000
    7      C       0.4376280000    -1.9787430000     2.4836100000
    8      H       0.5497170000    -2.8786780000     3.1188750000
    9      H      -0.3946640000    -1.3760150000     2.9034640000
   10      H       1.3631100000    -1.3757280000     2.5937260000
   11      C       0.0000000000     0.0000000000     0.0000000000
   12      C       0.1499950000     0.8504750000     1.0994460000
   13      C       0.3903270000     2.2133540000     0.7767210000
   14      H       0.0859470000     0.4872790000     2.1360880000
   15      C       0.4286650000     2.4306550000    -0.6125460000
   16      S       0.1636700000     0.9280780000    -1.4868090000
   17      C       0.5792350000     3.2845740000     1.8146090000
   18      H       0.5053230000     2.8654040000     2.8366760000
   19      H      -0.1859800000     4.0838900000     1.7262390000
   20      H       1.5716980000     3.7739370000     1.7262280000
   21      H       0.5935150000     3.3654480000    -1.1615750000
   22      H      -1.0774420000    -4.3927130000    -0.9466980000
   23      H       0.6903630000    -4.3923470000    -1.2582740000
   24      H      -1.0636120000    -1.4409370000     0.1874270000
 ----------------------------------------------------------------
 Nuclear Repulsion Energy =         876.45421021 hartrees
 There are       52 alpha and       52 beta electrons

 Q-Chem warning in module forms1/BasisType.C, line 2236:

 You are not using the predefined 5D/6D in this basis set.

 Requested basis set is cc-pVTZ
 There are 196 shells and 536 basis functions

 Total QAlloc Memory Limit 110000 MB
 Mega-Array Size       188 MB
 MEM_STATIC part       192 MB
 Discretize the solute cavity surface with Lebedev spheres
	Using 110 Lebedev grid points for each H atom
	Using 194 Lebedev grid points for other atoms
	Atomic van der Waals radii will be scaled by 1.20
 Remove points where switching function is < 1.0e-08
 Keep 1588 surface tesserae and discard 2060 interior tesserae
 Molecular Surface Area = 230.643 Angst**2
 Requested basis set is rimp2-cc-pVTZ
 There are 414 shells and 1414 basis functions
 A cutoff of  1.0D-10 yielded  14059 shell pairs
 There are    101817 function pairs (    130463 Cartesian)
 Smallest overlap matrix eigenvalue = 4.30E-05

 Scale SEOQF with 1.000000e-01/1.000000e-01/1.000000e-01

 Standard Electronic Orientation quadrupole field applied
 Nucleus-field energy     =     0.0000000214 hartrees
 Guess from superposition of atomic densities
 Warning:  Energy on first SCF cycle will be non-variational
 SAD guess density has 104.000000 electrons

 -----------------------------------------------------------------------
  General SCF calculation program by
  Eric Jon Sundstrom, Paul Horn, Yuezhi Mao, Dmitri Zuev, Alec White,
  David Stuck, Shaama M.S., Shane Yost, Joonho Lee, David Small,
  Daniel Levine, Susi Lehtola, Hugh Burton, Evgeny Epifanovsky,
  Bang C. Huynh
 -----------------------------------------------------------------------
 Hartree-Fock
 A restricted SCF calculation will be
 performed using DIIS
 SCF converges when DIIS error is below 1.0e-06
 ---------------------------------------
  Cycle       Energy         DIIS error
 ---------------------------------------
    1   -1186.0577751075      2.39e-02  
    2   -1180.6042722134      1.59e-03  
    3   -1180.7310128792      6.66e-04  
    4   -1180.7475078381      3.48e-04  
    5   -1180.7532052348      5.98e-05  
    6   -1180.7534559703      2.49e-05  
    7   -1180.7535148101      8.73e-06  
    8   -1180.7535271535      4.19e-06  
    9   -1180.7535298849      1.42e-06  
   10   -1180.7535303022      5.09e-07  Convergence criterion met
 ---------------------------------------
 SCF time:   CPU 583.84s  wall 588.00s 

************** Final PCM Free Energy Summary **************
 G_electrostatic  =      -0.00962435 hartree =      -6.03937044 kcal/mol
 G_cavitation     =       0.00000000 hartree =       0.00000000 kcal/mol
 G_dispersion     =       0.00000000 hartree =       0.00000000 kcal/mol
 G_repulsion      =       0.00000000 hartree =       0.00000000 kcal/mol
 --------------------------------------------------
 Non-electrostatic Free Energy =       0.00000000 hartree =       0.00000000 kcal/mol
 Total                         =      -0.00962435 hartree =      -6.03937044 kcal/mol
 --------------------------------------------------
 SCF Energy (H0 + V/2)                       =   -1180.75353030 
 Solute Internal Energy (H0)                 =   -1180.74390595 
 Total Free Energy (H0 + V/2 + non-elec)     =   -1180.75353030 hartree
                                             = -740934.02318130 kcal/mol
***********************************************************

 SCF   energy in the final basis set =    -1180.7535303022
 Total energy in the final basis set =    -1180.7535303022


 --------------------------------------------------------------
  Generalized many-body perturbation theory program
  by Joonho Lee, Fazle Rob, Xintian Feng, Evgeny Epifanovsky

 No regularization used 
 (reg. param. = 0.0000e+00)
  (P|Q)^-1/2 Time:  CPU 1.90 s  wall 1.91 s

 In RI-MP2 calculation: 
 # of frozen core orbitals: 20

 Components of the RIMP2 correlation energy:
        aaaa    correlation energy =        -0.2517120781 a.u.
        abab    correlation energy =        -1.5035076189 a.u.
        bbbb    correlation energy =        -0.2517120781 a.u.
        non-Brillouin singles      =        -0.0000000000 a.u.
        total same-spin energy     =        -0.5034241562 a.u.
        total opposite-spin energy =        -1.5035076189 a.u.

 Total  RIMP2   correlation energy =        -2.0069317751 a.u.
        RIMP2         total energy =     -1182.7604620773 a.u.

 RI-MP2 Energy Time:  CPU 80.67 s  wall 80.96 s
 
 --------------------------------------------------------------
 
                    Orbital Energies (a.u.)
 --------------------------------------------------------------
 
 Alpha MOs
 -- Occupied --
-91.9837 -91.9464 -11.2894 -11.2669 -11.2613 -11.2535 -11.2498 -11.2447
-11.2343 -11.2288 -11.2280 -11.2236  -8.9833  -8.9511  -6.6642  -6.6637
 -6.6630  -6.6325  -6.6314  -6.6302  -1.2025  -1.1522  -1.0604  -1.0323
 -1.0014  -0.9616  -0.9165  -0.8995  -0.8186  -0.7635  -0.7267  -0.7070
 -0.6579  -0.6489  -0.6104  -0.5943  -0.5865  -0.5689  -0.5601  -0.5519
 -0.5445  -0.5360  -0.5239  -0.5020  -0.4852  -0.4812  -0.4696  -0.4432
 -0.3612  -0.3437  -0.3236  -0.2637
 -- Virtual --
  0.1060   0.1299   0.1404   0.1484   0.1564   0.1712   0.1725   0.1865
  0.1887   0.2042   0.2075   0.2124   0.2180   0.2334   0.2370   0.2422
  0.2613   0.2735   0.2913   0.3073   0.3147   0.3241   0.3548   0.3581
  0.3713   0.3752   0.3888   0.3940   0.4022   0.4089   0.4157   0.4248
  0.4361   0.4589   0.4611   0.4717   0.4752   0.4784   0.4846   0.4963
  0.5102   0.5237   0.5243   0.5319   0.5415   0.5441   0.5492   0.5621
  0.5650   0.5820   0.5880   0.5952   0.6016   0.6122   0.6159   0.6235
  0.6254   0.6288   0.6326   0.6365   0.6424   0.6477   0.6521   0.6617
  0.6702   0.6769   0.6789   0.6928   0.6947   0.7203   0.7245   0.7332
  0.7467   0.7568   0.7629   0.7730   0.7847   0.8014   0.8129   0.8188
  0.8343   0.8433   0.8559   0.8661   0.8856   0.9026   0.9053   0.9162
  0.9372   0.9510   0.9531   0.9634   0.9750   0.9932   1.0008   1.0143
  1.0296   1.0352   1.0435   1.0451   1.0575   1.0623   1.0773   1.0855
  1.0883   1.0962   1.1022   1.1237   1.1450   1.1510   1.1576   1.1688
  1.1830   1.1843   1.2040   1.2122   1.2143   1.2192   1.2306   1.2396
  1.2461   1.2563   1.2634   1.2775   1.2846   1.2979   1.3051   1.3164
  1.3201   1.3337   1.3433   1.3627   1.3645   1.3771   1.4144   1.4154
  1.4297   1.4392   1.4452   1.4666   1.4787   1.4857   1.4875   1.4985
  1.5133   1.5194   1.5259   1.5335   1.5364   1.5400   1.5479   1.5622
  1.5801   1.5923   1.6034   1.6084   1.6117   1.6279   1.6393   1.6440
  1.6513   1.6604   1.6863   1.6957   1.7114   1.7190   1.7257   1.7327
  1.7653   1.7676   1.7850   1.7930   1.8232   1.8357   1.8547   1.8739
  1.8832   1.8939   1.9088   1.9254   1.9537   1.9770   1.9856   2.0005
  2.0215   2.0398   2.0595   2.0645   2.0980   2.1076   2.1445   2.1723
  2.1831   2.1994   2.2085   2.2201   2.2359   2.2412   2.2634   2.2797
  2.2913   2.3046   2.3219   2.3871   2.4121   2.4413   2.4590   2.4755
  2.5017   2.5223   2.5344   2.5407   2.5676   2.5957   2.5989   2.6243
  2.6305   2.6514   2.6525   2.6711   2.6746   2.6945   2.7180   2.7368
  2.7480   2.7629   2.7655   2.7718   2.7834   2.7961   2.8057   2.8095
  2.8290   2.8519   2.8562   2.8763   2.8916   2.8995   2.9219   2.9301
  2.9403   2.9526   2.9779   2.9973   3.0121   3.0244   3.0341   3.0428
  3.0742   3.0879   3.0968   3.1090   3.1149   3.1156   3.1224   3.1441
  3.1578   3.1607   3.1667   3.1791   3.1838   3.1935   3.2029   3.2107
  3.2219   3.2366   3.2494   3.2663   3.2669   3.2828   3.2957   3.3014
  3.3089   3.3271   3.3355   3.3431   3.3465   3.3612   3.3636   3.3699
  3.3797   3.3875   3.3920   3.3987   3.3999   3.4195   3.4229   3.4265
  3.4371   3.4514   3.4558   3.4651   3.4814   3.4912   3.5046   3.5099
  3.5118   3.5193   3.5294   3.5366   3.5424   3.5581   3.5663   3.5766
  3.5793   3.5961   3.6141   3.6174   3.6307   3.6385   3.6491   3.6595
  3.6621   3.6827   3.6929   3.7018   3.7155   3.7239   3.7345   3.7445
  3.7501   3.7551   3.7631   3.7740   3.7905   3.7951   3.8066   3.8185
  3.8268   3.8371   3.8577   3.8679   3.8787   3.8900   3.8988   3.9091
  3.9309   3.9419   3.9608   3.9672   3.9870   3.9894   4.0132   4.0243
  4.0374   4.0495   4.0564   4.0617   4.0664   4.0887   4.0914   4.1059
  4.1249   4.1431   4.1464   4.1546   4.1662   4.1727   4.1878   4.1888
  4.2169   4.2231   4.2320   4.2449   4.2573   4.2652   4.2710   4.2990
  4.3023   4.3058   4.3253   4.3396   4.3430   4.3513   4.3664   4.3736
  4.3794   4.4022   4.4042   4.4211   4.4272   4.4382   4.4421   4.4492
  4.4673   4.4742   4.4854   4.4966   4.5207   4.5372   4.5585   4.5750
  4.5942   4.6035   4.6069   4.6208   4.6456   4.6563   4.6581   4.6880
  4.6930   4.7262   4.7581   4.7741   4.7989   4.8106   4.8252   4.8494
  4.8638   4.8683   4.8866   4.9216   4.9471   4.9723   4.9805   5.0003
  5.0521   5.0795   5.0989   5.1192   5.1200   5.1325   5.1688   5.1945
  5.2164   5.2338   5.2567   5.2672   5.2871   5.2995   5.3125   5.3309
  5.3578   5.3653   5.3794   5.4009   5.4112   5.4259   5.4400   5.4415
  5.4676   5.5228   5.5303   5.5452   5.5525   5.5677   5.5759   5.6037
  5.6190   5.6221   5.6315   5.6592   5.6789   5.7086   5.7110   5.7436
  5.7722   5.8027   5.8402   5.9685   6.0313   6.0873   6.1391   6.1830
  6.2228   6.2276   6.2323   6.2647   6.2773   6.2931   6.3127   6.4017
  6.4310   6.5903   9.5735  10.9811  12.0783  12.9727  13.1767  13.9255
 14.1229  14.2145  14.4171  15.2167
 --------------------------------------------------------------
 
          Ground-State Mulliken Net Atomic Charges

     Atom                 Charge (a.u.)
  ----------------------------------------
      1 C                    -0.073727
      2 C                    -0.313717
      3 C                    -0.064619
      4 H                     0.179356
      5 C                     0.147151
      6 S                    -0.180016
      7 C                    -0.302199
      8 H                     0.122867
      9 H                     0.101849
     10 H                     0.115511
     11 C                    -0.055861
     12 C                    -0.288912
     13 C                     0.045096
     14 H                     0.188818
     15 C                    -0.285338
     16 S                     0.011479
     17 C                    -0.272855
     18 H                     0.100455
     19 H                     0.108360
     20 H                     0.108603
     21 H                     0.195958
     22 H                     0.112375
     23 H                     0.113743
     24 H                     0.185621
  ----------------------------------------
  Sum of atomic charges =     0.000000

 -----------------------------------------------------------------
                    Cartesian Multipole Moments
 -----------------------------------------------------------------
    Charge (ESU x 10^10)
                -0.0000
    Dipole Moment (Debye)
         X      -0.2100      Y      -0.5126      Z       3.8824
       Tot       3.9217
    Quadrupole Moments (Debye-Ang)
        XX     -91.3657     XY       2.5570     YY     -73.1559
        XZ       0.5318     YZ      -2.5394     ZZ     -85.7840
    Octopole Moments (Debye-Ang^2)
       XXX     -38.6679    XXY      45.5751    XYY      -8.0906
       YYY     114.4107    XXZ      -2.7553    XYZ      -1.9725
       YYZ      -4.0486    XZZ      -9.0038    YZZ      49.9168
       ZZZ       7.8443
    Hexadecapole Moments (Debye-Ang^3)
      XXXX    -184.0741   XXXY     -86.6453   XXYY    -552.1207
      XYYY     -62.8097   YYYY   -2738.1845   XXXZ     -65.9381
      XXYZ     -28.8697   XYYZ     -16.5298   YYYZ    -102.5198
      XXZZ    -222.4942   XYZZ     -30.3471   YYZZ    -652.7005
      XZZZ     -60.5968   YZZZ    -130.1729   ZZZZ   -1083.1160
 -----------------------------------------------------------------
 Total job time:  671.95s(wall), 665.42s(cpu) 
 Sun Jul 10 02:16:26 2022

        *************************************************************
        *                                                           *
        *  Thank you very much for using Q-Chem.  Have a nice day.  *
        *                                                           *
        *************************************************************


remove work dirs ./qchem1685722.0 -- ./qchem1685722.-1
rm -rf ./qchem1685722
You are running Q-Chem version: 5.4.0

#
# job setting
#
local host:  exp-1-04
current dir: /expanse/lustre/scratch/theleonzhang/temp_project/Hydrogenated_Rotation_Test
input file:  Methylthiophene_Phi_10_Theta_170_Methylthiophene_Hydrogenated.qcin
output file: 
nprocs     : 0
nthreads   : 1
#
# qchem installation setting
#
QC:          /cm/shared/apps/spack/cpu/opt/spack/linux-centos8-zen2/gcc-10.2.0/qchem-5.4-akfmr7b3t57bfs6qan3padb2wnb2i7cl
QCAUX:       /cm/shared/apps/spack/cpu/opt/spack/linux-centos8-zen2/gcc-10.2.0/qchem-5.4-akfmr7b3t57bfs6qan3padb2wnb2i7cl/qcaux
QCPROG:      /cm/shared/apps/spack/cpu/opt/spack/linux-centos8-zen2/gcc-10.2.0/qchem-5.4-akfmr7b3t57bfs6qan3padb2wnb2i7cl/exe/qcprog.exe_s
QCPROG_S:    /cm/shared/apps/spack/cpu/opt/spack/linux-centos8-zen2/gcc-10.2.0/qchem-5.4-akfmr7b3t57bfs6qan3padb2wnb2i7cl/exe/qcprog.exe_s
PARALLEL:    -DSERIAL
QCMPI:       mpich
#
# qchem directory setting
#
qcrun:       qchem1180383
QCSCRATCH:   .
QCLOCALSCR:  
QCTMPDIR:    .
QCFILEPREF:  ./qchem1180383
QCSAVEDIR:   
workdirs:    ./qchem1180383
workdir0:    ./qchem1180383
partmpdirs =  
#
# parallel setting
#
QCRSH:           ssh
QCMPI:           mpich
QCMPIRUN:        /cm/shared/apps/spack/cpu/opt/spack/linux-centos8-zen2/gcc-10.2.0/qchem-5.4-akfmr7b3t57bfs6qan3padb2wnb2i7cl/bin/mpi/mpirun_qchem
QCMACHINEFILE:   ./qchem1180383/hostfile

#
# env setting
#
exported envs:   QC QCAUX QCSCRATCH QCRUNNAME QCFILEPREF QCPROG QCPROG_S GUIFILE

Running Job 1 of 1 Methylthiophene_Phi_10_Theta_170_Methylthiophene_Hydrogenated.qcin
qchem Methylthiophene_Phi_10_Theta_170_Methylthiophene_Hydrogenated.qcin_1180383.0 ./qchem1180383/ 0
/cm/shared/apps/spack/cpu/opt/spack/linux-centos8-zen2/gcc-10.2.0/qchem-5.4-akfmr7b3t57bfs6qan3padb2wnb2i7cl/exe/qcprog.exe_s Methylthiophene_Phi_10_Theta_170_Methylthiophene_Hydrogenated.qcin_1180383.0 ./qchem1180383/
                  Welcome to Q-Chem
     A Quantum Leap Into The Future Of Chemistry


 Q-Chem 5.4, Q-Chem, Inc., Pleasanton, CA (2021)

 License issued to: University of California, San Diego (site)

 E. Epifanovsky,  A. T. B. Gilbert,  Xintian Feng,  Joonho Lee,  Yuezhi Mao,  
 N. Mardirossian,  P. Pokhilko,  A. White,  M. Wormit,  M. P. Coons,  
 A. L. Dempwolff,  Zhengting Gan,  D. Hait,  P. R. Horn,  L. D. Jacobson,  
 I. Kaliman,  J. Kussmann,  A. W. Lange,  Ka Un Lao,  D. S. Levine,  Jie Liu,  
 S. C. McKenzie,  A. F. Morrison,  K. Nanda,  F. Plasser,  D. R. Rehn,  
 M. L. Vidal,  Zhi-Qiang You,  Ying Zhu,  B. Alam,  B. Albrecht,  
 A. Aldossary,  E. Alguire,  J. H. Andersen,  D. Barton,  K. Begam,  A. Behn,  
 Y. A. Bernard,  E. J. Berquist,  H. Burton,  A. Carreras,  K. Carter-Fenk,  
 R. Chakraborty,  A. D. Chien,  K. D. Closser,  V. Cofer-Shabica,  
 S. Dasgupta,  Jia Deng,  M. de Wergifosse,  M. Diedenhofen,  Hainam Do,  
 S. Ehlert,  Po-Tung Fang,  S. Fatehi,  Qingguo Feng,  J. Gayvert,  
 Qinghui Ge,  G. Gidofalvi,  M. Goldey,  J. Gomes,  C. Gonzalez-Espinoza,  
 S. Gulania,  A. Gunina,  M. W. D. Hanson-Heine,  P. H. P. Harbach,  
 A. W. Hauser,  M. F. Herbst,  M. Hernandez Vera,  M. Hodecker,  
 Z. C. Holden,  S. Houck,  Xunkun Huang,  Kerwin Hui,  B. C. Huynh,  
 M. Ivanov,  Hyunjun Ji,  Hanjie Jiang,  B. Kaduk,  S. Kaehler,  
 K. Khistyaev,  Jaehoon Kim,  P. Klunzinger,  Z. Koczor-Benda,  
 Joong Hoon Koh,  D. Kosenkov,  L. Koulias,  T. Kowalczyk,  C. M. Krauter,  
 K. Kue,  A. Kunitsa,  T. Kus,  A. Landau,  K. V. Lawler,  D. Lefrancois,  
 S. Lehtola,  Rain Li,  Yi-Pei Li,  Jiashu Liang,  M. Liebenthal,  
 Hung-Hsuan Lin,  You-Sheng Lin,  Fenglai Liu,  Kuan-Yu Liu,  
 M. Loipersberger,  A. Luenser,  A. Manjanath,  P. Manohar,  E. Mansoor,  
 S. F. Manzer,  Shan-Ping Mao,  A. V. Marenich,  T. Markovich,  S. Mason,  
 S. A. Maurer,  P. F. McLaughlin,  M. F. S. J. Menger,  J.-M. Mewes,  
 S. A. Mewes,  P. Morgante,  J. W. Mullinax,  T. S. Nguyen-Beck,  
 K. J. Oosterbaan,  G. Paran,  Alexander C. Paul,  Suranjan K. Paul,  
 F. Pavosevic,  Zheng Pei,  S. Prager,  E. I. Proynov,  E. Ramos,  B. Rana,  
 A. E. Rask,  A. Rettig,  R. M. Richard,  F. Rob,  E. Rossomme,  T. Scheele,  
 M. Scheurer,  M. Schneider,  N. Sergueev,  S. M. Sharada,  W. Skomorowski,  
 D. W. Small,  C. J. Stein,  Yu-Chuan Su,  E. J. Sundstrom,  Zhen Tao,  
 J. Thirman,  T. Tsuchimochi,  N. M. Tubman,  S. P. Veccham,  O. Vydrov,  
 J. Wenzel,  J. Witte,  A. Yamada,  Kun Yao,  S. Yeganeh,  S. R. Yost,  
 A. Zech,  Igor Ying Zhang,  Xing Zhang,  Yu Zhang,  D. Zuev,  
 A. Aspuru-Guzik,  A. T. Bell,  N. A. Besley,  K. B. Bravaya,  B. R. Brooks,  
 D. Casanova,  Jeng-Da Chai,  S. Coriani,  C. J. Cramer,  
 A. E. DePrince, III,  R. A. DiStasio Jr.,  A. Dreuw,  B. D. Dunietz,  
 T. R. Furlani,  W. A. Goddard III,  S. Grimme,  S. Hammes-Schiffer,  
 T. Head-Gordon,  W. J. Hehre,  Chao-Ping Hsu,  T.-C. Jagau,  Yousung Jung,  
 A. Klamt,  Jing Kong,  D. S. Lambrecht,  WanZhen Liang,  N. J. Mayhall,  
 C. W. McCurdy,  J. B. Neaton,  C. Ochsenfeld,  J. A. Parkhill,  R. Peverati,  
 V. A. Rassolov,  Yihan Shao,  L. V. Slipchenko,  T. Stauch,  R. P. Steele,  
 J. E. Subotnik,  A. J. W. Thom,  A. Tkatchenko,  D. G. Truhlar,  
 T. Van Voorhis,  T. A. Wesolowski,  K. B. Whaley,  H. L. Woodcock III,  
 P. M. Zimmerman,  S. Faraji,  P. M. W. Gill,  M. Head-Gordon,  
 J. M. Herbert,  A. I. Krylov

 Contributors to earlier versions of Q-Chem not listed above: 
 R. D. Adamson,  B. Austin,  R. Baer,  J. Baker,  G. J. O. Beran,  
 K. Brandhorst,  S. T. Brown,  E. F. C. Byrd,  A. K. Chakraborty,  
 G. K. L. Chan,  Chun-Min Chang,  Yunqing Chen,  C.-L. Cheng,  
 Siu Hung Chien,  D. M. Chipman,  D. L. Crittenden,  H. Dachsel,  
 R. J. Doerksen,  A. D. Dutoi,  R. G. Edgar,  J. Fosso-Tande,  
 L. Fusti-Molnar,  D. Ghosh,  A. Ghysels,  A. Golubeva-Zadorozhnaya,  
 J. Gonthier,  M. S. Gordon,  S. R. Gwaltney,  G. Hawkins,  J. E. Herr,  
 A. Heyden,  S. Hirata,  E. G. Hohenstein,  G. Kedziora,  F. J. Keil,  
 C. Kelley,  Jihan Kim,  R. A. King,  R. Z. Khaliullin,  P. P. Korambath,  
 W. Kurlancheek,  A. Laurent,  A. M. Lee,  M. S. Lee,  S. V. Levchenko,  
 Ching Yeh Lin,  D. Liotard,  E. Livshits,  R. C. Lochan,  I. Lotan,  
 L. A. Martinez-Martinez,  P. E. Maslen,  N. Nair,  D. P. O'Neill,  
 D. Neuhauser,  E. Neuscamman,  C. M. Oana,  R. Olivares-Amaya,  R. Olson,  
 T. M. Perrine,  B. Peters,  P. A. Pieniazek,  A. Prociuk,  Y. M. Rhee,  
 J. Ritchie,  M. A. Rohrdanz,  E. Rosta,  N. J. Russ,  H. F. Schaefer III,  
 M. W. Schmidt,  N. E. Schultz,  S. Sharma,  N. Shenvi,  C. D. Sherrill,  
 A. C. Simmonett,  A. Sodt,  T. Stein,  D. Stuck,  K. S. Thanthiriwatte,  
 V. Vanovschi,  L. Vogt,  Tao Wang,  A. Warshel,  M. A. Watson,  
 C. F. Williams,  Q. Wu,  X. Xu,  Jun Yang,  W. Zhang,  Yan Zhao

 Please cite Q-Chem as follows:
 Y. Shao et al., Mol. Phys. 113, 184-215 (2015)
 DOI: 10.1080/00268976.2014.952696

 Q-Chem 5.4.0 for Intel X86 EM64T Linux

 Parts of Q-Chem use Armadillo 9.800.1 (Horizon Scraper).
 http://arma.sourceforge.net/

 Q-Chem begins on Sun Jul 10 02:40:07 2022  

 Host: 
0

     Scratch files written to ./qchem1180383//
 May1621 |scratch|qcdevops|jenkins|workspace|build_RNUM    
 Processing $rem in /cm/shared/apps/spack/cpu/opt/spack/linux-centos8-zen2/gcc-10.2.0/qchem-5.4-akfmr7b3t57bfs6qan3padb2wnb2i7cl/config/preferences:
 Processing $rem in /home/theleonzhang/.qchemrc:
 Symmetry turned off for PCM/SM12/SMD calculation
 Core orbitals will be frozen

 Checking the input file for inconsistencies... 	...done.

--------------------------------------------------------------
User input:
--------------------------------------------------------------
$molecule
0 1
C	-0.133897	-3.866725	-0.763475
C	0.106669	-3.703963	0.603206
C	0.185154	-2.357056	1.050446
H	0.226709	-4.561092	1.283024
C	-0.000000	-1.440664	-0.000000
S	-0.268206	-2.286957	-1.521018
C	0.437628	-1.978743	2.483610
H	0.549717	-2.878678	3.118875
H	-0.394664	-1.376015	2.903464
H	1.363110	-1.375728	2.593726
C	0.000000	0.000000	0.000000
C	0.149995	0.850475	1.099446
C	0.390327	2.213354	0.776721
H	0.085947	0.487279	2.136088
C	0.428665	2.430655	-0.612546
S	0.163670	0.928078	-1.486809
C	0.579235	3.284574	1.814609
H	0.505323	2.865404	2.836676
H	-0.185980	4.083890	1.726239
H	1.571698	3.773937	1.726228
H	0.593515	3.365448	-1.161575
H	-1.077442	-4.392713	-0.946698
H	0.690363	-4.392347	-1.258274
H	-1.063612	-1.440937	0.187427
$end

$rem
JOBTYPE		SP
EXCHANGE	HF
CORRELATION	pRIMP2
BASIS		cc-pvtz
METHOD		rimp2
AUX_BASIS	rimp2-cc-pvtz
SOLVENT_METHOD	PCM
PURECART	11111
SYMMETRY	false
MEM_TOTAL	110000
SCF_CONVERGENCE = 6
THRESH=10
$end



$solvent
dielectric 4.90
$end
--------------------------------------------------------------
 ----------------------------------------------------------------
             Standard Nuclear Orientation (Angstroms)
    I     Atom           X                Y                Z
 ----------------------------------------------------------------
    1      C      -0.1338970000    -3.8667250000    -0.7634750000
    2      C       0.1066690000    -3.7039630000     0.6032060000
    3      C       0.1851540000    -2.3570560000     1.0504460000
    4      H       0.2267090000    -4.5610920000     1.2830240000
    5      C       0.0000000000    -1.4406640000     0.0000000000
    6      S      -0.2682060000    -2.2869570000    -1.5210180000
    7      C       0.4376280000    -1.9787430000     2.4836100000
    8      H       0.5497170000    -2.8786780000     3.1188750000
    9      H      -0.3946640000    -1.3760150000     2.9034640000
   10      H       1.3631100000    -1.3757280000     2.5937260000
   11      C       0.0000000000     0.0000000000     0.0000000000
   12      C       0.1499950000     0.8504750000     1.0994460000
   13      C       0.3903270000     2.2133540000     0.7767210000
   14      H       0.0859470000     0.4872790000     2.1360880000
   15      C       0.4286650000     2.4306550000    -0.6125460000
   16      S       0.1636700000     0.9280780000    -1.4868090000
   17      C       0.5792350000     3.2845740000     1.8146090000
   18      H       0.5053230000     2.8654040000     2.8366760000
   19      H      -0.1859800000     4.0838900000     1.7262390000
   20      H       1.5716980000     3.7739370000     1.7262280000
   21      H       0.5935150000     3.3654480000    -1.1615750000
   22      H      -1.0774420000    -4.3927130000    -0.9466980000
   23      H       0.6903630000    -4.3923470000    -1.2582740000
   24      H      -1.0636120000    -1.4409370000     0.1874270000
 ----------------------------------------------------------------
 Nuclear Repulsion Energy =         876.45421021 hartrees
 There are       52 alpha and       52 beta electrons

 Q-Chem warning in module forms1/BasisType.C, line 2236:

 You are not using the predefined 5D/6D in this basis set.

 Requested basis set is cc-pVTZ
 There are 196 shells and 536 basis functions

 Total QAlloc Memory Limit 110000 MB
 Mega-Array Size       188 MB
 MEM_STATIC part       192 MB
 Discretize the solute cavity surface with Lebedev spheres
	Using 110 Lebedev grid points for each H atom
	Using 194 Lebedev grid points for other atoms
	Atomic van der Waals radii will be scaled by 1.20
 Remove points where switching function is < 1.0e-08
 Keep 1588 surface tesserae and discard 2060 interior tesserae
 Molecular Surface Area = 230.643 Angst**2
 Requested basis set is rimp2-cc-pVTZ
 There are 414 shells and 1414 basis functions
 A cutoff of  1.0D-10 yielded  14059 shell pairs
 There are    101817 function pairs (    130463 Cartesian)
 Smallest overlap matrix eigenvalue = 4.30E-05

 Scale SEOQF with 1.000000e-01/1.000000e-01/1.000000e-01

 Standard Electronic Orientation quadrupole field applied
 Nucleus-field energy     =     0.0000000214 hartrees
 Guess from superposition of atomic densities
 Warning:  Energy on first SCF cycle will be non-variational
 SAD guess density has 104.000000 electrons

 -----------------------------------------------------------------------
  General SCF calculation program by
  Eric Jon Sundstrom, Paul Horn, Yuezhi Mao, Dmitri Zuev, Alec White,
  David Stuck, Shaama M.S., Shane Yost, Joonho Lee, David Small,
  Daniel Levine, Susi Lehtola, Hugh Burton, Evgeny Epifanovsky,
  Bang C. Huynh
 -----------------------------------------------------------------------
 Hartree-Fock
 A restricted SCF calculation will be
 performed using DIIS
 SCF converges when DIIS error is below 1.0e-06
 ---------------------------------------
  Cycle       Energy         DIIS error
 ---------------------------------------
    1   -1186.0577751075      2.39e-02  
    2   -1180.6042722134      1.59e-03  
    3   -1180.7310128792      6.66e-04  
    4   -1180.7475078381      3.48e-04  
    5   -1180.7532052348      5.98e-05  
    6   -1180.7534559703      2.49e-05  
    7   -1180.7535148101      8.73e-06  
    8   -1180.7535271535      4.19e-06  
    9   -1180.7535298849      1.42e-06  
   10   -1180.7535303022      5.09e-07  Convergence criterion met
 ---------------------------------------
 SCF time:   CPU 594.33s  wall 597.00s 

************** Final PCM Free Energy Summary **************
 G_electrostatic  =      -0.00962435 hartree =      -6.03937044 kcal/mol
 G_cavitation     =       0.00000000 hartree =       0.00000000 kcal/mol
 G_dispersion     =       0.00000000 hartree =       0.00000000 kcal/mol
 G_repulsion      =       0.00000000 hartree =       0.00000000 kcal/mol
 --------------------------------------------------
 Non-electrostatic Free Energy =       0.00000000 hartree =       0.00000000 kcal/mol
 Total                         =      -0.00962435 hartree =      -6.03937044 kcal/mol
 --------------------------------------------------
 SCF Energy (H0 + V/2)                       =   -1180.75353030 
 Solute Internal Energy (H0)                 =   -1180.74390595 
 Total Free Energy (H0 + V/2 + non-elec)     =   -1180.75353030 hartree
                                             = -740934.02318130 kcal/mol
***********************************************************

 SCF   energy in the final basis set =    -1180.7535303022
 Total energy in the final basis set =    -1180.7535303022


 --------------------------------------------------------------
  Generalized many-body perturbation theory program
  by Joonho Lee, Fazle Rob, Xintian Feng, Evgeny Epifanovsky

 No regularization used 
 (reg. param. = 0.0000e+00)
  (P|Q)^-1/2 Time:  CPU 1.90 s  wall 1.91 s

 In RI-MP2 calculation: 
 # of frozen core orbitals: 20

 Components of the RIMP2 correlation energy:
        aaaa    correlation energy =        -0.2517120781 a.u.
        abab    correlation energy =        -1.5035076189 a.u.
        bbbb    correlation energy =        -0.2517120781 a.u.
        non-Brillouin singles      =        -0.0000000000 a.u.
        total same-spin energy     =        -0.5034241562 a.u.
        total opposite-spin energy =        -1.5035076189 a.u.

 Total  RIMP2   correlation energy =        -2.0069317751 a.u.
        RIMP2         total energy =     -1182.7604620773 a.u.

 RI-MP2 Energy Time:  CPU 79.89 s  wall 80.25 s
 
 --------------------------------------------------------------
 
                    Orbital Energies (a.u.)
 --------------------------------------------------------------
 
 Alpha MOs
 -- Occupied --
-91.9837 -91.9464 -11.2894 -11.2669 -11.2613 -11.2535 -11.2498 -11.2447
-11.2343 -11.2288 -11.2280 -11.2236  -8.9833  -8.9511  -6.6642  -6.6637
 -6.6630  -6.6325  -6.6314  -6.6302  -1.2025  -1.1522  -1.0604  -1.0323
 -1.0014  -0.9616  -0.9165  -0.8995  -0.8186  -0.7635  -0.7267  -0.7070
 -0.6579  -0.6489  -0.6104  -0.5943  -0.5865  -0.5689  -0.5601  -0.5519
 -0.5445  -0.5360  -0.5239  -0.5020  -0.4852  -0.4812  -0.4696  -0.4432
 -0.3612  -0.3437  -0.3236  -0.2637
 -- Virtual --
  0.1060   0.1299   0.1404   0.1484   0.1564   0.1712   0.1725   0.1865
  0.1887   0.2042   0.2075   0.2124   0.2180   0.2334   0.2370   0.2422
  0.2613   0.2735   0.2913   0.3073   0.3147   0.3241   0.3548   0.3581
  0.3713   0.3752   0.3888   0.3940   0.4022   0.4089   0.4157   0.4248
  0.4361   0.4589   0.4611   0.4717   0.4752   0.4784   0.4846   0.4963
  0.5102   0.5237   0.5243   0.5319   0.5415   0.5441   0.5492   0.5621
  0.5650   0.5820   0.5880   0.5952   0.6016   0.6122   0.6159   0.6235
  0.6254   0.6288   0.6326   0.6365   0.6424   0.6477   0.6521   0.6617
  0.6702   0.6769   0.6789   0.6928   0.6947   0.7203   0.7245   0.7332
  0.7467   0.7568   0.7629   0.7730   0.7847   0.8014   0.8129   0.8188
  0.8343   0.8433   0.8559   0.8661   0.8856   0.9026   0.9053   0.9162
  0.9372   0.9510   0.9531   0.9634   0.9750   0.9932   1.0008   1.0143
  1.0296   1.0352   1.0435   1.0451   1.0575   1.0623   1.0773   1.0855
  1.0883   1.0962   1.1022   1.1237   1.1450   1.1510   1.1576   1.1688
  1.1830   1.1843   1.2040   1.2122   1.2143   1.2192   1.2306   1.2396
  1.2461   1.2563   1.2634   1.2775   1.2846   1.2979   1.3051   1.3164
  1.3201   1.3337   1.3433   1.3627   1.3645   1.3771   1.4144   1.4154
  1.4297   1.4392   1.4452   1.4666   1.4787   1.4857   1.4875   1.4985
  1.5133   1.5194   1.5259   1.5335   1.5364   1.5400   1.5479   1.5622
  1.5801   1.5923   1.6034   1.6084   1.6117   1.6279   1.6393   1.6440
  1.6513   1.6604   1.6863   1.6957   1.7114   1.7190   1.7257   1.7327
  1.7653   1.7676   1.7850   1.7930   1.8232   1.8357   1.8547   1.8739
  1.8832   1.8939   1.9088   1.9254   1.9537   1.9770   1.9856   2.0005
  2.0215   2.0398   2.0595   2.0645   2.0980   2.1076   2.1445   2.1723
  2.1831   2.1994   2.2085   2.2201   2.2359   2.2412   2.2634   2.2797
  2.2913   2.3046   2.3219   2.3871   2.4121   2.4413   2.4590   2.4755
  2.5017   2.5223   2.5344   2.5407   2.5676   2.5957   2.5989   2.6243
  2.6305   2.6514   2.6525   2.6711   2.6746   2.6945   2.7180   2.7368
  2.7480   2.7629   2.7655   2.7718   2.7834   2.7961   2.8057   2.8095
  2.8290   2.8519   2.8562   2.8763   2.8916   2.8995   2.9219   2.9301
  2.9403   2.9526   2.9779   2.9973   3.0121   3.0244   3.0341   3.0428
  3.0742   3.0879   3.0968   3.1090   3.1149   3.1156   3.1224   3.1441
  3.1578   3.1607   3.1667   3.1791   3.1838   3.1935   3.2029   3.2107
  3.2219   3.2366   3.2494   3.2663   3.2669   3.2828   3.2957   3.3014
  3.3089   3.3271   3.3355   3.3431   3.3465   3.3612   3.3636   3.3699
  3.3797   3.3875   3.3920   3.3987   3.3999   3.4195   3.4229   3.4265
  3.4371   3.4514   3.4558   3.4651   3.4814   3.4912   3.5046   3.5099
  3.5118   3.5193   3.5294   3.5366   3.5424   3.5581   3.5663   3.5766
  3.5793   3.5961   3.6141   3.6174   3.6307   3.6385   3.6491   3.6595
  3.6621   3.6827   3.6929   3.7018   3.7155   3.7239   3.7345   3.7445
  3.7501   3.7551   3.7631   3.7740   3.7905   3.7951   3.8066   3.8185
  3.8268   3.8371   3.8577   3.8679   3.8787   3.8900   3.8988   3.9091
  3.9309   3.9419   3.9608   3.9672   3.9870   3.9894   4.0132   4.0243
  4.0374   4.0495   4.0564   4.0617   4.0664   4.0887   4.0914   4.1059
  4.1249   4.1431   4.1464   4.1546   4.1662   4.1727   4.1878   4.1888
  4.2169   4.2231   4.2320   4.2449   4.2573   4.2652   4.2710   4.2990
  4.3023   4.3058   4.3253   4.3396   4.3430   4.3513   4.3664   4.3736
  4.3794   4.4022   4.4042   4.4211   4.4272   4.4382   4.4421   4.4492
  4.4673   4.4742   4.4854   4.4966   4.5207   4.5372   4.5585   4.5750
  4.5942   4.6035   4.6069   4.6208   4.6456   4.6563   4.6581   4.6880
  4.6930   4.7262   4.7581   4.7741   4.7989   4.8106   4.8252   4.8494
  4.8638   4.8683   4.8866   4.9216   4.9471   4.9723   4.9805   5.0003
  5.0521   5.0795   5.0989   5.1192   5.1200   5.1325   5.1688   5.1945
  5.2164   5.2338   5.2567   5.2672   5.2871   5.2995   5.3125   5.3309
  5.3578   5.3653   5.3794   5.4009   5.4112   5.4259   5.4400   5.4415
  5.4676   5.5228   5.5303   5.5452   5.5525   5.5677   5.5759   5.6037
  5.6190   5.6221   5.6315   5.6592   5.6789   5.7086   5.7110   5.7436
  5.7722   5.8027   5.8402   5.9685   6.0313   6.0873   6.1391   6.1830
  6.2228   6.2276   6.2323   6.2647   6.2773   6.2931   6.3127   6.4017
  6.4310   6.5903   9.5735  10.9811  12.0783  12.9727  13.1767  13.9255
 14.1229  14.2145  14.4171  15.2167
 --------------------------------------------------------------
 
          Ground-State Mulliken Net Atomic Charges

     Atom                 Charge (a.u.)
  ----------------------------------------
      1 C                    -0.073727
      2 C                    -0.313717
      3 C                    -0.064619
      4 H                     0.179356
      5 C                     0.147151
      6 S                    -0.180016
      7 C                    -0.302199
      8 H                     0.122867
      9 H                     0.101849
     10 H                     0.115511
     11 C                    -0.055861
     12 C                    -0.288912
     13 C                     0.045096
     14 H                     0.188818
     15 C                    -0.285338
     16 S                     0.011479
     17 C                    -0.272855
     18 H                     0.100455
     19 H                     0.108360
     20 H                     0.108603
     21 H                     0.195958
     22 H                     0.112375
     23 H                     0.113743
     24 H                     0.185621
  ----------------------------------------
  Sum of atomic charges =     0.000000

 -----------------------------------------------------------------
                    Cartesian Multipole Moments
 -----------------------------------------------------------------
    Charge (ESU x 10^10)
                -0.0000
    Dipole Moment (Debye)
         X      -0.2100      Y      -0.5126      Z       3.8824
       Tot       3.9217
    Quadrupole Moments (Debye-Ang)
        XX     -91.3657     XY       2.5570     YY     -73.1559
        XZ       0.5318     YZ      -2.5394     ZZ     -85.7840
    Octopole Moments (Debye-Ang^2)
       XXX     -38.6679    XXY      45.5751    XYY      -8.0906
       YYY     114.4107    XXZ      -2.7553    XYZ      -1.9725
       YYZ      -4.0486    XZZ      -9.0038    YZZ      49.9168
       ZZZ       7.8443
    Hexadecapole Moments (Debye-Ang^3)
      XXXX    -184.0741   XXXY     -86.6453   XXYY    -552.1207
      XYYY     -62.8097   YYYY   -2738.1845   XXXZ     -65.9381
      XXYZ     -28.8697   XYYZ     -16.5298   YYYZ    -102.5198
      XXZZ    -222.4942   XYZZ     -30.3471   YYZZ    -652.7005
      XZZZ     -60.5968   YZZZ    -130.1729   ZZZZ   -1083.1160
 -----------------------------------------------------------------
 Total job time:  679.63s(wall), 675.14s(cpu) 
 Sun Jul 10 02:51:26 2022

        *************************************************************
        *                                                           *
        *  Thank you very much for using Q-Chem.  Have a nice day.  *
        *                                                           *
        *************************************************************


remove work dirs ./qchem1180383.0 -- ./qchem1180383.-1
rm -rf ./qchem1180383
