You are running Q-Chem version: 5.4.0

#
# job setting
#
local host:  exp-1-44
current dir: /expanse/lustre/scratch/theleonzhang/temp_project/Hydrogenated_Rotation_Test
input file:  Methylthiophene_Phi_10_Theta_320_Methylthiophene_Hydrogenated.qcin
output file: 
nprocs     : 0
nthreads   : 1
#
# qchem installation setting
#
QC:          /cm/shared/apps/spack/cpu/opt/spack/linux-centos8-zen2/gcc-10.2.0/qchem-5.4-akfmr7b3t57bfs6qan3padb2wnb2i7cl
QCAUX:       /cm/shared/apps/spack/cpu/opt/spack/linux-centos8-zen2/gcc-10.2.0/qchem-5.4-akfmr7b3t57bfs6qan3padb2wnb2i7cl/qcaux
QCPROG:      /cm/shared/apps/spack/cpu/opt/spack/linux-centos8-zen2/gcc-10.2.0/qchem-5.4-akfmr7b3t57bfs6qan3padb2wnb2i7cl/exe/qcprog.exe_s
QCPROG_S:    /cm/shared/apps/spack/cpu/opt/spack/linux-centos8-zen2/gcc-10.2.0/qchem-5.4-akfmr7b3t57bfs6qan3padb2wnb2i7cl/exe/qcprog.exe_s
PARALLEL:    -DSERIAL
QCMPI:       mpich
#
# qchem directory setting
#
qcrun:       qchem1750463
QCSCRATCH:   .
QCLOCALSCR:  
QCTMPDIR:    .
QCFILEPREF:  ./qchem1750463
QCSAVEDIR:   
workdirs:    ./qchem1750463
workdir0:    ./qchem1750463
partmpdirs =  
#
# parallel setting
#
QCRSH:           ssh
QCMPI:           mpich
QCMPIRUN:        /cm/shared/apps/spack/cpu/opt/spack/linux-centos8-zen2/gcc-10.2.0/qchem-5.4-akfmr7b3t57bfs6qan3padb2wnb2i7cl/bin/mpi/mpirun_qchem
QCMACHINEFILE:   ./qchem1750463/hostfile

#
# env setting
#
exported envs:   QC QCAUX QCSCRATCH QCRUNNAME QCFILEPREF QCPROG QCPROG_S GUIFILE

Running Job 1 of 1 Methylthiophene_Phi_10_Theta_320_Methylthiophene_Hydrogenated.qcin
qchem Methylthiophene_Phi_10_Theta_320_Methylthiophene_Hydrogenated.qcin_1750463.0 ./qchem1750463/ 0
/cm/shared/apps/spack/cpu/opt/spack/linux-centos8-zen2/gcc-10.2.0/qchem-5.4-akfmr7b3t57bfs6qan3padb2wnb2i7cl/exe/qcprog.exe_s Methylthiophene_Phi_10_Theta_320_Methylthiophene_Hydrogenated.qcin_1750463.0 ./qchem1750463/
                  Welcome to Q-Chem
     A Quantum Leap Into The Future Of Chemistry


 Q-Chem 5.4, Q-Chem, Inc., Pleasanton, CA (2021)

 License issued to: University of California, San Diego (site)

 E. Epifanovsky,  A. T. B. Gilbert,  Xintian Feng,  Joonho Lee,  Yuezhi Mao,  
 N. Mardirossian,  P. Pokhilko,  A. White,  M. Wormit,  M. P. Coons,  
 A. L. Dempwolff,  Zhengting Gan,  D. Hait,  P. R. Horn,  L. D. Jacobson,  
 I. Kaliman,  J. Kussmann,  A. W. Lange,  Ka Un Lao,  D. S. Levine,  Jie Liu,  
 S. C. McKenzie,  A. F. Morrison,  K. Nanda,  F. Plasser,  D. R. Rehn,  
 M. L. Vidal,  Zhi-Qiang You,  Ying Zhu,  B. Alam,  B. Albrecht,  
 A. Aldossary,  E. Alguire,  J. H. Andersen,  D. Barton,  K. Begam,  A. Behn,  
 Y. A. Bernard,  E. J. Berquist,  H. Burton,  A. Carreras,  K. Carter-Fenk,  
 R. Chakraborty,  A. D. Chien,  K. D. Closser,  V. Cofer-Shabica,  
 S. Dasgupta,  Jia Deng,  M. de Wergifosse,  M. Diedenhofen,  Hainam Do,  
 S. Ehlert,  Po-Tung Fang,  S. Fatehi,  Qingguo Feng,  J. Gayvert,  
 Qinghui Ge,  G. Gidofalvi,  M. Goldey,  J. Gomes,  C. Gonzalez-Espinoza,  
 S. Gulania,  A. Gunina,  M. W. D. Hanson-Heine,  P. H. P. Harbach,  
 A. W. Hauser,  M. F. Herbst,  M. Hernandez Vera,  M. Hodecker,  
 Z. C. Holden,  S. Houck,  Xunkun Huang,  Kerwin Hui,  B. C. Huynh,  
 M. Ivanov,  Hyunjun Ji,  Hanjie Jiang,  B. Kaduk,  S. Kaehler,  
 K. Khistyaev,  Jaehoon Kim,  P. Klunzinger,  Z. Koczor-Benda,  
 Joong Hoon Koh,  D. Kosenkov,  L. Koulias,  T. Kowalczyk,  C. M. Krauter,  
 K. Kue,  A. Kunitsa,  T. Kus,  A. Landau,  K. V. Lawler,  D. Lefrancois,  
 S. Lehtola,  Rain Li,  Yi-Pei Li,  Jiashu Liang,  M. Liebenthal,  
 Hung-Hsuan Lin,  You-Sheng Lin,  Fenglai Liu,  Kuan-Yu Liu,  
 M. Loipersberger,  A. Luenser,  A. Manjanath,  P. Manohar,  E. Mansoor,  
 S. F. Manzer,  Shan-Ping Mao,  A. V. Marenich,  T. Markovich,  S. Mason,  
 S. A. Maurer,  P. F. McLaughlin,  M. F. S. J. Menger,  J.-M. Mewes,  
 S. A. Mewes,  P. Morgante,  J. W. Mullinax,  T. S. Nguyen-Beck,  
 K. J. Oosterbaan,  G. Paran,  Alexander C. Paul,  Suranjan K. Paul,  
 F. Pavosevic,  Zheng Pei,  S. Prager,  E. I. Proynov,  E. Ramos,  B. Rana,  
 A. E. Rask,  A. Rettig,  R. M. Richard,  F. Rob,  E. Rossomme,  T. Scheele,  
 M. Scheurer,  M. Schneider,  N. Sergueev,  S. M. Sharada,  W. Skomorowski,  
 D. W. Small,  C. J. Stein,  Yu-Chuan Su,  E. J. Sundstrom,  Zhen Tao,  
 J. Thirman,  T. Tsuchimochi,  N. M. Tubman,  S. P. Veccham,  O. Vydrov,  
 J. Wenzel,  J. Witte,  A. Yamada,  Kun Yao,  S. Yeganeh,  S. R. Yost,  
 A. Zech,  Igor Ying Zhang,  Xing Zhang,  Yu Zhang,  D. Zuev,  
 A. Aspuru-Guzik,  A. T. Bell,  N. A. Besley,  K. B. Bravaya,  B. R. Brooks,  
 D. Casanova,  Jeng-Da Chai,  S. Coriani,  C. J. Cramer,  
 A. E. DePrince, III,  R. A. DiStasio Jr.,  A. Dreuw,  B. D. Dunietz,  
 T. R. Furlani,  W. A. Goddard III,  S. Grimme,  S. Hammes-Schiffer,  
 T. Head-Gordon,  W. J. Hehre,  Chao-Ping Hsu,  T.-C. Jagau,  Yousung Jung,  
 A. Klamt,  Jing Kong,  D. S. Lambrecht,  WanZhen Liang,  N. J. Mayhall,  
 C. W. McCurdy,  J. B. Neaton,  C. Ochsenfeld,  J. A. Parkhill,  R. Peverati,  
 V. A. Rassolov,  Yihan Shao,  L. V. Slipchenko,  T. Stauch,  R. P. Steele,  
 J. E. Subotnik,  A. J. W. Thom,  A. Tkatchenko,  D. G. Truhlar,  
 T. Van Voorhis,  T. A. Wesolowski,  K. B. Whaley,  H. L. Woodcock III,  
 P. M. Zimmerman,  S. Faraji,  P. M. W. Gill,  M. Head-Gordon,  
 J. M. Herbert,  A. I. Krylov

 Contributors to earlier versions of Q-Chem not listed above: 
 R. D. Adamson,  B. Austin,  R. Baer,  J. Baker,  G. J. O. Beran,  
 K. Brandhorst,  S. T. Brown,  E. F. C. Byrd,  A. K. Chakraborty,  
 G. K. L. Chan,  Chun-Min Chang,  Yunqing Chen,  C.-L. Cheng,  
 Siu Hung Chien,  D. M. Chipman,  D. L. Crittenden,  H. Dachsel,  
 R. J. Doerksen,  A. D. Dutoi,  R. G. Edgar,  J. Fosso-Tande,  
 L. Fusti-Molnar,  D. Ghosh,  A. Ghysels,  A. Golubeva-Zadorozhnaya,  
 J. Gonthier,  M. S. Gordon,  S. R. Gwaltney,  G. Hawkins,  J. E. Herr,  
 A. Heyden,  S. Hirata,  E. G. Hohenstein,  G. Kedziora,  F. J. Keil,  
 C. Kelley,  Jihan Kim,  R. A. King,  R. Z. Khaliullin,  P. P. Korambath,  
 W. Kurlancheek,  A. Laurent,  A. M. Lee,  M. S. Lee,  S. V. Levchenko,  
 Ching Yeh Lin,  D. Liotard,  E. Livshits,  R. C. Lochan,  I. Lotan,  
 L. A. Martinez-Martinez,  P. E. Maslen,  N. Nair,  D. P. O'Neill,  
 D. Neuhauser,  E. Neuscamman,  C. M. Oana,  R. Olivares-Amaya,  R. Olson,  
 T. M. Perrine,  B. Peters,  P. A. Pieniazek,  A. Prociuk,  Y. M. Rhee,  
 J. Ritchie,  M. A. Rohrdanz,  E. Rosta,  N. J. Russ,  H. F. Schaefer III,  
 M. W. Schmidt,  N. E. Schultz,  S. Sharma,  N. Shenvi,  C. D. Sherrill,  
 A. C. Simmonett,  A. Sodt,  T. Stein,  D. Stuck,  K. S. Thanthiriwatte,  
 V. Vanovschi,  L. Vogt,  Tao Wang,  A. Warshel,  M. A. Watson,  
 C. F. Williams,  Q. Wu,  X. Xu,  Jun Yang,  W. Zhang,  Yan Zhao

 Please cite Q-Chem as follows:
 Y. Shao et al., Mol. Phys. 113, 184-215 (2015)
 DOI: 10.1080/00268976.2014.952696

 Q-Chem 5.4.0 for Intel X86 EM64T Linux

 Parts of Q-Chem use Armadillo 9.800.1 (Horizon Scraper).
 http://arma.sourceforge.net/

 Q-Chem begins on Sun Jul 10 04:49:21 2022  

 Host: 
0

     Scratch files written to ./qchem1750463//
 May1621 |scratch|qcdevops|jenkins|workspace|build_RNUM    
 Processing $rem in /cm/shared/apps/spack/cpu/opt/spack/linux-centos8-zen2/gcc-10.2.0/qchem-5.4-akfmr7b3t57bfs6qan3padb2wnb2i7cl/config/preferences:
 Processing $rem in /home/theleonzhang/.qchemrc:
 Symmetry turned off for PCM/SM12/SMD calculation
 Core orbitals will be frozen

 Checking the input file for inconsistencies... 	...done.

--------------------------------------------------------------
User input:
--------------------------------------------------------------
$molecule
0 1
C	0.497696	-3.866725	0.594240
C	-0.393981	-3.703963	-0.469057
C	-0.685571	-2.357056	-0.817136
H	-0.837848	-4.561092	-0.997777
C	-0.000000	-1.440664	-0.000000
S	0.992782	-2.286957	1.183137
C	-1.620802	-1.978743	-1.932056
H	-2.035506	-2.878678	-2.426166
H	-1.109943	-1.376015	-2.711806
H	-2.477350	-1.375728	-1.564678
C	0.000000	0.000000	0.000000
C	0.149995	0.850475	1.099446
C	0.390327	2.213354	0.776721
H	0.085947	0.487279	2.136088
C	0.428665	2.430655	-0.612546
S	0.163670	0.928078	-1.486809
C	0.579235	3.284574	1.814609
H	0.505323	2.865404	2.836676
H	-0.185980	4.083890	1.726239
H	1.571698	3.773937	1.726228
H	0.593515	3.365448	-1.161575
H	1.406441	-4.392713	0.281143
H	0.031265	-4.392347	1.434879
H	-0.827402	-1.440391	0.694122
$end

$rem
JOBTYPE		SP
EXCHANGE	HF
CORRELATION	pRIMP2
BASIS		cc-pvtz
METHOD		rimp2
AUX_BASIS	rimp2-cc-pvtz
SOLVENT_METHOD	PCM
PURECART	11111
SYMMETRY	false
MEM_TOTAL	110000
SCF_CONVERGENCE = 6
THRESH=10
$end



$solvent
dielectric 4.90
$end
--------------------------------------------------------------
 ----------------------------------------------------------------
             Standard Nuclear Orientation (Angstroms)
    I     Atom           X                Y                Z
 ----------------------------------------------------------------
    1      C       0.4976960000    -3.8667250000     0.5942400000
    2      C      -0.3939810000    -3.7039630000    -0.4690570000
    3      C      -0.6855710000    -2.3570560000    -0.8171360000
    4      H      -0.8378480000    -4.5610920000    -0.9977770000
    5      C       0.0000000000    -1.4406640000     0.0000000000
    6      S       0.9927820000    -2.2869570000     1.1831370000
    7      C      -1.6208020000    -1.9787430000    -1.9320560000
    8      H      -2.0355060000    -2.8786780000    -2.4261660000
    9      H      -1.1099430000    -1.3760150000    -2.7118060000
   10      H      -2.4773500000    -1.3757280000    -1.5646780000
   11      C       0.0000000000     0.0000000000     0.0000000000
   12      C       0.1499950000     0.8504750000     1.0994460000
   13      C       0.3903270000     2.2133540000     0.7767210000
   14      H       0.0859470000     0.4872790000     2.1360880000
   15      C       0.4286650000     2.4306550000    -0.6125460000
   16      S       0.1636700000     0.9280780000    -1.4868090000
   17      C       0.5792350000     3.2845740000     1.8146090000
   18      H       0.5053230000     2.8654040000     2.8366760000
   19      H      -0.1859800000     4.0838900000     1.7262390000
   20      H       1.5716980000     3.7739370000     1.7262280000
   21      H       0.5935150000     3.3654480000    -1.1615750000
   22      H       1.4064410000    -4.3927130000     0.2811430000
   23      H       0.0312650000    -4.3923470000     1.4348790000
   24      H      -0.8274020000    -1.4403910000     0.6941220000
 ----------------------------------------------------------------
 Nuclear Repulsion Energy =         874.31990047 hartrees
 There are       52 alpha and       52 beta electrons

 Q-Chem warning in module forms1/BasisType.C, line 2236:

 You are not using the predefined 5D/6D in this basis set.

 Requested basis set is cc-pVTZ
 There are 196 shells and 536 basis functions

 Total QAlloc Memory Limit 110000 MB
 Mega-Array Size       188 MB
 MEM_STATIC part       192 MB
 Discretize the solute cavity surface with Lebedev spheres
	Using 110 Lebedev grid points for each H atom
	Using 194 Lebedev grid points for other atoms
	Atomic van der Waals radii will be scaled by 1.20
 Remove points where switching function is < 1.0e-08
 Keep 1599 surface tesserae and discard 2049 interior tesserae
 Molecular Surface Area = 234.027 Angst**2
 Requested basis set is rimp2-cc-pVTZ
 There are 414 shells and 1414 basis functions
 A cutoff of  1.0D-10 yielded  13850 shell pairs
 There are    100344 function pairs (    128683 Cartesian)
 Smallest overlap matrix eigenvalue = 5.91E-05

 Scale SEOQF with 1.000000e-01/1.000000e-01/1.000000e-01

 Standard Electronic Orientation quadrupole field applied
 Nucleus-field energy     =     0.0000000276 hartrees
 Guess from superposition of atomic densities
 Warning:  Energy on first SCF cycle will be non-variational
 SAD guess density has 104.000000 electrons

 -----------------------------------------------------------------------
  General SCF calculation program by
  Eric Jon Sundstrom, Paul Horn, Yuezhi Mao, Dmitri Zuev, Alec White,
  David Stuck, Shaama M.S., Shane Yost, Joonho Lee, David Small,
  Daniel Levine, Susi Lehtola, Hugh Burton, Evgeny Epifanovsky,
  Bang C. Huynh
 -----------------------------------------------------------------------
 Hartree-Fock
 A restricted SCF calculation will be
 performed using DIIS
 SCF converges when DIIS error is below 1.0e-06
 ---------------------------------------
  Cycle       Energy         DIIS error
 ---------------------------------------
    1   -1186.0282817986      2.39e-02  
    2   -1180.6140928840      1.56e-03  
    3   -1180.7385306547      6.27e-04  
    4   -1180.7532913929      3.46e-04  
    5   -1180.7587332599      5.82e-05  
    6   -1180.7589740562      2.42e-05  
    7   -1180.7590306073      8.61e-06  
    8   -1180.7590431774      4.20e-06  
    9   -1180.7590460138      1.43e-06  
   10   -1180.7590464550      5.04e-07  Convergence criterion met
 ---------------------------------------
 SCF time:   CPU 560.18s  wall 565.00s 

************** Final PCM Free Energy Summary **************
 G_electrostatic  =      -0.00853154 hartree =      -5.35362512 kcal/mol
 G_cavitation     =       0.00000000 hartree =       0.00000000 kcal/mol
 G_dispersion     =       0.00000000 hartree =       0.00000000 kcal/mol
 G_repulsion      =       0.00000000 hartree =       0.00000000 kcal/mol
 --------------------------------------------------
 Non-electrostatic Free Energy =       0.00000000 hartree =       0.00000000 kcal/mol
 Total                         =      -0.00853154 hartree =      -5.35362512 kcal/mol
 --------------------------------------------------
 SCF Energy (H0 + V/2)                       =   -1180.75904645 
 Solute Internal Energy (H0)                 =   -1180.75051491 
 Total Free Energy (H0 + V/2 + non-elec)     =   -1180.75904645 hartree
                                             = -740937.48461941 kcal/mol
***********************************************************

 SCF   energy in the final basis set =    -1180.7590464550
 Total energy in the final basis set =    -1180.7590464550


 --------------------------------------------------------------
  Generalized many-body perturbation theory program
  by Joonho Lee, Fazle Rob, Xintian Feng, Evgeny Epifanovsky

 No regularization used 
 (reg. param. = 0.0000e+00)
  (P|Q)^-1/2 Time:  CPU 1.90 s  wall 1.91 s

 In RI-MP2 calculation: 
 # of frozen core orbitals: 20

 Components of the RIMP2 correlation energy:
        aaaa    correlation energy =        -0.2514594819 a.u.
        abab    correlation energy =        -1.5030428508 a.u.
        bbbb    correlation energy =        -0.2514594819 a.u.
        non-Brillouin singles      =        -0.0000000000 a.u.
        total same-spin energy     =        -0.5029189638 a.u.
        total opposite-spin energy =        -1.5030428508 a.u.

 Total  RIMP2   correlation energy =        -2.0059618146 a.u.
        RIMP2         total energy =     -1182.7650082696 a.u.

 RI-MP2 Energy Time:  CPU 80.12 s  wall 80.43 s
 
 --------------------------------------------------------------
 
                    Orbital Energies (a.u.)
 --------------------------------------------------------------
 
 Alpha MOs
 -- Occupied --
-91.9816 -91.9442 -11.2864 -11.2644 -11.2581 -11.2581 -11.2509 -11.2424
-11.2363 -11.2327 -11.2283 -11.2216  -8.9815  -8.9489  -6.6624  -6.6618
 -6.6612  -6.6302  -6.6292  -6.6279  -1.2004  -1.1529  -1.0595  -1.0272
 -1.0073  -0.9571  -0.9147  -0.9012  -0.8154  -0.7690  -0.7249  -0.7006
 -0.6619  -0.6443  -0.6108  -0.5878  -0.5815  -0.5738  -0.5677  -0.5531
 -0.5419  -0.5337  -0.5145  -0.5076  -0.4892  -0.4829  -0.4585  -0.4490
 -0.3568  -0.3430  -0.3213  -0.2687
 -- Virtual --
  0.0983   0.1320   0.1437   0.1480   0.1579   0.1694   0.1768   0.1827
  0.1948   0.1986   0.2036   0.2061   0.2265   0.2337   0.2382   0.2417
  0.2554   0.2639   0.2769   0.2973   0.3287   0.3352   0.3528   0.3569
  0.3638   0.3748   0.3815   0.3934   0.3946   0.4085   0.4117   0.4233
  0.4380   0.4547   0.4575   0.4674   0.4686   0.4739   0.4804   0.4999
  0.5068   0.5170   0.5256   0.5312   0.5356   0.5378   0.5418   0.5496
  0.5598   0.5748   0.5805   0.5975   0.6010   0.6122   0.6134   0.6173
  0.6238   0.6269   0.6342   0.6398   0.6413   0.6436   0.6462   0.6548
  0.6671   0.6764   0.6850   0.6926   0.6958   0.7014   0.7182   0.7227
  0.7309   0.7487   0.7563   0.7858   0.7900   0.8052   0.8055   0.8206
  0.8290   0.8460   0.8536   0.8647   0.8800   0.8898   0.8954   0.9120
  0.9252   0.9461   0.9509   0.9617   0.9755   0.9945   1.0025   1.0103
  1.0218   1.0351   1.0362   1.0466   1.0531   1.0661   1.0729   1.0852
  1.0910   1.0953   1.1038   1.1168   1.1435   1.1497   1.1552   1.1637
  1.1688   1.1859   1.1990   1.2131   1.2213   1.2296   1.2311   1.2361
  1.2508   1.2688   1.2734   1.2826   1.2835   1.2869   1.3036   1.3043
  1.3297   1.3363   1.3433   1.3603   1.3868   1.3973   1.4020   1.4145
  1.4233   1.4314   1.4431   1.4688   1.4699   1.4741   1.4800   1.4987
  1.5040   1.5127   1.5201   1.5290   1.5342   1.5350   1.5527   1.5604
  1.5664   1.5810   1.5918   1.5994   1.6099   1.6207   1.6247   1.6366
  1.6511   1.6586   1.6707   1.6920   1.7002   1.7206   1.7208   1.7391
  1.7411   1.7570   1.7748   1.7974   1.8098   1.8178   1.8311   1.8562
  1.8791   1.9093   1.9296   1.9450   1.9530   1.9722   1.9870   2.0076
  2.0196   2.0245   2.0371   2.0582   2.0685   2.0945   2.1532   2.1647
  2.1847   2.1971   2.2129   2.2187   2.2434   2.2626   2.2666   2.2721
  2.3086   2.3236   2.3279   2.3587   2.4123   2.4247   2.4561   2.4749
  2.4935   2.5117   2.5332   2.5589   2.5799   2.5809   2.5985   2.6235
  2.6338   2.6445   2.6568   2.6681   2.6813   2.6855   2.7006   2.7209
  2.7355   2.7515   2.7567   2.7660   2.7732   2.7822   2.7958   2.8170
  2.8311   2.8471   2.8528   2.8907   2.8947   2.9049   2.9121   2.9260
  2.9330   2.9421   2.9663   2.9751   2.9987   3.0121   3.0301   3.0369
  3.0536   3.0719   3.0874   3.0939   3.1135   3.1167   3.1280   3.1380
  3.1482   3.1534   3.1686   3.1732   3.1790   3.1890   3.2111   3.2207
  3.2267   3.2460   3.2503   3.2573   3.2743   3.2845   3.2960   3.3008
  3.3079   3.3243   3.3299   3.3316   3.3373   3.3519   3.3527   3.3582
  3.3774   3.3836   3.3938   3.3973   3.4038   3.4149   3.4192   3.4310
  3.4456   3.4469   3.4595   3.4634   3.4729   3.4814   3.4938   3.5034
  3.5144   3.5174   3.5307   3.5359   3.5465   3.5579   3.5664   3.5750
  3.5875   3.5953   3.6133   3.6218   3.6283   3.6413   3.6489   3.6565
  3.6696   3.6840   3.6929   3.7058   3.7082   3.7246   3.7285   3.7382
  3.7412   3.7612   3.7676   3.7783   3.7808   3.7994   3.8055   3.8075
  3.8263   3.8376   3.8556   3.8597   3.8718   3.8912   3.9108   3.9219
  3.9326   3.9437   3.9534   3.9738   3.9832   3.9837   3.9981   4.0115
  4.0239   4.0371   4.0493   4.0588   4.0748   4.0894   4.0963   4.1051
  4.1229   4.1366   4.1422   4.1509   4.1540   4.1689   4.1832   4.1950
  4.2133   4.2156   4.2292   4.2412   4.2493   4.2717   4.2795   4.2847
  4.2909   4.2929   4.3092   4.3314   4.3431   4.3475   4.3611   4.3646
  4.3757   4.3887   4.4019   4.4036   4.4087   4.4240   4.4241   4.4487
  4.4623   4.4707   4.4795   4.4858   4.5108   4.5280   4.5486   4.5653
  4.5811   4.5959   4.6081   4.6188   4.6292   4.6449   4.6609   4.6802
  4.7000   4.7244   4.7336   4.7511   4.7798   4.8098   4.8287   4.8393
  4.8598   4.8626   4.8837   4.9037   4.9245   4.9620   4.9692   4.9986
  5.0129   5.0484   5.0661   5.0980   5.1150   5.1255   5.1582   5.1625
  5.1930   5.2219   5.2435   5.2668   5.2787   5.2865   5.3076   5.3149
  5.3410   5.3719   5.3812   5.3871   5.4075   5.4262   5.4401   5.4547
  5.4709   5.5092   5.5179   5.5424   5.5516   5.5594   5.5713   5.5812
  5.6232   5.6324   5.6503   5.6699   5.6829   5.7016   5.7120   5.7256
  5.7596   5.7865   5.8378   5.9842   6.0147   6.1139   6.1378   6.1425
  6.2140   6.2222   6.2275   6.2481   6.2532   6.2834   6.3095   6.3243
  6.3855   6.5062   9.5715  10.7311  12.0326  12.9824  13.1951  13.9512
 14.1385  14.2674  14.3358  14.6811
 --------------------------------------------------------------
 
          Ground-State Mulliken Net Atomic Charges

     Atom                 Charge (a.u.)
  ----------------------------------------
      1 C                    -0.077990
      2 C                    -0.322245
      3 C                    -0.043000
      4 H                     0.177818
      5 C                     0.121107
      6 S                    -0.175363
      7 C                    -0.284265
      8 H                     0.116053
      9 H                     0.109562
     10 H                     0.109251
     11 C                    -0.042600
     12 C                    -0.303338
     13 C                     0.040160
     14 H                     0.183384
     15 C                    -0.261367
     16 S                     0.008172
     17 C                    -0.273215
     18 H                     0.102583
     19 H                     0.107790
     20 H                     0.109002
     21 H                     0.195102
     22 H                     0.113590
     23 H                     0.110597
     24 H                     0.179211
  ----------------------------------------
  Sum of atomic charges =     0.000000

 -----------------------------------------------------------------
                    Cartesian Multipole Moments
 -----------------------------------------------------------------
    Charge (ESU x 10^10)
                -0.0000
    Dipole Moment (Debye)
         X      -1.9496      Y      -0.0227      Z       0.1711
       Tot       1.9572
    Quadrupole Moments (Debye-Ang)
        XX     -91.6200     XY       5.1994     YY     -73.6891
        XZ       0.3693     YZ       2.9811     ZZ     -85.5691
    Octopole Moments (Debye-Ang^2)
       XXX     -37.0045    XXY      45.0149    XYY      -6.5808
       YYY     120.5481    XXZ      -3.5461    XYZ      -2.9583
       YYZ      -0.6806    XZZ     -14.1134    YZZ      51.9704
       ZZZ       2.2921
    Hexadecapole Moments (Debye-Ang^3)
      XXXX    -410.3062   XXXY     -80.4311   XXYY    -578.7231
      XYYY     -63.4533   YYYY   -2753.2509   XXXZ    -156.7259
      XXYZ     -18.1780   XYYZ     -38.7716   YYYZ    -107.9677
      XXZZ    -215.7371   XYZZ      -8.7596   YYZZ    -627.9808
      XZZZ    -153.3693   YZZZ     -81.6434   ZZZZ    -872.1176
 -----------------------------------------------------------------
 Total job time:  649.69s(wall), 641.23s(cpu) 
 Sun Jul 10 05:00:11 2022

        *************************************************************
        *                                                           *
        *  Thank you very much for using Q-Chem.  Have a nice day.  *
        *                                                           *
        *************************************************************


remove work dirs ./qchem1750463.0 -- ./qchem1750463.-1
rm -rf ./qchem1750463
You are running Q-Chem version: 5.4.0

#
# job setting
#
local host:  exp-1-04
current dir: /expanse/lustre/scratch/theleonzhang/temp_project/Hydrogenated_Rotation_Test
input file:  Methylthiophene_Phi_10_Theta_320_Methylthiophene_Hydrogenated.qcin
output file: 
nprocs     : 0
nthreads   : 1
#
# qchem installation setting
#
QC:          /cm/shared/apps/spack/cpu/opt/spack/linux-centos8-zen2/gcc-10.2.0/qchem-5.4-akfmr7b3t57bfs6qan3padb2wnb2i7cl
QCAUX:       /cm/shared/apps/spack/cpu/opt/spack/linux-centos8-zen2/gcc-10.2.0/qchem-5.4-akfmr7b3t57bfs6qan3padb2wnb2i7cl/qcaux
QCPROG:      /cm/shared/apps/spack/cpu/opt/spack/linux-centos8-zen2/gcc-10.2.0/qchem-5.4-akfmr7b3t57bfs6qan3padb2wnb2i7cl/exe/qcprog.exe_s
QCPROG_S:    /cm/shared/apps/spack/cpu/opt/spack/linux-centos8-zen2/gcc-10.2.0/qchem-5.4-akfmr7b3t57bfs6qan3padb2wnb2i7cl/exe/qcprog.exe_s
PARALLEL:    -DSERIAL
QCMPI:       mpich
#
# qchem directory setting
#
qcrun:       qchem1360829
QCSCRATCH:   .
QCLOCALSCR:  
QCTMPDIR:    .
QCFILEPREF:  ./qchem1360829
QCSAVEDIR:   
workdirs:    ./qchem1360829
workdir0:    ./qchem1360829
partmpdirs =  
#
# parallel setting
#
QCRSH:           ssh
QCMPI:           mpich
QCMPIRUN:        /cm/shared/apps/spack/cpu/opt/spack/linux-centos8-zen2/gcc-10.2.0/qchem-5.4-akfmr7b3t57bfs6qan3padb2wnb2i7cl/bin/mpi/mpirun_qchem
QCMACHINEFILE:   ./qchem1360829/hostfile

#
# env setting
#
exported envs:   QC QCAUX QCSCRATCH QCRUNNAME QCFILEPREF QCPROG QCPROG_S GUIFILE

Running Job 1 of 1 Methylthiophene_Phi_10_Theta_320_Methylthiophene_Hydrogenated.qcin
qchem Methylthiophene_Phi_10_Theta_320_Methylthiophene_Hydrogenated.qcin_1360829.0 ./qchem1360829/ 0
/cm/shared/apps/spack/cpu/opt/spack/linux-centos8-zen2/gcc-10.2.0/qchem-5.4-akfmr7b3t57bfs6qan3padb2wnb2i7cl/exe/qcprog.exe_s Methylthiophene_Phi_10_Theta_320_Methylthiophene_Hydrogenated.qcin_1360829.0 ./qchem1360829/
                  Welcome to Q-Chem
     A Quantum Leap Into The Future Of Chemistry


 Q-Chem 5.4, Q-Chem, Inc., Pleasanton, CA (2021)

 License issued to: University of California, San Diego (site)

 E. Epifanovsky,  A. T. B. Gilbert,  Xintian Feng,  Joonho Lee,  Yuezhi Mao,  
 N. Mardirossian,  P. Pokhilko,  A. White,  M. Wormit,  M. P. Coons,  
 A. L. Dempwolff,  Zhengting Gan,  D. Hait,  P. R. Horn,  L. D. Jacobson,  
 I. Kaliman,  J. Kussmann,  A. W. Lange,  Ka Un Lao,  D. S. Levine,  Jie Liu,  
 S. C. McKenzie,  A. F. Morrison,  K. Nanda,  F. Plasser,  D. R. Rehn,  
 M. L. Vidal,  Zhi-Qiang You,  Ying Zhu,  B. Alam,  B. Albrecht,  
 A. Aldossary,  E. Alguire,  J. H. Andersen,  D. Barton,  K. Begam,  A. Behn,  
 Y. A. Bernard,  E. J. Berquist,  H. Burton,  A. Carreras,  K. Carter-Fenk,  
 R. Chakraborty,  A. D. Chien,  K. D. Closser,  V. Cofer-Shabica,  
 S. Dasgupta,  Jia Deng,  M. de Wergifosse,  M. Diedenhofen,  Hainam Do,  
 S. Ehlert,  Po-Tung Fang,  S. Fatehi,  Qingguo Feng,  J. Gayvert,  
 Qinghui Ge,  G. Gidofalvi,  M. Goldey,  J. Gomes,  C. Gonzalez-Espinoza,  
 S. Gulania,  A. Gunina,  M. W. D. Hanson-Heine,  P. H. P. Harbach,  
 A. W. Hauser,  M. F. Herbst,  M. Hernandez Vera,  M. Hodecker,  
 Z. C. Holden,  S. Houck,  Xunkun Huang,  Kerwin Hui,  B. C. Huynh,  
 M. Ivanov,  Hyunjun Ji,  Hanjie Jiang,  B. Kaduk,  S. Kaehler,  
 K. Khistyaev,  Jaehoon Kim,  P. Klunzinger,  Z. Koczor-Benda,  
 Joong Hoon Koh,  D. Kosenkov,  L. Koulias,  T. Kowalczyk,  C. M. Krauter,  
 K. Kue,  A. Kunitsa,  T. Kus,  A. Landau,  K. V. Lawler,  D. Lefrancois,  
 S. Lehtola,  Rain Li,  Yi-Pei Li,  Jiashu Liang,  M. Liebenthal,  
 Hung-Hsuan Lin,  You-Sheng Lin,  Fenglai Liu,  Kuan-Yu Liu,  
 M. Loipersberger,  A. Luenser,  A. Manjanath,  P. Manohar,  E. Mansoor,  
 S. F. Manzer,  Shan-Ping Mao,  A. V. Marenich,  T. Markovich,  S. Mason,  
 S. A. Maurer,  P. F. McLaughlin,  M. F. S. J. Menger,  J.-M. Mewes,  
 S. A. Mewes,  P. Morgante,  J. W. Mullinax,  T. S. Nguyen-Beck,  
 K. J. Oosterbaan,  G. Paran,  Alexander C. Paul,  Suranjan K. Paul,  
 F. Pavosevic,  Zheng Pei,  S. Prager,  E. I. Proynov,  E. Ramos,  B. Rana,  
 A. E. Rask,  A. Rettig,  R. M. Richard,  F. Rob,  E. Rossomme,  T. Scheele,  
 M. Scheurer,  M. Schneider,  N. Sergueev,  S. M. Sharada,  W. Skomorowski,  
 D. W. Small,  C. J. Stein,  Yu-Chuan Su,  E. J. Sundstrom,  Zhen Tao,  
 J. Thirman,  T. Tsuchimochi,  N. M. Tubman,  S. P. Veccham,  O. Vydrov,  
 J. Wenzel,  J. Witte,  A. Yamada,  Kun Yao,  S. Yeganeh,  S. R. Yost,  
 A. Zech,  Igor Ying Zhang,  Xing Zhang,  Yu Zhang,  D. Zuev,  
 A. Aspuru-Guzik,  A. T. Bell,  N. A. Besley,  K. B. Bravaya,  B. R. Brooks,  
 D. Casanova,  Jeng-Da Chai,  S. Coriani,  C. J. Cramer,  
 A. E. DePrince, III,  R. A. DiStasio Jr.,  A. Dreuw,  B. D. Dunietz,  
 T. R. Furlani,  W. A. Goddard III,  S. Grimme,  S. Hammes-Schiffer,  
 T. Head-Gordon,  W. J. Hehre,  Chao-Ping Hsu,  T.-C. Jagau,  Yousung Jung,  
 A. Klamt,  Jing Kong,  D. S. Lambrecht,  WanZhen Liang,  N. J. Mayhall,  
 C. W. McCurdy,  J. B. Neaton,  C. Ochsenfeld,  J. A. Parkhill,  R. Peverati,  
 V. A. Rassolov,  Yihan Shao,  L. V. Slipchenko,  T. Stauch,  R. P. Steele,  
 J. E. Subotnik,  A. J. W. Thom,  A. Tkatchenko,  D. G. Truhlar,  
 T. Van Voorhis,  T. A. Wesolowski,  K. B. Whaley,  H. L. Woodcock III,  
 P. M. Zimmerman,  S. Faraji,  P. M. W. Gill,  M. Head-Gordon,  
 J. M. Herbert,  A. I. Krylov

 Contributors to earlier versions of Q-Chem not listed above: 
 R. D. Adamson,  B. Austin,  R. Baer,  J. Baker,  G. J. O. Beran,  
 K. Brandhorst,  S. T. Brown,  E. F. C. Byrd,  A. K. Chakraborty,  
 G. K. L. Chan,  Chun-Min Chang,  Yunqing Chen,  C.-L. Cheng,  
 Siu Hung Chien,  D. M. Chipman,  D. L. Crittenden,  H. Dachsel,  
 R. J. Doerksen,  A. D. Dutoi,  R. G. Edgar,  J. Fosso-Tande,  
 L. Fusti-Molnar,  D. Ghosh,  A. Ghysels,  A. Golubeva-Zadorozhnaya,  
 J. Gonthier,  M. S. Gordon,  S. R. Gwaltney,  G. Hawkins,  J. E. Herr,  
 A. Heyden,  S. Hirata,  E. G. Hohenstein,  G. Kedziora,  F. J. Keil,  
 C. Kelley,  Jihan Kim,  R. A. King,  R. Z. Khaliullin,  P. P. Korambath,  
 W. Kurlancheek,  A. Laurent,  A. M. Lee,  M. S. Lee,  S. V. Levchenko,  
 Ching Yeh Lin,  D. Liotard,  E. Livshits,  R. C. Lochan,  I. Lotan,  
 L. A. Martinez-Martinez,  P. E. Maslen,  N. Nair,  D. P. O'Neill,  
 D. Neuhauser,  E. Neuscamman,  C. M. Oana,  R. Olivares-Amaya,  R. Olson,  
 T. M. Perrine,  B. Peters,  P. A. Pieniazek,  A. Prociuk,  Y. M. Rhee,  
 J. Ritchie,  M. A. Rohrdanz,  E. Rosta,  N. J. Russ,  H. F. Schaefer III,  
 M. W. Schmidt,  N. E. Schultz,  S. Sharma,  N. Shenvi,  C. D. Sherrill,  
 A. C. Simmonett,  A. Sodt,  T. Stein,  D. Stuck,  K. S. Thanthiriwatte,  
 V. Vanovschi,  L. Vogt,  Tao Wang,  A. Warshel,  M. A. Watson,  
 C. F. Williams,  Q. Wu,  X. Xu,  Jun Yang,  W. Zhang,  Yan Zhao

 Please cite Q-Chem as follows:
 Y. Shao et al., Mol. Phys. 113, 184-215 (2015)
 DOI: 10.1080/00268976.2014.952696

 Q-Chem 5.4.0 for Intel X86 EM64T Linux

 Parts of Q-Chem use Armadillo 9.800.1 (Horizon Scraper).
 http://arma.sourceforge.net/

 Q-Chem begins on Sun Jul 10 05:24:08 2022  

 Host: 
0

     Scratch files written to ./qchem1360829//
 May1621 |scratch|qcdevops|jenkins|workspace|build_RNUM    
 Processing $rem in /cm/shared/apps/spack/cpu/opt/spack/linux-centos8-zen2/gcc-10.2.0/qchem-5.4-akfmr7b3t57bfs6qan3padb2wnb2i7cl/config/preferences:
 Processing $rem in /home/theleonzhang/.qchemrc:
 Symmetry turned off for PCM/SM12/SMD calculation
 Core orbitals will be frozen

 Checking the input file for inconsistencies... 	...done.

--------------------------------------------------------------
User input:
--------------------------------------------------------------
$molecule
0 1
C	0.497696	-3.866725	0.594240
C	-0.393981	-3.703963	-0.469057
C	-0.685571	-2.357056	-0.817136
H	-0.837848	-4.561092	-0.997777
C	-0.000000	-1.440664	-0.000000
S	0.992782	-2.286957	1.183137
C	-1.620802	-1.978743	-1.932056
H	-2.035506	-2.878678	-2.426166
H	-1.109943	-1.376015	-2.711806
H	-2.477350	-1.375728	-1.564678
C	0.000000	0.000000	0.000000
C	0.149995	0.850475	1.099446
C	0.390327	2.213354	0.776721
H	0.085947	0.487279	2.136088
C	0.428665	2.430655	-0.612546
S	0.163670	0.928078	-1.486809
C	0.579235	3.284574	1.814609
H	0.505323	2.865404	2.836676
H	-0.185980	4.083890	1.726239
H	1.571698	3.773937	1.726228
H	0.593515	3.365448	-1.161575
H	1.406441	-4.392713	0.281143
H	0.031265	-4.392347	1.434879
H	-0.827402	-1.440391	0.694122
$end

$rem
JOBTYPE		SP
EXCHANGE	HF
CORRELATION	pRIMP2
BASIS		cc-pvtz
METHOD		rimp2
AUX_BASIS	rimp2-cc-pvtz
SOLVENT_METHOD	PCM
PURECART	11111
SYMMETRY	false
MEM_TOTAL	110000
SCF_CONVERGENCE = 6
THRESH=10
$end



$solvent
dielectric 4.90
$end
--------------------------------------------------------------
 ----------------------------------------------------------------
             Standard Nuclear Orientation (Angstroms)
    I     Atom           X                Y                Z
 ----------------------------------------------------------------
    1      C       0.4976960000    -3.8667250000     0.5942400000
    2      C      -0.3939810000    -3.7039630000    -0.4690570000
    3      C      -0.6855710000    -2.3570560000    -0.8171360000
    4      H      -0.8378480000    -4.5610920000    -0.9977770000
    5      C       0.0000000000    -1.4406640000     0.0000000000
    6      S       0.9927820000    -2.2869570000     1.1831370000
    7      C      -1.6208020000    -1.9787430000    -1.9320560000
    8      H      -2.0355060000    -2.8786780000    -2.4261660000
    9      H      -1.1099430000    -1.3760150000    -2.7118060000
   10      H      -2.4773500000    -1.3757280000    -1.5646780000
   11      C       0.0000000000     0.0000000000     0.0000000000
   12      C       0.1499950000     0.8504750000     1.0994460000
   13      C       0.3903270000     2.2133540000     0.7767210000
   14      H       0.0859470000     0.4872790000     2.1360880000
   15      C       0.4286650000     2.4306550000    -0.6125460000
   16      S       0.1636700000     0.9280780000    -1.4868090000
   17      C       0.5792350000     3.2845740000     1.8146090000
   18      H       0.5053230000     2.8654040000     2.8366760000
   19      H      -0.1859800000     4.0838900000     1.7262390000
   20      H       1.5716980000     3.7739370000     1.7262280000
   21      H       0.5935150000     3.3654480000    -1.1615750000
   22      H       1.4064410000    -4.3927130000     0.2811430000
   23      H       0.0312650000    -4.3923470000     1.4348790000
   24      H      -0.8274020000    -1.4403910000     0.6941220000
 ----------------------------------------------------------------
 Nuclear Repulsion Energy =         874.31990047 hartrees
 There are       52 alpha and       52 beta electrons

 Q-Chem warning in module forms1/BasisType.C, line 2236:

 You are not using the predefined 5D/6D in this basis set.

 Requested basis set is cc-pVTZ
 There are 196 shells and 536 basis functions

 Total QAlloc Memory Limit 110000 MB
 Mega-Array Size       188 MB
 MEM_STATIC part       192 MB
 Discretize the solute cavity surface with Lebedev spheres
	Using 110 Lebedev grid points for each H atom
	Using 194 Lebedev grid points for other atoms
	Atomic van der Waals radii will be scaled by 1.20
 Remove points where switching function is < 1.0e-08
 Keep 1599 surface tesserae and discard 2049 interior tesserae
 Molecular Surface Area = 234.027 Angst**2
 Requested basis set is rimp2-cc-pVTZ
 There are 414 shells and 1414 basis functions
 A cutoff of  1.0D-10 yielded  13850 shell pairs
 There are    100344 function pairs (    128683 Cartesian)
 Smallest overlap matrix eigenvalue = 5.91E-05

 Scale SEOQF with 1.000000e-01/1.000000e-01/1.000000e-01

 Standard Electronic Orientation quadrupole field applied
 Nucleus-field energy     =     0.0000000276 hartrees
 Guess from superposition of atomic densities
 Warning:  Energy on first SCF cycle will be non-variational
 SAD guess density has 104.000000 electrons

 -----------------------------------------------------------------------
  General SCF calculation program by
  Eric Jon Sundstrom, Paul Horn, Yuezhi Mao, Dmitri Zuev, Alec White,
  David Stuck, Shaama M.S., Shane Yost, Joonho Lee, David Small,
  Daniel Levine, Susi Lehtola, Hugh Burton, Evgeny Epifanovsky,
  Bang C. Huynh
 -----------------------------------------------------------------------
 Hartree-Fock
 A restricted SCF calculation will be
 performed using DIIS
 SCF converges when DIIS error is below 1.0e-06
 ---------------------------------------
  Cycle       Energy         DIIS error
 ---------------------------------------
    1   -1186.0282817986      2.39e-02  
    2   -1180.6140928840      1.56e-03  
    3   -1180.7385306547      6.27e-04  
    4   -1180.7532913929      3.46e-04  
    5   -1180.7587332599      5.82e-05  
    6   -1180.7589740562      2.42e-05  
    7   -1180.7590306073      8.61e-06  
    8   -1180.7590431774      4.20e-06  
    9   -1180.7590460138      1.43e-06  
   10   -1180.7590464550      5.04e-07  Convergence criterion met
 ---------------------------------------
 SCF time:   CPU 561.21s  wall 564.00s 

************** Final PCM Free Energy Summary **************
 G_electrostatic  =      -0.00853154 hartree =      -5.35362512 kcal/mol
 G_cavitation     =       0.00000000 hartree =       0.00000000 kcal/mol
 G_dispersion     =       0.00000000 hartree =       0.00000000 kcal/mol
 G_repulsion      =       0.00000000 hartree =       0.00000000 kcal/mol
 --------------------------------------------------
 Non-electrostatic Free Energy =       0.00000000 hartree =       0.00000000 kcal/mol
 Total                         =      -0.00853154 hartree =      -5.35362512 kcal/mol
 --------------------------------------------------
 SCF Energy (H0 + V/2)                       =   -1180.75904645 
 Solute Internal Energy (H0)                 =   -1180.75051491 
 Total Free Energy (H0 + V/2 + non-elec)     =   -1180.75904645 hartree
                                             = -740937.48461941 kcal/mol
***********************************************************

 SCF   energy in the final basis set =    -1180.7590464550
 Total energy in the final basis set =    -1180.7590464550


 --------------------------------------------------------------
  Generalized many-body perturbation theory program
  by Joonho Lee, Fazle Rob, Xintian Feng, Evgeny Epifanovsky

 No regularization used 
 (reg. param. = 0.0000e+00)
  (P|Q)^-1/2 Time:  CPU 1.90 s  wall 1.91 s

 In RI-MP2 calculation: 
 # of frozen core orbitals: 20

 Components of the RIMP2 correlation energy:
        aaaa    correlation energy =        -0.2514594819 a.u.
        abab    correlation energy =        -1.5030428508 a.u.
        bbbb    correlation energy =        -0.2514594819 a.u.
        non-Brillouin singles      =        -0.0000000000 a.u.
        total same-spin energy     =        -0.5029189638 a.u.
        total opposite-spin energy =        -1.5030428508 a.u.

 Total  RIMP2   correlation energy =        -2.0059618146 a.u.
        RIMP2         total energy =     -1182.7650082696 a.u.

 RI-MP2 Energy Time:  CPU 79.63 s  wall 80.00 s
 
 --------------------------------------------------------------
 
                    Orbital Energies (a.u.)
 --------------------------------------------------------------
 
 Alpha MOs
 -- Occupied --
-91.9816 -91.9442 -11.2864 -11.2644 -11.2581 -11.2581 -11.2509 -11.2424
-11.2363 -11.2327 -11.2283 -11.2216  -8.9815  -8.9489  -6.6624  -6.6618
 -6.6612  -6.6302  -6.6292  -6.6279  -1.2004  -1.1529  -1.0595  -1.0272
 -1.0073  -0.9571  -0.9147  -0.9012  -0.8154  -0.7690  -0.7249  -0.7006
 -0.6619  -0.6443  -0.6108  -0.5878  -0.5815  -0.5738  -0.5677  -0.5531
 -0.5419  -0.5337  -0.5145  -0.5076  -0.4892  -0.4829  -0.4585  -0.4490
 -0.3568  -0.3430  -0.3213  -0.2687
 -- Virtual --
  0.0983   0.1320   0.1437   0.1480   0.1579   0.1694   0.1768   0.1827
  0.1948   0.1986   0.2036   0.2061   0.2265   0.2337   0.2382   0.2417
  0.2554   0.2639   0.2769   0.2973   0.3287   0.3352   0.3528   0.3569
  0.3638   0.3748   0.3815   0.3934   0.3946   0.4085   0.4117   0.4233
  0.4380   0.4547   0.4575   0.4674   0.4686   0.4739   0.4804   0.4999
  0.5068   0.5170   0.5256   0.5312   0.5356   0.5378   0.5418   0.5496
  0.5598   0.5748   0.5805   0.5975   0.6010   0.6122   0.6134   0.6173
  0.6238   0.6269   0.6342   0.6398   0.6413   0.6436   0.6462   0.6548
  0.6671   0.6764   0.6850   0.6926   0.6958   0.7014   0.7182   0.7227
  0.7309   0.7487   0.7563   0.7858   0.7900   0.8052   0.8055   0.8206
  0.8290   0.8460   0.8536   0.8647   0.8800   0.8898   0.8954   0.9120
  0.9252   0.9461   0.9509   0.9617   0.9755   0.9945   1.0025   1.0103
  1.0218   1.0351   1.0362   1.0466   1.0531   1.0661   1.0729   1.0852
  1.0910   1.0953   1.1038   1.1168   1.1435   1.1497   1.1552   1.1637
  1.1688   1.1859   1.1990   1.2131   1.2213   1.2296   1.2311   1.2361
  1.2508   1.2688   1.2734   1.2826   1.2835   1.2869   1.3036   1.3043
  1.3297   1.3363   1.3433   1.3603   1.3868   1.3973   1.4020   1.4145
  1.4233   1.4314   1.4431   1.4688   1.4699   1.4741   1.4800   1.4987
  1.5040   1.5127   1.5201   1.5290   1.5342   1.5350   1.5527   1.5604
  1.5664   1.5810   1.5918   1.5994   1.6099   1.6207   1.6247   1.6366
  1.6511   1.6586   1.6707   1.6920   1.7002   1.7206   1.7208   1.7391
  1.7411   1.7570   1.7748   1.7974   1.8098   1.8178   1.8311   1.8562
  1.8791   1.9093   1.9296   1.9450   1.9530   1.9722   1.9870   2.0076
  2.0196   2.0245   2.0371   2.0582   2.0685   2.0945   2.1532   2.1647
  2.1847   2.1971   2.2129   2.2187   2.2434   2.2626   2.2666   2.2721
  2.3086   2.3236   2.3279   2.3587   2.4123   2.4247   2.4561   2.4749
  2.4935   2.5117   2.5332   2.5589   2.5799   2.5809   2.5985   2.6235
  2.6338   2.6445   2.6568   2.6681   2.6813   2.6855   2.7006   2.7209
  2.7355   2.7515   2.7567   2.7660   2.7732   2.7822   2.7958   2.8170
  2.8311   2.8471   2.8528   2.8907   2.8947   2.9049   2.9121   2.9260
  2.9330   2.9421   2.9663   2.9751   2.9987   3.0121   3.0301   3.0369
  3.0536   3.0719   3.0874   3.0939   3.1135   3.1167   3.1280   3.1380
  3.1482   3.1534   3.1686   3.1732   3.1790   3.1890   3.2111   3.2207
  3.2267   3.2460   3.2503   3.2573   3.2743   3.2845   3.2960   3.3008
  3.3079   3.3243   3.3299   3.3316   3.3373   3.3519   3.3527   3.3582
  3.3774   3.3836   3.3938   3.3973   3.4038   3.4149   3.4192   3.4310
  3.4456   3.4469   3.4595   3.4634   3.4729   3.4814   3.4938   3.5034
  3.5144   3.5174   3.5307   3.5359   3.5465   3.5579   3.5664   3.5750
  3.5875   3.5953   3.6133   3.6218   3.6283   3.6413   3.6489   3.6565
  3.6696   3.6840   3.6929   3.7058   3.7082   3.7246   3.7285   3.7382
  3.7412   3.7612   3.7676   3.7783   3.7808   3.7994   3.8055   3.8075
  3.8263   3.8376   3.8556   3.8597   3.8718   3.8912   3.9108   3.9219
  3.9326   3.9437   3.9534   3.9738   3.9832   3.9837   3.9981   4.0115
  4.0239   4.0371   4.0493   4.0588   4.0748   4.0894   4.0963   4.1051
  4.1229   4.1366   4.1422   4.1509   4.1540   4.1689   4.1832   4.1950
  4.2133   4.2156   4.2292   4.2412   4.2493   4.2717   4.2795   4.2847
  4.2909   4.2929   4.3092   4.3314   4.3431   4.3475   4.3611   4.3646
  4.3757   4.3887   4.4019   4.4036   4.4087   4.4240   4.4241   4.4487
  4.4623   4.4707   4.4795   4.4858   4.5108   4.5280   4.5486   4.5653
  4.5811   4.5959   4.6081   4.6188   4.6292   4.6449   4.6609   4.6802
  4.7000   4.7244   4.7336   4.7511   4.7798   4.8098   4.8287   4.8393
  4.8598   4.8626   4.8837   4.9037   4.9245   4.9620   4.9692   4.9986
  5.0129   5.0484   5.0661   5.0980   5.1150   5.1255   5.1582   5.1625
  5.1930   5.2219   5.2435   5.2668   5.2787   5.2865   5.3076   5.3149
  5.3410   5.3719   5.3812   5.3871   5.4075   5.4262   5.4401   5.4547
  5.4709   5.5092   5.5179   5.5424   5.5516   5.5594   5.5713   5.5812
  5.6232   5.6324   5.6503   5.6699   5.6829   5.7016   5.7120   5.7256
  5.7596   5.7865   5.8378   5.9842   6.0147   6.1139   6.1378   6.1425
  6.2140   6.2222   6.2275   6.2481   6.2532   6.2834   6.3095   6.3243
  6.3855   6.5062   9.5715  10.7311  12.0326  12.9824  13.1951  13.9512
 14.1385  14.2674  14.3358  14.6811
 --------------------------------------------------------------
 
          Ground-State Mulliken Net Atomic Charges

     Atom                 Charge (a.u.)
  ----------------------------------------
      1 C                    -0.077990
      2 C                    -0.322245
      3 C                    -0.043000
      4 H                     0.177818
      5 C                     0.121107
      6 S                    -0.175363
      7 C                    -0.284265
      8 H                     0.116053
      9 H                     0.109562
     10 H                     0.109251
     11 C                    -0.042600
     12 C                    -0.303338
     13 C                     0.040160
     14 H                     0.183384
     15 C                    -0.261367
     16 S                     0.008172
     17 C                    -0.273215
     18 H                     0.102583
     19 H                     0.107790
     20 H                     0.109002
     21 H                     0.195102
     22 H                     0.113590
     23 H                     0.110597
     24 H                     0.179211
  ----------------------------------------
  Sum of atomic charges =     0.000000

 -----------------------------------------------------------------
                    Cartesian Multipole Moments
 -----------------------------------------------------------------
    Charge (ESU x 10^10)
                -0.0000
    Dipole Moment (Debye)
         X      -1.9496      Y      -0.0227      Z       0.1711
       Tot       1.9572
    Quadrupole Moments (Debye-Ang)
        XX     -91.6200     XY       5.1994     YY     -73.6891
        XZ       0.3693     YZ       2.9811     ZZ     -85.5691
    Octopole Moments (Debye-Ang^2)
       XXX     -37.0045    XXY      45.0149    XYY      -6.5808
       YYY     120.5481    XXZ      -3.5461    XYZ      -2.9583
       YYZ      -0.6806    XZZ     -14.1134    YZZ      51.9704
       ZZZ       2.2921
    Hexadecapole Moments (Debye-Ang^3)
      XXXX    -410.3062   XXXY     -80.4311   XXYY    -578.7231
      XYYY     -63.4533   YYYY   -2753.2509   XXXZ    -156.7259
      XXYZ     -18.1780   XYYZ     -38.7716   YYYZ    -107.9677
      XXZZ    -215.7371   XYZZ      -8.7596   YYZZ    -627.9808
      XZZZ    -153.3693   YZZZ     -81.6434   ZZZZ    -872.1176
 -----------------------------------------------------------------
 Total job time:  646.62s(wall), 641.75s(cpu) 
 Sun Jul 10 05:34:54 2022

        *************************************************************
        *                                                           *
        *  Thank you very much for using Q-Chem.  Have a nice day.  *
        *                                                           *
        *************************************************************


remove work dirs ./qchem1360829.0 -- ./qchem1360829.-1
rm -rf ./qchem1360829
