You are running Q-Chem version: 5.4.0

#
# job setting
#
local host:  exp-1-30
current dir: /expanse/lustre/scratch/theleonzhang/temp_project/Hydrogenated_Rotation_Test
input file:  Methylthiophene_Phi_60_Theta_290_Methylthiophene_Hydrogenated.qcin
output file: 
nprocs     : 0
nthreads   : 1
#
# qchem installation setting
#
QC:          /cm/shared/apps/spack/cpu/opt/spack/linux-centos8-zen2/gcc-10.2.0/qchem-5.4-akfmr7b3t57bfs6qan3padb2wnb2i7cl
QCAUX:       /cm/shared/apps/spack/cpu/opt/spack/linux-centos8-zen2/gcc-10.2.0/qchem-5.4-akfmr7b3t57bfs6qan3padb2wnb2i7cl/qcaux
QCPROG:      /cm/shared/apps/spack/cpu/opt/spack/linux-centos8-zen2/gcc-10.2.0/qchem-5.4-akfmr7b3t57bfs6qan3padb2wnb2i7cl/exe/qcprog.exe_s
QCPROG_S:    /cm/shared/apps/spack/cpu/opt/spack/linux-centos8-zen2/gcc-10.2.0/qchem-5.4-akfmr7b3t57bfs6qan3padb2wnb2i7cl/exe/qcprog.exe_s
PARALLEL:    -DSERIAL
QCMPI:       mpich
#
# qchem directory setting
#
qcrun:       qchem818624
QCSCRATCH:   .
QCLOCALSCR:  
QCTMPDIR:    .
QCFILEPREF:  ./qchem818624
QCSAVEDIR:   
workdirs:    ./qchem818624
workdir0:    ./qchem818624
partmpdirs =  
#
# parallel setting
#
QCRSH:           ssh
QCMPI:           mpich
QCMPIRUN:        /cm/shared/apps/spack/cpu/opt/spack/linux-centos8-zen2/gcc-10.2.0/qchem-5.4-akfmr7b3t57bfs6qan3padb2wnb2i7cl/bin/mpi/mpirun_qchem
QCMACHINEFILE:   ./qchem818624/hostfile

#
# env setting
#
exported envs:   QC QCAUX QCSCRATCH QCRUNNAME QCFILEPREF QCPROG QCPROG_S GUIFILE

Running Job 1 of 1 Methylthiophene_Phi_60_Theta_290_Methylthiophene_Hydrogenated.qcin
qchem Methylthiophene_Phi_60_Theta_290_Methylthiophene_Hydrogenated.qcin_818624.0 ./qchem818624/ 0
/cm/shared/apps/spack/cpu/opt/spack/linux-centos8-zen2/gcc-10.2.0/qchem-5.4-akfmr7b3t57bfs6qan3padb2wnb2i7cl/exe/qcprog.exe_s Methylthiophene_Phi_60_Theta_290_Methylthiophene_Hydrogenated.qcin_818624.0 ./qchem818624/
                  Welcome to Q-Chem
     A Quantum Leap Into The Future Of Chemistry


 Q-Chem 5.4, Q-Chem, Inc., Pleasanton, CA (2021)

 License issued to: University of California, San Diego (site)

 E. Epifanovsky,  A. T. B. Gilbert,  Xintian Feng,  Joonho Lee,  Yuezhi Mao,  
 N. Mardirossian,  P. Pokhilko,  A. White,  M. Wormit,  M. P. Coons,  
 A. L. Dempwolff,  Zhengting Gan,  D. Hait,  P. R. Horn,  L. D. Jacobson,  
 I. Kaliman,  J. Kussmann,  A. W. Lange,  Ka Un Lao,  D. S. Levine,  Jie Liu,  
 S. C. McKenzie,  A. F. Morrison,  K. Nanda,  F. Plasser,  D. R. Rehn,  
 M. L. Vidal,  Zhi-Qiang You,  Ying Zhu,  B. Alam,  B. Albrecht,  
 A. Aldossary,  E. Alguire,  J. H. Andersen,  D. Barton,  K. Begam,  A. Behn,  
 Y. A. Bernard,  E. J. Berquist,  H. Burton,  A. Carreras,  K. Carter-Fenk,  
 R. Chakraborty,  A. D. Chien,  K. D. Closser,  V. Cofer-Shabica,  
 S. Dasgupta,  Jia Deng,  M. de Wergifosse,  M. Diedenhofen,  Hainam Do,  
 S. Ehlert,  Po-Tung Fang,  S. Fatehi,  Qingguo Feng,  J. Gayvert,  
 Qinghui Ge,  G. Gidofalvi,  M. Goldey,  J. Gomes,  C. Gonzalez-Espinoza,  
 S. Gulania,  A. Gunina,  M. W. D. Hanson-Heine,  P. H. P. Harbach,  
 A. W. Hauser,  M. F. Herbst,  M. Hernandez Vera,  M. Hodecker,  
 Z. C. Holden,  S. Houck,  Xunkun Huang,  Kerwin Hui,  B. C. Huynh,  
 M. Ivanov,  Hyunjun Ji,  Hanjie Jiang,  B. Kaduk,  S. Kaehler,  
 K. Khistyaev,  Jaehoon Kim,  P. Klunzinger,  Z. Koczor-Benda,  
 Joong Hoon Koh,  D. Kosenkov,  L. Koulias,  T. Kowalczyk,  C. M. Krauter,  
 K. Kue,  A. Kunitsa,  T. Kus,  A. Landau,  K. V. Lawler,  D. Lefrancois,  
 S. Lehtola,  Rain Li,  Yi-Pei Li,  Jiashu Liang,  M. Liebenthal,  
 Hung-Hsuan Lin,  You-Sheng Lin,  Fenglai Liu,  Kuan-Yu Liu,  
 M. Loipersberger,  A. Luenser,  A. Manjanath,  P. Manohar,  E. Mansoor,  
 S. F. Manzer,  Shan-Ping Mao,  A. V. Marenich,  T. Markovich,  S. Mason,  
 S. A. Maurer,  P. F. McLaughlin,  M. F. S. J. Menger,  J.-M. Mewes,  
 S. A. Mewes,  P. Morgante,  J. W. Mullinax,  T. S. Nguyen-Beck,  
 K. J. Oosterbaan,  G. Paran,  Alexander C. Paul,  Suranjan K. Paul,  
 F. Pavosevic,  Zheng Pei,  S. Prager,  E. I. Proynov,  E. Ramos,  B. Rana,  
 A. E. Rask,  A. Rettig,  R. M. Richard,  F. Rob,  E. Rossomme,  T. Scheele,  
 M. Scheurer,  M. Schneider,  N. Sergueev,  S. M. Sharada,  W. Skomorowski,  
 D. W. Small,  C. J. Stein,  Yu-Chuan Su,  E. J. Sundstrom,  Zhen Tao,  
 J. Thirman,  T. Tsuchimochi,  N. M. Tubman,  S. P. Veccham,  O. Vydrov,  
 J. Wenzel,  J. Witte,  A. Yamada,  Kun Yao,  S. Yeganeh,  S. R. Yost,  
 A. Zech,  Igor Ying Zhang,  Xing Zhang,  Yu Zhang,  D. Zuev,  
 A. Aspuru-Guzik,  A. T. Bell,  N. A. Besley,  K. B. Bravaya,  B. R. Brooks,  
 D. Casanova,  Jeng-Da Chai,  S. Coriani,  C. J. Cramer,  
 A. E. DePrince, III,  R. A. DiStasio Jr.,  A. Dreuw,  B. D. Dunietz,  
 T. R. Furlani,  W. A. Goddard III,  S. Grimme,  S. Hammes-Schiffer,  
 T. Head-Gordon,  W. J. Hehre,  Chao-Ping Hsu,  T.-C. Jagau,  Yousung Jung,  
 A. Klamt,  Jing Kong,  D. S. Lambrecht,  WanZhen Liang,  N. J. Mayhall,  
 C. W. McCurdy,  J. B. Neaton,  C. Ochsenfeld,  J. A. Parkhill,  R. Peverati,  
 V. A. Rassolov,  Yihan Shao,  L. V. Slipchenko,  T. Stauch,  R. P. Steele,  
 J. E. Subotnik,  A. J. W. Thom,  A. Tkatchenko,  D. G. Truhlar,  
 T. Van Voorhis,  T. A. Wesolowski,  K. B. Whaley,  H. L. Woodcock III,  
 P. M. Zimmerman,  S. Faraji,  P. M. W. Gill,  M. Head-Gordon,  
 J. M. Herbert,  A. I. Krylov

 Contributors to earlier versions of Q-Chem not listed above: 
 R. D. Adamson,  B. Austin,  R. Baer,  J. Baker,  G. J. O. Beran,  
 K. Brandhorst,  S. T. Brown,  E. F. C. Byrd,  A. K. Chakraborty,  
 G. K. L. Chan,  Chun-Min Chang,  Yunqing Chen,  C.-L. Cheng,  
 Siu Hung Chien,  D. M. Chipman,  D. L. Crittenden,  H. Dachsel,  
 R. J. Doerksen,  A. D. Dutoi,  R. G. Edgar,  J. Fosso-Tande,  
 L. Fusti-Molnar,  D. Ghosh,  A. Ghysels,  A. Golubeva-Zadorozhnaya,  
 J. Gonthier,  M. S. Gordon,  S. R. Gwaltney,  G. Hawkins,  J. E. Herr,  
 A. Heyden,  S. Hirata,  E. G. Hohenstein,  G. Kedziora,  F. J. Keil,  
 C. Kelley,  Jihan Kim,  R. A. King,  R. Z. Khaliullin,  P. P. Korambath,  
 W. Kurlancheek,  A. Laurent,  A. M. Lee,  M. S. Lee,  S. V. Levchenko,  
 Ching Yeh Lin,  D. Liotard,  E. Livshits,  R. C. Lochan,  I. Lotan,  
 L. A. Martinez-Martinez,  P. E. Maslen,  N. Nair,  D. P. O'Neill,  
 D. Neuhauser,  E. Neuscamman,  C. M. Oana,  R. Olivares-Amaya,  R. Olson,  
 T. M. Perrine,  B. Peters,  P. A. Pieniazek,  A. Prociuk,  Y. M. Rhee,  
 J. Ritchie,  M. A. Rohrdanz,  E. Rosta,  N. J. Russ,  H. F. Schaefer III,  
 M. W. Schmidt,  N. E. Schultz,  S. Sharma,  N. Shenvi,  C. D. Sherrill,  
 A. C. Simmonett,  A. Sodt,  T. Stein,  D. Stuck,  K. S. Thanthiriwatte,  
 V. Vanovschi,  L. Vogt,  Tao Wang,  A. Warshel,  M. A. Watson,  
 C. F. Williams,  Q. Wu,  X. Xu,  Jun Yang,  W. Zhang,  Yan Zhao

 Please cite Q-Chem as follows:
 Y. Shao et al., Mol. Phys. 113, 184-215 (2015)
 DOI: 10.1080/00268976.2014.952696

 Q-Chem 5.4.0 for Intel X86 EM64T Linux

 Parts of Q-Chem use Armadillo 9.800.1 (Horizon Scraper).
 http://arma.sourceforge.net/

 Q-Chem begins on Sun Jul 10 05:31:10 2022  

 Host: 
0

     Scratch files written to ./qchem818624//
 May1621 |scratch|qcdevops|jenkins|workspace|build_RNUM    
 Processing $rem in /cm/shared/apps/spack/cpu/opt/spack/linux-centos8-zen2/gcc-10.2.0/qchem-5.4-akfmr7b3t57bfs6qan3padb2wnb2i7cl/config/preferences:
 Processing $rem in /home/theleonzhang/.qchemrc:
 Symmetry turned off for PCM/SM12/SMD calculation
 Core orbitals will be frozen

 Checking the input file for inconsistencies... 	...done.

--------------------------------------------------------------
User input:
--------------------------------------------------------------
$molecule
0 1
C	0.728138	-3.866725	0.265779
C	-0.575726	-3.703963	-0.209225
C	-1.002290	-2.357056	-0.364875
H	-1.224486	-4.561092	-0.445176
C	0.000000	-1.440664	0.000000
S	1.451343	-2.286957	0.528236
C	-2.369683	-1.978743	-0.862808
H	-2.975883	-2.878678	-1.083368
H	-2.317142	-1.376015	-1.793522
H	-2.927787	-1.375728	-0.116375
C	0.000000	0.000000	0.000000
C	0.747916	0.431772	1.099446
C	1.946425	1.123709	0.776721
H	0.428523	0.247378	2.136088
C	2.137531	1.234018	-0.612546
S	0.816154	0.471179	-1.486809
C	2.888455	1.667564	1.814609
H	2.519842	1.454746	2.836676
H	3.008896	2.767543	1.726239
H	3.901271	1.221850	1.726228
H	2.959587	1.708609	-1.161575
H	1.358585	-4.392713	-0.459743
H	0.744515	-4.392347	1.227009
H	-0.369490	-1.440391	1.014829
$end

$rem
JOBTYPE		SP
EXCHANGE	HF
CORRELATION	pRIMP2
BASIS		cc-pvtz
METHOD		rimp2
AUX_BASIS	rimp2-cc-pvtz
SOLVENT_METHOD	PCM
PURECART	11111
SYMMETRY	false
MEM_TOTAL	110000
SCF_CONVERGENCE = 6
THRESH=10
$end



$solvent
dielectric 4.90
$end
--------------------------------------------------------------
 ----------------------------------------------------------------
             Standard Nuclear Orientation (Angstroms)
    I     Atom           X                Y                Z
 ----------------------------------------------------------------
    1      C       0.7281380000    -3.8667250000     0.2657790000
    2      C      -0.5757260000    -3.7039630000    -0.2092250000
    3      C      -1.0022900000    -2.3570560000    -0.3648750000
    4      H      -1.2244860000    -4.5610920000    -0.4451760000
    5      C       0.0000000000    -1.4406640000     0.0000000000
    6      S       1.4513430000    -2.2869570000     0.5282360000
    7      C      -2.3696830000    -1.9787430000    -0.8628080000
    8      H      -2.9758830000    -2.8786780000    -1.0833680000
    9      H      -2.3171420000    -1.3760150000    -1.7935220000
   10      H      -2.9277870000    -1.3757280000    -0.1163750000
   11      C       0.0000000000     0.0000000000     0.0000000000
   12      C       0.7479160000     0.4317720000     1.0994460000
   13      C       1.9464250000     1.1237090000     0.7767210000
   14      H       0.4285230000     0.2473780000     2.1360880000
   15      C       2.1375310000     1.2340180000    -0.6125460000
   16      S       0.8161540000     0.4711790000    -1.4868090000
   17      C       2.8884550000     1.6675640000     1.8146090000
   18      H       2.5198420000     1.4547460000     2.8366760000
   19      H       3.0088960000     2.7675430000     1.7262390000
   20      H       3.9012710000     1.2218500000     1.7262280000
   21      H       2.9595870000     1.7086090000    -1.1615750000
   22      H       1.3585850000    -4.3927130000    -0.4597430000
   23      H       0.7445150000    -4.3923470000     1.2270090000
   24      H      -0.3694900000    -1.4403910000     1.0148290000
 ----------------------------------------------------------------
 Nuclear Repulsion Energy =         902.38652225 hartrees
 There are       52 alpha and       52 beta electrons

 Q-Chem warning in module forms1/BasisType.C, line 2236:

 You are not using the predefined 5D/6D in this basis set.

 Requested basis set is cc-pVTZ
 There are 196 shells and 536 basis functions

 Total QAlloc Memory Limit 110000 MB
 Mega-Array Size       188 MB
 MEM_STATIC part       192 MB
 Discretize the solute cavity surface with Lebedev spheres
	Using 110 Lebedev grid points for each H atom
	Using 194 Lebedev grid points for other atoms
	Atomic van der Waals radii will be scaled by 1.20
 Remove points where switching function is < 1.0e-08
 Keep 1582 surface tesserae and discard 2066 interior tesserae
 Molecular Surface Area = 232.245 Angst**2
 Requested basis set is rimp2-cc-pVTZ
 There are 414 shells and 1414 basis functions
 A cutoff of  1.0D-10 yielded  14437 shell pairs
 There are    104637 function pairs (    134147 Cartesian)
 Smallest overlap matrix eigenvalue = 6.38E-05

 Scale SEOQF with 1.000000e-01/1.000000e-01/1.000000e-01

 Standard Electronic Orientation quadrupole field applied
 Nucleus-field energy     =     0.0000000301 hartrees
 Guess from superposition of atomic densities
 Warning:  Energy on first SCF cycle will be non-variational
 SAD guess density has 104.000000 electrons

 -----------------------------------------------------------------------
  General SCF calculation program by
  Eric Jon Sundstrom, Paul Horn, Yuezhi Mao, Dmitri Zuev, Alec White,
  David Stuck, Shaama M.S., Shane Yost, Joonho Lee, David Small,
  Daniel Levine, Susi Lehtola, Hugh Burton, Evgeny Epifanovsky,
  Bang C. Huynh
 -----------------------------------------------------------------------
 Hartree-Fock
 A restricted SCF calculation will be
 performed using DIIS
 SCF converges when DIIS error is below 1.0e-06
 ---------------------------------------
  Cycle       Energy         DIIS error
 ---------------------------------------
    1   -1186.1583484348      2.41e-02  
    2   -1180.5522523354      1.52e-03  
    3   -1180.6779077203      5.10e-04  
    4   -1180.6908283481      2.55e-04  
    5   -1180.6939144186      4.93e-05  
    6   -1180.6941510783      2.12e-05  
    7   -1180.6942155653      1.07e-05  
    8   -1180.6942371216      4.97e-06  
    9   -1180.6942427629      2.44e-06  
   10   -1180.6942438359      7.80e-07  Convergence criterion met
 ---------------------------------------
 SCF time:   CPU 613.58s  wall 616.00s 

************** Final PCM Free Energy Summary **************
 G_electrostatic  =      -0.00996565 hartree =      -6.25354210 kcal/mol
 G_cavitation     =       0.00000000 hartree =       0.00000000 kcal/mol
 G_dispersion     =       0.00000000 hartree =       0.00000000 kcal/mol
 G_repulsion      =       0.00000000 hartree =       0.00000000 kcal/mol
 --------------------------------------------------
 Non-electrostatic Free Energy =       0.00000000 hartree =       0.00000000 kcal/mol
 Total                         =      -0.00996565 hartree =      -6.25354210 kcal/mol
 --------------------------------------------------
 SCF Energy (H0 + V/2)                       =   -1180.69424384 
 Solute Internal Energy (H0)                 =   -1180.68427818 
 Total Free Energy (H0 + V/2 + non-elec)     =   -1180.69424384 hartree
                                             = -740896.82036220 kcal/mol
***********************************************************

 SCF   energy in the final basis set =    -1180.6942438359
 Total energy in the final basis set =    -1180.6942438359


 --------------------------------------------------------------
  Generalized many-body perturbation theory program
  by Joonho Lee, Fazle Rob, Xintian Feng, Evgeny Epifanovsky

 No regularization used 
 (reg. param. = 0.0000e+00)
  (P|Q)^-1/2 Time:  CPU 1.93 s  wall 1.94 s

 In RI-MP2 calculation: 
 # of frozen core orbitals: 20

 Components of the RIMP2 correlation energy:
        aaaa    correlation energy =        -0.2544831587 a.u.
        abab    correlation energy =        -1.5121312501 a.u.
        bbbb    correlation energy =        -0.2544831587 a.u.
        non-Brillouin singles      =        -0.0000000000 a.u.
        total same-spin energy     =        -0.5089663173 a.u.
        total opposite-spin energy =        -1.5121312501 a.u.

 Total  RIMP2   correlation energy =        -2.0210975674 a.u.
        RIMP2         total energy =     -1182.7153414033 a.u.

 RI-MP2 Energy Time:  CPU 82.23 s  wall 82.53 s
 
 --------------------------------------------------------------
 
                    Orbital Energies (a.u.)
 --------------------------------------------------------------
 
 Alpha MOs
 -- Occupied --
-91.9765 -91.9340 -11.2899 -11.2636 -11.2540 -11.2539 -11.2497 -11.2488
-11.2358 -11.2308 -11.2284 -11.2119  -8.9776  -8.9392  -6.6584  -6.6575
 -6.6572  -6.6205  -6.6195  -6.6182  -1.2056  -1.1536  -1.0583  -1.0236
 -1.0085  -0.9559  -0.9108  -0.9020  -0.8106  -0.7624  -0.7429  -0.6942
 -0.6556  -0.6366  -0.6144  -0.5919  -0.5785  -0.5755  -0.5644  -0.5490
 -0.5388  -0.5355  -0.5087  -0.5054  -0.4912  -0.4639  -0.4496  -0.4421
 -0.3577  -0.3330  -0.3174  -0.2727
 -- Virtual --
  0.0553   0.1363   0.1389   0.1545   0.1596   0.1693   0.1756   0.1823
  0.1880   0.2018   0.2076   0.2122   0.2243   0.2311   0.2393   0.2450
  0.2489   0.2589   0.2728   0.2952   0.3054   0.3148   0.3387   0.3485
  0.3632   0.3717   0.3756   0.3804   0.3953   0.4064   0.4183   0.4208
  0.4301   0.4351   0.4451   0.4617   0.4716   0.4814   0.4834   0.4925
  0.5021   0.5062   0.5155   0.5286   0.5361   0.5396   0.5536   0.5596
  0.5704   0.5768   0.5870   0.5913   0.6030   0.6093   0.6193   0.6218
  0.6302   0.6311   0.6355   0.6386   0.6418   0.6469   0.6532   0.6615
  0.6704   0.6760   0.6852   0.6924   0.6967   0.7164   0.7189   0.7285
  0.7350   0.7584   0.7592   0.7706   0.7786   0.7875   0.8035   0.8190
  0.8382   0.8411   0.8565   0.8598   0.8855   0.8936   0.9070   0.9192
  0.9308   0.9391   0.9621   0.9707   0.9856   0.9974   1.0076   1.0190
  1.0263   1.0346   1.0464   1.0580   1.0609   1.0777   1.0798   1.0849
  1.0944   1.1084   1.1151   1.1304   1.1513   1.1562   1.1698   1.1771
  1.1808   1.1847   1.2059   1.2165   1.2225   1.2395   1.2409   1.2581
  1.2638   1.2675   1.2727   1.2776   1.2840   1.2938   1.2997   1.3089
  1.3270   1.3461   1.3578   1.3716   1.3822   1.3856   1.4033   1.4122
  1.4242   1.4312   1.4449   1.4494   1.4633   1.4750   1.4852   1.4991
  1.5185   1.5193   1.5260   1.5331   1.5434   1.5476   1.5515   1.5579
  1.5700   1.5781   1.5835   1.5878   1.6076   1.6294   1.6346   1.6374
  1.6453   1.6502   1.6724   1.6971   1.7050   1.7183   1.7270   1.7314
  1.7358   1.7542   1.7765   1.7837   1.7983   1.8248   1.8528   1.8786
  1.8834   1.9040   1.9491   1.9558   1.9644   1.9824   1.9993   2.0114
  2.0381   2.0402   2.0502   2.0736   2.0889   2.0935   2.1090   2.1521
  2.1762   2.1905   2.1945   2.2163   2.2285   2.2500   2.2726   2.2804
  2.2963   2.3447   2.3501   2.3637   2.4038   2.4239   2.4664   2.4777
  2.4921   2.5223   2.5419   2.5578   2.5842   2.6050   2.6263   2.6270
  2.6436   2.6525   2.6637   2.6790   2.6917   2.6984   2.7300   2.7323
  2.7503   2.7567   2.7645   2.7869   2.7973   2.8131   2.8194   2.8226
  2.8536   2.8625   2.8831   2.8840   2.8920   2.9128   2.9220   2.9399
  2.9495   2.9624   2.9875   2.9986   3.0017   3.0190   3.0326   3.0499
  3.0552   3.0605   3.1092   3.1106   3.1214   3.1309   3.1408   3.1488
  3.1619   3.1693   3.1744   3.1791   3.1976   3.1986   3.2116   3.2186
  3.2312   3.2423   3.2488   3.2580   3.2632   3.2707   3.2896   3.3026
  3.3212   3.3255   3.3335   3.3379   3.3442   3.3528   3.3600   3.3703
  3.3797   3.3831   3.3922   3.4060   3.4105   3.4149   3.4239   3.4346
  3.4496   3.4559   3.4611   3.4780   3.4893   3.4946   3.5054   3.5154
  3.5239   3.5325   3.5415   3.5489   3.5628   3.5692   3.5781   3.5848
  3.5970   3.6060   3.6210   3.6356   3.6429   3.6454   3.6519   3.6753
  3.6787   3.6908   3.7054   3.7073   3.7221   3.7305   3.7360   3.7456
  3.7561   3.7665   3.7731   3.7829   3.7893   3.8141   3.8225   3.8247
  3.8378   3.8422   3.8632   3.8812   3.8909   3.8974   3.9130   3.9204
  3.9463   3.9586   3.9621   3.9750   3.9781   4.0079   4.0102   4.0320
  4.0400   4.0404   4.0532   4.0706   4.0876   4.0962   4.1092   4.1151
  4.1343   4.1451   4.1549   4.1596   4.1734   4.1853   4.1962   4.2091
  4.2162   4.2321   4.2417   4.2556   4.2614   4.2691   4.2717   4.2833
  4.2933   4.3117   4.3258   4.3427   4.3484   4.3635   4.3723   4.3748
  4.3864   4.3999   4.4048   4.4125   4.4157   4.4228   4.4271   4.4561
  4.4651   4.4677   4.4792   4.4908   4.5053   4.5325   4.5450   4.5685
  4.5895   4.5975   4.6181   4.6256   4.6382   4.6531   4.6765   4.6828
  4.6868   4.7235   4.7307   4.7517   4.7868   4.8324   4.8356   4.8523
  4.8735   4.8862   4.8870   4.9285   4.9316   4.9534   4.9668   5.0065
  5.0221   5.0524   5.0815   5.1134   5.1139   5.1303   5.1411   5.1730
  5.1812   5.2137   5.2246   5.2771   5.2881   5.2963   5.3128   5.3193
  5.3477   5.3691   5.3920   5.4010   5.4028   5.4180   5.4443   5.4548
  5.4709   5.5060   5.5317   5.5457   5.5480   5.5605   5.5699   5.5978
  5.6271   5.6326   5.6369   5.6753   5.6916   5.7059   5.7162   5.7553
  5.7658   5.7901   5.8096   5.9712   6.0160   6.0350   6.0900   6.1418
  6.2000   6.2177   6.2259   6.2301   6.2525   6.2729   6.2955   6.3317
  6.3977   6.4116   9.4872  10.5318  12.7123  12.8335  13.1850  13.9079
 14.1324  14.2616  14.2908  14.6707
 --------------------------------------------------------------
 
          Ground-State Mulliken Net Atomic Charges

     Atom                 Charge (a.u.)
  ----------------------------------------
      1 C                    -0.087383
      2 C                    -0.323822
      3 C                    -0.069378
      4 H                     0.173127
      5 C                     0.085935
      6 S                    -0.191993
      7 C                    -0.275355
      8 H                     0.112363
      9 H                     0.104599
     10 H                     0.102095
     11 C                    -0.152607
     12 C                    -0.151010
     13 C                    -0.003098
     14 H                     0.189520
     15 C                    -0.157308
     16 S                     0.014629
     17 C                    -0.267024
     18 H                     0.103524
     19 H                     0.109950
     20 H                     0.107695
     21 H                     0.201532
     22 H                     0.110029
     23 H                     0.105721
     24 H                     0.158260
  ----------------------------------------
  Sum of atomic charges =     0.000000

 -----------------------------------------------------------------
                    Cartesian Multipole Moments
 -----------------------------------------------------------------
    Charge (ESU x 10^10)
                -0.0000
    Dipole Moment (Debye)
         X       0.3412      Y       0.9320      Z       1.6575
       Tot       1.9319
    Quadrupole Moments (Debye-Ang)
        XX     -82.3800     XY       9.5785     YY     -83.7406
        XZ       0.9414     YZ       0.5503     ZZ     -85.1739
    Octopole Moments (Debye-Ang^2)
       XXX    -158.4046    XXY      97.7785    XYY     -52.1178
       YYY     213.2895    XXZ      -7.0200    XYZ      -3.5552
       YYZ       0.3552    XZZ     -52.6999    YZZ      87.0208
       ZZZ       7.1379
    Hexadecapole Moments (Debye-Ang^3)
      XXXX   -1317.4821   XXXY    -141.5317   XXYY    -591.4704
      XYYY    -203.0430   YYYY   -2194.4017   XXXZ    -181.8623
      XXYZ     -12.3817   XYYZ     -51.8398   YYYZ     -52.7288
      XXZZ    -318.4107   XYZZ     -57.8386   YYZZ    -503.1857
      XZZZ    -176.4872   YZZZ     -46.4425   ZZZZ    -602.4544
 -----------------------------------------------------------------
 Total job time:  700.71s(wall), 696.77s(cpu) 
 Sun Jul 10 05:42:51 2022

        *************************************************************
        *                                                           *
        *  Thank you very much for using Q-Chem.  Have a nice day.  *
        *                                                           *
        *************************************************************


remove work dirs ./qchem818624.0 -- ./qchem818624.-1
rm -rf ./qchem818624
