You are running Q-Chem version: 5.4.0

#
# job setting
#
local host:  exp-1-17
current dir: /expanse/lustre/scratch/theleonzhang/temp_project/Hydrogenated_Rotation_Test
input file:  Methylthiophene_Phi_0_Theta_340_Methylthiophene_Hydrogenated.qcin
output file: 
nprocs     : 0
nthreads   : 1
#
# qchem installation setting
#
QC:          /cm/shared/apps/spack/cpu/opt/spack/linux-centos8-zen2/gcc-10.2.0/qchem-5.4-akfmr7b3t57bfs6qan3padb2wnb2i7cl
QCAUX:       /cm/shared/apps/spack/cpu/opt/spack/linux-centos8-zen2/gcc-10.2.0/qchem-5.4-akfmr7b3t57bfs6qan3padb2wnb2i7cl/qcaux
QCPROG:      /cm/shared/apps/spack/cpu/opt/spack/linux-centos8-zen2/gcc-10.2.0/qchem-5.4-akfmr7b3t57bfs6qan3padb2wnb2i7cl/exe/qcprog.exe_s
QCPROG_S:    /cm/shared/apps/spack/cpu/opt/spack/linux-centos8-zen2/gcc-10.2.0/qchem-5.4-akfmr7b3t57bfs6qan3padb2wnb2i7cl/exe/qcprog.exe_s
PARALLEL:    -DSERIAL
QCMPI:       mpich
#
# qchem directory setting
#
qcrun:       qchem3655674
QCSCRATCH:   .
QCLOCALSCR:  
QCTMPDIR:    .
QCFILEPREF:  ./qchem3655674
QCSAVEDIR:   
workdirs:    ./qchem3655674
workdir0:    ./qchem3655674
partmpdirs =  
#
# parallel setting
#
QCRSH:           ssh
QCMPI:           mpich
QCMPIRUN:        /cm/shared/apps/spack/cpu/opt/spack/linux-centos8-zen2/gcc-10.2.0/qchem-5.4-akfmr7b3t57bfs6qan3padb2wnb2i7cl/bin/mpi/mpirun_qchem
QCMACHINEFILE:   ./qchem3655674/hostfile

#
# env setting
#
exported envs:   QC QCAUX QCSCRATCH QCRUNNAME QCFILEPREF QCPROG QCPROG_S GUIFILE

Running Job 1 of 1 Methylthiophene_Phi_0_Theta_340_Methylthiophene_Hydrogenated.qcin
qchem Methylthiophene_Phi_0_Theta_340_Methylthiophene_Hydrogenated.qcin_3655674.0 ./qchem3655674/ 0
/cm/shared/apps/spack/cpu/opt/spack/linux-centos8-zen2/gcc-10.2.0/qchem-5.4-akfmr7b3t57bfs6qan3padb2wnb2i7cl/exe/qcprog.exe_s Methylthiophene_Phi_0_Theta_340_Methylthiophene_Hydrogenated.qcin_3655674.0 ./qchem3655674/
                  Welcome to Q-Chem
     A Quantum Leap Into The Future Of Chemistry


 Q-Chem 5.4, Q-Chem, Inc., Pleasanton, CA (2021)

 License issued to: University of California, San Diego (site)

 E. Epifanovsky,  A. T. B. Gilbert,  Xintian Feng,  Joonho Lee,  Yuezhi Mao,  
 N. Mardirossian,  P. Pokhilko,  A. White,  M. Wormit,  M. P. Coons,  
 A. L. Dempwolff,  Zhengting Gan,  D. Hait,  P. R. Horn,  L. D. Jacobson,  
 I. Kaliman,  J. Kussmann,  A. W. Lange,  Ka Un Lao,  D. S. Levine,  Jie Liu,  
 S. C. McKenzie,  A. F. Morrison,  K. Nanda,  F. Plasser,  D. R. Rehn,  
 M. L. Vidal,  Zhi-Qiang You,  Ying Zhu,  B. Alam,  B. Albrecht,  
 A. Aldossary,  E. Alguire,  J. H. Andersen,  D. Barton,  K. Begam,  A. Behn,  
 Y. A. Bernard,  E. J. Berquist,  H. Burton,  A. Carreras,  K. Carter-Fenk,  
 R. Chakraborty,  A. D. Chien,  K. D. Closser,  V. Cofer-Shabica,  
 S. Dasgupta,  Jia Deng,  M. de Wergifosse,  M. Diedenhofen,  Hainam Do,  
 S. Ehlert,  Po-Tung Fang,  S. Fatehi,  Qingguo Feng,  J. Gayvert,  
 Qinghui Ge,  G. Gidofalvi,  M. Goldey,  J. Gomes,  C. Gonzalez-Espinoza,  
 S. Gulania,  A. Gunina,  M. W. D. Hanson-Heine,  P. H. P. Harbach,  
 A. W. Hauser,  M. F. Herbst,  M. Hernandez Vera,  M. Hodecker,  
 Z. C. Holden,  S. Houck,  Xunkun Huang,  Kerwin Hui,  B. C. Huynh,  
 M. Ivanov,  Hyunjun Ji,  Hanjie Jiang,  B. Kaduk,  S. Kaehler,  
 K. Khistyaev,  Jaehoon Kim,  P. Klunzinger,  Z. Koczor-Benda,  
 Joong Hoon Koh,  D. Kosenkov,  L. Koulias,  T. Kowalczyk,  C. M. Krauter,  
 K. Kue,  A. Kunitsa,  T. Kus,  A. Landau,  K. V. Lawler,  D. Lefrancois,  
 S. Lehtola,  Rain Li,  Yi-Pei Li,  Jiashu Liang,  M. Liebenthal,  
 Hung-Hsuan Lin,  You-Sheng Lin,  Fenglai Liu,  Kuan-Yu Liu,  
 M. Loipersberger,  A. Luenser,  A. Manjanath,  P. Manohar,  E. Mansoor,  
 S. F. Manzer,  Shan-Ping Mao,  A. V. Marenich,  T. Markovich,  S. Mason,  
 S. A. Maurer,  P. F. McLaughlin,  M. F. S. J. Menger,  J.-M. Mewes,  
 S. A. Mewes,  P. Morgante,  J. W. Mullinax,  T. S. Nguyen-Beck,  
 K. J. Oosterbaan,  G. Paran,  Alexander C. Paul,  Suranjan K. Paul,  
 F. Pavosevic,  Zheng Pei,  S. Prager,  E. I. Proynov,  E. Ramos,  B. Rana,  
 A. E. Rask,  A. Rettig,  R. M. Richard,  F. Rob,  E. Rossomme,  T. Scheele,  
 M. Scheurer,  M. Schneider,  N. Sergueev,  S. M. Sharada,  W. Skomorowski,  
 D. W. Small,  C. J. Stein,  Yu-Chuan Su,  E. J. Sundstrom,  Zhen Tao,  
 J. Thirman,  T. Tsuchimochi,  N. M. Tubman,  S. P. Veccham,  O. Vydrov,  
 J. Wenzel,  J. Witte,  A. Yamada,  Kun Yao,  S. Yeganeh,  S. R. Yost,  
 A. Zech,  Igor Ying Zhang,  Xing Zhang,  Yu Zhang,  D. Zuev,  
 A. Aspuru-Guzik,  A. T. Bell,  N. A. Besley,  K. B. Bravaya,  B. R. Brooks,  
 D. Casanova,  Jeng-Da Chai,  S. Coriani,  C. J. Cramer,  
 A. E. DePrince, III,  R. A. DiStasio Jr.,  A. Dreuw,  B. D. Dunietz,  
 T. R. Furlani,  W. A. Goddard III,  S. Grimme,  S. Hammes-Schiffer,  
 T. Head-Gordon,  W. J. Hehre,  Chao-Ping Hsu,  T.-C. Jagau,  Yousung Jung,  
 A. Klamt,  Jing Kong,  D. S. Lambrecht,  WanZhen Liang,  N. J. Mayhall,  
 C. W. McCurdy,  J. B. Neaton,  C. Ochsenfeld,  J. A. Parkhill,  R. Peverati,  
 V. A. Rassolov,  Yihan Shao,  L. V. Slipchenko,  T. Stauch,  R. P. Steele,  
 J. E. Subotnik,  A. J. W. Thom,  A. Tkatchenko,  D. G. Truhlar,  
 T. Van Voorhis,  T. A. Wesolowski,  K. B. Whaley,  H. L. Woodcock III,  
 P. M. Zimmerman,  S. Faraji,  P. M. W. Gill,  M. Head-Gordon,  
 J. M. Herbert,  A. I. Krylov

 Contributors to earlier versions of Q-Chem not listed above: 
 R. D. Adamson,  B. Austin,  R. Baer,  J. Baker,  G. J. O. Beran,  
 K. Brandhorst,  S. T. Brown,  E. F. C. Byrd,  A. K. Chakraborty,  
 G. K. L. Chan,  Chun-Min Chang,  Yunqing Chen,  C.-L. Cheng,  
 Siu Hung Chien,  D. M. Chipman,  D. L. Crittenden,  H. Dachsel,  
 R. J. Doerksen,  A. D. Dutoi,  R. G. Edgar,  J. Fosso-Tande,  
 L. Fusti-Molnar,  D. Ghosh,  A. Ghysels,  A. Golubeva-Zadorozhnaya,  
 J. Gonthier,  M. S. Gordon,  S. R. Gwaltney,  G. Hawkins,  J. E. Herr,  
 A. Heyden,  S. Hirata,  E. G. Hohenstein,  G. Kedziora,  F. J. Keil,  
 C. Kelley,  Jihan Kim,  R. A. King,  R. Z. Khaliullin,  P. P. Korambath,  
 W. Kurlancheek,  A. Laurent,  A. M. Lee,  M. S. Lee,  S. V. Levchenko,  
 Ching Yeh Lin,  D. Liotard,  E. Livshits,  R. C. Lochan,  I. Lotan,  
 L. A. Martinez-Martinez,  P. E. Maslen,  N. Nair,  D. P. O'Neill,  
 D. Neuhauser,  E. Neuscamman,  C. M. Oana,  R. Olivares-Amaya,  R. Olson,  
 T. M. Perrine,  B. Peters,  P. A. Pieniazek,  A. Prociuk,  Y. M. Rhee,  
 J. Ritchie,  M. A. Rohrdanz,  E. Rosta,  N. J. Russ,  H. F. Schaefer III,  
 M. W. Schmidt,  N. E. Schultz,  S. Sharma,  N. Shenvi,  C. D. Sherrill,  
 A. C. Simmonett,  A. Sodt,  T. Stein,  D. Stuck,  K. S. Thanthiriwatte,  
 V. Vanovschi,  L. Vogt,  Tao Wang,  A. Warshel,  M. A. Watson,  
 C. F. Williams,  Q. Wu,  X. Xu,  Jun Yang,  W. Zhang,  Yan Zhao

 Please cite Q-Chem as follows:
 Y. Shao et al., Mol. Phys. 113, 184-215 (2015)
 DOI: 10.1080/00268976.2014.952696

 Q-Chem 5.4.0 for Intel X86 EM64T Linux

 Parts of Q-Chem use Armadillo 9.800.1 (Horizon Scraper).
 http://arma.sourceforge.net/

 Q-Chem begins on Sun Jul 10 05:04:24 2022  

 Host: 
0

     Scratch files written to ./qchem3655674//
 May1621 |scratch|qcdevops|jenkins|workspace|build_RNUM    
 Processing $rem in /cm/shared/apps/spack/cpu/opt/spack/linux-centos8-zen2/gcc-10.2.0/qchem-5.4-akfmr7b3t57bfs6qan3padb2wnb2i7cl/config/preferences:
 Processing $rem in /home/theleonzhang/.qchemrc:
 Symmetry turned off for PCM/SM12/SMD calculation
 Core orbitals will be frozen

 Checking the input file for inconsistencies... 	...done.

--------------------------------------------------------------
User input:
--------------------------------------------------------------
$molecule
0 1
C	0.264439	-3.866725	0.728625
C	-0.209794	-3.703963	-0.575519
C	-0.364749	-2.357056	-1.002336
H	-0.446060	-4.561092	-1.224165
C	0.000000	-1.440664	0.000000
S	0.528253	-2.286957	1.451336
C	-0.862253	-1.978743	-2.369885
H	-1.082953	-2.878678	-2.976034
H	-0.115513	-1.376015	-2.927887
H	-1.792797	-1.375728	-2.317620
C	0.000000	0.000000	0.000000
C	0.000033	0.863600	1.099446
C	0.000052	2.247508	0.776721
H	0.000026	0.494801	2.136088
C	0.000074	2.468165	-0.612546
S	0.000024	0.942399	-1.486809
C	0.000075	3.335257	1.814609
H	0.000074	2.909620	2.836676
H	-0.892314	3.989552	1.726239
H	0.892483	3.989525	1.726228
H	0.000094	3.417382	-1.161575
H	1.225465	-4.392713	0.745219
H	-0.461378	-4.392347	1.359038
H	-1.014907	-1.440391	0.369273
$end

$rem
JOBTYPE		SP
EXCHANGE	HF
CORRELATION	pRIMP2
BASIS		cc-pvtz
METHOD		rimp2
AUX_BASIS	rimp2-cc-pvtz
SOLVENT_METHOD	PCM
PURECART	11111
SYMMETRY	false
MEM_TOTAL	110000
SCF_CONVERGENCE = 6
THRESH=10
$end



$solvent
dielectric 4.90
$end
--------------------------------------------------------------
 ----------------------------------------------------------------
             Standard Nuclear Orientation (Angstroms)
    I     Atom           X                Y                Z
 ----------------------------------------------------------------
    1      C       0.2644390000    -3.8667250000     0.7286250000
    2      C      -0.2097940000    -3.7039630000    -0.5755190000
    3      C      -0.3647490000    -2.3570560000    -1.0023360000
    4      H      -0.4460600000    -4.5610920000    -1.2241650000
    5      C       0.0000000000    -1.4406640000     0.0000000000
    6      S       0.5282530000    -2.2869570000     1.4513360000
    7      C      -0.8622530000    -1.9787430000    -2.3698850000
    8      H      -1.0829530000    -2.8786780000    -2.9760340000
    9      H      -0.1155130000    -1.3760150000    -2.9278870000
   10      H      -1.7927970000    -1.3757280000    -2.3176200000
   11      C       0.0000000000     0.0000000000     0.0000000000
   12      C       0.0000330000     0.8636000000     1.0994460000
   13      C       0.0000520000     2.2475080000     0.7767210000
   14      H       0.0000260000     0.4948010000     2.1360880000
   15      C       0.0000740000     2.4681650000    -0.6125460000
   16      S       0.0000240000     0.9423990000    -1.4868090000
   17      C       0.0000750000     3.3352570000     1.8146090000
   18      H       0.0000740000     2.9096200000     2.8366760000
   19      H      -0.8923140000     3.9895520000     1.7262390000
   20      H       0.8924830000     3.9895250000     1.7262280000
   21      H       0.0000940000     3.4173820000    -1.1615750000
   22      H       1.2254650000    -4.3927130000     0.7452190000
   23      H      -0.4613780000    -4.3923470000     1.3590380000
   24      H      -1.0149070000    -1.4403910000     0.3692730000
 ----------------------------------------------------------------
 Nuclear Repulsion Energy =         875.51737654 hartrees
 There are       52 alpha and       52 beta electrons

 Q-Chem warning in module forms1/BasisType.C, line 2236:

 You are not using the predefined 5D/6D in this basis set.

 Requested basis set is cc-pVTZ
 There are 196 shells and 536 basis functions

 Total QAlloc Memory Limit 110000 MB
 Mega-Array Size       188 MB
 MEM_STATIC part       192 MB
 Discretize the solute cavity surface with Lebedev spheres
	Using 110 Lebedev grid points for each H atom
	Using 194 Lebedev grid points for other atoms
	Atomic van der Waals radii will be scaled by 1.20
 Remove points where switching function is < 1.0e-08
 Keep 1588 surface tesserae and discard 2060 interior tesserae
 Molecular Surface Area = 231.923 Angst**2
 Requested basis set is rimp2-cc-pVTZ
 There are 414 shells and 1414 basis functions
 A cutoff of  1.0D-10 yielded  13849 shell pairs
 There are    100343 function pairs (    128659 Cartesian)
 Smallest overlap matrix eigenvalue = 4.62E-05

 Scale SEOQF with 1.000000e-01/1.000000e-01/1.000000e-01

 Standard Electronic Orientation quadrupole field applied
 Nucleus-field energy     =     0.0000000230 hartrees
 Guess from superposition of atomic densities
 Warning:  Energy on first SCF cycle will be non-variational
 SAD guess density has 104.000000 electrons

 -----------------------------------------------------------------------
  General SCF calculation program by
  Eric Jon Sundstrom, Paul Horn, Yuezhi Mao, Dmitri Zuev, Alec White,
  David Stuck, Shaama M.S., Shane Yost, Joonho Lee, David Small,
  Daniel Levine, Susi Lehtola, Hugh Burton, Evgeny Epifanovsky,
  Bang C. Huynh
 -----------------------------------------------------------------------
 Hartree-Fock
 A restricted SCF calculation will be
 performed using DIIS
 SCF converges when DIIS error is below 1.0e-06
 ---------------------------------------
  Cycle       Energy         DIIS error
 ---------------------------------------
    1   -1186.0455613152      2.39e-02  
    2   -1180.6108798145      1.59e-03  
    3   -1180.7366351219      6.65e-04  
    4   -1180.7528947255      3.54e-04  
    5   -1180.7586829083      5.84e-05  
    6   -1180.7589258214      2.44e-05  
    7   -1180.7589815127      8.38e-06  
    8   -1180.7589929815      4.06e-06  
    9   -1180.7589954468      1.35e-06  
   10   -1180.7589958356      5.05e-07  Convergence criterion met
 ---------------------------------------
 SCF time:   CPU 568.47s  wall 571.00s 

************** Final PCM Free Energy Summary **************
 G_electrostatic  =      -0.00831105 hartree =      -5.21526474 kcal/mol
 G_cavitation     =       0.00000000 hartree =       0.00000000 kcal/mol
 G_dispersion     =       0.00000000 hartree =       0.00000000 kcal/mol
 G_repulsion      =       0.00000000 hartree =       0.00000000 kcal/mol
 --------------------------------------------------
 Non-electrostatic Free Energy =       0.00000000 hartree =       0.00000000 kcal/mol
 Total                         =      -0.00831105 hartree =      -5.21526474 kcal/mol
 --------------------------------------------------
 SCF Energy (H0 + V/2)                       =   -1180.75899584 
 Solute Internal Energy (H0)                 =   -1180.75068478 
 Total Free Energy (H0 + V/2 + non-elec)     =   -1180.75899584 hartree
                                             = -740937.45285532 kcal/mol
***********************************************************

 SCF   energy in the final basis set =    -1180.7589958356
 Total energy in the final basis set =    -1180.7589958356


 --------------------------------------------------------------
  Generalized many-body perturbation theory program
  by Joonho Lee, Fazle Rob, Xintian Feng, Evgeny Epifanovsky

 No regularization used 
 (reg. param. = 0.0000e+00)
  (P|Q)^-1/2 Time:  CPU 1.90 s  wall 1.91 s

 In RI-MP2 calculation: 
 # of frozen core orbitals: 20

 Components of the RIMP2 correlation energy:
        aaaa    correlation energy =        -0.2515056502 a.u.
        abab    correlation energy =        -1.5027369502 a.u.
        bbbb    correlation energy =        -0.2515056502 a.u.
        non-Brillouin singles      =        -0.0000000000 a.u.
        total same-spin energy     =        -0.5030113005 a.u.
        total opposite-spin energy =        -1.5027369502 a.u.

 Total  RIMP2   correlation energy =        -2.0057482507 a.u.
        RIMP2         total energy =     -1182.7647440863 a.u.

 RI-MP2 Energy Time:  CPU 79.36 s  wall 79.68 s
 
 --------------------------------------------------------------
 
                    Orbital Energies (a.u.)
 --------------------------------------------------------------
 
 Alpha MOs
 -- Occupied --
-91.9819 -91.9463 -11.2906 -11.2661 -11.2614 -11.2531 -11.2502 -11.2441
-11.2330 -11.2309 -11.2276 -11.2231  -8.9818  -8.9509  -6.6627  -6.6622
 -6.6615  -6.6323  -6.6313  -6.6300  -1.2024  -1.1523  -1.0608  -1.0284
 -1.0072  -0.9562  -0.9162  -0.9015  -0.8154  -0.7716  -0.7192  -0.7026
 -0.6625  -0.6474  -0.6110  -0.5895  -0.5823  -0.5729  -0.5680  -0.5544
 -0.5424  -0.5340  -0.5156  -0.5089  -0.4893  -0.4847  -0.4578  -0.4472
 -0.3586  -0.3422  -0.3252  -0.2653
 -- Virtual --
  0.1054   0.1321   0.1444   0.1504   0.1589   0.1701   0.1761   0.1825
  0.1928   0.1967   0.2038   0.2070   0.2288   0.2330   0.2387   0.2417
  0.2523   0.2650   0.2728   0.3053   0.3244   0.3373   0.3518   0.3596
  0.3709   0.3791   0.3805   0.3963   0.4057   0.4102   0.4168   0.4362
  0.4416   0.4491   0.4602   0.4638   0.4786   0.4807   0.4886   0.5002
  0.5091   0.5150   0.5283   0.5357   0.5376   0.5468   0.5484   0.5493
  0.5665   0.5730   0.5883   0.5974   0.6049   0.6145   0.6165   0.6187
  0.6238   0.6284   0.6309   0.6370   0.6412   0.6439   0.6489   0.6554
  0.6642   0.6697   0.6869   0.6901   0.6966   0.7105   0.7223   0.7233
  0.7412   0.7588   0.7615   0.7837   0.7950   0.8018   0.8158   0.8188
  0.8469   0.8571   0.8606   0.8716   0.8801   0.8934   0.9085   0.9170
  0.9286   0.9368   0.9509   0.9725   0.9803   0.9847   0.9967   1.0065
  1.0165   1.0262   1.0346   1.0527   1.0584   1.0698   1.0788   1.0866
  1.0925   1.0978   1.1071   1.1262   1.1438   1.1528   1.1571   1.1646
  1.1685   1.1873   1.2026   1.2107   1.2206   1.2267   1.2306   1.2413
  1.2539   1.2671   1.2744   1.2754   1.2849   1.2879   1.2948   1.3137
  1.3214   1.3369   1.3463   1.3737   1.3833   1.3933   1.4058   1.4114
  1.4208   1.4313   1.4428   1.4608   1.4750   1.4789   1.4887   1.4930
  1.5087   1.5136   1.5265   1.5323   1.5382   1.5414   1.5485   1.5563
  1.5661   1.5806   1.5918   1.6038   1.6066   1.6285   1.6358   1.6435
  1.6604   1.6671   1.6817   1.6865   1.6959   1.7129   1.7243   1.7333
  1.7369   1.7509   1.7908   1.8120   1.8200   1.8270   1.8417   1.8653
  1.8927   1.9120   1.9270   1.9513   1.9601   1.9751   1.9896   2.0101
  2.0148   2.0247   2.0503   2.0547   2.0674   2.0869   2.1461   2.1559
  2.1926   2.1964   2.2090   2.2213   2.2319   2.2637   2.2824   2.2899
  2.3175   2.3360   2.3501   2.3553   2.4142   2.4308   2.4621   2.4682
  2.4968   2.5217   2.5281   2.5519   2.5586   2.5961   2.6043   2.6148
  2.6450   2.6536   2.6583   2.6752   2.6888   2.6979   2.7084   2.7254
  2.7278   2.7521   2.7564   2.7655   2.7736   2.7808   2.8061   2.8111
  2.8218   2.8467   2.8596   2.8895   2.8944   2.9041   2.9174   2.9272
  2.9411   2.9422   2.9668   2.9851   2.9944   3.0128   3.0333   3.0414
  3.0538   3.0674   3.0928   3.1032   3.1138   3.1205   3.1314   3.1421
  3.1539   3.1555   3.1685   3.1779   3.1842   3.1975   3.2182   3.2232
  3.2288   3.2378   3.2570   3.2593   3.2725   3.2763   3.2930   3.3048
  3.3146   3.3247   3.3312   3.3352   3.3442   3.3470   3.3594   3.3664
  3.3788   3.3840   3.3871   3.3976   3.4031   3.4152   3.4195   3.4290
  3.4417   3.4448   3.4542   3.4597   3.4741   3.4900   3.4981   3.5033
  3.5149   3.5178   3.5302   3.5389   3.5504   3.5554   3.5632   3.5710
  3.5745   3.5968   3.6116   3.6250   3.6311   3.6409   3.6420   3.6539
  3.6780   3.6851   3.6968   3.7050   3.7101   3.7224   3.7307   3.7407
  3.7415   3.7530   3.7748   3.7824   3.7903   3.7965   3.8049   3.8116
  3.8242   3.8323   3.8488   3.8637   3.8752   3.8979   3.9049   3.9162
  3.9340   3.9395   3.9527   3.9655   3.9793   3.9917   4.0045   4.0108
  4.0307   4.0362   4.0484   4.0522   4.0738   4.0917   4.0973   4.1020
  4.1248   4.1335   4.1485   4.1517   4.1629   4.1692   4.1827   4.2039
  4.2078   4.2151   4.2260   4.2436   4.2521   4.2672   4.2806   4.2832
  4.2867   4.3036   4.3304   4.3368   4.3489   4.3518   4.3596   4.3635
  4.3775   4.3822   4.4028   4.4084   4.4190   4.4242   4.4374   4.4497
  4.4650   4.4671   4.4842   4.4972   4.5238   4.5302   4.5465   4.5725
  4.5848   4.5977   4.6046   4.6250   4.6403   4.6423   4.6652   4.6802
  4.7109   4.7180   4.7356   4.7657   4.7915   4.8065   4.8154   4.8406
  4.8500   4.8689   4.8870   4.8951   4.9289   4.9668   4.9789   4.9910
  5.0329   5.0508   5.0847   5.1003   5.1205   5.1268   5.1634   5.1882
  5.1974   5.2226   5.2534   5.2656   5.2872   5.2941   5.3052   5.3242
  5.3561   5.3748   5.3782   5.3863   5.4071   5.4233   5.4390   5.4506
  5.4733   5.5170   5.5198   5.5447   5.5506   5.5568   5.5700   5.5818
  5.6224   5.6375   5.6494   5.6785   5.6892   5.7004   5.7106   5.7167
  5.7610   5.7878   5.8487   5.9992   6.0089   6.1359   6.1471   6.1610
  6.2207   6.2276   6.2357   6.2530   6.2739   6.2840   6.3075   6.3460
  6.4123   6.5131   9.5640  10.8431  12.0557  13.0086  13.2046  13.9923
 14.1474  14.3247  14.4004  14.8409
 --------------------------------------------------------------
 
          Ground-State Mulliken Net Atomic Charges

     Atom                 Charge (a.u.)
  ----------------------------------------
      1 C                    -0.074328
      2 C                    -0.320986
      3 C                    -0.038142
      4 H                     0.179091
      5 C                     0.125510
      6 S                    -0.180199
      7 C                    -0.304098
      8 H                     0.119709
      9 H                     0.110919
     10 H                     0.115028
     11 C                    -0.026558
     12 C                    -0.313036
     13 C                     0.040525
     14 H                     0.178054
     15 C                    -0.275383
     16 S                     0.008437
     17 C                    -0.272924
     18 H                     0.102698
     19 H                     0.107994
     20 H                     0.108660
     21 H                     0.195466
     22 H                     0.114376
     23 H                     0.110970
     24 H                     0.188218
  ----------------------------------------
  Sum of atomic charges =     0.000000

 -----------------------------------------------------------------
                    Cartesian Multipole Moments
 -----------------------------------------------------------------
    Charge (ESU x 10^10)
                -0.0000
    Dipole Moment (Debye)
         X      -1.6813      Y      -0.4541      Z      -0.6178
       Tot       1.8478
    Quadrupole Moments (Debye-Ang)
        XX     -91.9011     XY       2.5902     YY     -73.1672
        XZ      -0.0542     YZ       3.9940     ZZ     -85.4469
    Octopole Moments (Debye-Ang^2)
       XXX       1.8602    XXY      43.3939    XYY      -1.2574
       YYY     114.1912    XXZ      -0.7148    XYZ      -1.4233
       YYZ      -0.6425    XZZ      -2.9317    YZZ      48.8780
       ZZZ      -2.2435
    Hexadecapole Moments (Debye-Ang^3)
      XXXX    -205.9211   XXXY      -1.0883   XXYY    -563.6522
      XYYY       2.4282   YYYY   -2766.9403   XXXZ     -95.4243
      XXYZ     -27.7730   XYYZ     -21.0695   YYYZ    -109.5106
      XXZZ    -216.7480   XYZZ      12.6610   YYZZ    -650.0766
      XZZZ     -86.7239   YZZZ     -68.2882   ZZZZ   -1031.5057
 -----------------------------------------------------------------
 Total job time:  653.67s(wall), 648.76s(cpu) 
 Sun Jul 10 05:15:18 2022

        *************************************************************
        *                                                           *
        *  Thank you very much for using Q-Chem.  Have a nice day.  *
        *                                                           *
        *************************************************************


remove work dirs ./qchem3655674.0 -- ./qchem3655674.-1
rm -rf ./qchem3655674
You are running Q-Chem version: 5.4.0

#
# job setting
#
local host:  exp-2-18
current dir: /expanse/lustre/scratch/theleonzhang/temp_project/Hydrogenated_Rotation_Test
input file:  Methylthiophene_Phi_0_Theta_340_Methylthiophene_Hydrogenated.qcin
output file: 
nprocs     : 0
nthreads   : 1
#
# qchem installation setting
#
QC:          /cm/shared/apps/spack/cpu/opt/spack/linux-centos8-zen2/gcc-10.2.0/qchem-5.4-akfmr7b3t57bfs6qan3padb2wnb2i7cl
QCAUX:       /cm/shared/apps/spack/cpu/opt/spack/linux-centos8-zen2/gcc-10.2.0/qchem-5.4-akfmr7b3t57bfs6qan3padb2wnb2i7cl/qcaux
QCPROG:      /cm/shared/apps/spack/cpu/opt/spack/linux-centos8-zen2/gcc-10.2.0/qchem-5.4-akfmr7b3t57bfs6qan3padb2wnb2i7cl/exe/qcprog.exe_s
QCPROG_S:    /cm/shared/apps/spack/cpu/opt/spack/linux-centos8-zen2/gcc-10.2.0/qchem-5.4-akfmr7b3t57bfs6qan3padb2wnb2i7cl/exe/qcprog.exe_s
PARALLEL:    -DSERIAL
QCMPI:       mpich
#
# qchem directory setting
#
qcrun:       qchem1980442
QCSCRATCH:   .
QCLOCALSCR:  
QCTMPDIR:    .
QCFILEPREF:  ./qchem1980442
QCSAVEDIR:   
workdirs:    ./qchem1980442
workdir0:    ./qchem1980442
partmpdirs =  
#
# parallel setting
#
QCRSH:           ssh
QCMPI:           mpich
QCMPIRUN:        /cm/shared/apps/spack/cpu/opt/spack/linux-centos8-zen2/gcc-10.2.0/qchem-5.4-akfmr7b3t57bfs6qan3padb2wnb2i7cl/bin/mpi/mpirun_qchem
QCMACHINEFILE:   ./qchem1980442/hostfile

#
# env setting
#
exported envs:   QC QCAUX QCSCRATCH QCRUNNAME QCFILEPREF QCPROG QCPROG_S GUIFILE

Running Job 1 of 1 Methylthiophene_Phi_0_Theta_340_Methylthiophene_Hydrogenated.qcin
qchem Methylthiophene_Phi_0_Theta_340_Methylthiophene_Hydrogenated.qcin_1980442.0 ./qchem1980442/ 0
/cm/shared/apps/spack/cpu/opt/spack/linux-centos8-zen2/gcc-10.2.0/qchem-5.4-akfmr7b3t57bfs6qan3padb2wnb2i7cl/exe/qcprog.exe_s Methylthiophene_Phi_0_Theta_340_Methylthiophene_Hydrogenated.qcin_1980442.0 ./qchem1980442/
                  Welcome to Q-Chem
     A Quantum Leap Into The Future Of Chemistry


 Q-Chem 5.4, Q-Chem, Inc., Pleasanton, CA (2021)

 License issued to: University of California, San Diego (site)

 E. Epifanovsky,  A. T. B. Gilbert,  Xintian Feng,  Joonho Lee,  Yuezhi Mao,  
 N. Mardirossian,  P. Pokhilko,  A. White,  M. Wormit,  M. P. Coons,  
 A. L. Dempwolff,  Zhengting Gan,  D. Hait,  P. R. Horn,  L. D. Jacobson,  
 I. Kaliman,  J. Kussmann,  A. W. Lange,  Ka Un Lao,  D. S. Levine,  Jie Liu,  
 S. C. McKenzie,  A. F. Morrison,  K. Nanda,  F. Plasser,  D. R. Rehn,  
 M. L. Vidal,  Zhi-Qiang You,  Ying Zhu,  B. Alam,  B. Albrecht,  
 A. Aldossary,  E. Alguire,  J. H. Andersen,  D. Barton,  K. Begam,  A. Behn,  
 Y. A. Bernard,  E. J. Berquist,  H. Burton,  A. Carreras,  K. Carter-Fenk,  
 R. Chakraborty,  A. D. Chien,  K. D. Closser,  V. Cofer-Shabica,  
 S. Dasgupta,  Jia Deng,  M. de Wergifosse,  M. Diedenhofen,  Hainam Do,  
 S. Ehlert,  Po-Tung Fang,  S. Fatehi,  Qingguo Feng,  J. Gayvert,  
 Qinghui Ge,  G. Gidofalvi,  M. Goldey,  J. Gomes,  C. Gonzalez-Espinoza,  
 S. Gulania,  A. Gunina,  M. W. D. Hanson-Heine,  P. H. P. Harbach,  
 A. W. Hauser,  M. F. Herbst,  M. Hernandez Vera,  M. Hodecker,  
 Z. C. Holden,  S. Houck,  Xunkun Huang,  Kerwin Hui,  B. C. Huynh,  
 M. Ivanov,  Hyunjun Ji,  Hanjie Jiang,  B. Kaduk,  S. Kaehler,  
 K. Khistyaev,  Jaehoon Kim,  P. Klunzinger,  Z. Koczor-Benda,  
 Joong Hoon Koh,  D. Kosenkov,  L. Koulias,  T. Kowalczyk,  C. M. Krauter,  
 K. Kue,  A. Kunitsa,  T. Kus,  A. Landau,  K. V. Lawler,  D. Lefrancois,  
 S. Lehtola,  Rain Li,  Yi-Pei Li,  Jiashu Liang,  M. Liebenthal,  
 Hung-Hsuan Lin,  You-Sheng Lin,  Fenglai Liu,  Kuan-Yu Liu,  
 M. Loipersberger,  A. Luenser,  A. Manjanath,  P. Manohar,  E. Mansoor,  
 S. F. Manzer,  Shan-Ping Mao,  A. V. Marenich,  T. Markovich,  S. Mason,  
 S. A. Maurer,  P. F. McLaughlin,  M. F. S. J. Menger,  J.-M. Mewes,  
 S. A. Mewes,  P. Morgante,  J. W. Mullinax,  T. S. Nguyen-Beck,  
 K. J. Oosterbaan,  G. Paran,  Alexander C. Paul,  Suranjan K. Paul,  
 F. Pavosevic,  Zheng Pei,  S. Prager,  E. I. Proynov,  E. Ramos,  B. Rana,  
 A. E. Rask,  A. Rettig,  R. M. Richard,  F. Rob,  E. Rossomme,  T. Scheele,  
 M. Scheurer,  M. Schneider,  N. Sergueev,  S. M. Sharada,  W. Skomorowski,  
 D. W. Small,  C. J. Stein,  Yu-Chuan Su,  E. J. Sundstrom,  Zhen Tao,  
 J. Thirman,  T. Tsuchimochi,  N. M. Tubman,  S. P. Veccham,  O. Vydrov,  
 J. Wenzel,  J. Witte,  A. Yamada,  Kun Yao,  S. Yeganeh,  S. R. Yost,  
 A. Zech,  Igor Ying Zhang,  Xing Zhang,  Yu Zhang,  D. Zuev,  
 A. Aspuru-Guzik,  A. T. Bell,  N. A. Besley,  K. B. Bravaya,  B. R. Brooks,  
 D. Casanova,  Jeng-Da Chai,  S. Coriani,  C. J. Cramer,  
 A. E. DePrince, III,  R. A. DiStasio Jr.,  A. Dreuw,  B. D. Dunietz,  
 T. R. Furlani,  W. A. Goddard III,  S. Grimme,  S. Hammes-Schiffer,  
 T. Head-Gordon,  W. J. Hehre,  Chao-Ping Hsu,  T.-C. Jagau,  Yousung Jung,  
 A. Klamt,  Jing Kong,  D. S. Lambrecht,  WanZhen Liang,  N. J. Mayhall,  
 C. W. McCurdy,  J. B. Neaton,  C. Ochsenfeld,  J. A. Parkhill,  R. Peverati,  
 V. A. Rassolov,  Yihan Shao,  L. V. Slipchenko,  T. Stauch,  R. P. Steele,  
 J. E. Subotnik,  A. J. W. Thom,  A. Tkatchenko,  D. G. Truhlar,  
 T. Van Voorhis,  T. A. Wesolowski,  K. B. Whaley,  H. L. Woodcock III,  
 P. M. Zimmerman,  S. Faraji,  P. M. W. Gill,  M. Head-Gordon,  
 J. M. Herbert,  A. I. Krylov

 Contributors to earlier versions of Q-Chem not listed above: 
 R. D. Adamson,  B. Austin,  R. Baer,  J. Baker,  G. J. O. Beran,  
 K. Brandhorst,  S. T. Brown,  E. F. C. Byrd,  A. K. Chakraborty,  
 G. K. L. Chan,  Chun-Min Chang,  Yunqing Chen,  C.-L. Cheng,  
 Siu Hung Chien,  D. M. Chipman,  D. L. Crittenden,  H. Dachsel,  
 R. J. Doerksen,  A. D. Dutoi,  R. G. Edgar,  J. Fosso-Tande,  
 L. Fusti-Molnar,  D. Ghosh,  A. Ghysels,  A. Golubeva-Zadorozhnaya,  
 J. Gonthier,  M. S. Gordon,  S. R. Gwaltney,  G. Hawkins,  J. E. Herr,  
 A. Heyden,  S. Hirata,  E. G. Hohenstein,  G. Kedziora,  F. J. Keil,  
 C. Kelley,  Jihan Kim,  R. A. King,  R. Z. Khaliullin,  P. P. Korambath,  
 W. Kurlancheek,  A. Laurent,  A. M. Lee,  M. S. Lee,  S. V. Levchenko,  
 Ching Yeh Lin,  D. Liotard,  E. Livshits,  R. C. Lochan,  I. Lotan,  
 L. A. Martinez-Martinez,  P. E. Maslen,  N. Nair,  D. P. O'Neill,  
 D. Neuhauser,  E. Neuscamman,  C. M. Oana,  R. Olivares-Amaya,  R. Olson,  
 T. M. Perrine,  B. Peters,  P. A. Pieniazek,  A. Prociuk,  Y. M. Rhee,  
 J. Ritchie,  M. A. Rohrdanz,  E. Rosta,  N. J. Russ,  H. F. Schaefer III,  
 M. W. Schmidt,  N. E. Schultz,  S. Sharma,  N. Shenvi,  C. D. Sherrill,  
 A. C. Simmonett,  A. Sodt,  T. Stein,  D. Stuck,  K. S. Thanthiriwatte,  
 V. Vanovschi,  L. Vogt,  Tao Wang,  A. Warshel,  M. A. Watson,  
 C. F. Williams,  Q. Wu,  X. Xu,  Jun Yang,  W. Zhang,  Yan Zhao

 Please cite Q-Chem as follows:
 Y. Shao et al., Mol. Phys. 113, 184-215 (2015)
 DOI: 10.1080/00268976.2014.952696

 Q-Chem 5.4.0 for Intel X86 EM64T Linux

 Parts of Q-Chem use Armadillo 9.800.1 (Horizon Scraper).
 http://arma.sourceforge.net/

 Q-Chem begins on Sun Jul 10 05:37:37 2022  

 Host: 
0

     Scratch files written to ./qchem1980442//
 May1621 |scratch|qcdevops|jenkins|workspace|build_RNUM    
 Processing $rem in /cm/shared/apps/spack/cpu/opt/spack/linux-centos8-zen2/gcc-10.2.0/qchem-5.4-akfmr7b3t57bfs6qan3padb2wnb2i7cl/config/preferences:
 Processing $rem in /home/theleonzhang/.qchemrc:
 Symmetry turned off for PCM/SM12/SMD calculation
 Core orbitals will be frozen

 Checking the input file for inconsistencies... 	...done.

--------------------------------------------------------------
User input:
--------------------------------------------------------------
$molecule
0 1
C	0.264439	-3.866725	0.728625
C	-0.209794	-3.703963	-0.575519
C	-0.364749	-2.357056	-1.002336
H	-0.446060	-4.561092	-1.224165
C	0.000000	-1.440664	0.000000
S	0.528253	-2.286957	1.451336
C	-0.862253	-1.978743	-2.369885
H	-1.082953	-2.878678	-2.976034
H	-0.115513	-1.376015	-2.927887
H	-1.792797	-1.375728	-2.317620
C	0.000000	0.000000	0.000000
C	0.000033	0.863600	1.099446
C	0.000052	2.247508	0.776721
H	0.000026	0.494801	2.136088
C	0.000074	2.468165	-0.612546
S	0.000024	0.942399	-1.486809
C	0.000075	3.335257	1.814609
H	0.000074	2.909620	2.836676
H	-0.892314	3.989552	1.726239
H	0.892483	3.989525	1.726228
H	0.000094	3.417382	-1.161575
H	1.225465	-4.392713	0.745219
H	-0.461378	-4.392347	1.359038
H	-1.014907	-1.440391	0.369273
$end

$rem
JOBTYPE		SP
EXCHANGE	HF
CORRELATION	pRIMP2
BASIS		cc-pvtz
METHOD		rimp2
AUX_BASIS	rimp2-cc-pvtz
SOLVENT_METHOD	PCM
PURECART	11111
SYMMETRY	false
MEM_TOTAL	110000
SCF_CONVERGENCE = 6
THRESH=10
$end



$solvent
dielectric 4.90
$end
--------------------------------------------------------------
 ----------------------------------------------------------------
             Standard Nuclear Orientation (Angstroms)
    I     Atom           X                Y                Z
 ----------------------------------------------------------------
    1      C       0.2644390000    -3.8667250000     0.7286250000
    2      C      -0.2097940000    -3.7039630000    -0.5755190000
    3      C      -0.3647490000    -2.3570560000    -1.0023360000
    4      H      -0.4460600000    -4.5610920000    -1.2241650000
    5      C       0.0000000000    -1.4406640000     0.0000000000
    6      S       0.5282530000    -2.2869570000     1.4513360000
    7      C      -0.8622530000    -1.9787430000    -2.3698850000
    8      H      -1.0829530000    -2.8786780000    -2.9760340000
    9      H      -0.1155130000    -1.3760150000    -2.9278870000
   10      H      -1.7927970000    -1.3757280000    -2.3176200000
   11      C       0.0000000000     0.0000000000     0.0000000000
   12      C       0.0000330000     0.8636000000     1.0994460000
   13      C       0.0000520000     2.2475080000     0.7767210000
   14      H       0.0000260000     0.4948010000     2.1360880000
   15      C       0.0000740000     2.4681650000    -0.6125460000
   16      S       0.0000240000     0.9423990000    -1.4868090000
   17      C       0.0000750000     3.3352570000     1.8146090000
   18      H       0.0000740000     2.9096200000     2.8366760000
   19      H      -0.8923140000     3.9895520000     1.7262390000
   20      H       0.8924830000     3.9895250000     1.7262280000
   21      H       0.0000940000     3.4173820000    -1.1615750000
   22      H       1.2254650000    -4.3927130000     0.7452190000
   23      H      -0.4613780000    -4.3923470000     1.3590380000
   24      H      -1.0149070000    -1.4403910000     0.3692730000
 ----------------------------------------------------------------
 Nuclear Repulsion Energy =         875.51737654 hartrees
 There are       52 alpha and       52 beta electrons

 Q-Chem warning in module forms1/BasisType.C, line 2236:

 You are not using the predefined 5D/6D in this basis set.

 Requested basis set is cc-pVTZ
 There are 196 shells and 536 basis functions

 Total QAlloc Memory Limit 110000 MB
 Mega-Array Size       188 MB
 MEM_STATIC part       192 MB
 Discretize the solute cavity surface with Lebedev spheres
	Using 110 Lebedev grid points for each H atom
	Using 194 Lebedev grid points for other atoms
	Atomic van der Waals radii will be scaled by 1.20
 Remove points where switching function is < 1.0e-08
 Keep 1588 surface tesserae and discard 2060 interior tesserae
 Molecular Surface Area = 231.923 Angst**2
 Requested basis set is rimp2-cc-pVTZ
 There are 414 shells and 1414 basis functions
 A cutoff of  1.0D-10 yielded  13849 shell pairs
 There are    100343 function pairs (    128659 Cartesian)
 Smallest overlap matrix eigenvalue = 4.62E-05

 Scale SEOQF with 1.000000e-01/1.000000e-01/1.000000e-01

 Standard Electronic Orientation quadrupole field applied
 Nucleus-field energy     =     0.0000000230 hartrees
 Guess from superposition of atomic densities
 Warning:  Energy on first SCF cycle will be non-variational
 SAD guess density has 104.000000 electrons

 -----------------------------------------------------------------------
  General SCF calculation program by
  Eric Jon Sundstrom, Paul Horn, Yuezhi Mao, Dmitri Zuev, Alec White,
  David Stuck, Shaama M.S., Shane Yost, Joonho Lee, David Small,
  Daniel Levine, Susi Lehtola, Hugh Burton, Evgeny Epifanovsky,
  Bang C. Huynh
 -----------------------------------------------------------------------
 Hartree-Fock
 A restricted SCF calculation will be
 performed using DIIS
 SCF converges when DIIS error is below 1.0e-06
 ---------------------------------------
  Cycle       Energy         DIIS error
 ---------------------------------------
    1   -1186.0455613152      2.39e-02  
    2   -1180.6108798145      1.59e-03  
    3   -1180.7366351219      6.65e-04  
    4   -1180.7528947255      3.54e-04  
    5   -1180.7586829083      5.84e-05  
    6   -1180.7589258214      2.44e-05  
    7   -1180.7589815127      8.38e-06  
    8   -1180.7589929815      4.06e-06  
    9   -1180.7589954468      1.35e-06  
   10   -1180.7589958356      5.05e-07  Convergence criterion met
 ---------------------------------------
 SCF time:   CPU 574.46s  wall 577.00s 

************** Final PCM Free Energy Summary **************
 G_electrostatic  =      -0.00831105 hartree =      -5.21526474 kcal/mol
 G_cavitation     =       0.00000000 hartree =       0.00000000 kcal/mol
 G_dispersion     =       0.00000000 hartree =       0.00000000 kcal/mol
 G_repulsion      =       0.00000000 hartree =       0.00000000 kcal/mol
 --------------------------------------------------
 Non-electrostatic Free Energy =       0.00000000 hartree =       0.00000000 kcal/mol
 Total                         =      -0.00831105 hartree =      -5.21526474 kcal/mol
 --------------------------------------------------
 SCF Energy (H0 + V/2)                       =   -1180.75899584 
 Solute Internal Energy (H0)                 =   -1180.75068478 
 Total Free Energy (H0 + V/2 + non-elec)     =   -1180.75899584 hartree
                                             = -740937.45285532 kcal/mol
***********************************************************

 SCF   energy in the final basis set =    -1180.7589958356
 Total energy in the final basis set =    -1180.7589958356


 --------------------------------------------------------------
  Generalized many-body perturbation theory program
  by Joonho Lee, Fazle Rob, Xintian Feng, Evgeny Epifanovsky

 No regularization used 
 (reg. param. = 0.0000e+00)
  (P|Q)^-1/2 Time:  CPU 1.91 s  wall 1.92 s

 In RI-MP2 calculation: 
 # of frozen core orbitals: 20

 Components of the RIMP2 correlation energy:
        aaaa    correlation energy =        -0.2515056502 a.u.
        abab    correlation energy =        -1.5027369502 a.u.
        bbbb    correlation energy =        -0.2515056502 a.u.
        non-Brillouin singles      =        -0.0000000000 a.u.
        total same-spin energy     =        -0.5030113005 a.u.
        total opposite-spin energy =        -1.5027369502 a.u.

 Total  RIMP2   correlation energy =        -2.0057482507 a.u.
        RIMP2         total energy =     -1182.7647440863 a.u.

 RI-MP2 Energy Time:  CPU 79.93 s  wall 80.23 s
 
 --------------------------------------------------------------
 
                    Orbital Energies (a.u.)
 --------------------------------------------------------------
 
 Alpha MOs
 -- Occupied --
-91.9819 -91.9463 -11.2906 -11.2661 -11.2614 -11.2531 -11.2502 -11.2441
-11.2330 -11.2309 -11.2276 -11.2231  -8.9818  -8.9509  -6.6627  -6.6622
 -6.6615  -6.6323  -6.6313  -6.6300  -1.2024  -1.1523  -1.0608  -1.0284
 -1.0072  -0.9562  -0.9162  -0.9015  -0.8154  -0.7716  -0.7192  -0.7026
 -0.6625  -0.6474  -0.6110  -0.5895  -0.5823  -0.5729  -0.5680  -0.5544
 -0.5424  -0.5340  -0.5156  -0.5089  -0.4893  -0.4847  -0.4578  -0.4472
 -0.3586  -0.3422  -0.3252  -0.2653
 -- Virtual --
  0.1054   0.1321   0.1444   0.1504   0.1589   0.1701   0.1761   0.1825
  0.1928   0.1967   0.2038   0.2070   0.2288   0.2330   0.2387   0.2417
  0.2523   0.2650   0.2728   0.3053   0.3244   0.3373   0.3518   0.3596
  0.3709   0.3791   0.3805   0.3963   0.4057   0.4102   0.4168   0.4362
  0.4416   0.4491   0.4602   0.4638   0.4786   0.4807   0.4886   0.5002
  0.5091   0.5150   0.5283   0.5357   0.5376   0.5468   0.5484   0.5493
  0.5665   0.5730   0.5883   0.5974   0.6049   0.6145   0.6165   0.6187
  0.6238   0.6284   0.6309   0.6370   0.6412   0.6439   0.6489   0.6554
  0.6642   0.6697   0.6869   0.6901   0.6966   0.7105   0.7223   0.7233
  0.7412   0.7588   0.7615   0.7837   0.7950   0.8018   0.8158   0.8188
  0.8469   0.8571   0.8606   0.8716   0.8801   0.8934   0.9085   0.9170
  0.9286   0.9368   0.9509   0.9725   0.9803   0.9847   0.9967   1.0065
  1.0165   1.0262   1.0346   1.0527   1.0584   1.0698   1.0788   1.0866
  1.0925   1.0978   1.1071   1.1262   1.1438   1.1528   1.1571   1.1646
  1.1685   1.1873   1.2026   1.2107   1.2206   1.2267   1.2306   1.2413
  1.2539   1.2671   1.2744   1.2754   1.2849   1.2879   1.2948   1.3137
  1.3214   1.3369   1.3463   1.3737   1.3833   1.3933   1.4058   1.4114
  1.4208   1.4313   1.4428   1.4608   1.4750   1.4789   1.4887   1.4930
  1.5087   1.5136   1.5265   1.5323   1.5382   1.5414   1.5485   1.5563
  1.5661   1.5806   1.5918   1.6038   1.6066   1.6285   1.6358   1.6435
  1.6604   1.6671   1.6817   1.6865   1.6959   1.7129   1.7243   1.7333
  1.7369   1.7509   1.7908   1.8120   1.8200   1.8270   1.8417   1.8653
  1.8927   1.9120   1.9270   1.9513   1.9601   1.9751   1.9896   2.0101
  2.0148   2.0247   2.0503   2.0547   2.0674   2.0869   2.1461   2.1559
  2.1926   2.1964   2.2090   2.2213   2.2319   2.2637   2.2824   2.2899
  2.3175   2.3360   2.3501   2.3553   2.4142   2.4308   2.4621   2.4682
  2.4968   2.5217   2.5281   2.5519   2.5586   2.5961   2.6043   2.6148
  2.6450   2.6536   2.6583   2.6752   2.6888   2.6979   2.7084   2.7254
  2.7278   2.7521   2.7564   2.7655   2.7736   2.7808   2.8061   2.8111
  2.8218   2.8467   2.8596   2.8895   2.8944   2.9041   2.9174   2.9272
  2.9411   2.9422   2.9668   2.9851   2.9944   3.0128   3.0333   3.0414
  3.0538   3.0674   3.0928   3.1032   3.1138   3.1205   3.1314   3.1421
  3.1539   3.1555   3.1685   3.1779   3.1842   3.1975   3.2182   3.2232
  3.2288   3.2378   3.2570   3.2593   3.2725   3.2763   3.2930   3.3048
  3.3146   3.3247   3.3312   3.3352   3.3442   3.3470   3.3594   3.3664
  3.3788   3.3840   3.3871   3.3976   3.4031   3.4152   3.4195   3.4290
  3.4417   3.4448   3.4542   3.4597   3.4741   3.4900   3.4981   3.5033
  3.5149   3.5178   3.5302   3.5389   3.5504   3.5554   3.5632   3.5710
  3.5745   3.5968   3.6116   3.6250   3.6311   3.6409   3.6420   3.6539
  3.6780   3.6851   3.6968   3.7050   3.7101   3.7224   3.7307   3.7407
  3.7415   3.7530   3.7748   3.7824   3.7903   3.7965   3.8049   3.8116
  3.8242   3.8323   3.8488   3.8637   3.8752   3.8979   3.9049   3.9162
  3.9340   3.9395   3.9527   3.9655   3.9793   3.9917   4.0045   4.0108
  4.0307   4.0362   4.0484   4.0522   4.0738   4.0917   4.0973   4.1020
  4.1248   4.1335   4.1485   4.1517   4.1629   4.1692   4.1827   4.2039
  4.2078   4.2151   4.2260   4.2436   4.2521   4.2672   4.2806   4.2832
  4.2867   4.3036   4.3304   4.3368   4.3489   4.3518   4.3596   4.3635
  4.3775   4.3822   4.4028   4.4084   4.4190   4.4242   4.4374   4.4497
  4.4650   4.4671   4.4842   4.4972   4.5238   4.5302   4.5465   4.5725
  4.5848   4.5977   4.6046   4.6250   4.6403   4.6423   4.6652   4.6802
  4.7109   4.7180   4.7356   4.7657   4.7915   4.8065   4.8154   4.8406
  4.8500   4.8689   4.8870   4.8951   4.9289   4.9668   4.9789   4.9910
  5.0329   5.0508   5.0847   5.1003   5.1205   5.1268   5.1634   5.1882
  5.1974   5.2226   5.2534   5.2656   5.2872   5.2941   5.3052   5.3242
  5.3561   5.3748   5.3782   5.3863   5.4071   5.4233   5.4390   5.4506
  5.4733   5.5170   5.5198   5.5447   5.5506   5.5568   5.5700   5.5818
  5.6224   5.6375   5.6494   5.6785   5.6892   5.7004   5.7106   5.7167
  5.7610   5.7878   5.8487   5.9992   6.0089   6.1359   6.1471   6.1610
  6.2207   6.2276   6.2357   6.2530   6.2739   6.2840   6.3075   6.3460
  6.4123   6.5131   9.5640  10.8431  12.0557  13.0086  13.2046  13.9923
 14.1474  14.3247  14.4004  14.8409
 --------------------------------------------------------------
 
          Ground-State Mulliken Net Atomic Charges

     Atom                 Charge (a.u.)
  ----------------------------------------
      1 C                    -0.074328
      2 C                    -0.320986
      3 C                    -0.038142
      4 H                     0.179091
      5 C                     0.125510
      6 S                    -0.180199
      7 C                    -0.304098
      8 H                     0.119709
      9 H                     0.110919
     10 H                     0.115028
     11 C                    -0.026558
     12 C                    -0.313036
     13 C                     0.040525
     14 H                     0.178054
     15 C                    -0.275383
     16 S                     0.008437
     17 C                    -0.272924
     18 H                     0.102698
     19 H                     0.107994
     20 H                     0.108660
     21 H                     0.195466
     22 H                     0.114376
     23 H                     0.110970
     24 H                     0.188218
  ----------------------------------------
  Sum of atomic charges =     0.000000

 -----------------------------------------------------------------
                    Cartesian Multipole Moments
 -----------------------------------------------------------------
    Charge (ESU x 10^10)
                -0.0000
    Dipole Moment (Debye)
         X      -1.6813      Y      -0.4541      Z      -0.6178
       Tot       1.8478
    Quadrupole Moments (Debye-Ang)
        XX     -91.9011     XY       2.5902     YY     -73.1672
        XZ      -0.0542     YZ       3.9940     ZZ     -85.4469
    Octopole Moments (Debye-Ang^2)
       XXX       1.8602    XXY      43.3939    XYY      -1.2574
       YYY     114.1912    XXZ      -0.7148    XYZ      -1.4233
       YYZ      -0.6425    XZZ      -2.9317    YZZ      48.8780
       ZZZ      -2.2435
    Hexadecapole Moments (Debye-Ang^3)
      XXXX    -205.9211   XXXY      -1.0883   XXYY    -563.6522
      XYYY       2.4282   YYYY   -2766.9403   XXXZ     -95.4243
      XXYZ     -27.7730   XYYZ     -21.0695   YYYZ    -109.5106
      XXZZ    -216.7480   XYZZ      12.6610   YYZZ    -650.0766
      XZZZ     -86.7239   YZZZ     -68.2882   ZZZZ   -1031.5057
 -----------------------------------------------------------------
 Total job time:  658.99s(wall), 655.34s(cpu) 
 Sun Jul 10 05:48:36 2022

        *************************************************************
        *                                                           *
        *  Thank you very much for using Q-Chem.  Have a nice day.  *
        *                                                           *
        *************************************************************


remove work dirs ./qchem1980442.0 -- ./qchem1980442.-1
rm -rf ./qchem1980442
