You are running Q-Chem version: 5.4.0

#
# job setting
#
local host:  exp-1-30
current dir: /expanse/lustre/scratch/theleonzhang/temp_project/Hydrogenated_Rotation_Test
input file:  Methylthiophene_Phi_60_Theta_160_Methylthiophene_Hydrogenated.qcin
output file: 
nprocs     : 0
nthreads   : 1
#
# qchem installation setting
#
QC:          /cm/shared/apps/spack/cpu/opt/spack/linux-centos8-zen2/gcc-10.2.0/qchem-5.4-akfmr7b3t57bfs6qan3padb2wnb2i7cl
QCAUX:       /cm/shared/apps/spack/cpu/opt/spack/linux-centos8-zen2/gcc-10.2.0/qchem-5.4-akfmr7b3t57bfs6qan3padb2wnb2i7cl/qcaux
QCPROG:      /cm/shared/apps/spack/cpu/opt/spack/linux-centos8-zen2/gcc-10.2.0/qchem-5.4-akfmr7b3t57bfs6qan3padb2wnb2i7cl/exe/qcprog.exe_s
QCPROG_S:    /cm/shared/apps/spack/cpu/opt/spack/linux-centos8-zen2/gcc-10.2.0/qchem-5.4-akfmr7b3t57bfs6qan3padb2wnb2i7cl/exe/qcprog.exe_s
PARALLEL:    -DSERIAL
QCMPI:       mpich
#
# qchem directory setting
#
qcrun:       qchem746769
QCSCRATCH:   .
QCLOCALSCR:  
QCTMPDIR:    .
QCFILEPREF:  ./qchem746769
QCSAVEDIR:   
workdirs:    ./qchem746769
workdir0:    ./qchem746769
partmpdirs =  
#
# parallel setting
#
QCRSH:           ssh
QCMPI:           mpich
QCMPIRUN:        /cm/shared/apps/spack/cpu/opt/spack/linux-centos8-zen2/gcc-10.2.0/qchem-5.4-akfmr7b3t57bfs6qan3padb2wnb2i7cl/bin/mpi/mpirun_qchem
QCMACHINEFILE:   ./qchem746769/hostfile

#
# env setting
#
exported envs:   QC QCAUX QCSCRATCH QCRUNNAME QCFILEPREF QCPROG QCPROG_S GUIFILE

Running Job 1 of 1 Methylthiophene_Phi_60_Theta_160_Methylthiophene_Hydrogenated.qcin
qchem Methylthiophene_Phi_60_Theta_160_Methylthiophene_Hydrogenated.qcin_746769.0 ./qchem746769/ 0
/cm/shared/apps/spack/cpu/opt/spack/linux-centos8-zen2/gcc-10.2.0/qchem-5.4-akfmr7b3t57bfs6qan3padb2wnb2i7cl/exe/qcprog.exe_s Methylthiophene_Phi_60_Theta_160_Methylthiophene_Hydrogenated.qcin_746769.0 ./qchem746769/
                  Welcome to Q-Chem
     A Quantum Leap Into The Future Of Chemistry


 Q-Chem 5.4, Q-Chem, Inc., Pleasanton, CA (2021)

 License issued to: University of California, San Diego (site)

 E. Epifanovsky,  A. T. B. Gilbert,  Xintian Feng,  Joonho Lee,  Yuezhi Mao,  
 N. Mardirossian,  P. Pokhilko,  A. White,  M. Wormit,  M. P. Coons,  
 A. L. Dempwolff,  Zhengting Gan,  D. Hait,  P. R. Horn,  L. D. Jacobson,  
 I. Kaliman,  J. Kussmann,  A. W. Lange,  Ka Un Lao,  D. S. Levine,  Jie Liu,  
 S. C. McKenzie,  A. F. Morrison,  K. Nanda,  F. Plasser,  D. R. Rehn,  
 M. L. Vidal,  Zhi-Qiang You,  Ying Zhu,  B. Alam,  B. Albrecht,  
 A. Aldossary,  E. Alguire,  J. H. Andersen,  D. Barton,  K. Begam,  A. Behn,  
 Y. A. Bernard,  E. J. Berquist,  H. Burton,  A. Carreras,  K. Carter-Fenk,  
 R. Chakraborty,  A. D. Chien,  K. D. Closser,  V. Cofer-Shabica,  
 S. Dasgupta,  Jia Deng,  M. de Wergifosse,  M. Diedenhofen,  Hainam Do,  
 S. Ehlert,  Po-Tung Fang,  S. Fatehi,  Qingguo Feng,  J. Gayvert,  
 Qinghui Ge,  G. Gidofalvi,  M. Goldey,  J. Gomes,  C. Gonzalez-Espinoza,  
 S. Gulania,  A. Gunina,  M. W. D. Hanson-Heine,  P. H. P. Harbach,  
 A. W. Hauser,  M. F. Herbst,  M. Hernandez Vera,  M. Hodecker,  
 Z. C. Holden,  S. Houck,  Xunkun Huang,  Kerwin Hui,  B. C. Huynh,  
 M. Ivanov,  Hyunjun Ji,  Hanjie Jiang,  B. Kaduk,  S. Kaehler,  
 K. Khistyaev,  Jaehoon Kim,  P. Klunzinger,  Z. Koczor-Benda,  
 Joong Hoon Koh,  D. Kosenkov,  L. Koulias,  T. Kowalczyk,  C. M. Krauter,  
 K. Kue,  A. Kunitsa,  T. Kus,  A. Landau,  K. V. Lawler,  D. Lefrancois,  
 S. Lehtola,  Rain Li,  Yi-Pei Li,  Jiashu Liang,  M. Liebenthal,  
 Hung-Hsuan Lin,  You-Sheng Lin,  Fenglai Liu,  Kuan-Yu Liu,  
 M. Loipersberger,  A. Luenser,  A. Manjanath,  P. Manohar,  E. Mansoor,  
 S. F. Manzer,  Shan-Ping Mao,  A. V. Marenich,  T. Markovich,  S. Mason,  
 S. A. Maurer,  P. F. McLaughlin,  M. F. S. J. Menger,  J.-M. Mewes,  
 S. A. Mewes,  P. Morgante,  J. W. Mullinax,  T. S. Nguyen-Beck,  
 K. J. Oosterbaan,  G. Paran,  Alexander C. Paul,  Suranjan K. Paul,  
 F. Pavosevic,  Zheng Pei,  S. Prager,  E. I. Proynov,  E. Ramos,  B. Rana,  
 A. E. Rask,  A. Rettig,  R. M. Richard,  F. Rob,  E. Rossomme,  T. Scheele,  
 M. Scheurer,  M. Schneider,  N. Sergueev,  S. M. Sharada,  W. Skomorowski,  
 D. W. Small,  C. J. Stein,  Yu-Chuan Su,  E. J. Sundstrom,  Zhen Tao,  
 J. Thirman,  T. Tsuchimochi,  N. M. Tubman,  S. P. Veccham,  O. Vydrov,  
 J. Wenzel,  J. Witte,  A. Yamada,  Kun Yao,  S. Yeganeh,  S. R. Yost,  
 A. Zech,  Igor Ying Zhang,  Xing Zhang,  Yu Zhang,  D. Zuev,  
 A. Aspuru-Guzik,  A. T. Bell,  N. A. Besley,  K. B. Bravaya,  B. R. Brooks,  
 D. Casanova,  Jeng-Da Chai,  S. Coriani,  C. J. Cramer,  
 A. E. DePrince, III,  R. A. DiStasio Jr.,  A. Dreuw,  B. D. Dunietz,  
 T. R. Furlani,  W. A. Goddard III,  S. Grimme,  S. Hammes-Schiffer,  
 T. Head-Gordon,  W. J. Hehre,  Chao-Ping Hsu,  T.-C. Jagau,  Yousung Jung,  
 A. Klamt,  Jing Kong,  D. S. Lambrecht,  WanZhen Liang,  N. J. Mayhall,  
 C. W. McCurdy,  J. B. Neaton,  C. Ochsenfeld,  J. A. Parkhill,  R. Peverati,  
 V. A. Rassolov,  Yihan Shao,  L. V. Slipchenko,  T. Stauch,  R. P. Steele,  
 J. E. Subotnik,  A. J. W. Thom,  A. Tkatchenko,  D. G. Truhlar,  
 T. Van Voorhis,  T. A. Wesolowski,  K. B. Whaley,  H. L. Woodcock III,  
 P. M. Zimmerman,  S. Faraji,  P. M. W. Gill,  M. Head-Gordon,  
 J. M. Herbert,  A. I. Krylov

 Contributors to earlier versions of Q-Chem not listed above: 
 R. D. Adamson,  B. Austin,  R. Baer,  J. Baker,  G. J. O. Beran,  
 K. Brandhorst,  S. T. Brown,  E. F. C. Byrd,  A. K. Chakraborty,  
 G. K. L. Chan,  Chun-Min Chang,  Yunqing Chen,  C.-L. Cheng,  
 Siu Hung Chien,  D. M. Chipman,  D. L. Crittenden,  H. Dachsel,  
 R. J. Doerksen,  A. D. Dutoi,  R. G. Edgar,  J. Fosso-Tande,  
 L. Fusti-Molnar,  D. Ghosh,  A. Ghysels,  A. Golubeva-Zadorozhnaya,  
 J. Gonthier,  M. S. Gordon,  S. R. Gwaltney,  G. Hawkins,  J. E. Herr,  
 A. Heyden,  S. Hirata,  E. G. Hohenstein,  G. Kedziora,  F. J. Keil,  
 C. Kelley,  Jihan Kim,  R. A. King,  R. Z. Khaliullin,  P. P. Korambath,  
 W. Kurlancheek,  A. Laurent,  A. M. Lee,  M. S. Lee,  S. V. Levchenko,  
 Ching Yeh Lin,  D. Liotard,  E. Livshits,  R. C. Lochan,  I. Lotan,  
 L. A. Martinez-Martinez,  P. E. Maslen,  N. Nair,  D. P. O'Neill,  
 D. Neuhauser,  E. Neuscamman,  C. M. Oana,  R. Olivares-Amaya,  R. Olson,  
 T. M. Perrine,  B. Peters,  P. A. Pieniazek,  A. Prociuk,  Y. M. Rhee,  
 J. Ritchie,  M. A. Rohrdanz,  E. Rosta,  N. J. Russ,  H. F. Schaefer III,  
 M. W. Schmidt,  N. E. Schultz,  S. Sharma,  N. Shenvi,  C. D. Sherrill,  
 A. C. Simmonett,  A. Sodt,  T. Stein,  D. Stuck,  K. S. Thanthiriwatte,  
 V. Vanovschi,  L. Vogt,  Tao Wang,  A. Warshel,  M. A. Watson,  
 C. F. Williams,  Q. Wu,  X. Xu,  Jun Yang,  W. Zhang,  Yan Zhao

 Please cite Q-Chem as follows:
 Y. Shao et al., Mol. Phys. 113, 184-215 (2015)
 DOI: 10.1080/00268976.2014.952696

 Q-Chem 5.4.0 for Intel X86 EM64T Linux

 Parts of Q-Chem use Armadillo 9.800.1 (Horizon Scraper).
 http://arma.sourceforge.net/

 Q-Chem begins on Sun Jul 10 02:49:46 2022  

 Host: 
0

     Scratch files written to ./qchem746769//
 May1621 |scratch|qcdevops|jenkins|workspace|build_RNUM    
 Processing $rem in /cm/shared/apps/spack/cpu/opt/spack/linux-centos8-zen2/gcc-10.2.0/qchem-5.4-akfmr7b3t57bfs6qan3padb2wnb2i7cl/config/preferences:
 Processing $rem in /home/theleonzhang/.qchemrc:
 Symmetry turned off for PCM/SM12/SMD calculation
 Core orbitals will be frozen

 Checking the input file for inconsistencies... 	...done.

--------------------------------------------------------------
User input:
--------------------------------------------------------------
$molecule
0 1
C	-0.264439	-3.866725	-0.728625
C	0.209794	-3.703963	0.575519
C	0.364749	-2.357056	1.002336
H	0.446060	-4.561092	1.224165
C	0.000000	-1.440664	0.000000
S	-0.528253	-2.286957	-1.451336
C	0.862253	-1.978743	2.369885
H	1.082953	-2.878678	2.976034
H	0.115513	-1.376015	2.927887
H	1.792797	-1.375728	2.317620
C	0.000000	0.000000	0.000000
C	0.747916	0.431772	1.099446
C	1.946425	1.123709	0.776721
H	0.428523	0.247378	2.136088
C	2.137531	1.234018	-0.612546
S	0.816154	0.471179	-1.486809
C	2.888455	1.667564	1.814609
H	2.519842	1.454746	2.836676
H	3.008896	2.767543	1.726239
H	3.901271	1.221850	1.726228
H	2.959587	1.708609	-1.161575
H	-1.225465	-4.392713	-0.745219
H	0.461378	-4.392347	-1.359038
H	-1.014907	-1.440937	0.369273
$end

$rem
JOBTYPE		SP
EXCHANGE	HF
CORRELATION	pRIMP2
BASIS		cc-pvtz
METHOD		rimp2
AUX_BASIS	rimp2-cc-pvtz
SOLVENT_METHOD	PCM
PURECART	11111
SYMMETRY	false
MEM_TOTAL	110000
SCF_CONVERGENCE = 6
THRESH=10
$end



$solvent
dielectric 4.90
$end
--------------------------------------------------------------
 ----------------------------------------------------------------
             Standard Nuclear Orientation (Angstroms)
    I     Atom           X                Y                Z
 ----------------------------------------------------------------
    1      C      -0.2644390000    -3.8667250000    -0.7286250000
    2      C       0.2097940000    -3.7039630000     0.5755190000
    3      C       0.3647490000    -2.3570560000     1.0023360000
    4      H       0.4460600000    -4.5610920000     1.2241650000
    5      C       0.0000000000    -1.4406640000     0.0000000000
    6      S      -0.5282530000    -2.2869570000    -1.4513360000
    7      C       0.8622530000    -1.9787430000     2.3698850000
    8      H       1.0829530000    -2.8786780000     2.9760340000
    9      H       0.1155130000    -1.3760150000     2.9278870000
   10      H       1.7927970000    -1.3757280000     2.3176200000
   11      C       0.0000000000     0.0000000000     0.0000000000
   12      C       0.7479160000     0.4317720000     1.0994460000
   13      C       1.9464250000     1.1237090000     0.7767210000
   14      H       0.4285230000     0.2473780000     2.1360880000
   15      C       2.1375310000     1.2340180000    -0.6125460000
   16      S       0.8161540000     0.4711790000    -1.4868090000
   17      C       2.8884550000     1.6675640000     1.8146090000
   18      H       2.5198420000     1.4547460000     2.8366760000
   19      H       3.0088960000     2.7675430000     1.7262390000
   20      H       3.9012710000     1.2218500000     1.7262280000
   21      H       2.9595870000     1.7086090000    -1.1615750000
   22      H      -1.2254650000    -4.3927130000    -0.7452190000
   23      H       0.4613780000    -4.3923470000    -1.3590380000
   24      H      -1.0149070000    -1.4409370000     0.3692730000
 ----------------------------------------------------------------
 Nuclear Repulsion Energy =         904.37317091 hartrees
 There are       52 alpha and       52 beta electrons

 Q-Chem warning in module forms1/BasisType.C, line 2236:

 You are not using the predefined 5D/6D in this basis set.

 Requested basis set is cc-pVTZ
 There are 196 shells and 536 basis functions

 Total QAlloc Memory Limit 110000 MB
 Mega-Array Size       188 MB
 MEM_STATIC part       192 MB
 Discretize the solute cavity surface with Lebedev spheres
	Using 110 Lebedev grid points for each H atom
	Using 194 Lebedev grid points for other atoms
	Atomic van der Waals radii will be scaled by 1.20
 Remove points where switching function is < 1.0e-08
 Keep 1534 surface tesserae and discard 2114 interior tesserae
 Molecular Surface Area = 225.565 Angst**2
 Requested basis set is rimp2-cc-pVTZ
 There are 414 shells and 1414 basis functions
 A cutoff of  1.0D-10 yielded  14868 shell pairs
 There are    108088 function pairs (    138555 Cartesian)
 Smallest overlap matrix eigenvalue = 6.30E-05

 Scale SEOQF with 1.000000e-01/1.000000e-01/1.000000e-01

 Standard Electronic Orientation quadrupole field applied
 Nucleus-field energy     =     0.0000000176 hartrees
 Guess from superposition of atomic densities
 Warning:  Energy on first SCF cycle will be non-variational
 SAD guess density has 104.000000 electrons

 -----------------------------------------------------------------------
  General SCF calculation program by
  Eric Jon Sundstrom, Paul Horn, Yuezhi Mao, Dmitri Zuev, Alec White,
  David Stuck, Shaama M.S., Shane Yost, Joonho Lee, David Small,
  Daniel Levine, Susi Lehtola, Hugh Burton, Evgeny Epifanovsky,
  Bang C. Huynh
 -----------------------------------------------------------------------
 Hartree-Fock
 A restricted SCF calculation will be
 performed using DIIS
 SCF converges when DIIS error is below 1.0e-06
 ---------------------------------------
  Cycle       Energy         DIIS error
 ---------------------------------------
    1   -1186.2347564730      2.41e-02  
    2   -1180.5171244240      1.53e-03  
    3   -1180.6446494484      5.36e-04  
    4   -1180.6583450332      2.76e-04  
    5   -1180.6620963826      6.04e-05  
    6   -1180.6624148392      2.74e-05  
    7   -1180.6625213866      1.49e-05  
    8   -1180.6625614200      7.05e-06  
    9   -1180.6625748460      3.37e-06  
   10   -1180.6625773366      1.26e-06  
   11   -1180.6625777217      5.93e-07  Convergence criterion met
 ---------------------------------------
 SCF time:   CPU 706.99s  wall 710.00s 

************** Final PCM Free Energy Summary **************
 G_electrostatic  =      -0.01142000 hartree =      -7.16615802 kcal/mol
 G_cavitation     =       0.00000000 hartree =       0.00000000 kcal/mol
 G_dispersion     =       0.00000000 hartree =       0.00000000 kcal/mol
 G_repulsion      =       0.00000000 hartree =       0.00000000 kcal/mol
 --------------------------------------------------
 Non-electrostatic Free Energy =       0.00000000 hartree =       0.00000000 kcal/mol
 Total                         =      -0.01142000 hartree =      -7.16615802 kcal/mol
 --------------------------------------------------
 SCF Energy (H0 + V/2)                       =   -1180.66257772 
 Solute Internal Energy (H0)                 =   -1180.65115772 
 Total Free Energy (H0 + V/2 + non-elec)     =   -1180.66257772 hartree
                                             = -740876.94957562 kcal/mol
***********************************************************

 SCF   energy in the final basis set =    -1180.6625777217
 Total energy in the final basis set =    -1180.6625777217


 --------------------------------------------------------------
  Generalized many-body perturbation theory program
  by Joonho Lee, Fazle Rob, Xintian Feng, Evgeny Epifanovsky

 No regularization used 
 (reg. param. = 0.0000e+00)
  (P|Q)^-1/2 Time:  CPU 1.94 s  wall 1.95 s

 In RI-MP2 calculation: 
 # of frozen core orbitals: 20

 Components of the RIMP2 correlation energy:
        aaaa    correlation energy =        -0.2561400649 a.u.
        abab    correlation energy =        -1.5172917451 a.u.
        bbbb    correlation energy =        -0.2561400649 a.u.
        non-Brillouin singles      =        -0.0000000000 a.u.
        total same-spin energy     =        -0.5122801298 a.u.
        total opposite-spin energy =        -1.5172917451 a.u.

 Total  RIMP2   correlation energy =        -2.0295718749 a.u.
        RIMP2         total energy =     -1182.6921495965 a.u.

 RI-MP2 Energy Time:  CPU 84.34 s  wall 84.67 s
 
 --------------------------------------------------------------
 
                    Orbital Energies (a.u.)
 --------------------------------------------------------------
 
 Alpha MOs
 -- Occupied --
-91.9748 -91.9369 -11.2850 -11.2610 -11.2569 -11.2515 -11.2495 -11.2477
-11.2380 -11.2330 -11.2310 -11.2126  -8.9760  -8.9418  -6.6568  -6.6558
 -6.6556  -6.6231  -6.6221  -6.6209  -1.2052  -1.1532  -1.0585  -1.0338
 -0.9979  -0.9652  -0.9138  -0.9022  -0.8108  -0.7607  -0.7336  -0.7138
 -0.6482  -0.6435  -0.6133  -0.5979  -0.5921  -0.5695  -0.5592  -0.5499
 -0.5437  -0.5349  -0.5256  -0.5071  -0.4774  -0.4701  -0.4420  -0.4370
 -0.3583  -0.3370  -0.3216  -0.2552
 -- Virtual --
  0.0612   0.1281   0.1445   0.1485   0.1588   0.1718   0.1756   0.1852
  0.1911   0.2008   0.2080   0.2169   0.2243   0.2314   0.2368   0.2395
  0.2537   0.2679   0.2875   0.2995   0.3174   0.3210   0.3321   0.3627
  0.3641   0.3731   0.3800   0.3911   0.4035   0.4126   0.4181   0.4282
  0.4318   0.4442   0.4690   0.4718   0.4740   0.4877   0.4882   0.4959
  0.5073   0.5135   0.5205   0.5232   0.5394   0.5443   0.5490   0.5577
  0.5731   0.5775   0.5812   0.5896   0.5998   0.6074   0.6141   0.6182
  0.6242   0.6277   0.6314   0.6421   0.6459   0.6515   0.6619   0.6638
  0.6702   0.6804   0.6832   0.6928   0.7059   0.7152   0.7321   0.7401
  0.7468   0.7567   0.7673   0.7762   0.7885   0.7930   0.8016   0.8295
  0.8345   0.8579   0.8620   0.8641   0.8769   0.8891   0.9039   0.9130
  0.9345   0.9458   0.9502   0.9623   0.9766   0.9992   1.0031   1.0172
  1.0263   1.0393   1.0412   1.0518   1.0634   1.0733   1.0904   1.0926
  1.1143   1.1203   1.1286   1.1338   1.1430   1.1521   1.1685   1.1766
  1.1843   1.1959   1.2032   1.2175   1.2233   1.2332   1.2479   1.2632
  1.2680   1.2689   1.2813   1.2898   1.2918   1.3059   1.3110   1.3169
  1.3363   1.3422   1.3568   1.3699   1.3900   1.3951   1.4010   1.4198
  1.4278   1.4403   1.4557   1.4686   1.4782   1.4850   1.4912   1.5011
  1.5155   1.5223   1.5320   1.5413   1.5522   1.5539   1.5598   1.5628
  1.5688   1.5844   1.6040   1.6112   1.6274   1.6400   1.6440   1.6493
  1.6573   1.6766   1.6954   1.6984   1.7216   1.7319   1.7426   1.7484
  1.7633   1.7781   1.7915   1.8019   1.8231   1.8353   1.8450   1.8551
  1.9025   1.9153   1.9300   1.9494   1.9748   1.9813   1.9958   2.0210
  2.0271   2.0449   2.0492   2.0704   2.0968   2.1074   2.1470   2.1639
  2.1790   2.2005   2.2080   2.2146   2.2286   2.2493   2.2633   2.2914
  2.2965   2.3198   2.3483   2.3802   2.4291   2.4375   2.4606   2.4835
  2.4871   2.5148   2.5440   2.5594   2.5764   2.6032   2.6275   2.6388
  2.6493   2.6542   2.6733   2.6853   2.6912   2.7159   2.7335   2.7489
  2.7569   2.7645   2.7702   2.7757   2.7891   2.8109   2.8217   2.8453
  2.8648   2.8685   2.8808   2.8960   2.9133   2.9240   2.9249   2.9465
  2.9608   2.9743   2.9938   2.9978   3.0105   3.0232   3.0348   3.0484
  3.0580   3.0953   3.0982   3.1074   3.1171   3.1201   3.1371   3.1417
  3.1661   3.1732   3.1802   3.1827   3.1907   3.2088   3.2176   3.2198
  3.2275   3.2411   3.2565   3.2637   3.2737   3.2884   3.3038   3.3140
  3.3161   3.3317   3.3361   3.3455   3.3499   3.3577   3.3690   3.3809
  3.3859   3.3903   3.3976   3.4022   3.4236   3.4253   3.4336   3.4520
  3.4552   3.4610   3.4721   3.4852   3.4905   3.4973   3.5161   3.5253
  3.5280   3.5357   3.5447   3.5519   3.5573   3.5699   3.5801   3.5874
  3.5958   3.6057   3.6237   3.6351   3.6553   3.6627   3.6812   3.6885
  3.6997   3.7085   3.7128   3.7215   3.7286   3.7378   3.7493   3.7543
  3.7725   3.7842   3.7879   3.7915   3.7973   3.8069   3.8095   3.8305
  3.8590   3.8739   3.8777   3.8900   3.9087   3.9150   3.9357   3.9560
  3.9609   3.9718   3.9843   3.9945   3.9968   4.0181   4.0345   4.0418
  4.0517   4.0613   4.0755   4.0800   4.1056   4.1095   4.1250   4.1365
  4.1464   4.1552   4.1756   4.1822   4.1864   4.1937   4.1986   4.2144
  4.2289   4.2399   4.2473   4.2664   4.2667   4.2785   4.2846   4.2909
  4.3131   4.3225   4.3373   4.3539   4.3596   4.3743   4.3798   4.3857
  4.4036   4.4062   4.4124   4.4183   4.4359   4.4540   4.4639   4.4730
  4.4854   4.4934   4.5120   4.5213   4.5281   4.5589   4.5860   4.5987
  4.6155   4.6296   4.6384   4.6615   4.6652   4.6762   4.6911   4.7200
  4.7322   4.7435   4.7569   4.7994   4.8194   4.8264   4.8349   4.8478
  4.8793   4.8932   4.9260   4.9434   4.9596   4.9748   4.9926   5.0009
  5.0519   5.0641   5.0934   5.1076   5.1125   5.1321   5.1598   5.1905
  5.2036   5.2174   5.2318   5.2540   5.2862   5.3094   5.3124   5.3204
  5.3390   5.3770   5.3875   5.4116   5.4187   5.4337   5.4461   5.4508
  5.4917   5.4950   5.5315   5.5445   5.5592   5.5827   5.5881   5.6167
  5.6319   5.6353   5.6571   5.6824   5.7001   5.7064   5.7153   5.7336
  5.7767   5.7985   5.8203   5.9839   6.0314   6.0645   6.1034   6.1593
  6.2206   6.2288   6.2520   6.2617   6.2652   6.2962   6.3189   6.3295
  6.4082   6.4582   9.5603  10.4788  12.6135  12.8505  13.1758  14.1134
 14.1684  14.2130  14.5051  14.8756
 --------------------------------------------------------------
 
          Ground-State Mulliken Net Atomic Charges

     Atom                 Charge (a.u.)
  ----------------------------------------
      1 C                    -0.073091
      2 C                    -0.347581
      3 C                    -0.047492
      4 H                     0.174774
      5 C                     0.083398
      6 S                    -0.197505
      7 C                    -0.282694
      8 H                     0.120392
      9 H                     0.095517
     10 H                     0.111403
     11 C                    -0.157557
     12 C                    -0.172222
     13 C                    -0.009720
     14 H                     0.203132
     15 C                    -0.181429
     16 S                     0.028014
     17 C                    -0.281083
     18 H                     0.103558
     19 H                     0.117725
     20 H                     0.107543
     21 H                     0.199646
     22 H                     0.107826
     23 H                     0.109566
     24 H                     0.187881
  ----------------------------------------
  Sum of atomic charges =     0.000000

 -----------------------------------------------------------------
                    Cartesian Multipole Moments
 -----------------------------------------------------------------
    Charge (ESU x 10^10)
                -0.0000
    Dipole Moment (Debye)
         X       2.7176      Y       0.4960      Z       4.2813
       Tot       5.0952
    Quadrupole Moments (Debye-Ang)
        XX     -82.4502     XY       5.3039     YY     -83.5034
        XZ       0.8312     YZ      -3.1032     ZZ     -85.2864
    Octopole Moments (Debye-Ang^2)
       XXX    -158.1730    XXY      98.4018    XYY     -54.6528
       YYY     210.1111    XXZ      -4.7405    XYZ      -3.6829
       YYZ      -3.3241    XZZ     -50.7020    YZZ      83.6431
       ZZZ       9.1587
    Hexadecapole Moments (Debye-Ang^3)
      XXXX    -884.7181   XXXY    -173.9917   XXYY    -537.7599
      XYYY    -202.4498   YYYY   -2185.1963   XXXZ    -190.5678
      XXYZ     -26.5785   XYYZ     -52.0895   YYYZ     -44.4507
      XXZZ    -319.5557   XYZZ     -72.7301   YYZZ    -555.9327
      XZZZ    -169.5974   YZZZ     -74.3576   ZZZZ   -1037.0718
 -----------------------------------------------------------------
 Total job time:  797.48s(wall), 792.29s(cpu) 
 Sun Jul 10 03:03:04 2022

        *************************************************************
        *                                                           *
        *  Thank you very much for using Q-Chem.  Have a nice day.  *
        *                                                           *
        *************************************************************


remove work dirs ./qchem746769.0 -- ./qchem746769.-1
rm -rf ./qchem746769
