You are running Q-Chem version: 5.4.0

#
# job setting
#
local host:  exp-2-07
current dir: /expanse/lustre/scratch/theleonzhang/temp_project/Hydrogenated_Rotation_Test
input file:  Methylthiophene_Phi_30_Theta_350_Methylthiophene_Hydrogenated.qcin
output file: 
nprocs     : 0
nthreads   : 1
#
# qchem installation setting
#
QC:          /cm/shared/apps/spack/cpu/opt/spack/linux-centos8-zen2/gcc-10.2.0/qchem-5.4-akfmr7b3t57bfs6qan3padb2wnb2i7cl
QCAUX:       /cm/shared/apps/spack/cpu/opt/spack/linux-centos8-zen2/gcc-10.2.0/qchem-5.4-akfmr7b3t57bfs6qan3padb2wnb2i7cl/qcaux
QCPROG:      /cm/shared/apps/spack/cpu/opt/spack/linux-centos8-zen2/gcc-10.2.0/qchem-5.4-akfmr7b3t57bfs6qan3padb2wnb2i7cl/exe/qcprog.exe_s
QCPROG_S:    /cm/shared/apps/spack/cpu/opt/spack/linux-centos8-zen2/gcc-10.2.0/qchem-5.4-akfmr7b3t57bfs6qan3padb2wnb2i7cl/exe/qcprog.exe_s
PARALLEL:    -DSERIAL
QCMPI:       mpich
#
# qchem directory setting
#
qcrun:       qchem847923
QCSCRATCH:   .
QCLOCALSCR:  
QCTMPDIR:    .
QCFILEPREF:  ./qchem847923
QCSAVEDIR:   
workdirs:    ./qchem847923
workdir0:    ./qchem847923
partmpdirs =  
#
# parallel setting
#
QCRSH:           ssh
QCMPI:           mpich
QCMPIRUN:        /cm/shared/apps/spack/cpu/opt/spack/linux-centos8-zen2/gcc-10.2.0/qchem-5.4-akfmr7b3t57bfs6qan3padb2wnb2i7cl/bin/mpi/mpirun_qchem
QCMACHINEFILE:   ./qchem847923/hostfile

#
# env setting
#
exported envs:   QC QCAUX QCSCRATCH QCRUNNAME QCFILEPREF QCPROG QCPROG_S GUIFILE

Running Job 1 of 1 Methylthiophene_Phi_30_Theta_350_Methylthiophene_Hydrogenated.qcin
qchem Methylthiophene_Phi_30_Theta_350_Methylthiophene_Hydrogenated.qcin_847923.0 ./qchem847923/ 0
/cm/shared/apps/spack/cpu/opt/spack/linux-centos8-zen2/gcc-10.2.0/qchem-5.4-akfmr7b3t57bfs6qan3padb2wnb2i7cl/exe/qcprog.exe_s Methylthiophene_Phi_30_Theta_350_Methylthiophene_Hydrogenated.qcin_847923.0 ./qchem847923/
                  Welcome to Q-Chem
     A Quantum Leap Into The Future Of Chemistry


 Q-Chem 5.4, Q-Chem, Inc., Pleasanton, CA (2021)

 License issued to: University of California, San Diego (site)

 E. Epifanovsky,  A. T. B. Gilbert,  Xintian Feng,  Joonho Lee,  Yuezhi Mao,  
 N. Mardirossian,  P. Pokhilko,  A. White,  M. Wormit,  M. P. Coons,  
 A. L. Dempwolff,  Zhengting Gan,  D. Hait,  P. R. Horn,  L. D. Jacobson,  
 I. Kaliman,  J. Kussmann,  A. W. Lange,  Ka Un Lao,  D. S. Levine,  Jie Liu,  
 S. C. McKenzie,  A. F. Morrison,  K. Nanda,  F. Plasser,  D. R. Rehn,  
 M. L. Vidal,  Zhi-Qiang You,  Ying Zhu,  B. Alam,  B. Albrecht,  
 A. Aldossary,  E. Alguire,  J. H. Andersen,  D. Barton,  K. Begam,  A. Behn,  
 Y. A. Bernard,  E. J. Berquist,  H. Burton,  A. Carreras,  K. Carter-Fenk,  
 R. Chakraborty,  A. D. Chien,  K. D. Closser,  V. Cofer-Shabica,  
 S. Dasgupta,  Jia Deng,  M. de Wergifosse,  M. Diedenhofen,  Hainam Do,  
 S. Ehlert,  Po-Tung Fang,  S. Fatehi,  Qingguo Feng,  J. Gayvert,  
 Qinghui Ge,  G. Gidofalvi,  M. Goldey,  J. Gomes,  C. Gonzalez-Espinoza,  
 S. Gulania,  A. Gunina,  M. W. D. Hanson-Heine,  P. H. P. Harbach,  
 A. W. Hauser,  M. F. Herbst,  M. Hernandez Vera,  M. Hodecker,  
 Z. C. Holden,  S. Houck,  Xunkun Huang,  Kerwin Hui,  B. C. Huynh,  
 M. Ivanov,  Hyunjun Ji,  Hanjie Jiang,  B. Kaduk,  S. Kaehler,  
 K. Khistyaev,  Jaehoon Kim,  P. Klunzinger,  Z. Koczor-Benda,  
 Joong Hoon Koh,  D. Kosenkov,  L. Koulias,  T. Kowalczyk,  C. M. Krauter,  
 K. Kue,  A. Kunitsa,  T. Kus,  A. Landau,  K. V. Lawler,  D. Lefrancois,  
 S. Lehtola,  Rain Li,  Yi-Pei Li,  Jiashu Liang,  M. Liebenthal,  
 Hung-Hsuan Lin,  You-Sheng Lin,  Fenglai Liu,  Kuan-Yu Liu,  
 M. Loipersberger,  A. Luenser,  A. Manjanath,  P. Manohar,  E. Mansoor,  
 S. F. Manzer,  Shan-Ping Mao,  A. V. Marenich,  T. Markovich,  S. Mason,  
 S. A. Maurer,  P. F. McLaughlin,  M. F. S. J. Menger,  J.-M. Mewes,  
 S. A. Mewes,  P. Morgante,  J. W. Mullinax,  T. S. Nguyen-Beck,  
 K. J. Oosterbaan,  G. Paran,  Alexander C. Paul,  Suranjan K. Paul,  
 F. Pavosevic,  Zheng Pei,  S. Prager,  E. I. Proynov,  E. Ramos,  B. Rana,  
 A. E. Rask,  A. Rettig,  R. M. Richard,  F. Rob,  E. Rossomme,  T. Scheele,  
 M. Scheurer,  M. Schneider,  N. Sergueev,  S. M. Sharada,  W. Skomorowski,  
 D. W. Small,  C. J. Stein,  Yu-Chuan Su,  E. J. Sundstrom,  Zhen Tao,  
 J. Thirman,  T. Tsuchimochi,  N. M. Tubman,  S. P. Veccham,  O. Vydrov,  
 J. Wenzel,  J. Witte,  A. Yamada,  Kun Yao,  S. Yeganeh,  S. R. Yost,  
 A. Zech,  Igor Ying Zhang,  Xing Zhang,  Yu Zhang,  D. Zuev,  
 A. Aspuru-Guzik,  A. T. Bell,  N. A. Besley,  K. B. Bravaya,  B. R. Brooks,  
 D. Casanova,  Jeng-Da Chai,  S. Coriani,  C. J. Cramer,  
 A. E. DePrince, III,  R. A. DiStasio Jr.,  A. Dreuw,  B. D. Dunietz,  
 T. R. Furlani,  W. A. Goddard III,  S. Grimme,  S. Hammes-Schiffer,  
 T. Head-Gordon,  W. J. Hehre,  Chao-Ping Hsu,  T.-C. Jagau,  Yousung Jung,  
 A. Klamt,  Jing Kong,  D. S. Lambrecht,  WanZhen Liang,  N. J. Mayhall,  
 C. W. McCurdy,  J. B. Neaton,  C. Ochsenfeld,  J. A. Parkhill,  R. Peverati,  
 V. A. Rassolov,  Yihan Shao,  L. V. Slipchenko,  T. Stauch,  R. P. Steele,  
 J. E. Subotnik,  A. J. W. Thom,  A. Tkatchenko,  D. G. Truhlar,  
 T. Van Voorhis,  T. A. Wesolowski,  K. B. Whaley,  H. L. Woodcock III,  
 P. M. Zimmerman,  S. Faraji,  P. M. W. Gill,  M. Head-Gordon,  
 J. M. Herbert,  A. I. Krylov

 Contributors to earlier versions of Q-Chem not listed above: 
 R. D. Adamson,  B. Austin,  R. Baer,  J. Baker,  G. J. O. Beran,  
 K. Brandhorst,  S. T. Brown,  E. F. C. Byrd,  A. K. Chakraborty,  
 G. K. L. Chan,  Chun-Min Chang,  Yunqing Chen,  C.-L. Cheng,  
 Siu Hung Chien,  D. M. Chipman,  D. L. Crittenden,  H. Dachsel,  
 R. J. Doerksen,  A. D. Dutoi,  R. G. Edgar,  J. Fosso-Tande,  
 L. Fusti-Molnar,  D. Ghosh,  A. Ghysels,  A. Golubeva-Zadorozhnaya,  
 J. Gonthier,  M. S. Gordon,  S. R. Gwaltney,  G. Hawkins,  J. E. Herr,  
 A. Heyden,  S. Hirata,  E. G. Hohenstein,  G. Kedziora,  F. J. Keil,  
 C. Kelley,  Jihan Kim,  R. A. King,  R. Z. Khaliullin,  P. P. Korambath,  
 W. Kurlancheek,  A. Laurent,  A. M. Lee,  M. S. Lee,  S. V. Levchenko,  
 Ching Yeh Lin,  D. Liotard,  E. Livshits,  R. C. Lochan,  I. Lotan,  
 L. A. Martinez-Martinez,  P. E. Maslen,  N. Nair,  D. P. O'Neill,  
 D. Neuhauser,  E. Neuscamman,  C. M. Oana,  R. Olivares-Amaya,  R. Olson,  
 T. M. Perrine,  B. Peters,  P. A. Pieniazek,  A. Prociuk,  Y. M. Rhee,  
 J. Ritchie,  M. A. Rohrdanz,  E. Rosta,  N. J. Russ,  H. F. Schaefer III,  
 M. W. Schmidt,  N. E. Schultz,  S. Sharma,  N. Shenvi,  C. D. Sherrill,  
 A. C. Simmonett,  A. Sodt,  T. Stein,  D. Stuck,  K. S. Thanthiriwatte,  
 V. Vanovschi,  L. Vogt,  Tao Wang,  A. Warshel,  M. A. Watson,  
 C. F. Williams,  Q. Wu,  X. Xu,  Jun Yang,  W. Zhang,  Yan Zhao

 Please cite Q-Chem as follows:
 Y. Shao et al., Mol. Phys. 113, 184-215 (2015)
 DOI: 10.1080/00268976.2014.952696

 Q-Chem 5.4.0 for Intel X86 EM64T Linux

 Parts of Q-Chem use Armadillo 9.800.1 (Horizon Scraper).
 http://arma.sourceforge.net/

 Q-Chem begins on Sun Jul 10 05:32:23 2022  

 Host: 
0

     Scratch files written to ./qchem847923//
 May1621 |scratch|qcdevops|jenkins|workspace|build_RNUM    
 Processing $rem in /cm/shared/apps/spack/cpu/opt/spack/linux-centos8-zen2/gcc-10.2.0/qchem-5.4-akfmr7b3t57bfs6qan3padb2wnb2i7cl/config/preferences:
 Processing $rem in /home/theleonzhang/.qchemrc:
 Symmetry turned off for PCM/SM12/SMD calculation
 Core orbitals will be frozen

 Checking the input file for inconsistencies... 	...done.

--------------------------------------------------------------
User input:
--------------------------------------------------------------
$molecule
0 1
C	0.133897	-3.866725	0.763475
C	-0.106669	-3.703963	-0.603206
C	-0.185154	-2.357056	-1.050446
H	-0.226709	-4.561092	-1.283024
C	-0.000000	-1.440664	-0.000000
S	0.268206	-2.286957	1.521018
C	-0.437628	-1.978743	-2.483610
H	-0.549717	-2.878678	-3.118875
H	0.394664	-1.376015	-2.903464
H	-1.363110	-1.375728	-2.593726
C	0.000000	0.000000	0.000000
C	0.431829	0.747884	1.099446
C	1.123799	1.946373	0.776721
H	0.247423	0.428497	2.136088
C	1.234147	2.137457	-0.612546
S	0.471221	0.816130	-1.486809
C	1.667694	2.888380	1.814609
H	1.454874	2.519768	2.836676
H	1.222009	3.901210	1.726239
H	2.767675	3.008788	1.726228
H	1.708773	2.959493	-1.161575
H	1.077442	-4.392713	0.946698
H	-0.690363	-4.392347	1.258274
H	-1.063612	-1.440391	0.187427
$end

$rem
JOBTYPE		SP
EXCHANGE	HF
CORRELATION	pRIMP2
BASIS		cc-pvtz
METHOD		rimp2
AUX_BASIS	rimp2-cc-pvtz
SOLVENT_METHOD	PCM
PURECART	11111
SYMMETRY	false
MEM_TOTAL	110000
SCF_CONVERGENCE = 6
THRESH=10
$end



$solvent
dielectric 4.90
$end
--------------------------------------------------------------
 ----------------------------------------------------------------
             Standard Nuclear Orientation (Angstroms)
    I     Atom           X                Y                Z
 ----------------------------------------------------------------
    1      C       0.1338970000    -3.8667250000     0.7634750000
    2      C      -0.1066690000    -3.7039630000    -0.6032060000
    3      C      -0.1851540000    -2.3570560000    -1.0504460000
    4      H      -0.2267090000    -4.5610920000    -1.2830240000
    5      C       0.0000000000    -1.4406640000     0.0000000000
    6      S       0.2682060000    -2.2869570000     1.5210180000
    7      C      -0.4376280000    -1.9787430000    -2.4836100000
    8      H      -0.5497170000    -2.8786780000    -3.1188750000
    9      H       0.3946640000    -1.3760150000    -2.9034640000
   10      H      -1.3631100000    -1.3757280000    -2.5937260000
   11      C       0.0000000000     0.0000000000     0.0000000000
   12      C       0.4318290000     0.7478840000     1.0994460000
   13      C       1.1237990000     1.9463730000     0.7767210000
   14      H       0.2474230000     0.4284970000     2.1360880000
   15      C       1.2341470000     2.1374570000    -0.6125460000
   16      S       0.4712210000     0.8161300000    -1.4868090000
   17      C       1.6676940000     2.8883800000     1.8146090000
   18      H       1.4548740000     2.5197680000     2.8366760000
   19      H       1.2220090000     3.9012100000     1.7262390000
   20      H       2.7676750000     3.0087880000     1.7262280000
   21      H       1.7087730000     2.9594930000    -1.1615750000
   22      H       1.0774420000    -4.3927130000     0.9466980000
   23      H      -0.6903630000    -4.3923470000     1.2582740000
   24      H      -1.0636120000    -1.4403910000     0.1874270000
 ----------------------------------------------------------------
 Nuclear Repulsion Energy =         882.26595703 hartrees
 There are       52 alpha and       52 beta electrons

 Q-Chem warning in module forms1/BasisType.C, line 2236:

 You are not using the predefined 5D/6D in this basis set.

 Requested basis set is cc-pVTZ
 There are 196 shells and 536 basis functions

 Total QAlloc Memory Limit 110000 MB
 Mega-Array Size       188 MB
 MEM_STATIC part       192 MB
 Discretize the solute cavity surface with Lebedev spheres
	Using 110 Lebedev grid points for each H atom
	Using 194 Lebedev grid points for other atoms
	Atomic van der Waals radii will be scaled by 1.20
 Remove points where switching function is < 1.0e-08
 Keep 1573 surface tesserae and discard 2075 interior tesserae
 Molecular Surface Area = 229.409 Angst**2
 Requested basis set is rimp2-cc-pVTZ
 There are 414 shells and 1414 basis functions
 A cutoff of  1.0D-10 yielded  14022 shell pairs
 There are    101580 function pairs (    130245 Cartesian)
 Smallest overlap matrix eigenvalue = 6.45E-05

 Scale SEOQF with 1.000000e-01/1.000000e-01/1.000000e-01

 Standard Electronic Orientation quadrupole field applied
 Nucleus-field energy     =     0.0000000198 hartrees
 Guess from superposition of atomic densities
 Warning:  Energy on first SCF cycle will be non-variational
 SAD guess density has 104.000000 electrons

 -----------------------------------------------------------------------
  General SCF calculation program by
  Eric Jon Sundstrom, Paul Horn, Yuezhi Mao, Dmitri Zuev, Alec White,
  David Stuck, Shaama M.S., Shane Yost, Joonho Lee, David Small,
  Daniel Levine, Susi Lehtola, Hugh Burton, Evgeny Epifanovsky,
  Bang C. Huynh
 -----------------------------------------------------------------------
 Hartree-Fock
 A restricted SCF calculation will be
 performed using DIIS
 SCF converges when DIIS error is below 1.0e-06
 ---------------------------------------
  Cycle       Energy         DIIS error
 ---------------------------------------
    1   -1186.0773930591      2.39e-02  
    2   -1180.5872132063      1.57e-03  
    3   -1180.7131607008      6.35e-04  
    4   -1180.7284106261      3.47e-04  
    5   -1180.7339654987      6.10e-05  
    6   -1180.7342261528      2.49e-05  
    7   -1180.7342865316      9.06e-06  
    8   -1180.7342994390      4.26e-06  
    9   -1180.7343024028      1.54e-06  
   10   -1180.7343028865      5.58e-07  Convergence criterion met
 ---------------------------------------
 SCF time:   CPU 574.01s  wall 576.00s 

************** Final PCM Free Energy Summary **************
 G_electrostatic  =      -0.00815680 hartree =      -5.11846893 kcal/mol
 G_cavitation     =       0.00000000 hartree =       0.00000000 kcal/mol
 G_dispersion     =       0.00000000 hartree =       0.00000000 kcal/mol
 G_repulsion      =       0.00000000 hartree =       0.00000000 kcal/mol
 --------------------------------------------------
 Non-electrostatic Free Energy =       0.00000000 hartree =       0.00000000 kcal/mol
 Total                         =      -0.00815680 hartree =      -5.11846893 kcal/mol
 --------------------------------------------------
 SCF Energy (H0 + V/2)                       =   -1180.73430289 
 Solute Internal Energy (H0)                 =   -1180.72614609 
 Total Free Energy (H0 + V/2 + non-elec)     =   -1180.73430289 hartree
                                             = -740921.95779586 kcal/mol
***********************************************************

 SCF   energy in the final basis set =    -1180.7343028865
 Total energy in the final basis set =    -1180.7343028865


 --------------------------------------------------------------
  Generalized many-body perturbation theory program
  by Joonho Lee, Fazle Rob, Xintian Feng, Evgeny Epifanovsky

 No regularization used 
 (reg. param. = 0.0000e+00)
  (P|Q)^-1/2 Time:  CPU 1.88 s  wall 1.89 s

 In RI-MP2 calculation: 
 # of frozen core orbitals: 20

 Components of the RIMP2 correlation energy:
        aaaa    correlation energy =        -0.2528093087 a.u.
        abab    correlation energy =        -1.5071982951 a.u.
        bbbb    correlation energy =        -0.2528093087 a.u.
        non-Brillouin singles      =        -0.0000000000 a.u.
        total same-spin energy     =        -0.5056186173 a.u.
        total opposite-spin energy =        -1.5071982951 a.u.

 Total  RIMP2   correlation energy =        -2.0128169124 a.u.
        RIMP2         total energy =     -1182.7471197989 a.u.

 RI-MP2 Energy Time:  CPU 79.48 s  wall 79.79 s
 
 --------------------------------------------------------------
 
                    Orbital Energies (a.u.)
 --------------------------------------------------------------
 
 Alpha MOs
 -- Occupied --
-91.9794 -91.9447 -11.2820 -11.2651 -11.2596 -11.2568 -11.2506 -11.2423
-11.2373 -11.2318 -11.2278 -11.2199  -8.9798  -8.9493  -6.6607  -6.6601
 -6.6594  -6.6307  -6.6297  -6.6284  -1.2018  -1.1527  -1.0598  -1.0279
 -1.0069  -0.9567  -0.9152  -0.9020  -0.8136  -0.7718  -0.7192  -0.7038
 -0.6578  -0.6462  -0.6108  -0.5910  -0.5831  -0.5741  -0.5675  -0.5533
 -0.5407  -0.5345  -0.5159  -0.5126  -0.4873  -0.4745  -0.4570  -0.4439
 -0.3580  -0.3406  -0.3264  -0.2611
 -- Virtual --
  0.0906   0.1340   0.1444   0.1508   0.1596   0.1708   0.1805   0.1830
  0.1873   0.1953   0.2055   0.2121   0.2234   0.2324   0.2401   0.2436
  0.2529   0.2609   0.2779   0.3012   0.3205   0.3351   0.3454   0.3645
  0.3708   0.3727   0.3825   0.3988   0.4088   0.4172   0.4198   0.4234
  0.4449   0.4541   0.4563   0.4596   0.4769   0.4805   0.4838   0.4983
  0.5079   0.5107   0.5216   0.5315   0.5415   0.5493   0.5526   0.5621
  0.5729   0.5741   0.5821   0.5991   0.6052   0.6134   0.6148   0.6176
  0.6212   0.6264   0.6312   0.6382   0.6398   0.6484   0.6505   0.6559
  0.6666   0.6703   0.6839   0.6900   0.6954   0.7101   0.7205   0.7345
  0.7361   0.7544   0.7583   0.7813   0.7832   0.7964   0.8036   0.8134
  0.8359   0.8425   0.8575   0.8706   0.8788   0.8974   0.8982   0.9247
  0.9277   0.9425   0.9586   0.9634   0.9725   0.9834   0.9973   1.0076
  1.0160   1.0241   1.0337   1.0437   1.0508   1.0660   1.0757   1.0855
  1.0892   1.0987   1.1049   1.1270   1.1394   1.1537   1.1574   1.1625
  1.1751   1.1869   1.1935   1.2160   1.2182   1.2230   1.2311   1.2530
  1.2617   1.2667   1.2715   1.2814   1.2835   1.2938   1.3002   1.3031
  1.3172   1.3331   1.3413   1.3646   1.3771   1.3870   1.3957   1.4001
  1.4175   1.4325   1.4445   1.4583   1.4674   1.4720   1.4767   1.4940
  1.5029   1.5142   1.5208   1.5317   1.5385   1.5420   1.5466   1.5543
  1.5689   1.5795   1.5856   1.5956   1.6081   1.6236   1.6324   1.6459
  1.6506   1.6655   1.6722   1.6865   1.7028   1.7116   1.7259   1.7365
  1.7551   1.7662   1.7829   1.7954   1.8018   1.8311   1.8375   1.8490
  1.8848   1.9229   1.9408   1.9451   1.9722   1.9755   1.9881   2.0119
  2.0157   2.0392   2.0544   2.0712   2.0876   2.1013   2.1346   2.1620
  2.1828   2.1940   2.2074   2.2192   2.2274   2.2358   2.2742   2.2812
  2.2909   2.3110   2.3362   2.3710   2.4142   2.4423   2.4565   2.4707
  2.4757   2.5112   2.5476   2.5518   2.5634   2.5937   2.5964   2.6208
  2.6350   2.6421   2.6592   2.6645   2.6699   2.6910   2.7065   2.7242
  2.7457   2.7537   2.7671   2.7801   2.7835   2.7912   2.8027   2.8208
  2.8361   2.8381   2.8524   2.8753   2.8895   2.9035   2.9098   2.9456
  2.9567   2.9710   2.9767   2.9908   2.9951   3.0171   3.0381   3.0482
  3.0583   3.0723   3.0790   3.1011   3.1104   3.1165   3.1260   3.1381
  3.1480   3.1570   3.1734   3.1813   3.1908   3.1925   3.2038   3.2177
  3.2233   3.2408   3.2544   3.2629   3.2710   3.2769   3.2823   3.3058
  3.3099   3.3228   3.3347   3.3418   3.3484   3.3533   3.3623   3.3641
  3.3745   3.3803   3.3909   3.3973   3.4047   3.4208   3.4267   3.4311
  3.4387   3.4468   3.4572   3.4777   3.4860   3.4874   3.4992   3.5059
  3.5156   3.5242   3.5358   3.5392   3.5526   3.5630   3.5745   3.5851
  3.5977   3.6149   3.6188   3.6291   3.6304   3.6319   3.6493   3.6671
  3.6760   3.6987   3.7002   3.7066   3.7173   3.7354   3.7386   3.7412
  3.7437   3.7560   3.7698   3.7829   3.7844   3.7936   3.8107   3.8222
  3.8313   3.8416   3.8566   3.8665   3.8698   3.8839   3.8995   3.9194
  3.9359   3.9441   3.9604   3.9662   3.9711   3.9824   4.0036   4.0137
  4.0236   4.0454   4.0504   4.0562   4.0587   4.0810   4.0953   4.1094
  4.1177   4.1334   4.1505   4.1583   4.1620   4.1795   4.1850   4.2057
  4.2102   4.2258   4.2320   4.2482   4.2560   4.2631   4.2718   4.2837
  4.2926   4.3042   4.3191   4.3393   4.3490   4.3514   4.3569   4.3701
  4.3786   4.3936   4.4033   4.4076   4.4185   4.4324   4.4460   4.4507
  4.4647   4.4692   4.4800   4.4858   4.5051   4.5193   4.5588   4.5744
  4.5855   4.5938   4.6086   4.6332   4.6428   4.6514   4.6653   4.6906
  4.7049   4.7343   4.7524   4.7784   4.7849   4.8071   4.8154   4.8254
  4.8569   4.8694   4.8918   4.9170   4.9258   4.9371   4.9609   4.9745
  5.0347   5.0587   5.0680   5.0962   5.1147   5.1266   5.1485   5.1704
  5.1936   5.2188   5.2385   5.2654   5.2852   5.2970   5.3080   5.3233
  5.3466   5.3679   5.3708   5.3968   5.4044   5.4185   5.4404   5.4565
  5.4824   5.5105   5.5253   5.5420   5.5557   5.5614   5.5665   5.5982
  5.6223   5.6309   5.6492   5.6600   5.6790   5.6950   5.7012   5.7303
  5.7615   5.7933   5.8377   5.9804   5.9947   6.0772   6.1255   6.1394
  6.2181   6.2254   6.2296   6.2406   6.2592   6.2847   6.2967   6.3054
  6.4089   6.4439   9.4995  10.6386  12.1792  12.9122  13.1716  13.8602
 14.1025  14.2457  14.3325  14.6830
 --------------------------------------------------------------
 
          Ground-State Mulliken Net Atomic Charges

     Atom                 Charge (a.u.)
  ----------------------------------------
      1 C                    -0.074451
      2 C                    -0.329493
      3 C                    -0.040549
      4 H                     0.178120
      5 C                     0.114137
      6 S                    -0.187155
      7 C                    -0.307455
      8 H                     0.120400
      9 H                     0.113527
     10 H                     0.114167
     11 C                    -0.025012
     12 C                    -0.312896
     13 C                     0.057098
     14 H                     0.181114
     15 C                    -0.266517
     16 S                     0.012997
     17 C                    -0.269497
     18 H                     0.102798
     19 H                     0.108229
     20 H                     0.108298
     21 H                     0.195414
     22 H                     0.112233
     23 H                     0.111401
     24 H                     0.183093
  ----------------------------------------
  Sum of atomic charges =     0.000000

 -----------------------------------------------------------------
                    Cartesian Multipole Moments
 -----------------------------------------------------------------
    Charge (ESU x 10^10)
                -0.0000
    Dipole Moment (Debye)
         X      -0.4411      Y      -0.0966      Z      -0.7862
       Tot       0.9067
    Quadrupole Moments (Debye-Ang)
        XX     -89.2980     XY       6.4727     YY     -76.2166
        XZ       0.3433     YZ       4.2400     ZZ     -85.3599
    Octopole Moments (Debye-Ang^2)
       XXX    -103.0775    XXY      63.3568    XYY     -22.8053
       YYY     135.4200    XXZ      -0.1000    XYZ      -1.1689
       YYZ      -0.9525    XZZ     -32.6897    YZZ      57.5408
       ZZZ      -3.0522
    Hexadecapole Moments (Debye-Ang^3)
      XXXX    -402.8179   XXXY    -209.3375   XXYY    -532.6842
      XYYY    -177.9667   YYYY   -2583.1848   XXXZ     -99.4952
      XXYZ     -31.1970   XYYZ     -34.0744   YYYZ     -93.4723
      XXZZ    -253.8784   XYZZ     -53.2543   YYZZ    -623.0245
      XZZZ     -96.6810   YZZZ     -48.5419   ZZZZ   -1077.6119
 -----------------------------------------------------------------
 Total job time:  658.20s(wall), 654.38s(cpu) 
 Sun Jul 10 05:43:21 2022

        *************************************************************
        *                                                           *
        *  Thank you very much for using Q-Chem.  Have a nice day.  *
        *                                                           *
        *************************************************************


remove work dirs ./qchem847923.0 -- ./qchem847923.-1
rm -rf ./qchem847923
You are running Q-Chem version: 5.4.0

#
# job setting
#
local host:  exp-3-21
current dir: /expanse/lustre/scratch/theleonzhang/temp_project/Hydrogenated_Rotation_Test
input file:  Methylthiophene_Phi_30_Theta_350_Methylthiophene_Hydrogenated.qcin
output file: 
nprocs     : 0
nthreads   : 1
#
# qchem installation setting
#
QC:          /cm/shared/apps/spack/cpu/opt/spack/linux-centos8-zen2/gcc-10.2.0/qchem-5.4-akfmr7b3t57bfs6qan3padb2wnb2i7cl
QCAUX:       /cm/shared/apps/spack/cpu/opt/spack/linux-centos8-zen2/gcc-10.2.0/qchem-5.4-akfmr7b3t57bfs6qan3padb2wnb2i7cl/qcaux
QCPROG:      /cm/shared/apps/spack/cpu/opt/spack/linux-centos8-zen2/gcc-10.2.0/qchem-5.4-akfmr7b3t57bfs6qan3padb2wnb2i7cl/exe/qcprog.exe_s
QCPROG_S:    /cm/shared/apps/spack/cpu/opt/spack/linux-centos8-zen2/gcc-10.2.0/qchem-5.4-akfmr7b3t57bfs6qan3padb2wnb2i7cl/exe/qcprog.exe_s
PARALLEL:    -DSERIAL
QCMPI:       mpich
#
# qchem directory setting
#
qcrun:       qchem1330173
QCSCRATCH:   .
QCLOCALSCR:  
QCTMPDIR:    .
QCFILEPREF:  ./qchem1330173
QCSAVEDIR:   
workdirs:    ./qchem1330173
workdir0:    ./qchem1330173
partmpdirs =  
#
# parallel setting
#
QCRSH:           ssh
QCMPI:           mpich
QCMPIRUN:        /cm/shared/apps/spack/cpu/opt/spack/linux-centos8-zen2/gcc-10.2.0/qchem-5.4-akfmr7b3t57bfs6qan3padb2wnb2i7cl/bin/mpi/mpirun_qchem
QCMACHINEFILE:   ./qchem1330173/hostfile

#
# env setting
#
exported envs:   QC QCAUX QCSCRATCH QCRUNNAME QCFILEPREF QCPROG QCPROG_S GUIFILE

Running Job 1 of 1 Methylthiophene_Phi_30_Theta_350_Methylthiophene_Hydrogenated.qcin
qchem Methylthiophene_Phi_30_Theta_350_Methylthiophene_Hydrogenated.qcin_1330173.0 ./qchem1330173/ 0
/cm/shared/apps/spack/cpu/opt/spack/linux-centos8-zen2/gcc-10.2.0/qchem-5.4-akfmr7b3t57bfs6qan3padb2wnb2i7cl/exe/qcprog.exe_s Methylthiophene_Phi_30_Theta_350_Methylthiophene_Hydrogenated.qcin_1330173.0 ./qchem1330173/
                  Welcome to Q-Chem
     A Quantum Leap Into The Future Of Chemistry


 Q-Chem 5.4, Q-Chem, Inc., Pleasanton, CA (2021)

 License issued to: University of California, San Diego (site)

 E. Epifanovsky,  A. T. B. Gilbert,  Xintian Feng,  Joonho Lee,  Yuezhi Mao,  
 N. Mardirossian,  P. Pokhilko,  A. White,  M. Wormit,  M. P. Coons,  
 A. L. Dempwolff,  Zhengting Gan,  D. Hait,  P. R. Horn,  L. D. Jacobson,  
 I. Kaliman,  J. Kussmann,  A. W. Lange,  Ka Un Lao,  D. S. Levine,  Jie Liu,  
 S. C. McKenzie,  A. F. Morrison,  K. Nanda,  F. Plasser,  D. R. Rehn,  
 M. L. Vidal,  Zhi-Qiang You,  Ying Zhu,  B. Alam,  B. Albrecht,  
 A. Aldossary,  E. Alguire,  J. H. Andersen,  D. Barton,  K. Begam,  A. Behn,  
 Y. A. Bernard,  E. J. Berquist,  H. Burton,  A. Carreras,  K. Carter-Fenk,  
 R. Chakraborty,  A. D. Chien,  K. D. Closser,  V. Cofer-Shabica,  
 S. Dasgupta,  Jia Deng,  M. de Wergifosse,  M. Diedenhofen,  Hainam Do,  
 S. Ehlert,  Po-Tung Fang,  S. Fatehi,  Qingguo Feng,  J. Gayvert,  
 Qinghui Ge,  G. Gidofalvi,  M. Goldey,  J. Gomes,  C. Gonzalez-Espinoza,  
 S. Gulania,  A. Gunina,  M. W. D. Hanson-Heine,  P. H. P. Harbach,  
 A. W. Hauser,  M. F. Herbst,  M. Hernandez Vera,  M. Hodecker,  
 Z. C. Holden,  S. Houck,  Xunkun Huang,  Kerwin Hui,  B. C. Huynh,  
 M. Ivanov,  Hyunjun Ji,  Hanjie Jiang,  B. Kaduk,  S. Kaehler,  
 K. Khistyaev,  Jaehoon Kim,  P. Klunzinger,  Z. Koczor-Benda,  
 Joong Hoon Koh,  D. Kosenkov,  L. Koulias,  T. Kowalczyk,  C. M. Krauter,  
 K. Kue,  A. Kunitsa,  T. Kus,  A. Landau,  K. V. Lawler,  D. Lefrancois,  
 S. Lehtola,  Rain Li,  Yi-Pei Li,  Jiashu Liang,  M. Liebenthal,  
 Hung-Hsuan Lin,  You-Sheng Lin,  Fenglai Liu,  Kuan-Yu Liu,  
 M. Loipersberger,  A. Luenser,  A. Manjanath,  P. Manohar,  E. Mansoor,  
 S. F. Manzer,  Shan-Ping Mao,  A. V. Marenich,  T. Markovich,  S. Mason,  
 S. A. Maurer,  P. F. McLaughlin,  M. F. S. J. Menger,  J.-M. Mewes,  
 S. A. Mewes,  P. Morgante,  J. W. Mullinax,  T. S. Nguyen-Beck,  
 K. J. Oosterbaan,  G. Paran,  Alexander C. Paul,  Suranjan K. Paul,  
 F. Pavosevic,  Zheng Pei,  S. Prager,  E. I. Proynov,  E. Ramos,  B. Rana,  
 A. E. Rask,  A. Rettig,  R. M. Richard,  F. Rob,  E. Rossomme,  T. Scheele,  
 M. Scheurer,  M. Schneider,  N. Sergueev,  S. M. Sharada,  W. Skomorowski,  
 D. W. Small,  C. J. Stein,  Yu-Chuan Su,  E. J. Sundstrom,  Zhen Tao,  
 J. Thirman,  T. Tsuchimochi,  N. M. Tubman,  S. P. Veccham,  O. Vydrov,  
 J. Wenzel,  J. Witte,  A. Yamada,  Kun Yao,  S. Yeganeh,  S. R. Yost,  
 A. Zech,  Igor Ying Zhang,  Xing Zhang,  Yu Zhang,  D. Zuev,  
 A. Aspuru-Guzik,  A. T. Bell,  N. A. Besley,  K. B. Bravaya,  B. R. Brooks,  
 D. Casanova,  Jeng-Da Chai,  S. Coriani,  C. J. Cramer,  
 A. E. DePrince, III,  R. A. DiStasio Jr.,  A. Dreuw,  B. D. Dunietz,  
 T. R. Furlani,  W. A. Goddard III,  S. Grimme,  S. Hammes-Schiffer,  
 T. Head-Gordon,  W. J. Hehre,  Chao-Ping Hsu,  T.-C. Jagau,  Yousung Jung,  
 A. Klamt,  Jing Kong,  D. S. Lambrecht,  WanZhen Liang,  N. J. Mayhall,  
 C. W. McCurdy,  J. B. Neaton,  C. Ochsenfeld,  J. A. Parkhill,  R. Peverati,  
 V. A. Rassolov,  Yihan Shao,  L. V. Slipchenko,  T. Stauch,  R. P. Steele,  
 J. E. Subotnik,  A. J. W. Thom,  A. Tkatchenko,  D. G. Truhlar,  
 T. Van Voorhis,  T. A. Wesolowski,  K. B. Whaley,  H. L. Woodcock III,  
 P. M. Zimmerman,  S. Faraji,  P. M. W. Gill,  M. Head-Gordon,  
 J. M. Herbert,  A. I. Krylov

 Contributors to earlier versions of Q-Chem not listed above: 
 R. D. Adamson,  B. Austin,  R. Baer,  J. Baker,  G. J. O. Beran,  
 K. Brandhorst,  S. T. Brown,  E. F. C. Byrd,  A. K. Chakraborty,  
 G. K. L. Chan,  Chun-Min Chang,  Yunqing Chen,  C.-L. Cheng,  
 Siu Hung Chien,  D. M. Chipman,  D. L. Crittenden,  H. Dachsel,  
 R. J. Doerksen,  A. D. Dutoi,  R. G. Edgar,  J. Fosso-Tande,  
 L. Fusti-Molnar,  D. Ghosh,  A. Ghysels,  A. Golubeva-Zadorozhnaya,  
 J. Gonthier,  M. S. Gordon,  S. R. Gwaltney,  G. Hawkins,  J. E. Herr,  
 A. Heyden,  S. Hirata,  E. G. Hohenstein,  G. Kedziora,  F. J. Keil,  
 C. Kelley,  Jihan Kim,  R. A. King,  R. Z. Khaliullin,  P. P. Korambath,  
 W. Kurlancheek,  A. Laurent,  A. M. Lee,  M. S. Lee,  S. V. Levchenko,  
 Ching Yeh Lin,  D. Liotard,  E. Livshits,  R. C. Lochan,  I. Lotan,  
 L. A. Martinez-Martinez,  P. E. Maslen,  N. Nair,  D. P. O'Neill,  
 D. Neuhauser,  E. Neuscamman,  C. M. Oana,  R. Olivares-Amaya,  R. Olson,  
 T. M. Perrine,  B. Peters,  P. A. Pieniazek,  A. Prociuk,  Y. M. Rhee,  
 J. Ritchie,  M. A. Rohrdanz,  E. Rosta,  N. J. Russ,  H. F. Schaefer III,  
 M. W. Schmidt,  N. E. Schultz,  S. Sharma,  N. Shenvi,  C. D. Sherrill,  
 A. C. Simmonett,  A. Sodt,  T. Stein,  D. Stuck,  K. S. Thanthiriwatte,  
 V. Vanovschi,  L. Vogt,  Tao Wang,  A. Warshel,  M. A. Watson,  
 C. F. Williams,  Q. Wu,  X. Xu,  Jun Yang,  W. Zhang,  Yan Zhao

 Please cite Q-Chem as follows:
 Y. Shao et al., Mol. Phys. 113, 184-215 (2015)
 DOI: 10.1080/00268976.2014.952696

 Q-Chem 5.4.0 for Intel X86 EM64T Linux

 Parts of Q-Chem use Armadillo 9.800.1 (Horizon Scraper).
 http://arma.sourceforge.net/

 Q-Chem begins on Sun Jul 10 06:15:39 2022  

 Host: 
0

     Scratch files written to ./qchem1330173//
 May1621 |scratch|qcdevops|jenkins|workspace|build_RNUM    
 Processing $rem in /cm/shared/apps/spack/cpu/opt/spack/linux-centos8-zen2/gcc-10.2.0/qchem-5.4-akfmr7b3t57bfs6qan3padb2wnb2i7cl/config/preferences:
 Processing $rem in /home/theleonzhang/.qchemrc:
 Symmetry turned off for PCM/SM12/SMD calculation
 Core orbitals will be frozen

 Checking the input file for inconsistencies... 	...done.

--------------------------------------------------------------
User input:
--------------------------------------------------------------
$molecule
0 1
C	0.133897	-3.866725	0.763475
C	-0.106669	-3.703963	-0.603206
C	-0.185154	-2.357056	-1.050446
H	-0.226709	-4.561092	-1.283024
C	-0.000000	-1.440664	-0.000000
S	0.268206	-2.286957	1.521018
C	-0.437628	-1.978743	-2.483610
H	-0.549717	-2.878678	-3.118875
H	0.394664	-1.376015	-2.903464
H	-1.363110	-1.375728	-2.593726
C	0.000000	0.000000	0.000000
C	0.431829	0.747884	1.099446
C	1.123799	1.946373	0.776721
H	0.247423	0.428497	2.136088
C	1.234147	2.137457	-0.612546
S	0.471221	0.816130	-1.486809
C	1.667694	2.888380	1.814609
H	1.454874	2.519768	2.836676
H	1.222009	3.901210	1.726239
H	2.767675	3.008788	1.726228
H	1.708773	2.959493	-1.161575
H	1.077442	-4.392713	0.946698
H	-0.690363	-4.392347	1.258274
H	-1.063612	-1.440391	0.187427
$end

$rem
JOBTYPE		SP
EXCHANGE	HF
CORRELATION	pRIMP2
BASIS		cc-pvtz
METHOD		rimp2
AUX_BASIS	rimp2-cc-pvtz
SOLVENT_METHOD	PCM
PURECART	11111
SYMMETRY	false
MEM_TOTAL	110000
SCF_CONVERGENCE = 6
THRESH=10
$end



$solvent
dielectric 4.90
$end
--------------------------------------------------------------
 ----------------------------------------------------------------
             Standard Nuclear Orientation (Angstroms)
    I     Atom           X                Y                Z
 ----------------------------------------------------------------
    1      C       0.1338970000    -3.8667250000     0.7634750000
    2      C      -0.1066690000    -3.7039630000    -0.6032060000
    3      C      -0.1851540000    -2.3570560000    -1.0504460000
    4      H      -0.2267090000    -4.5610920000    -1.2830240000
    5      C       0.0000000000    -1.4406640000     0.0000000000
    6      S       0.2682060000    -2.2869570000     1.5210180000
    7      C      -0.4376280000    -1.9787430000    -2.4836100000
    8      H      -0.5497170000    -2.8786780000    -3.1188750000
    9      H       0.3946640000    -1.3760150000    -2.9034640000
   10      H      -1.3631100000    -1.3757280000    -2.5937260000
   11      C       0.0000000000     0.0000000000     0.0000000000
   12      C       0.4318290000     0.7478840000     1.0994460000
   13      C       1.1237990000     1.9463730000     0.7767210000
   14      H       0.2474230000     0.4284970000     2.1360880000
   15      C       1.2341470000     2.1374570000    -0.6125460000
   16      S       0.4712210000     0.8161300000    -1.4868090000
   17      C       1.6676940000     2.8883800000     1.8146090000
   18      H       1.4548740000     2.5197680000     2.8366760000
   19      H       1.2220090000     3.9012100000     1.7262390000
   20      H       2.7676750000     3.0087880000     1.7262280000
   21      H       1.7087730000     2.9594930000    -1.1615750000
   22      H       1.0774420000    -4.3927130000     0.9466980000
   23      H      -0.6903630000    -4.3923470000     1.2582740000
   24      H      -1.0636120000    -1.4403910000     0.1874270000
 ----------------------------------------------------------------
 Nuclear Repulsion Energy =         882.26595703 hartrees
 There are       52 alpha and       52 beta electrons

 Q-Chem warning in module forms1/BasisType.C, line 2236:

 You are not using the predefined 5D/6D in this basis set.

 Requested basis set is cc-pVTZ
 There are 196 shells and 536 basis functions

 Total QAlloc Memory Limit 110000 MB
 Mega-Array Size       188 MB
 MEM_STATIC part       192 MB
 Discretize the solute cavity surface with Lebedev spheres
	Using 110 Lebedev grid points for each H atom
	Using 194 Lebedev grid points for other atoms
	Atomic van der Waals radii will be scaled by 1.20
 Remove points where switching function is < 1.0e-08
 Keep 1573 surface tesserae and discard 2075 interior tesserae
 Molecular Surface Area = 229.409 Angst**2
 Requested basis set is rimp2-cc-pVTZ
 There are 414 shells and 1414 basis functions
 A cutoff of  1.0D-10 yielded  14022 shell pairs
 There are    101580 function pairs (    130245 Cartesian)
 Smallest overlap matrix eigenvalue = 6.45E-05

 Scale SEOQF with 1.000000e-01/1.000000e-01/1.000000e-01

 Standard Electronic Orientation quadrupole field applied
 Nucleus-field energy     =     0.0000000198 hartrees
 Guess from superposition of atomic densities
 Warning:  Energy on first SCF cycle will be non-variational
 SAD guess density has 104.000000 electrons

 -----------------------------------------------------------------------
  General SCF calculation program by
  Eric Jon Sundstrom, Paul Horn, Yuezhi Mao, Dmitri Zuev, Alec White,
  David Stuck, Shaama M.S., Shane Yost, Joonho Lee, David Small,
  Daniel Levine, Susi Lehtola, Hugh Burton, Evgeny Epifanovsky,
  Bang C. Huynh
 -----------------------------------------------------------------------
 Hartree-Fock
 A restricted SCF calculation will be
 performed using DIIS
 SCF converges when DIIS error is below 1.0e-06
 ---------------------------------------
  Cycle       Energy         DIIS error
 ---------------------------------------
    1   -1186.0773930591      2.39e-02  
    2   -1180.5872132063      1.57e-03  
    3   -1180.7131607008      6.35e-04  
    4   -1180.7284106261      3.47e-04  
    5   -1180.7339654987      6.10e-05  
    6   -1180.7342261528      2.49e-05  
    7   -1180.7342865316      9.06e-06  
    8   -1180.7342994390      4.26e-06  
    9   -1180.7343024028      1.54e-06  
   10   -1180.7343028865      5.58e-07  Convergence criterion met
 ---------------------------------------
 SCF time:   CPU 576.17s  wall 578.00s 

************** Final PCM Free Energy Summary **************
 G_electrostatic  =      -0.00815680 hartree =      -5.11846893 kcal/mol
 G_cavitation     =       0.00000000 hartree =       0.00000000 kcal/mol
 G_dispersion     =       0.00000000 hartree =       0.00000000 kcal/mol
 G_repulsion      =       0.00000000 hartree =       0.00000000 kcal/mol
 --------------------------------------------------
 Non-electrostatic Free Energy =       0.00000000 hartree =       0.00000000 kcal/mol
 Total                         =      -0.00815680 hartree =      -5.11846893 kcal/mol
 --------------------------------------------------
 SCF Energy (H0 + V/2)                       =   -1180.73430289 
 Solute Internal Energy (H0)                 =   -1180.72614609 
 Total Free Energy (H0 + V/2 + non-elec)     =   -1180.73430289 hartree
                                             = -740921.95779586 kcal/mol
***********************************************************

 SCF   energy in the final basis set =    -1180.7343028865
 Total energy in the final basis set =    -1180.7343028865


 --------------------------------------------------------------
  Generalized many-body perturbation theory program
  by Joonho Lee, Fazle Rob, Xintian Feng, Evgeny Epifanovsky

 No regularization used 
 (reg. param. = 0.0000e+00)
  (P|Q)^-1/2 Time:  CPU 1.90 s  wall 1.90 s

 In RI-MP2 calculation: 
 # of frozen core orbitals: 20

 Components of the RIMP2 correlation energy:
        aaaa    correlation energy =        -0.2528093087 a.u.
        abab    correlation energy =        -1.5071982951 a.u.
        bbbb    correlation energy =        -0.2528093087 a.u.
        non-Brillouin singles      =        -0.0000000000 a.u.
        total same-spin energy     =        -0.5056186173 a.u.
        total opposite-spin energy =        -1.5071982951 a.u.

 Total  RIMP2   correlation energy =        -2.0128169124 a.u.
        RIMP2         total energy =     -1182.7471197989 a.u.

 RI-MP2 Energy Time:  CPU 79.35 s  wall 79.59 s
 
 --------------------------------------------------------------
 
                    Orbital Energies (a.u.)
 --------------------------------------------------------------
 
 Alpha MOs
 -- Occupied --
-91.9794 -91.9447 -11.2820 -11.2651 -11.2596 -11.2568 -11.2506 -11.2423
-11.2373 -11.2318 -11.2278 -11.2199  -8.9798  -8.9493  -6.6607  -6.6601
 -6.6594  -6.6307  -6.6297  -6.6284  -1.2018  -1.1527  -1.0598  -1.0279
 -1.0069  -0.9567  -0.9152  -0.9020  -0.8136  -0.7718  -0.7192  -0.7038
 -0.6578  -0.6462  -0.6108  -0.5910  -0.5831  -0.5741  -0.5675  -0.5533
 -0.5407  -0.5345  -0.5159  -0.5126  -0.4873  -0.4745  -0.4570  -0.4439
 -0.3580  -0.3406  -0.3264  -0.2611
 -- Virtual --
  0.0906   0.1340   0.1444   0.1508   0.1596   0.1708   0.1805   0.1830
  0.1873   0.1953   0.2055   0.2121   0.2234   0.2324   0.2401   0.2436
  0.2529   0.2609   0.2779   0.3012   0.3205   0.3351   0.3454   0.3645
  0.3708   0.3727   0.3825   0.3988   0.4088   0.4172   0.4198   0.4234
  0.4449   0.4541   0.4563   0.4596   0.4769   0.4805   0.4838   0.4983
  0.5079   0.5107   0.5216   0.5315   0.5415   0.5493   0.5526   0.5621
  0.5729   0.5741   0.5821   0.5991   0.6052   0.6134   0.6148   0.6176
  0.6212   0.6264   0.6312   0.6382   0.6398   0.6484   0.6505   0.6559
  0.6666   0.6703   0.6839   0.6900   0.6954   0.7101   0.7205   0.7345
  0.7361   0.7544   0.7583   0.7813   0.7832   0.7964   0.8036   0.8134
  0.8359   0.8425   0.8575   0.8706   0.8788   0.8974   0.8982   0.9247
  0.9277   0.9425   0.9586   0.9634   0.9725   0.9834   0.9973   1.0076
  1.0160   1.0241   1.0337   1.0437   1.0508   1.0660   1.0757   1.0855
  1.0892   1.0987   1.1049   1.1270   1.1394   1.1537   1.1574   1.1625
  1.1751   1.1869   1.1935   1.2160   1.2182   1.2230   1.2311   1.2530
  1.2617   1.2667   1.2715   1.2814   1.2835   1.2938   1.3002   1.3031
  1.3172   1.3331   1.3413   1.3646   1.3771   1.3870   1.3957   1.4001
  1.4175   1.4325   1.4445   1.4583   1.4674   1.4720   1.4767   1.4940
  1.5029   1.5142   1.5208   1.5317   1.5385   1.5420   1.5466   1.5543
  1.5689   1.5795   1.5856   1.5956   1.6081   1.6236   1.6324   1.6459
  1.6506   1.6655   1.6722   1.6865   1.7028   1.7116   1.7259   1.7365
  1.7551   1.7662   1.7829   1.7954   1.8018   1.8311   1.8375   1.8490
  1.8848   1.9229   1.9408   1.9451   1.9722   1.9755   1.9881   2.0119
  2.0157   2.0392   2.0544   2.0712   2.0876   2.1013   2.1346   2.1620
  2.1828   2.1940   2.2074   2.2192   2.2274   2.2358   2.2742   2.2812
  2.2909   2.3110   2.3362   2.3710   2.4142   2.4423   2.4565   2.4707
  2.4757   2.5112   2.5476   2.5518   2.5634   2.5937   2.5964   2.6208
  2.6350   2.6421   2.6592   2.6645   2.6699   2.6910   2.7065   2.7242
  2.7457   2.7537   2.7671   2.7801   2.7835   2.7912   2.8027   2.8208
  2.8361   2.8381   2.8524   2.8753   2.8895   2.9035   2.9098   2.9456
  2.9567   2.9710   2.9767   2.9908   2.9951   3.0171   3.0381   3.0482
  3.0583   3.0723   3.0790   3.1011   3.1104   3.1165   3.1260   3.1381
  3.1480   3.1570   3.1734   3.1813   3.1908   3.1925   3.2038   3.2177
  3.2233   3.2408   3.2544   3.2629   3.2710   3.2769   3.2823   3.3058
  3.3099   3.3228   3.3347   3.3418   3.3484   3.3533   3.3623   3.3641
  3.3745   3.3803   3.3909   3.3973   3.4047   3.4208   3.4267   3.4311
  3.4387   3.4468   3.4572   3.4777   3.4860   3.4874   3.4992   3.5059
  3.5156   3.5242   3.5358   3.5392   3.5526   3.5630   3.5745   3.5851
  3.5977   3.6149   3.6188   3.6291   3.6304   3.6319   3.6493   3.6671
  3.6760   3.6987   3.7002   3.7066   3.7173   3.7354   3.7386   3.7412
  3.7437   3.7560   3.7698   3.7829   3.7844   3.7936   3.8107   3.8222
  3.8313   3.8416   3.8566   3.8665   3.8698   3.8839   3.8995   3.9194
  3.9359   3.9441   3.9604   3.9662   3.9711   3.9824   4.0036   4.0137
  4.0236   4.0454   4.0504   4.0562   4.0587   4.0810   4.0953   4.1094
  4.1177   4.1334   4.1505   4.1583   4.1620   4.1795   4.1850   4.2057
  4.2102   4.2258   4.2320   4.2482   4.2560   4.2631   4.2718   4.2837
  4.2926   4.3042   4.3191   4.3393   4.3490   4.3514   4.3569   4.3701
  4.3786   4.3936   4.4033   4.4076   4.4185   4.4324   4.4460   4.4507
  4.4647   4.4692   4.4800   4.4858   4.5051   4.5193   4.5588   4.5744
  4.5855   4.5938   4.6086   4.6332   4.6428   4.6514   4.6653   4.6906
  4.7049   4.7343   4.7524   4.7784   4.7849   4.8071   4.8154   4.8254
  4.8569   4.8694   4.8918   4.9170   4.9258   4.9371   4.9609   4.9745
  5.0347   5.0587   5.0680   5.0962   5.1147   5.1266   5.1485   5.1704
  5.1936   5.2188   5.2385   5.2654   5.2852   5.2970   5.3080   5.3233
  5.3466   5.3679   5.3708   5.3968   5.4044   5.4185   5.4404   5.4565
  5.4824   5.5105   5.5253   5.5420   5.5557   5.5614   5.5665   5.5982
  5.6223   5.6309   5.6492   5.6600   5.6790   5.6950   5.7012   5.7303
  5.7615   5.7933   5.8377   5.9804   5.9947   6.0772   6.1255   6.1394
  6.2181   6.2254   6.2296   6.2406   6.2592   6.2847   6.2967   6.3054
  6.4089   6.4439   9.4995  10.6386  12.1792  12.9122  13.1716  13.8602
 14.1025  14.2457  14.3325  14.6830
 --------------------------------------------------------------
 
          Ground-State Mulliken Net Atomic Charges

     Atom                 Charge (a.u.)
  ----------------------------------------
      1 C                    -0.074451
      2 C                    -0.329493
      3 C                    -0.040549
      4 H                     0.178120
      5 C                     0.114137
      6 S                    -0.187155
      7 C                    -0.307455
      8 H                     0.120400
      9 H                     0.113527
     10 H                     0.114167
     11 C                    -0.025012
     12 C                    -0.312896
     13 C                     0.057098
     14 H                     0.181114
     15 C                    -0.266517
     16 S                     0.012997
     17 C                    -0.269497
     18 H                     0.102798
     19 H                     0.108229
     20 H                     0.108298
     21 H                     0.195414
     22 H                     0.112233
     23 H                     0.111401
     24 H                     0.183093
  ----------------------------------------
  Sum of atomic charges =     0.000000

 -----------------------------------------------------------------
                    Cartesian Multipole Moments
 -----------------------------------------------------------------
    Charge (ESU x 10^10)
                -0.0000
    Dipole Moment (Debye)
         X      -0.4411      Y      -0.0966      Z      -0.7862
       Tot       0.9067
    Quadrupole Moments (Debye-Ang)
        XX     -89.2980     XY       6.4727     YY     -76.2166
        XZ       0.3433     YZ       4.2400     ZZ     -85.3599
    Octopole Moments (Debye-Ang^2)
       XXX    -103.0775    XXY      63.3568    XYY     -22.8053
       YYY     135.4200    XXZ      -0.1000    XYZ      -1.1689
       YYZ      -0.9525    XZZ     -32.6897    YZZ      57.5408
       ZZZ      -3.0522
    Hexadecapole Moments (Debye-Ang^3)
      XXXX    -402.8179   XXXY    -209.3375   XXYY    -532.6842
      XYYY    -177.9667   YYYY   -2583.1848   XXXZ     -99.4952
      XXYZ     -31.1970   XYYZ     -34.0744   YYYZ     -93.4723
      XXZZ    -253.8784   XYZZ     -53.2543   YYZZ    -623.0245
      XZZZ     -96.6810   YZZZ     -48.5419   ZZZZ   -1077.6119
 -----------------------------------------------------------------
 Total job time:  659.60s(wall), 656.41s(cpu) 
 Sun Jul 10 06:26:39 2022

        *************************************************************
        *                                                           *
        *  Thank you very much for using Q-Chem.  Have a nice day.  *
        *                                                           *
        *************************************************************


remove work dirs ./qchem1330173.0 -- ./qchem1330173.-1
rm -rf ./qchem1330173
