You are running Q-Chem version: 5.4.0

#
# job setting
#
local host:  exp-2-06
current dir: /expanse/lustre/scratch/theleonzhang/temp_project/Hydrogenated_Rotation_Test
input file:  Methylthiophene_Phi_50_Theta_190_Methylthiophene_Hydrogenated.qcin
output file: 
nprocs     : 0
nthreads   : 1
#
# qchem installation setting
#
QC:          /cm/shared/apps/spack/cpu/opt/spack/linux-centos8-zen2/gcc-10.2.0/qchem-5.4-akfmr7b3t57bfs6qan3padb2wnb2i7cl
QCAUX:       /cm/shared/apps/spack/cpu/opt/spack/linux-centos8-zen2/gcc-10.2.0/qchem-5.4-akfmr7b3t57bfs6qan3padb2wnb2i7cl/qcaux
QCPROG:      /cm/shared/apps/spack/cpu/opt/spack/linux-centos8-zen2/gcc-10.2.0/qchem-5.4-akfmr7b3t57bfs6qan3padb2wnb2i7cl/exe/qcprog.exe_s
QCPROG_S:    /cm/shared/apps/spack/cpu/opt/spack/linux-centos8-zen2/gcc-10.2.0/qchem-5.4-akfmr7b3t57bfs6qan3padb2wnb2i7cl/exe/qcprog.exe_s
PARALLEL:    -DSERIAL
QCMPI:       mpich
#
# qchem directory setting
#
qcrun:       qchem1862950
QCSCRATCH:   .
QCLOCALSCR:  
QCTMPDIR:    .
QCFILEPREF:  ./qchem1862950
QCSAVEDIR:   
workdirs:    ./qchem1862950
workdir0:    ./qchem1862950
partmpdirs =  
#
# parallel setting
#
QCRSH:           ssh
QCMPI:           mpich
QCMPIRUN:        /cm/shared/apps/spack/cpu/opt/spack/linux-centos8-zen2/gcc-10.2.0/qchem-5.4-akfmr7b3t57bfs6qan3padb2wnb2i7cl/bin/mpi/mpirun_qchem
QCMACHINEFILE:   ./qchem1862950/hostfile

#
# env setting
#
exported envs:   QC QCAUX QCSCRATCH QCRUNNAME QCFILEPREF QCPROG QCPROG_S GUIFILE

Running Job 1 of 1 Methylthiophene_Phi_50_Theta_190_Methylthiophene_Hydrogenated.qcin
qchem Methylthiophene_Phi_50_Theta_190_Methylthiophene_Hydrogenated.qcin_1862950.0 ./qchem1862950/ 0
/cm/shared/apps/spack/cpu/opt/spack/linux-centos8-zen2/gcc-10.2.0/qchem-5.4-akfmr7b3t57bfs6qan3padb2wnb2i7cl/exe/qcprog.exe_s Methylthiophene_Phi_50_Theta_190_Methylthiophene_Hydrogenated.qcin_1862950.0 ./qchem1862950/
                  Welcome to Q-Chem
     A Quantum Leap Into The Future Of Chemistry


 Q-Chem 5.4, Q-Chem, Inc., Pleasanton, CA (2021)

 License issued to: University of California, San Diego (site)

 E. Epifanovsky,  A. T. B. Gilbert,  Xintian Feng,  Joonho Lee,  Yuezhi Mao,  
 N. Mardirossian,  P. Pokhilko,  A. White,  M. Wormit,  M. P. Coons,  
 A. L. Dempwolff,  Zhengting Gan,  D. Hait,  P. R. Horn,  L. D. Jacobson,  
 I. Kaliman,  J. Kussmann,  A. W. Lange,  Ka Un Lao,  D. S. Levine,  Jie Liu,  
 S. C. McKenzie,  A. F. Morrison,  K. Nanda,  F. Plasser,  D. R. Rehn,  
 M. L. Vidal,  Zhi-Qiang You,  Ying Zhu,  B. Alam,  B. Albrecht,  
 A. Aldossary,  E. Alguire,  J. H. Andersen,  D. Barton,  K. Begam,  A. Behn,  
 Y. A. Bernard,  E. J. Berquist,  H. Burton,  A. Carreras,  K. Carter-Fenk,  
 R. Chakraborty,  A. D. Chien,  K. D. Closser,  V. Cofer-Shabica,  
 S. Dasgupta,  Jia Deng,  M. de Wergifosse,  M. Diedenhofen,  Hainam Do,  
 S. Ehlert,  Po-Tung Fang,  S. Fatehi,  Qingguo Feng,  J. Gayvert,  
 Qinghui Ge,  G. Gidofalvi,  M. Goldey,  J. Gomes,  C. Gonzalez-Espinoza,  
 S. Gulania,  A. Gunina,  M. W. D. Hanson-Heine,  P. H. P. Harbach,  
 A. W. Hauser,  M. F. Herbst,  M. Hernandez Vera,  M. Hodecker,  
 Z. C. Holden,  S. Houck,  Xunkun Huang,  Kerwin Hui,  B. C. Huynh,  
 M. Ivanov,  Hyunjun Ji,  Hanjie Jiang,  B. Kaduk,  S. Kaehler,  
 K. Khistyaev,  Jaehoon Kim,  P. Klunzinger,  Z. Koczor-Benda,  
 Joong Hoon Koh,  D. Kosenkov,  L. Koulias,  T. Kowalczyk,  C. M. Krauter,  
 K. Kue,  A. Kunitsa,  T. Kus,  A. Landau,  K. V. Lawler,  D. Lefrancois,  
 S. Lehtola,  Rain Li,  Yi-Pei Li,  Jiashu Liang,  M. Liebenthal,  
 Hung-Hsuan Lin,  You-Sheng Lin,  Fenglai Liu,  Kuan-Yu Liu,  
 M. Loipersberger,  A. Luenser,  A. Manjanath,  P. Manohar,  E. Mansoor,  
 S. F. Manzer,  Shan-Ping Mao,  A. V. Marenich,  T. Markovich,  S. Mason,  
 S. A. Maurer,  P. F. McLaughlin,  M. F. S. J. Menger,  J.-M. Mewes,  
 S. A. Mewes,  P. Morgante,  J. W. Mullinax,  T. S. Nguyen-Beck,  
 K. J. Oosterbaan,  G. Paran,  Alexander C. Paul,  Suranjan K. Paul,  
 F. Pavosevic,  Zheng Pei,  S. Prager,  E. I. Proynov,  E. Ramos,  B. Rana,  
 A. E. Rask,  A. Rettig,  R. M. Richard,  F. Rob,  E. Rossomme,  T. Scheele,  
 M. Scheurer,  M. Schneider,  N. Sergueev,  S. M. Sharada,  W. Skomorowski,  
 D. W. Small,  C. J. Stein,  Yu-Chuan Su,  E. J. Sundstrom,  Zhen Tao,  
 J. Thirman,  T. Tsuchimochi,  N. M. Tubman,  S. P. Veccham,  O. Vydrov,  
 J. Wenzel,  J. Witte,  A. Yamada,  Kun Yao,  S. Yeganeh,  S. R. Yost,  
 A. Zech,  Igor Ying Zhang,  Xing Zhang,  Yu Zhang,  D. Zuev,  
 A. Aspuru-Guzik,  A. T. Bell,  N. A. Besley,  K. B. Bravaya,  B. R. Brooks,  
 D. Casanova,  Jeng-Da Chai,  S. Coriani,  C. J. Cramer,  
 A. E. DePrince, III,  R. A. DiStasio Jr.,  A. Dreuw,  B. D. Dunietz,  
 T. R. Furlani,  W. A. Goddard III,  S. Grimme,  S. Hammes-Schiffer,  
 T. Head-Gordon,  W. J. Hehre,  Chao-Ping Hsu,  T.-C. Jagau,  Yousung Jung,  
 A. Klamt,  Jing Kong,  D. S. Lambrecht,  WanZhen Liang,  N. J. Mayhall,  
 C. W. McCurdy,  J. B. Neaton,  C. Ochsenfeld,  J. A. Parkhill,  R. Peverati,  
 V. A. Rassolov,  Yihan Shao,  L. V. Slipchenko,  T. Stauch,  R. P. Steele,  
 J. E. Subotnik,  A. J. W. Thom,  A. Tkatchenko,  D. G. Truhlar,  
 T. Van Voorhis,  T. A. Wesolowski,  K. B. Whaley,  H. L. Woodcock III,  
 P. M. Zimmerman,  S. Faraji,  P. M. W. Gill,  M. Head-Gordon,  
 J. M. Herbert,  A. I. Krylov

 Contributors to earlier versions of Q-Chem not listed above: 
 R. D. Adamson,  B. Austin,  R. Baer,  J. Baker,  G. J. O. Beran,  
 K. Brandhorst,  S. T. Brown,  E. F. C. Byrd,  A. K. Chakraborty,  
 G. K. L. Chan,  Chun-Min Chang,  Yunqing Chen,  C.-L. Cheng,  
 Siu Hung Chien,  D. M. Chipman,  D. L. Crittenden,  H. Dachsel,  
 R. J. Doerksen,  A. D. Dutoi,  R. G. Edgar,  J. Fosso-Tande,  
 L. Fusti-Molnar,  D. Ghosh,  A. Ghysels,  A. Golubeva-Zadorozhnaya,  
 J. Gonthier,  M. S. Gordon,  S. R. Gwaltney,  G. Hawkins,  J. E. Herr,  
 A. Heyden,  S. Hirata,  E. G. Hohenstein,  G. Kedziora,  F. J. Keil,  
 C. Kelley,  Jihan Kim,  R. A. King,  R. Z. Khaliullin,  P. P. Korambath,  
 W. Kurlancheek,  A. Laurent,  A. M. Lee,  M. S. Lee,  S. V. Levchenko,  
 Ching Yeh Lin,  D. Liotard,  E. Livshits,  R. C. Lochan,  I. Lotan,  
 L. A. Martinez-Martinez,  P. E. Maslen,  N. Nair,  D. P. O'Neill,  
 D. Neuhauser,  E. Neuscamman,  C. M. Oana,  R. Olivares-Amaya,  R. Olson,  
 T. M. Perrine,  B. Peters,  P. A. Pieniazek,  A. Prociuk,  Y. M. Rhee,  
 J. Ritchie,  M. A. Rohrdanz,  E. Rosta,  N. J. Russ,  H. F. Schaefer III,  
 M. W. Schmidt,  N. E. Schultz,  S. Sharma,  N. Shenvi,  C. D. Sherrill,  
 A. C. Simmonett,  A. Sodt,  T. Stein,  D. Stuck,  K. S. Thanthiriwatte,  
 V. Vanovschi,  L. Vogt,  Tao Wang,  A. Warshel,  M. A. Watson,  
 C. F. Williams,  Q. Wu,  X. Xu,  Jun Yang,  W. Zhang,  Yan Zhao

 Please cite Q-Chem as follows:
 Y. Shao et al., Mol. Phys. 113, 184-215 (2015)
 DOI: 10.1080/00268976.2014.952696

 Q-Chem 5.4.0 for Intel X86 EM64T Linux

 Parts of Q-Chem use Armadillo 9.800.1 (Horizon Scraper).
 http://arma.sourceforge.net/

 Q-Chem begins on Sun Jul 10 03:04:53 2022  

 Host: 
0

     Scratch files written to ./qchem1862950//
 May1621 |scratch|qcdevops|jenkins|workspace|build_RNUM    
 Processing $rem in /cm/shared/apps/spack/cpu/opt/spack/linux-centos8-zen2/gcc-10.2.0/qchem-5.4-akfmr7b3t57bfs6qan3padb2wnb2i7cl/config/preferences:
 Processing $rem in /home/theleonzhang/.qchemrc:
 Symmetry turned off for PCM/SM12/SMD calculation
 Core orbitals will be frozen

 Checking the input file for inconsistencies... 	...done.

--------------------------------------------------------------
User input:
--------------------------------------------------------------
$molecule
0 1
C	0.135301	-3.866725	-0.763228
C	-0.106073	-3.703963	0.603311
C	-0.185286	-2.357056	1.050423
H	-0.225783	-4.561092	1.283188
C	0.000000	-1.440664	0.000000
S	0.268187	-2.286957	-1.521021
C	-0.438209	-1.978743	2.483507
H	-0.550153	-2.878678	3.118798
H	-1.363906	-1.376015	2.593381
H	0.393798	-1.375728	2.903516
C	0.000000	0.000000	0.000000
C	0.661577	0.555087	1.099446
C	1.721724	1.444630	0.776721
H	0.379056	0.318032	2.136088
C	1.890772	1.586449	-0.612546
S	0.721935	0.605744	-1.486809
C	2.555004	2.143805	1.814609
H	2.228946	1.870211	2.836676
H	2.482605	3.247987	1.726239
H	3.629830	1.880735	1.726228
H	2.617927	2.196579	-1.161575
H	-0.688674	-4.392713	-1.258111
H	1.079084	-4.392347	-0.946272
H	-1.063572	-1.440937	-0.187654
$end

$rem
JOBTYPE		SP
EXCHANGE	HF
CORRELATION	pRIMP2
BASIS		cc-pvtz
METHOD		rimp2
AUX_BASIS	rimp2-cc-pvtz
SOLVENT_METHOD	PCM
PURECART	11111
SYMMETRY	false
MEM_TOTAL	110000
SCF_CONVERGENCE = 6
THRESH=10
$end



$solvent
dielectric 4.90
$end
--------------------------------------------------------------
 ----------------------------------------------------------------
             Standard Nuclear Orientation (Angstroms)
    I     Atom           X                Y                Z
 ----------------------------------------------------------------
    1      C       0.1353010000    -3.8667250000    -0.7632280000
    2      C      -0.1060730000    -3.7039630000     0.6033110000
    3      C      -0.1852860000    -2.3570560000     1.0504230000
    4      H      -0.2257830000    -4.5610920000     1.2831880000
    5      C       0.0000000000    -1.4406640000     0.0000000000
    6      S       0.2681870000    -2.2869570000    -1.5210210000
    7      C      -0.4382090000    -1.9787430000     2.4835070000
    8      H      -0.5501530000    -2.8786780000     3.1187980000
    9      H      -1.3639060000    -1.3760150000     2.5933810000
   10      H       0.3937980000    -1.3757280000     2.9035160000
   11      C       0.0000000000     0.0000000000     0.0000000000
   12      C       0.6615770000     0.5550870000     1.0994460000
   13      C       1.7217240000     1.4446300000     0.7767210000
   14      H       0.3790560000     0.3180320000     2.1360880000
   15      C       1.8907720000     1.5864490000    -0.6125460000
   16      S       0.7219350000     0.6057440000    -1.4868090000
   17      C       2.5550040000     2.1438050000     1.8146090000
   18      H       2.2289460000     1.8702110000     2.8366760000
   19      H       2.4826050000     3.2479870000     1.7262390000
   20      H       3.6298300000     1.8807350000     1.7262280000
   21      H       2.6179270000     2.1965790000    -1.1615750000
   22      H      -0.6886740000    -4.3927130000    -1.2581110000
   23      H       1.0790840000    -4.3923470000    -0.9462720000
   24      H      -1.0635720000    -1.4409370000    -0.1876540000
 ----------------------------------------------------------------
 Nuclear Repulsion Energy =         895.21489208 hartrees
 There are       52 alpha and       52 beta electrons

 Q-Chem warning in module forms1/BasisType.C, line 2236:

 You are not using the predefined 5D/6D in this basis set.

 Requested basis set is cc-pVTZ
 There are 196 shells and 536 basis functions

 Total QAlloc Memory Limit 110000 MB
 Mega-Array Size       188 MB
 MEM_STATIC part       192 MB
 Discretize the solute cavity surface with Lebedev spheres
	Using 110 Lebedev grid points for each H atom
	Using 194 Lebedev grid points for other atoms
	Atomic van der Waals radii will be scaled by 1.20
 Remove points where switching function is < 1.0e-08
 Keep 1567 surface tesserae and discard 2081 interior tesserae
 Molecular Surface Area = 227.118 Angst**2
 Requested basis set is rimp2-cc-pVTZ
 There are 414 shells and 1414 basis functions
 A cutoff of  1.0D-10 yielded  14446 shell pairs
 There are    104728 function pairs (    134222 Cartesian)
 Smallest overlap matrix eigenvalue = 6.80E-05

 Scale SEOQF with 1.000000e-01/1.000000e-01/1.000000e-01

 Standard Electronic Orientation quadrupole field applied
 Nucleus-field energy     =     0.0000000173 hartrees
 Guess from superposition of atomic densities
 Warning:  Energy on first SCF cycle will be non-variational
 SAD guess density has 104.000000 electrons

 -----------------------------------------------------------------------
  General SCF calculation program by
  Eric Jon Sundstrom, Paul Horn, Yuezhi Mao, Dmitri Zuev, Alec White,
  David Stuck, Shaama M.S., Shane Yost, Joonho Lee, David Small,
  Daniel Levine, Susi Lehtola, Hugh Burton, Evgeny Epifanovsky,
  Bang C. Huynh
 -----------------------------------------------------------------------
 Hartree-Fock
 A restricted SCF calculation will be
 performed using DIIS
 SCF converges when DIIS error is below 1.0e-06
 ---------------------------------------
  Cycle       Energy         DIIS error
 ---------------------------------------
    1   -1186.1583705106      2.40e-02  
    2   -1180.5410897638      1.55e-03  
    3   -1180.6684813351      5.79e-04  
    4   -1180.6826973789      3.12e-04  
    5   -1180.6873822204      6.56e-05  
    6   -1180.6877067470      2.79e-05  
    7   -1180.6878069481      1.33e-05  
    8   -1180.6878393747      6.49e-06  
    9   -1180.6878495311      2.84e-06  
   10   -1180.6878513334      1.10e-06  
   11   -1180.6878516187      5.23e-07  Convergence criterion met
 ---------------------------------------
 SCF time:   CPU 656.78s  wall 659.00s 

************** Final PCM Free Energy Summary **************
 G_electrostatic  =      -0.00977940 hartree =      -6.13666787 kcal/mol
 G_cavitation     =       0.00000000 hartree =       0.00000000 kcal/mol
 G_dispersion     =       0.00000000 hartree =       0.00000000 kcal/mol
 G_repulsion      =       0.00000000 hartree =       0.00000000 kcal/mol
 --------------------------------------------------
 Non-electrostatic Free Energy =       0.00000000 hartree =       0.00000000 kcal/mol
 Total                         =      -0.00977940 hartree =      -6.13666787 kcal/mol
 --------------------------------------------------
 SCF Energy (H0 + V/2)                       =   -1180.68785162 
 Solute Internal Energy (H0)                 =   -1180.67807222 
 Total Free Energy (H0 + V/2 + non-elec)     =   -1180.68785162 hartree
                                             = -740892.80918540 kcal/mol
***********************************************************

 SCF   energy in the final basis set =    -1180.6878516187
 Total energy in the final basis set =    -1180.6878516187


 --------------------------------------------------------------
  Generalized many-body perturbation theory program
  by Joonho Lee, Fazle Rob, Xintian Feng, Evgeny Epifanovsky

 No regularization used 
 (reg. param. = 0.0000e+00)
  (P|Q)^-1/2 Time:  CPU 1.89 s  wall 1.89 s

 In RI-MP2 calculation: 
 # of frozen core orbitals: 20

 Components of the RIMP2 correlation energy:
        aaaa    correlation energy =        -0.2548199297 a.u.
        abab    correlation energy =        -1.5140240727 a.u.
        bbbb    correlation energy =        -0.2548199297 a.u.
        non-Brillouin singles      =        -0.0000000000 a.u.
        total same-spin energy     =        -0.5096398594 a.u.
        total opposite-spin energy =        -1.5140240727 a.u.

 Total  RIMP2   correlation energy =        -2.0236639321 a.u.
        RIMP2         total energy =     -1182.7115155508 a.u.

 RI-MP2 Energy Time:  CPU 80.33 s  wall 80.59 s
 
 --------------------------------------------------------------
 
                    Orbital Energies (a.u.)
 --------------------------------------------------------------
 
 Alpha MOs
 -- Occupied --
-91.9800 -91.9405 -11.2735 -11.2636 -11.2618 -11.2508 -11.2489 -11.2455
-11.2377 -11.2326 -11.2293 -11.2145  -8.9807  -8.9451  -6.6615  -6.6607
 -6.6603  -6.6264  -6.6254  -6.6241  -1.2021  -1.1527  -1.0576  -1.0320
 -0.9975  -0.9651  -0.9127  -0.9004  -0.8142  -0.7591  -0.7337  -0.7087
 -0.6504  -0.6410  -0.6104  -0.5949  -0.5869  -0.5681  -0.5656  -0.5482
 -0.5446  -0.5346  -0.5209  -0.5050  -0.4806  -0.4768  -0.4544  -0.4347
 -0.3611  -0.3391  -0.3216  -0.2534
 -- Virtual --
  0.0683   0.1326   0.1406   0.1501   0.1593   0.1706   0.1781   0.1821
  0.1860   0.2037   0.2102   0.2177   0.2240   0.2302   0.2396   0.2424
  0.2551   0.2664   0.2791   0.3095   0.3113   0.3191   0.3356   0.3636
  0.3689   0.3694   0.3856   0.3981   0.4018   0.4086   0.4210   0.4264
  0.4301   0.4404   0.4596   0.4669   0.4763   0.4800   0.4867   0.4943
  0.5030   0.5130   0.5210   0.5274   0.5394   0.5447   0.5580   0.5593
  0.5735   0.5781   0.5911   0.5954   0.6061   0.6071   0.6142   0.6171
  0.6244   0.6286   0.6308   0.6347   0.6428   0.6505   0.6541   0.6614
  0.6733   0.6813   0.6856   0.6858   0.7011   0.7111   0.7191   0.7222
  0.7399   0.7504   0.7538   0.7736   0.7859   0.7932   0.8114   0.8196
  0.8349   0.8541   0.8606   0.8680   0.8743   0.8935   0.8985   0.9087
  0.9229   0.9414   0.9554   0.9634   0.9723   0.9760   1.0005   1.0197
  1.0236   1.0343   1.0359   1.0524   1.0559   1.0686   1.0773   1.0825
  1.0887   1.1022   1.1114   1.1310   1.1506   1.1510   1.1610   1.1758
  1.1842   1.1925   1.2066   1.2101   1.2204   1.2248   1.2391   1.2429
  1.2547   1.2587   1.2627   1.2768   1.2814   1.3021   1.3060   1.3186
  1.3273   1.3320   1.3467   1.3654   1.3807   1.3947   1.4092   1.4146
  1.4222   1.4256   1.4396   1.4516   1.4739   1.4778   1.4930   1.5038
  1.5088   1.5172   1.5296   1.5339   1.5455   1.5490   1.5518   1.5592
  1.5743   1.5773   1.6030   1.6092   1.6239   1.6275   1.6456   1.6507
  1.6581   1.6642   1.6746   1.6945   1.7019   1.7074   1.7233   1.7356
  1.7509   1.7618   1.7963   1.8065   1.8104   1.8163   1.8425   1.8757
  1.8838   1.8855   1.9207   1.9361   1.9581   1.9870   2.0043   2.0119
  2.0294   2.0349   2.0641   2.0811   2.0902   2.1258   2.1320   2.1548
  2.1819   2.2042   2.2146   2.2244   2.2364   2.2380   2.2623   2.2839
  2.2884   2.3063   2.3582   2.4101   2.4166   2.4431   2.4531   2.4631
  2.4956   2.5107   2.5366   2.5462   2.5765   2.5911   2.6134   2.6169
  2.6380   2.6570   2.6630   2.6734   2.6832   2.6893   2.7186   2.7298
  2.7471   2.7593   2.7640   2.7678   2.7904   2.7923   2.8176   2.8256
  2.8351   2.8474   2.8639   2.8790   2.8909   2.9220   2.9253   2.9406
  2.9559   2.9706   2.9856   2.9917   3.0153   3.0235   3.0278   3.0373
  3.0568   3.0751   3.0990   3.1097   3.1158   3.1293   3.1404   3.1415
  3.1512   3.1557   3.1727   3.1811   3.1892   3.2018   3.2053   3.2152
  3.2369   3.2382   3.2555   3.2640   3.2737   3.2780   3.2958   3.3010
  3.3153   3.3221   3.3322   3.3386   3.3496   3.3525   3.3599   3.3617
  3.3725   3.3794   3.3973   3.4062   3.4095   3.4208   3.4290   3.4387
  3.4443   3.4489   3.4628   3.4707   3.4768   3.4967   3.5057   3.5126
  3.5212   3.5305   3.5344   3.5428   3.5558   3.5638   3.5704   3.5760
  3.5933   3.6103   3.6116   3.6328   3.6343   3.6491   3.6561   3.6718
  3.6779   3.6923   3.7059   3.7108   3.7239   3.7347   3.7393   3.7413
  3.7681   3.7750   3.7820   3.7971   3.7980   3.8057   3.8223   3.8293
  3.8488   3.8545   3.8671   3.8709   3.8805   3.8935   3.9098   3.9209
  3.9547   3.9641   3.9728   3.9740   4.0043   4.0149   4.0217   4.0304
  4.0380   4.0559   4.0644   4.0662   4.0798   4.0977   4.1114   4.1199
  4.1310   4.1412   4.1551   4.1650   4.1699   4.1809   4.1960   4.2032
  4.2143   4.2241   4.2378   4.2487   4.2617   4.2636   4.2866   4.2924
  4.3077   4.3120   4.3318   4.3427   4.3498   4.3571   4.3677   4.3816
  4.4025   4.4090   4.4142   4.4272   4.4354   4.4415   4.4564   4.4594
  4.4708   4.4777   4.4855   4.4978   4.5038   4.5270   4.5548   4.5818
  4.5924   4.6140   4.6240   4.6278   4.6423   4.6664   4.6677   4.7080
  4.7177   4.7245   4.7526   4.7716   4.8074   4.8197   4.8379   4.8518
  4.8836   4.8952   4.9216   4.9255   4.9355   4.9551   4.9819   5.0002
  5.0490   5.0676   5.0869   5.0994   5.1149   5.1279   5.1359   5.1770
  5.1998   5.2124   5.2323   5.2746   5.2837   5.2959   5.3144   5.3198
  5.3440   5.3735   5.3805   5.4075   5.4126   5.4393   5.4444   5.4557
  5.4872   5.5072   5.5345   5.5448   5.5501   5.5664   5.5839   5.5982
  5.6145   5.6218   5.6368   5.6673   5.6848   5.6974   5.7146   5.7196
  5.7779   5.8136   5.8333   5.9969   6.0277   6.0472   6.1204   6.1536
  6.2153   6.2280   6.2351   6.2412   6.2692   6.2779   6.3031   6.3188
  6.3944   6.4352   9.5090  10.4748  12.3923  12.8477  13.1763  13.9241
 14.1339  14.2252  14.3059  14.7392
 --------------------------------------------------------------
 
          Ground-State Mulliken Net Atomic Charges

     Atom                 Charge (a.u.)
  ----------------------------------------
      1 C                    -0.079684
      2 C                    -0.336190
      3 C                    -0.032038
      4 H                     0.174743
      5 C                     0.081057
      6 S                    -0.184026
      7 C                    -0.294499
      8 H                     0.119748
      9 H                     0.110022
     10 H                     0.100443
     11 C                    -0.108818
     12 C                    -0.202654
     13 C                     0.009390
     14 H                     0.196773
     15 C                    -0.216927
     16 S                     0.020262
     17 C                    -0.269679
     18 H                     0.100760
     19 H                     0.108386
     20 H                     0.106321
     21 H                     0.199552
     22 H                     0.108319
     23 H                     0.110364
     24 H                     0.178377
  ----------------------------------------
  Sum of atomic charges =     0.000000

 -----------------------------------------------------------------
                    Cartesian Multipole Moments
 -----------------------------------------------------------------
    Charge (ESU x 10^10)
                -0.0000
    Dipole Moment (Debye)
         X       0.6883      Y       0.4474      Z       3.6380
       Tot       3.7295
    Quadrupole Moments (Debye-Ang)
        XX     -85.1135     XY       7.4584     YY     -81.3550
        XZ       0.6160     YZ      -2.4855     ZZ     -85.1206
    Octopole Moments (Debye-Ang^2)
       XXX    -145.1215    XXY      88.0070    XYY     -43.4694
       YYY     180.6880    XXZ      -5.1128    XYZ      -1.4271
       YYZ      -4.5753    XZZ     -48.8909    YZZ      72.9928
       ZZZ       8.4043
    Hexadecapole Moments (Debye-Ang^3)
      XXXX    -704.5469   XXXY    -213.1521   XXYY    -526.6561
      XYYY    -223.4305   YYYY   -2328.0046   XXXZ     -29.6389
      XXYZ     -27.0569   XYYZ     -18.3180   YYYZ     -60.8127
      XXZZ    -300.0320   XYZZ     -61.7300   YYZZ    -580.5700
      XZZZ     -28.8025   YZZZ     -94.1417   ZZZZ   -1079.3381
 -----------------------------------------------------------------
 Total job time:  741.64s(wall), 738.01s(cpu) 
 Sun Jul 10 03:17:14 2022

        *************************************************************
        *                                                           *
        *  Thank you very much for using Q-Chem.  Have a nice day.  *
        *                                                           *
        *************************************************************


remove work dirs ./qchem1862950.0 -- ./qchem1862950.-1
rm -rf ./qchem1862950
