You are running Q-Chem version: 5.4.0

#
# job setting
#
local host:  exp-2-07
current dir: /expanse/lustre/scratch/theleonzhang/temp_project/Hydrogenated_Rotation_Test
input file:  Methylthiophene_Phi_30_Theta_180_Methylthiophene_Hydrogenated.qcin
output file: 
nprocs     : 0
nthreads   : 1
#
# qchem installation setting
#
QC:          /cm/shared/apps/spack/cpu/opt/spack/linux-centos8-zen2/gcc-10.2.0/qchem-5.4-akfmr7b3t57bfs6qan3padb2wnb2i7cl
QCAUX:       /cm/shared/apps/spack/cpu/opt/spack/linux-centos8-zen2/gcc-10.2.0/qchem-5.4-akfmr7b3t57bfs6qan3padb2wnb2i7cl/qcaux
QCPROG:      /cm/shared/apps/spack/cpu/opt/spack/linux-centos8-zen2/gcc-10.2.0/qchem-5.4-akfmr7b3t57bfs6qan3padb2wnb2i7cl/exe/qcprog.exe_s
QCPROG_S:    /cm/shared/apps/spack/cpu/opt/spack/linux-centos8-zen2/gcc-10.2.0/qchem-5.4-akfmr7b3t57bfs6qan3padb2wnb2i7cl/exe/qcprog.exe_s
PARALLEL:    -DSERIAL
QCMPI:       mpich
#
# qchem directory setting
#
qcrun:       qchem763938
QCSCRATCH:   .
QCLOCALSCR:  
QCTMPDIR:    .
QCFILEPREF:  ./qchem763938
QCSAVEDIR:   
workdirs:    ./qchem763938
workdir0:    ./qchem763938
partmpdirs =  
#
# parallel setting
#
QCRSH:           ssh
QCMPI:           mpich
QCMPIRUN:        /cm/shared/apps/spack/cpu/opt/spack/linux-centos8-zen2/gcc-10.2.0/qchem-5.4-akfmr7b3t57bfs6qan3padb2wnb2i7cl/bin/mpi/mpirun_qchem
QCMACHINEFILE:   ./qchem763938/hostfile

#
# env setting
#
exported envs:   QC QCAUX QCSCRATCH QCRUNNAME QCFILEPREF QCPROG QCPROG_S GUIFILE

Running Job 1 of 1 Methylthiophene_Phi_30_Theta_180_Methylthiophene_Hydrogenated.qcin
qchem Methylthiophene_Phi_30_Theta_180_Methylthiophene_Hydrogenated.qcin_763938.0 ./qchem763938/ 0
/cm/shared/apps/spack/cpu/opt/spack/linux-centos8-zen2/gcc-10.2.0/qchem-5.4-akfmr7b3t57bfs6qan3padb2wnb2i7cl/exe/qcprog.exe_s Methylthiophene_Phi_30_Theta_180_Methylthiophene_Hydrogenated.qcin_763938.0 ./qchem763938/
                  Welcome to Q-Chem
     A Quantum Leap Into The Future Of Chemistry


 Q-Chem 5.4, Q-Chem, Inc., Pleasanton, CA (2021)

 License issued to: University of California, San Diego (site)

 E. Epifanovsky,  A. T. B. Gilbert,  Xintian Feng,  Joonho Lee,  Yuezhi Mao,  
 N. Mardirossian,  P. Pokhilko,  A. White,  M. Wormit,  M. P. Coons,  
 A. L. Dempwolff,  Zhengting Gan,  D. Hait,  P. R. Horn,  L. D. Jacobson,  
 I. Kaliman,  J. Kussmann,  A. W. Lange,  Ka Un Lao,  D. S. Levine,  Jie Liu,  
 S. C. McKenzie,  A. F. Morrison,  K. Nanda,  F. Plasser,  D. R. Rehn,  
 M. L. Vidal,  Zhi-Qiang You,  Ying Zhu,  B. Alam,  B. Albrecht,  
 A. Aldossary,  E. Alguire,  J. H. Andersen,  D. Barton,  K. Begam,  A. Behn,  
 Y. A. Bernard,  E. J. Berquist,  H. Burton,  A. Carreras,  K. Carter-Fenk,  
 R. Chakraborty,  A. D. Chien,  K. D. Closser,  V. Cofer-Shabica,  
 S. Dasgupta,  Jia Deng,  M. de Wergifosse,  M. Diedenhofen,  Hainam Do,  
 S. Ehlert,  Po-Tung Fang,  S. Fatehi,  Qingguo Feng,  J. Gayvert,  
 Qinghui Ge,  G. Gidofalvi,  M. Goldey,  J. Gomes,  C. Gonzalez-Espinoza,  
 S. Gulania,  A. Gunina,  M. W. D. Hanson-Heine,  P. H. P. Harbach,  
 A. W. Hauser,  M. F. Herbst,  M. Hernandez Vera,  M. Hodecker,  
 Z. C. Holden,  S. Houck,  Xunkun Huang,  Kerwin Hui,  B. C. Huynh,  
 M. Ivanov,  Hyunjun Ji,  Hanjie Jiang,  B. Kaduk,  S. Kaehler,  
 K. Khistyaev,  Jaehoon Kim,  P. Klunzinger,  Z. Koczor-Benda,  
 Joong Hoon Koh,  D. Kosenkov,  L. Koulias,  T. Kowalczyk,  C. M. Krauter,  
 K. Kue,  A. Kunitsa,  T. Kus,  A. Landau,  K. V. Lawler,  D. Lefrancois,  
 S. Lehtola,  Rain Li,  Yi-Pei Li,  Jiashu Liang,  M. Liebenthal,  
 Hung-Hsuan Lin,  You-Sheng Lin,  Fenglai Liu,  Kuan-Yu Liu,  
 M. Loipersberger,  A. Luenser,  A. Manjanath,  P. Manohar,  E. Mansoor,  
 S. F. Manzer,  Shan-Ping Mao,  A. V. Marenich,  T. Markovich,  S. Mason,  
 S. A. Maurer,  P. F. McLaughlin,  M. F. S. J. Menger,  J.-M. Mewes,  
 S. A. Mewes,  P. Morgante,  J. W. Mullinax,  T. S. Nguyen-Beck,  
 K. J. Oosterbaan,  G. Paran,  Alexander C. Paul,  Suranjan K. Paul,  
 F. Pavosevic,  Zheng Pei,  S. Prager,  E. I. Proynov,  E. Ramos,  B. Rana,  
 A. E. Rask,  A. Rettig,  R. M. Richard,  F. Rob,  E. Rossomme,  T. Scheele,  
 M. Scheurer,  M. Schneider,  N. Sergueev,  S. M. Sharada,  W. Skomorowski,  
 D. W. Small,  C. J. Stein,  Yu-Chuan Su,  E. J. Sundstrom,  Zhen Tao,  
 J. Thirman,  T. Tsuchimochi,  N. M. Tubman,  S. P. Veccham,  O. Vydrov,  
 J. Wenzel,  J. Witte,  A. Yamada,  Kun Yao,  S. Yeganeh,  S. R. Yost,  
 A. Zech,  Igor Ying Zhang,  Xing Zhang,  Yu Zhang,  D. Zuev,  
 A. Aspuru-Guzik,  A. T. Bell,  N. A. Besley,  K. B. Bravaya,  B. R. Brooks,  
 D. Casanova,  Jeng-Da Chai,  S. Coriani,  C. J. Cramer,  
 A. E. DePrince, III,  R. A. DiStasio Jr.,  A. Dreuw,  B. D. Dunietz,  
 T. R. Furlani,  W. A. Goddard III,  S. Grimme,  S. Hammes-Schiffer,  
 T. Head-Gordon,  W. J. Hehre,  Chao-Ping Hsu,  T.-C. Jagau,  Yousung Jung,  
 A. Klamt,  Jing Kong,  D. S. Lambrecht,  WanZhen Liang,  N. J. Mayhall,  
 C. W. McCurdy,  J. B. Neaton,  C. Ochsenfeld,  J. A. Parkhill,  R. Peverati,  
 V. A. Rassolov,  Yihan Shao,  L. V. Slipchenko,  T. Stauch,  R. P. Steele,  
 J. E. Subotnik,  A. J. W. Thom,  A. Tkatchenko,  D. G. Truhlar,  
 T. Van Voorhis,  T. A. Wesolowski,  K. B. Whaley,  H. L. Woodcock III,  
 P. M. Zimmerman,  S. Faraji,  P. M. W. Gill,  M. Head-Gordon,  
 J. M. Herbert,  A. I. Krylov

 Contributors to earlier versions of Q-Chem not listed above: 
 R. D. Adamson,  B. Austin,  R. Baer,  J. Baker,  G. J. O. Beran,  
 K. Brandhorst,  S. T. Brown,  E. F. C. Byrd,  A. K. Chakraborty,  
 G. K. L. Chan,  Chun-Min Chang,  Yunqing Chen,  C.-L. Cheng,  
 Siu Hung Chien,  D. M. Chipman,  D. L. Crittenden,  H. Dachsel,  
 R. J. Doerksen,  A. D. Dutoi,  R. G. Edgar,  J. Fosso-Tande,  
 L. Fusti-Molnar,  D. Ghosh,  A. Ghysels,  A. Golubeva-Zadorozhnaya,  
 J. Gonthier,  M. S. Gordon,  S. R. Gwaltney,  G. Hawkins,  J. E. Herr,  
 A. Heyden,  S. Hirata,  E. G. Hohenstein,  G. Kedziora,  F. J. Keil,  
 C. Kelley,  Jihan Kim,  R. A. King,  R. Z. Khaliullin,  P. P. Korambath,  
 W. Kurlancheek,  A. Laurent,  A. M. Lee,  M. S. Lee,  S. V. Levchenko,  
 Ching Yeh Lin,  D. Liotard,  E. Livshits,  R. C. Lochan,  I. Lotan,  
 L. A. Martinez-Martinez,  P. E. Maslen,  N. Nair,  D. P. O'Neill,  
 D. Neuhauser,  E. Neuscamman,  C. M. Oana,  R. Olivares-Amaya,  R. Olson,  
 T. M. Perrine,  B. Peters,  P. A. Pieniazek,  A. Prociuk,  Y. M. Rhee,  
 J. Ritchie,  M. A. Rohrdanz,  E. Rosta,  N. J. Russ,  H. F. Schaefer III,  
 M. W. Schmidt,  N. E. Schultz,  S. Sharma,  N. Shenvi,  C. D. Sherrill,  
 A. C. Simmonett,  A. Sodt,  T. Stein,  D. Stuck,  K. S. Thanthiriwatte,  
 V. Vanovschi,  L. Vogt,  Tao Wang,  A. Warshel,  M. A. Watson,  
 C. F. Williams,  Q. Wu,  X. Xu,  Jun Yang,  W. Zhang,  Yan Zhao

 Please cite Q-Chem as follows:
 Y. Shao et al., Mol. Phys. 113, 184-215 (2015)
 DOI: 10.1080/00268976.2014.952696

 Q-Chem 5.4.0 for Intel X86 EM64T Linux

 Parts of Q-Chem use Armadillo 9.800.1 (Horizon Scraper).
 http://arma.sourceforge.net/

 Q-Chem begins on Sun Jul 10 02:28:03 2022  

 Host: 
0

     Scratch files written to ./qchem763938//
 May1621 |scratch|qcdevops|jenkins|workspace|build_RNUM    
 Processing $rem in /cm/shared/apps/spack/cpu/opt/spack/linux-centos8-zen2/gcc-10.2.0/qchem-5.4-akfmr7b3t57bfs6qan3padb2wnb2i7cl/config/preferences:
 Processing $rem in /home/theleonzhang/.qchemrc:
 Symmetry turned off for PCM/SM12/SMD calculation
 Core orbitals will be frozen

 Checking the input file for inconsistencies... 	...done.

--------------------------------------------------------------
User input:
--------------------------------------------------------------
$molecule
0 1
C	0.000713	-3.866725	-0.775127
C	0.000302	-3.703963	0.612565
C	-0.000067	-2.357056	1.066639
H	0.000470	-4.561092	1.302900
C	-0.000000	-1.440664	-0.000000
S	-0.000009	-2.286957	-1.544483
C	-0.000295	-1.978743	2.521872
H	-0.000221	-2.878678	3.166949
H	-0.892850	-1.376015	2.790821
H	0.892005	-1.375728	2.791023
C	0.000000	0.000000	0.000000
C	0.431829	0.747884	1.099446
C	1.123799	1.946373	0.776721
H	0.247423	0.428497	2.136088
C	1.234147	2.137457	-0.612546
S	0.471221	0.816130	-1.486809
C	1.667694	2.888380	1.814609
H	1.454874	2.519768	2.836676
H	1.222009	3.901210	1.726239
H	2.767675	3.008788	1.726228
H	1.708773	2.959493	-1.161575
H	-0.896681	-4.392713	-1.119411
H	0.898372	-4.392347	-1.119277
H	-1.080000	-1.440937	-0.000115
$end

$rem
JOBTYPE		SP
EXCHANGE	HF
CORRELATION	pRIMP2
BASIS		cc-pvtz
METHOD		rimp2
AUX_BASIS	rimp2-cc-pvtz
SOLVENT_METHOD	PCM
PURECART	11111
SYMMETRY	false
MEM_TOTAL	110000
SCF_CONVERGENCE = 6
THRESH=10
$end



$solvent
dielectric 4.90
$end
--------------------------------------------------------------
 ----------------------------------------------------------------
             Standard Nuclear Orientation (Angstroms)
    I     Atom           X                Y                Z
 ----------------------------------------------------------------
    1      C       0.0007130000    -3.8667250000    -0.7751270000
    2      C       0.0003020000    -3.7039630000     0.6125650000
    3      C      -0.0000670000    -2.3570560000     1.0666390000
    4      H       0.0004700000    -4.5610920000     1.3029000000
    5      C       0.0000000000    -1.4406640000     0.0000000000
    6      S      -0.0000090000    -2.2869570000    -1.5444830000
    7      C      -0.0002950000    -1.9787430000     2.5218720000
    8      H      -0.0002210000    -2.8786780000     3.1669490000
    9      H      -0.8928500000    -1.3760150000     2.7908210000
   10      H       0.8920050000    -1.3757280000     2.7910230000
   11      C       0.0000000000     0.0000000000     0.0000000000
   12      C       0.4318290000     0.7478840000     1.0994460000
   13      C       1.1237990000     1.9463730000     0.7767210000
   14      H       0.2474230000     0.4284970000     2.1360880000
   15      C       1.2341470000     2.1374570000    -0.6125460000
   16      S       0.4712210000     0.8161300000    -1.4868090000
   17      C       1.6676940000     2.8883800000     1.8146090000
   18      H       1.4548740000     2.5197680000     2.8366760000
   19      H       1.2220090000     3.9012100000     1.7262390000
   20      H       2.7676750000     3.0087880000     1.7262280000
   21      H       1.7087730000     2.9594930000    -1.1615750000
   22      H      -0.8966810000    -4.3927130000    -1.1194110000
   23      H       0.8983720000    -4.3923470000    -1.1192770000
   24      H      -1.0800000000    -1.4409370000    -0.0001150000
 ----------------------------------------------------------------
 Nuclear Repulsion Energy =         882.55298807 hartrees
 There are       52 alpha and       52 beta electrons

 Q-Chem warning in module forms1/BasisType.C, line 2236:

 You are not using the predefined 5D/6D in this basis set.

 Requested basis set is cc-pVTZ
 There are 196 shells and 536 basis functions

 Total QAlloc Memory Limit 110000 MB
 Mega-Array Size       188 MB
 MEM_STATIC part       192 MB
 Discretize the solute cavity surface with Lebedev spheres
	Using 110 Lebedev grid points for each H atom
	Using 194 Lebedev grid points for other atoms
	Atomic van der Waals radii will be scaled by 1.20
 Remove points where switching function is < 1.0e-08
 Keep 1557 surface tesserae and discard 2091 interior tesserae
 Molecular Surface Area = 230.518 Angst**2
 Requested basis set is rimp2-cc-pVTZ
 There are 414 shells and 1414 basis functions
 A cutoff of  1.0D-10 yielded  14194 shell pairs
 There are    102700 function pairs (    131548 Cartesian)
 Smallest overlap matrix eigenvalue = 6.20E-05

 Scale SEOQF with 1.000000e-01/1.000000e-01/1.000000e-01

 Standard Electronic Orientation quadrupole field applied
 Nucleus-field energy     =     0.0000000193 hartrees
 Guess from superposition of atomic densities
 Warning:  Energy on first SCF cycle will be non-variational
 SAD guess density has 104.000000 electrons

 -----------------------------------------------------------------------
  General SCF calculation program by
  Eric Jon Sundstrom, Paul Horn, Yuezhi Mao, Dmitri Zuev, Alec White,
  David Stuck, Shaama M.S., Shane Yost, Joonho Lee, David Small,
  Daniel Levine, Susi Lehtola, Hugh Burton, Evgeny Epifanovsky,
  Bang C. Huynh
 -----------------------------------------------------------------------
 Hartree-Fock
 A restricted SCF calculation will be
 performed using DIIS
 SCF converges when DIIS error is below 1.0e-06
 ---------------------------------------
  Cycle       Energy         DIIS error
 ---------------------------------------
    1   -1186.0883221143      2.39e-02  
    2   -1180.5825668745      1.58e-03  
    3   -1180.7094717812      6.38e-04  
    4   -1180.7250458682      3.41e-04  
    5   -1180.7305172989      6.24e-05  
    6   -1180.7307930303      2.59e-05  
    7   -1180.7308617842      9.84e-06  
    8   -1180.7308779074      4.66e-06  
    9   -1180.7308818231      1.71e-06  
   10   -1180.7308824396      5.92e-07  Convergence criterion met
 ---------------------------------------
 SCF time:   CPU 585.46s  wall 588.00s 

************** Final PCM Free Energy Summary **************
 G_electrostatic  =      -0.00970319 hartree =      -6.08884674 kcal/mol
 G_cavitation     =       0.00000000 hartree =       0.00000000 kcal/mol
 G_dispersion     =       0.00000000 hartree =       0.00000000 kcal/mol
 G_repulsion      =       0.00000000 hartree =       0.00000000 kcal/mol
 --------------------------------------------------
 Non-electrostatic Free Energy =       0.00000000 hartree =       0.00000000 kcal/mol
 Total                         =      -0.00970319 hartree =      -6.08884674 kcal/mol
 --------------------------------------------------
 SCF Energy (H0 + V/2)                       =   -1180.73088244 
 Solute Internal Energy (H0)                 =   -1180.72117924 
 Total Free Energy (H0 + V/2 + non-elec)     =   -1180.73088244 hartree
                                             = -740919.81143305 kcal/mol
***********************************************************

 SCF   energy in the final basis set =    -1180.7308824396
 Total energy in the final basis set =    -1180.7308824396


 --------------------------------------------------------------
  Generalized many-body perturbation theory program
  by Joonho Lee, Fazle Rob, Xintian Feng, Evgeny Epifanovsky

 No regularization used 
 (reg. param. = 0.0000e+00)
  (P|Q)^-1/2 Time:  CPU 1.88 s  wall 1.89 s

 In RI-MP2 calculation: 
 # of frozen core orbitals: 20

 Components of the RIMP2 correlation energy:
        aaaa    correlation energy =        -0.2528638287 a.u.
        abab    correlation energy =        -1.5075147319 a.u.
        bbbb    correlation energy =        -0.2528638287 a.u.
        non-Brillouin singles      =        -0.0000000000 a.u.
        total same-spin energy     =        -0.5057276573 a.u.
        total opposite-spin energy =        -1.5075147319 a.u.

 Total  RIMP2   correlation energy =        -2.0132423892 a.u.
        RIMP2         total energy =     -1182.7441248289 a.u.

 RI-MP2 Energy Time:  CPU 79.76 s  wall 79.99 s
 
 --------------------------------------------------------------
 
                    Orbital Energies (a.u.)
 --------------------------------------------------------------
 
 Alpha MOs
 -- Occupied --
-91.9820 -91.9447 -11.2813 -11.2655 -11.2596 -11.2567 -11.2499 -11.2428
-11.2337 -11.2337 -11.2283 -11.2205  -8.9819  -8.9493  -6.6629  -6.6622
 -6.6616  -6.6307  -6.6297  -6.6284  -1.2017  -1.1524  -1.0592  -1.0322
 -0.9998  -0.9628  -0.9155  -0.8996  -0.8168  -0.7618  -0.7292  -0.7077
 -0.6541  -0.6464  -0.6096  -0.5943  -0.5870  -0.5685  -0.5624  -0.5487
 -0.5460  -0.5355  -0.5237  -0.5033  -0.4827  -0.4751  -0.4681  -0.4406
 -0.3613  -0.3423  -0.3229  -0.2598
 -- Virtual --
  0.0914   0.1312   0.1412   0.1475   0.1575   0.1714   0.1760   0.1828
  0.1868   0.2046   0.2090   0.2153   0.2211   0.2300   0.2368   0.2428
  0.2563   0.2712   0.2893   0.3108   0.3144   0.3221   0.3493   0.3591
  0.3705   0.3769   0.3801   0.3950   0.4071   0.4077   0.4205   0.4260
  0.4335   0.4447   0.4653   0.4684   0.4730   0.4793   0.4838   0.4953
  0.5033   0.5182   0.5235   0.5311   0.5385   0.5478   0.5538   0.5579
  0.5691   0.5835   0.5937   0.5980   0.6009   0.6098   0.6186   0.6207
  0.6260   0.6305   0.6341   0.6377   0.6420   0.6510   0.6593   0.6665
  0.6670   0.6710   0.6810   0.6839   0.6949   0.7055   0.7243   0.7274
  0.7402   0.7495   0.7660   0.7752   0.7846   0.7951   0.7966   0.8098
  0.8368   0.8546   0.8550   0.8602   0.8887   0.8922   0.9084   0.9169
  0.9274   0.9464   0.9494   0.9536   0.9700   0.9823   1.0003   1.0136
  1.0175   1.0291   1.0372   1.0482   1.0605   1.0684   1.0707   1.0813
  1.0873   1.0975   1.1071   1.1186   1.1404   1.1431   1.1636   1.1744
  1.1812   1.1881   1.2018   1.2090   1.2167   1.2244   1.2258   1.2474
  1.2501   1.2571   1.2648   1.2706   1.2832   1.2860   1.3086   1.3138
  1.3282   1.3327   1.3373   1.3604   1.3755   1.3822   1.4079   1.4142
  1.4223   1.4361   1.4400   1.4648   1.4753   1.4799   1.4904   1.5046
  1.5099   1.5184   1.5293   1.5381   1.5400   1.5455   1.5485   1.5635
  1.5678   1.5852   1.5947   1.6093   1.6196   1.6227   1.6301   1.6496
  1.6549   1.6662   1.6831   1.7026   1.7063   1.7121   1.7165   1.7365
  1.7613   1.7651   1.7784   1.8081   1.8231   1.8267   1.8464   1.8676
  1.8808   1.8961   1.9051   1.9312   1.9587   1.9714   1.9859   1.9991
  2.0245   2.0402   2.0528   2.0851   2.0947   2.1061   2.1459   2.1634
  2.1803   2.1968   2.2140   2.2195   2.2409   2.2485   2.2668   2.2746
  2.2884   2.3001   2.3066   2.3876   2.4214   2.4299   2.4551   2.4748
  2.4830   2.5154   2.5356   2.5611   2.5672   2.5818   2.5867   2.6268
  2.6335   2.6501   2.6594   2.6607   2.6747   2.6928   2.7177   2.7253
  2.7491   2.7597   2.7604   2.7713   2.7809   2.7972   2.8117   2.8209
  2.8246   2.8457   2.8607   2.8731   2.8879   2.9125   2.9209   2.9446
  2.9566   2.9698   2.9761   2.9914   3.0218   3.0252   3.0311   3.0425
  3.0607   3.0804   3.0868   3.1046   3.1098   3.1170   3.1372   3.1471
  3.1521   3.1609   3.1678   3.1799   3.1887   3.1959   3.1993   3.2101
  3.2339   3.2391   3.2447   3.2590   3.2723   3.2835   3.2966   3.3049
  3.3173   3.3255   3.3277   3.3409   3.3507   3.3542   3.3566   3.3727
  3.3760   3.3858   3.3891   3.4038   3.4124   3.4256   3.4282   3.4315
  3.4436   3.4471   3.4598   3.4632   3.4819   3.4899   3.4994   3.5060
  3.5133   3.5247   3.5342   3.5378   3.5485   3.5585   3.5702   3.5850
  3.5972   3.6059   3.6104   3.6173   3.6323   3.6447   3.6543   3.6587
  3.6741   3.6956   3.6987   3.7020   3.7184   3.7317   3.7382   3.7513
  3.7549   3.7591   3.7766   3.7820   3.7949   3.7972   3.8041   3.8080
  3.8333   3.8403   3.8541   3.8608   3.8767   3.8847   3.9130   3.9216
  3.9345   3.9476   3.9618   3.9675   3.9756   4.0015   4.0084   4.0207
  4.0360   4.0484   4.0582   4.0716   4.0818   4.0904   4.0988   4.1134
  4.1213   4.1384   4.1522   4.1606   4.1683   4.1725   4.1763   4.2012
  4.2219   4.2272   4.2342   4.2374   4.2552   4.2594   4.2727   4.2924
  4.3003   4.3073   4.3211   4.3319   4.3491   4.3579   4.3614   4.3694
  4.3884   4.4025   4.4095   4.4154   4.4225   4.4382   4.4501   4.4509
  4.4602   4.4704   4.4885   4.4950   4.5010   4.5430   4.5608   4.5871
  4.5961   4.6022   4.6207   4.6336   4.6508   4.6535   4.6718   4.6818
  4.7115   4.7421   4.7676   4.7783   4.7993   4.8127   4.8220   4.8573
  4.8730   4.8775   4.8978   4.9253   4.9376   4.9515   4.9707   4.9914
  5.0526   5.0607   5.0954   5.1068   5.1204   5.1301   5.1451   5.1922
  5.2159   5.2245   5.2327   5.2624   5.2813   5.3028   5.3087   5.3299
  5.3509   5.3656   5.3830   5.4104   5.4157   5.4218   5.4384   5.4436
  5.4767   5.5197   5.5377   5.5462   5.5499   5.5698   5.5776   5.6029
  5.6182   5.6243   5.6328   5.6642   5.6831   5.7071   5.7106   5.7426
  5.7703   5.7986   5.8374   5.9617   6.0273   6.0722   6.1319   6.1644
  6.2247   6.2299   6.2393   6.2501   6.2613   6.2818   6.2957   6.3190
  6.4276   6.4751   9.5240  10.6778  12.1308  12.9023  13.1631  13.9067
 14.1335  14.2122  14.3529  14.8410
 --------------------------------------------------------------
 
          Ground-State Mulliken Net Atomic Charges

     Atom                 Charge (a.u.)
  ----------------------------------------
      1 C                    -0.076506
      2 C                    -0.321702
      3 C                    -0.043613
      4 H                     0.178257
      5 C                     0.109951
      6 S                    -0.181263
      7 C                    -0.301421
      8 H                     0.121865
      9 H                     0.106264
     10 H                     0.108098
     11 C                    -0.045104
     12 C                    -0.287764
     13 C                     0.048297
     14 H                     0.191327
     15 C                    -0.267781
     16 S                     0.013731
     17 C                    -0.270553
     18 H                     0.100560
     19 H                     0.108571
     20 H                     0.107646
     21 H                     0.197149
     22 H                     0.111466
     23 H                     0.113320
     24 H                     0.179206
  ----------------------------------------
  Sum of atomic charges =     0.000000

 -----------------------------------------------------------------
                    Cartesian Multipole Moments
 -----------------------------------------------------------------
    Charge (ESU x 10^10)
                -0.0000
    Dipole Moment (Debye)
         X      -0.0165      Y      -0.1655      Z       3.8080
       Tot       3.8116
    Quadrupole Moments (Debye-Ang)
        XX     -89.1903     XY       5.8522     YY     -76.0636
        XZ       0.7607     YZ      -2.4941     ZZ     -85.5501
    Octopole Moments (Debye-Ang^2)
       XXX    -104.0809    XXY      63.1345    XYY     -23.0807
       YYY     134.3928    XXZ      -3.7068    XYZ      -1.6707
       YYZ      -4.7281    XZZ     -31.0292    YZZ      57.5953
       ZZZ       8.6679
    Hexadecapole Moments (Debye-Ang^3)
      XXXX    -384.5201   XXXY    -208.5341   XXYY    -530.2691
      XYYY    -178.0270   YYYY   -2579.8792   XXXZ     -47.3240
      XXYZ     -27.7106   XYYZ     -20.4999   YYYZ     -86.9100
      XXZZ    -254.4596   XYZZ     -60.1919   YYZZ    -625.4430
      XZZZ     -47.6057   YZZZ    -119.3702   ZZZZ   -1097.4073
 -----------------------------------------------------------------
 Total job time:  669.37s(wall), 666.11s(cpu) 
 Sun Jul 10 02:39:13 2022

        *************************************************************
        *                                                           *
        *  Thank you very much for using Q-Chem.  Have a nice day.  *
        *                                                           *
        *************************************************************


remove work dirs ./qchem763938.0 -- ./qchem763938.-1
rm -rf ./qchem763938
You are running Q-Chem version: 5.4.0

#
# job setting
#
local host:  exp-3-21
current dir: /expanse/lustre/scratch/theleonzhang/temp_project/Hydrogenated_Rotation_Test
input file:  Methylthiophene_Phi_30_Theta_180_Methylthiophene_Hydrogenated.qcin
output file: 
nprocs     : 0
nthreads   : 1
#
# qchem installation setting
#
QC:          /cm/shared/apps/spack/cpu/opt/spack/linux-centos8-zen2/gcc-10.2.0/qchem-5.4-akfmr7b3t57bfs6qan3padb2wnb2i7cl
QCAUX:       /cm/shared/apps/spack/cpu/opt/spack/linux-centos8-zen2/gcc-10.2.0/qchem-5.4-akfmr7b3t57bfs6qan3padb2wnb2i7cl/qcaux
QCPROG:      /cm/shared/apps/spack/cpu/opt/spack/linux-centos8-zen2/gcc-10.2.0/qchem-5.4-akfmr7b3t57bfs6qan3padb2wnb2i7cl/exe/qcprog.exe_s
QCPROG_S:    /cm/shared/apps/spack/cpu/opt/spack/linux-centos8-zen2/gcc-10.2.0/qchem-5.4-akfmr7b3t57bfs6qan3padb2wnb2i7cl/exe/qcprog.exe_s
PARALLEL:    -DSERIAL
QCMPI:       mpich
#
# qchem directory setting
#
qcrun:       qchem1254956
QCSCRATCH:   .
QCLOCALSCR:  
QCTMPDIR:    .
QCFILEPREF:  ./qchem1254956
QCSAVEDIR:   
workdirs:    ./qchem1254956
workdir0:    ./qchem1254956
partmpdirs =  
#
# parallel setting
#
QCRSH:           ssh
QCMPI:           mpich
QCMPIRUN:        /cm/shared/apps/spack/cpu/opt/spack/linux-centos8-zen2/gcc-10.2.0/qchem-5.4-akfmr7b3t57bfs6qan3padb2wnb2i7cl/bin/mpi/mpirun_qchem
QCMACHINEFILE:   ./qchem1254956/hostfile

#
# env setting
#
exported envs:   QC QCAUX QCSCRATCH QCRUNNAME QCFILEPREF QCPROG QCPROG_S GUIFILE

Running Job 1 of 1 Methylthiophene_Phi_30_Theta_180_Methylthiophene_Hydrogenated.qcin
qchem Methylthiophene_Phi_30_Theta_180_Methylthiophene_Hydrogenated.qcin_1254956.0 ./qchem1254956/ 0
/cm/shared/apps/spack/cpu/opt/spack/linux-centos8-zen2/gcc-10.2.0/qchem-5.4-akfmr7b3t57bfs6qan3padb2wnb2i7cl/exe/qcprog.exe_s Methylthiophene_Phi_30_Theta_180_Methylthiophene_Hydrogenated.qcin_1254956.0 ./qchem1254956/
                  Welcome to Q-Chem
     A Quantum Leap Into The Future Of Chemistry


 Q-Chem 5.4, Q-Chem, Inc., Pleasanton, CA (2021)

 License issued to: University of California, San Diego (site)

 E. Epifanovsky,  A. T. B. Gilbert,  Xintian Feng,  Joonho Lee,  Yuezhi Mao,  
 N. Mardirossian,  P. Pokhilko,  A. White,  M. Wormit,  M. P. Coons,  
 A. L. Dempwolff,  Zhengting Gan,  D. Hait,  P. R. Horn,  L. D. Jacobson,  
 I. Kaliman,  J. Kussmann,  A. W. Lange,  Ka Un Lao,  D. S. Levine,  Jie Liu,  
 S. C. McKenzie,  A. F. Morrison,  K. Nanda,  F. Plasser,  D. R. Rehn,  
 M. L. Vidal,  Zhi-Qiang You,  Ying Zhu,  B. Alam,  B. Albrecht,  
 A. Aldossary,  E. Alguire,  J. H. Andersen,  D. Barton,  K. Begam,  A. Behn,  
 Y. A. Bernard,  E. J. Berquist,  H. Burton,  A. Carreras,  K. Carter-Fenk,  
 R. Chakraborty,  A. D. Chien,  K. D. Closser,  V. Cofer-Shabica,  
 S. Dasgupta,  Jia Deng,  M. de Wergifosse,  M. Diedenhofen,  Hainam Do,  
 S. Ehlert,  Po-Tung Fang,  S. Fatehi,  Qingguo Feng,  J. Gayvert,  
 Qinghui Ge,  G. Gidofalvi,  M. Goldey,  J. Gomes,  C. Gonzalez-Espinoza,  
 S. Gulania,  A. Gunina,  M. W. D. Hanson-Heine,  P. H. P. Harbach,  
 A. W. Hauser,  M. F. Herbst,  M. Hernandez Vera,  M. Hodecker,  
 Z. C. Holden,  S. Houck,  Xunkun Huang,  Kerwin Hui,  B. C. Huynh,  
 M. Ivanov,  Hyunjun Ji,  Hanjie Jiang,  B. Kaduk,  S. Kaehler,  
 K. Khistyaev,  Jaehoon Kim,  P. Klunzinger,  Z. Koczor-Benda,  
 Joong Hoon Koh,  D. Kosenkov,  L. Koulias,  T. Kowalczyk,  C. M. Krauter,  
 K. Kue,  A. Kunitsa,  T. Kus,  A. Landau,  K. V. Lawler,  D. Lefrancois,  
 S. Lehtola,  Rain Li,  Yi-Pei Li,  Jiashu Liang,  M. Liebenthal,  
 Hung-Hsuan Lin,  You-Sheng Lin,  Fenglai Liu,  Kuan-Yu Liu,  
 M. Loipersberger,  A. Luenser,  A. Manjanath,  P. Manohar,  E. Mansoor,  
 S. F. Manzer,  Shan-Ping Mao,  A. V. Marenich,  T. Markovich,  S. Mason,  
 S. A. Maurer,  P. F. McLaughlin,  M. F. S. J. Menger,  J.-M. Mewes,  
 S. A. Mewes,  P. Morgante,  J. W. Mullinax,  T. S. Nguyen-Beck,  
 K. J. Oosterbaan,  G. Paran,  Alexander C. Paul,  Suranjan K. Paul,  
 F. Pavosevic,  Zheng Pei,  S. Prager,  E. I. Proynov,  E. Ramos,  B. Rana,  
 A. E. Rask,  A. Rettig,  R. M. Richard,  F. Rob,  E. Rossomme,  T. Scheele,  
 M. Scheurer,  M. Schneider,  N. Sergueev,  S. M. Sharada,  W. Skomorowski,  
 D. W. Small,  C. J. Stein,  Yu-Chuan Su,  E. J. Sundstrom,  Zhen Tao,  
 J. Thirman,  T. Tsuchimochi,  N. M. Tubman,  S. P. Veccham,  O. Vydrov,  
 J. Wenzel,  J. Witte,  A. Yamada,  Kun Yao,  S. Yeganeh,  S. R. Yost,  
 A. Zech,  Igor Ying Zhang,  Xing Zhang,  Yu Zhang,  D. Zuev,  
 A. Aspuru-Guzik,  A. T. Bell,  N. A. Besley,  K. B. Bravaya,  B. R. Brooks,  
 D. Casanova,  Jeng-Da Chai,  S. Coriani,  C. J. Cramer,  
 A. E. DePrince, III,  R. A. DiStasio Jr.,  A. Dreuw,  B. D. Dunietz,  
 T. R. Furlani,  W. A. Goddard III,  S. Grimme,  S. Hammes-Schiffer,  
 T. Head-Gordon,  W. J. Hehre,  Chao-Ping Hsu,  T.-C. Jagau,  Yousung Jung,  
 A. Klamt,  Jing Kong,  D. S. Lambrecht,  WanZhen Liang,  N. J. Mayhall,  
 C. W. McCurdy,  J. B. Neaton,  C. Ochsenfeld,  J. A. Parkhill,  R. Peverati,  
 V. A. Rassolov,  Yihan Shao,  L. V. Slipchenko,  T. Stauch,  R. P. Steele,  
 J. E. Subotnik,  A. J. W. Thom,  A. Tkatchenko,  D. G. Truhlar,  
 T. Van Voorhis,  T. A. Wesolowski,  K. B. Whaley,  H. L. Woodcock III,  
 P. M. Zimmerman,  S. Faraji,  P. M. W. Gill,  M. Head-Gordon,  
 J. M. Herbert,  A. I. Krylov

 Contributors to earlier versions of Q-Chem not listed above: 
 R. D. Adamson,  B. Austin,  R. Baer,  J. Baker,  G. J. O. Beran,  
 K. Brandhorst,  S. T. Brown,  E. F. C. Byrd,  A. K. Chakraborty,  
 G. K. L. Chan,  Chun-Min Chang,  Yunqing Chen,  C.-L. Cheng,  
 Siu Hung Chien,  D. M. Chipman,  D. L. Crittenden,  H. Dachsel,  
 R. J. Doerksen,  A. D. Dutoi,  R. G. Edgar,  J. Fosso-Tande,  
 L. Fusti-Molnar,  D. Ghosh,  A. Ghysels,  A. Golubeva-Zadorozhnaya,  
 J. Gonthier,  M. S. Gordon,  S. R. Gwaltney,  G. Hawkins,  J. E. Herr,  
 A. Heyden,  S. Hirata,  E. G. Hohenstein,  G. Kedziora,  F. J. Keil,  
 C. Kelley,  Jihan Kim,  R. A. King,  R. Z. Khaliullin,  P. P. Korambath,  
 W. Kurlancheek,  A. Laurent,  A. M. Lee,  M. S. Lee,  S. V. Levchenko,  
 Ching Yeh Lin,  D. Liotard,  E. Livshits,  R. C. Lochan,  I. Lotan,  
 L. A. Martinez-Martinez,  P. E. Maslen,  N. Nair,  D. P. O'Neill,  
 D. Neuhauser,  E. Neuscamman,  C. M. Oana,  R. Olivares-Amaya,  R. Olson,  
 T. M. Perrine,  B. Peters,  P. A. Pieniazek,  A. Prociuk,  Y. M. Rhee,  
 J. Ritchie,  M. A. Rohrdanz,  E. Rosta,  N. J. Russ,  H. F. Schaefer III,  
 M. W. Schmidt,  N. E. Schultz,  S. Sharma,  N. Shenvi,  C. D. Sherrill,  
 A. C. Simmonett,  A. Sodt,  T. Stein,  D. Stuck,  K. S. Thanthiriwatte,  
 V. Vanovschi,  L. Vogt,  Tao Wang,  A. Warshel,  M. A. Watson,  
 C. F. Williams,  Q. Wu,  X. Xu,  Jun Yang,  W. Zhang,  Yan Zhao

 Please cite Q-Chem as follows:
 Y. Shao et al., Mol. Phys. 113, 184-215 (2015)
 DOI: 10.1080/00268976.2014.952696

 Q-Chem 5.4.0 for Intel X86 EM64T Linux

 Parts of Q-Chem use Armadillo 9.800.1 (Horizon Scraper).
 http://arma.sourceforge.net/

 Q-Chem begins on Sun Jul 10 03:11:08 2022  

 Host: 
0

     Scratch files written to ./qchem1254956//
 May1621 |scratch|qcdevops|jenkins|workspace|build_RNUM    
 Processing $rem in /cm/shared/apps/spack/cpu/opt/spack/linux-centos8-zen2/gcc-10.2.0/qchem-5.4-akfmr7b3t57bfs6qan3padb2wnb2i7cl/config/preferences:
 Processing $rem in /home/theleonzhang/.qchemrc:
 Symmetry turned off for PCM/SM12/SMD calculation
 Core orbitals will be frozen

 Checking the input file for inconsistencies... 	...done.

--------------------------------------------------------------
User input:
--------------------------------------------------------------
$molecule
0 1
C	0.000713	-3.866725	-0.775127
C	0.000302	-3.703963	0.612565
C	-0.000067	-2.357056	1.066639
H	0.000470	-4.561092	1.302900
C	-0.000000	-1.440664	-0.000000
S	-0.000009	-2.286957	-1.544483
C	-0.000295	-1.978743	2.521872
H	-0.000221	-2.878678	3.166949
H	-0.892850	-1.376015	2.790821
H	0.892005	-1.375728	2.791023
C	0.000000	0.000000	0.000000
C	0.431829	0.747884	1.099446
C	1.123799	1.946373	0.776721
H	0.247423	0.428497	2.136088
C	1.234147	2.137457	-0.612546
S	0.471221	0.816130	-1.486809
C	1.667694	2.888380	1.814609
H	1.454874	2.519768	2.836676
H	1.222009	3.901210	1.726239
H	2.767675	3.008788	1.726228
H	1.708773	2.959493	-1.161575
H	-0.896681	-4.392713	-1.119411
H	0.898372	-4.392347	-1.119277
H	-1.080000	-1.440937	-0.000115
$end

$rem
JOBTYPE		SP
EXCHANGE	HF
CORRELATION	pRIMP2
BASIS		cc-pvtz
METHOD		rimp2
AUX_BASIS	rimp2-cc-pvtz
SOLVENT_METHOD	PCM
PURECART	11111
SYMMETRY	false
MEM_TOTAL	110000
SCF_CONVERGENCE = 6
THRESH=10
$end



$solvent
dielectric 4.90
$end
--------------------------------------------------------------
 ----------------------------------------------------------------
             Standard Nuclear Orientation (Angstroms)
    I     Atom           X                Y                Z
 ----------------------------------------------------------------
    1      C       0.0007130000    -3.8667250000    -0.7751270000
    2      C       0.0003020000    -3.7039630000     0.6125650000
    3      C      -0.0000670000    -2.3570560000     1.0666390000
    4      H       0.0004700000    -4.5610920000     1.3029000000
    5      C       0.0000000000    -1.4406640000     0.0000000000
    6      S      -0.0000090000    -2.2869570000    -1.5444830000
    7      C      -0.0002950000    -1.9787430000     2.5218720000
    8      H      -0.0002210000    -2.8786780000     3.1669490000
    9      H      -0.8928500000    -1.3760150000     2.7908210000
   10      H       0.8920050000    -1.3757280000     2.7910230000
   11      C       0.0000000000     0.0000000000     0.0000000000
   12      C       0.4318290000     0.7478840000     1.0994460000
   13      C       1.1237990000     1.9463730000     0.7767210000
   14      H       0.2474230000     0.4284970000     2.1360880000
   15      C       1.2341470000     2.1374570000    -0.6125460000
   16      S       0.4712210000     0.8161300000    -1.4868090000
   17      C       1.6676940000     2.8883800000     1.8146090000
   18      H       1.4548740000     2.5197680000     2.8366760000
   19      H       1.2220090000     3.9012100000     1.7262390000
   20      H       2.7676750000     3.0087880000     1.7262280000
   21      H       1.7087730000     2.9594930000    -1.1615750000
   22      H      -0.8966810000    -4.3927130000    -1.1194110000
   23      H       0.8983720000    -4.3923470000    -1.1192770000
   24      H      -1.0800000000    -1.4409370000    -0.0001150000
 ----------------------------------------------------------------
 Nuclear Repulsion Energy =         882.55298807 hartrees
 There are       52 alpha and       52 beta electrons

 Q-Chem warning in module forms1/BasisType.C, line 2236:

 You are not using the predefined 5D/6D in this basis set.

 Requested basis set is cc-pVTZ
 There are 196 shells and 536 basis functions

 Total QAlloc Memory Limit 110000 MB
 Mega-Array Size       188 MB
 MEM_STATIC part       192 MB
 Discretize the solute cavity surface with Lebedev spheres
	Using 110 Lebedev grid points for each H atom
	Using 194 Lebedev grid points for other atoms
	Atomic van der Waals radii will be scaled by 1.20
 Remove points where switching function is < 1.0e-08
 Keep 1557 surface tesserae and discard 2091 interior tesserae
 Molecular Surface Area = 230.518 Angst**2
 Requested basis set is rimp2-cc-pVTZ
 There are 414 shells and 1414 basis functions
 A cutoff of  1.0D-10 yielded  14194 shell pairs
 There are    102700 function pairs (    131548 Cartesian)
 Smallest overlap matrix eigenvalue = 6.20E-05

 Scale SEOQF with 1.000000e-01/1.000000e-01/1.000000e-01

 Standard Electronic Orientation quadrupole field applied
 Nucleus-field energy     =     0.0000000193 hartrees
 Guess from superposition of atomic densities
 Warning:  Energy on first SCF cycle will be non-variational
 SAD guess density has 104.000000 electrons

 -----------------------------------------------------------------------
  General SCF calculation program by
  Eric Jon Sundstrom, Paul Horn, Yuezhi Mao, Dmitri Zuev, Alec White,
  David Stuck, Shaama M.S., Shane Yost, Joonho Lee, David Small,
  Daniel Levine, Susi Lehtola, Hugh Burton, Evgeny Epifanovsky,
  Bang C. Huynh
 -----------------------------------------------------------------------
 Hartree-Fock
 A restricted SCF calculation will be
 performed using DIIS
 SCF converges when DIIS error is below 1.0e-06
 ---------------------------------------
  Cycle       Energy         DIIS error
 ---------------------------------------
    1   -1186.0883221143      2.39e-02  
    2   -1180.5825668745      1.58e-03  
    3   -1180.7094717812      6.38e-04  
    4   -1180.7250458682      3.41e-04  
    5   -1180.7305172989      6.24e-05  
    6   -1180.7307930303      2.59e-05  
    7   -1180.7308617842      9.84e-06  
    8   -1180.7308779074      4.66e-06  
    9   -1180.7308818231      1.71e-06  
   10   -1180.7308824396      5.92e-07  Convergence criterion met
 ---------------------------------------
 SCF time:   CPU 587.10s  wall 589.00s 

************** Final PCM Free Energy Summary **************
 G_electrostatic  =      -0.00970319 hartree =      -6.08884674 kcal/mol
 G_cavitation     =       0.00000000 hartree =       0.00000000 kcal/mol
 G_dispersion     =       0.00000000 hartree =       0.00000000 kcal/mol
 G_repulsion      =       0.00000000 hartree =       0.00000000 kcal/mol
 --------------------------------------------------
 Non-electrostatic Free Energy =       0.00000000 hartree =       0.00000000 kcal/mol
 Total                         =      -0.00970319 hartree =      -6.08884674 kcal/mol
 --------------------------------------------------
 SCF Energy (H0 + V/2)                       =   -1180.73088244 
 Solute Internal Energy (H0)                 =   -1180.72117924 
 Total Free Energy (H0 + V/2 + non-elec)     =   -1180.73088244 hartree
                                             = -740919.81143305 kcal/mol
***********************************************************

 SCF   energy in the final basis set =    -1180.7308824396
 Total energy in the final basis set =    -1180.7308824396


 --------------------------------------------------------------
  Generalized many-body perturbation theory program
  by Joonho Lee, Fazle Rob, Xintian Feng, Evgeny Epifanovsky

 No regularization used 
 (reg. param. = 0.0000e+00)
  (P|Q)^-1/2 Time:  CPU 1.89 s  wall 1.90 s

 In RI-MP2 calculation: 
 # of frozen core orbitals: 20

 Components of the RIMP2 correlation energy:
        aaaa    correlation energy =        -0.2528638287 a.u.
        abab    correlation energy =        -1.5075147319 a.u.
        bbbb    correlation energy =        -0.2528638287 a.u.
        non-Brillouin singles      =        -0.0000000000 a.u.
        total same-spin energy     =        -0.5057276573 a.u.
        total opposite-spin energy =        -1.5075147319 a.u.

 Total  RIMP2   correlation energy =        -2.0132423892 a.u.
        RIMP2         total energy =     -1182.7441248289 a.u.

 RI-MP2 Energy Time:  CPU 79.54 s  wall 79.74 s
 
 --------------------------------------------------------------
 
                    Orbital Energies (a.u.)
 --------------------------------------------------------------
 
 Alpha MOs
 -- Occupied --
-91.9820 -91.9447 -11.2813 -11.2655 -11.2596 -11.2567 -11.2499 -11.2428
-11.2337 -11.2337 -11.2283 -11.2205  -8.9819  -8.9493  -6.6629  -6.6622
 -6.6616  -6.6307  -6.6297  -6.6284  -1.2017  -1.1524  -1.0592  -1.0322
 -0.9998  -0.9628  -0.9155  -0.8996  -0.8168  -0.7618  -0.7292  -0.7077
 -0.6541  -0.6464  -0.6096  -0.5943  -0.5870  -0.5685  -0.5624  -0.5487
 -0.5460  -0.5355  -0.5237  -0.5033  -0.4827  -0.4751  -0.4681  -0.4406
 -0.3613  -0.3423  -0.3229  -0.2598
 -- Virtual --
  0.0914   0.1312   0.1412   0.1475   0.1575   0.1714   0.1760   0.1828
  0.1868   0.2046   0.2090   0.2153   0.2211   0.2300   0.2368   0.2428
  0.2563   0.2712   0.2893   0.3108   0.3144   0.3221   0.3493   0.3591
  0.3705   0.3769   0.3801   0.3950   0.4071   0.4077   0.4205   0.4260
  0.4335   0.4447   0.4653   0.4684   0.4730   0.4793   0.4838   0.4953
  0.5033   0.5182   0.5235   0.5311   0.5385   0.5478   0.5538   0.5579
  0.5691   0.5835   0.5937   0.5980   0.6009   0.6098   0.6186   0.6207
  0.6260   0.6305   0.6341   0.6377   0.6420   0.6510   0.6593   0.6665
  0.6670   0.6710   0.6810   0.6839   0.6949   0.7055   0.7243   0.7274
  0.7402   0.7495   0.7660   0.7752   0.7846   0.7951   0.7966   0.8098
  0.8368   0.8546   0.8550   0.8602   0.8887   0.8922   0.9084   0.9169
  0.9274   0.9464   0.9494   0.9536   0.9700   0.9823   1.0003   1.0136
  1.0175   1.0291   1.0372   1.0482   1.0605   1.0684   1.0707   1.0813
  1.0873   1.0975   1.1071   1.1186   1.1404   1.1431   1.1636   1.1744
  1.1812   1.1881   1.2018   1.2090   1.2167   1.2244   1.2258   1.2474
  1.2501   1.2571   1.2648   1.2706   1.2832   1.2860   1.3086   1.3138
  1.3282   1.3327   1.3373   1.3604   1.3755   1.3822   1.4079   1.4142
  1.4223   1.4361   1.4400   1.4648   1.4753   1.4799   1.4904   1.5046
  1.5099   1.5184   1.5293   1.5381   1.5400   1.5455   1.5485   1.5635
  1.5678   1.5852   1.5947   1.6093   1.6196   1.6227   1.6301   1.6496
  1.6549   1.6662   1.6831   1.7026   1.7063   1.7121   1.7165   1.7365
  1.7613   1.7651   1.7784   1.8081   1.8231   1.8267   1.8464   1.8676
  1.8808   1.8961   1.9051   1.9312   1.9587   1.9714   1.9859   1.9991
  2.0245   2.0402   2.0528   2.0851   2.0947   2.1061   2.1459   2.1634
  2.1803   2.1968   2.2140   2.2195   2.2409   2.2485   2.2668   2.2746
  2.2884   2.3001   2.3066   2.3876   2.4214   2.4299   2.4551   2.4748
  2.4830   2.5154   2.5356   2.5611   2.5672   2.5818   2.5867   2.6268
  2.6335   2.6501   2.6594   2.6607   2.6747   2.6928   2.7177   2.7253
  2.7491   2.7597   2.7604   2.7713   2.7809   2.7972   2.8117   2.8209
  2.8246   2.8457   2.8607   2.8731   2.8879   2.9125   2.9209   2.9446
  2.9566   2.9698   2.9761   2.9914   3.0218   3.0252   3.0311   3.0425
  3.0607   3.0804   3.0868   3.1046   3.1098   3.1170   3.1372   3.1471
  3.1521   3.1609   3.1678   3.1799   3.1887   3.1959   3.1993   3.2101
  3.2339   3.2391   3.2447   3.2590   3.2723   3.2835   3.2966   3.3049
  3.3173   3.3255   3.3277   3.3409   3.3507   3.3542   3.3566   3.3727
  3.3760   3.3858   3.3891   3.4038   3.4124   3.4256   3.4282   3.4315
  3.4436   3.4471   3.4598   3.4632   3.4819   3.4899   3.4994   3.5060
  3.5133   3.5247   3.5342   3.5378   3.5485   3.5585   3.5702   3.5850
  3.5972   3.6059   3.6104   3.6173   3.6323   3.6447   3.6543   3.6587
  3.6741   3.6956   3.6987   3.7020   3.7184   3.7317   3.7382   3.7513
  3.7549   3.7591   3.7766   3.7820   3.7949   3.7972   3.8041   3.8080
  3.8333   3.8403   3.8541   3.8608   3.8767   3.8847   3.9130   3.9216
  3.9345   3.9476   3.9618   3.9675   3.9756   4.0015   4.0084   4.0207
  4.0360   4.0484   4.0582   4.0716   4.0818   4.0904   4.0988   4.1134
  4.1213   4.1384   4.1522   4.1606   4.1683   4.1725   4.1763   4.2012
  4.2219   4.2272   4.2342   4.2374   4.2552   4.2594   4.2727   4.2924
  4.3003   4.3073   4.3211   4.3319   4.3491   4.3579   4.3614   4.3694
  4.3884   4.4025   4.4095   4.4154   4.4225   4.4382   4.4501   4.4509
  4.4602   4.4704   4.4885   4.4950   4.5010   4.5430   4.5608   4.5871
  4.5961   4.6022   4.6207   4.6336   4.6508   4.6535   4.6718   4.6818
  4.7115   4.7421   4.7676   4.7783   4.7993   4.8127   4.8220   4.8573
  4.8730   4.8775   4.8978   4.9253   4.9376   4.9515   4.9707   4.9914
  5.0526   5.0607   5.0954   5.1068   5.1204   5.1301   5.1451   5.1922
  5.2159   5.2245   5.2327   5.2624   5.2813   5.3028   5.3087   5.3299
  5.3509   5.3656   5.3830   5.4104   5.4157   5.4218   5.4384   5.4436
  5.4767   5.5197   5.5377   5.5462   5.5499   5.5698   5.5776   5.6029
  5.6182   5.6243   5.6328   5.6642   5.6831   5.7071   5.7106   5.7426
  5.7703   5.7986   5.8374   5.9617   6.0273   6.0722   6.1319   6.1644
  6.2247   6.2299   6.2393   6.2501   6.2613   6.2818   6.2957   6.3190
  6.4276   6.4751   9.5240  10.6778  12.1308  12.9023  13.1631  13.9067
 14.1335  14.2122  14.3529  14.8410
 --------------------------------------------------------------
 
          Ground-State Mulliken Net Atomic Charges

     Atom                 Charge (a.u.)
  ----------------------------------------
      1 C                    -0.076506
      2 C                    -0.321702
      3 C                    -0.043613
      4 H                     0.178257
      5 C                     0.109951
      6 S                    -0.181263
      7 C                    -0.301421
      8 H                     0.121865
      9 H                     0.106264
     10 H                     0.108098
     11 C                    -0.045104
     12 C                    -0.287764
     13 C                     0.048297
     14 H                     0.191327
     15 C                    -0.267781
     16 S                     0.013731
     17 C                    -0.270553
     18 H                     0.100560
     19 H                     0.108571
     20 H                     0.107646
     21 H                     0.197149
     22 H                     0.111466
     23 H                     0.113320
     24 H                     0.179206
  ----------------------------------------
  Sum of atomic charges =     0.000000

 -----------------------------------------------------------------
                    Cartesian Multipole Moments
 -----------------------------------------------------------------
    Charge (ESU x 10^10)
                -0.0000
    Dipole Moment (Debye)
         X      -0.0165      Y      -0.1655      Z       3.8080
       Tot       3.8116
    Quadrupole Moments (Debye-Ang)
        XX     -89.1903     XY       5.8522     YY     -76.0636
        XZ       0.7607     YZ      -2.4941     ZZ     -85.5501
    Octopole Moments (Debye-Ang^2)
       XXX    -104.0809    XXY      63.1345    XYY     -23.0807
       YYY     134.3928    XXZ      -3.7068    XYZ      -1.6707
       YYZ      -4.7281    XZZ     -31.0292    YZZ      57.5953
       ZZZ       8.6679
    Hexadecapole Moments (Debye-Ang^3)
      XXXX    -384.5201   XXXY    -208.5341   XXYY    -530.2691
      XYYY    -178.0270   YYYY   -2579.8792   XXXZ     -47.3240
      XXYZ     -27.7106   XYYZ     -20.4999   YYYZ     -86.9100
      XXZZ    -254.4596   XYZZ     -60.1919   YYZZ    -625.4430
      XZZZ     -47.6057   YZZZ    -119.3702   ZZZZ   -1097.4073
 -----------------------------------------------------------------
 Total job time:  670.69s(wall), 667.52s(cpu) 
 Sun Jul 10 03:22:18 2022

        *************************************************************
        *                                                           *
        *  Thank you very much for using Q-Chem.  Have a nice day.  *
        *                                                           *
        *************************************************************


remove work dirs ./qchem1254956.0 -- ./qchem1254956.-1
rm -rf ./qchem1254956
