You are running Q-Chem version: 5.4.0

#
# job setting
#
local host:  exp-1-44
current dir: /expanse/lustre/scratch/theleonzhang/temp_project/Hydrogenated_Rotation_Test
input file:  Methylthiophene_Phi_10_Theta_270_Methylthiophene_Hydrogenated.qcin
output file: 
nprocs     : 0
nthreads   : 1
#
# qchem installation setting
#
QC:          /cm/shared/apps/spack/cpu/opt/spack/linux-centos8-zen2/gcc-10.2.0/qchem-5.4-akfmr7b3t57bfs6qan3padb2wnb2i7cl
QCAUX:       /cm/shared/apps/spack/cpu/opt/spack/linux-centos8-zen2/gcc-10.2.0/qchem-5.4-akfmr7b3t57bfs6qan3padb2wnb2i7cl/qcaux
QCPROG:      /cm/shared/apps/spack/cpu/opt/spack/linux-centos8-zen2/gcc-10.2.0/qchem-5.4-akfmr7b3t57bfs6qan3padb2wnb2i7cl/exe/qcprog.exe_s
QCPROG_S:    /cm/shared/apps/spack/cpu/opt/spack/linux-centos8-zen2/gcc-10.2.0/qchem-5.4-akfmr7b3t57bfs6qan3padb2wnb2i7cl/exe/qcprog.exe_s
PARALLEL:    -DSERIAL
QCMPI:       mpich
#
# qchem directory setting
#
qcrun:       qchem1726586
QCSCRATCH:   .
QCLOCALSCR:  
QCTMPDIR:    .
QCFILEPREF:  ./qchem1726586
QCSAVEDIR:   
workdirs:    ./qchem1726586
workdir0:    ./qchem1726586
partmpdirs =  
#
# parallel setting
#
QCRSH:           ssh
QCMPI:           mpich
QCMPIRUN:        /cm/shared/apps/spack/cpu/opt/spack/linux-centos8-zen2/gcc-10.2.0/qchem-5.4-akfmr7b3t57bfs6qan3padb2wnb2i7cl/bin/mpi/mpirun_qchem
QCMACHINEFILE:   ./qchem1726586/hostfile

#
# env setting
#
exported envs:   QC QCAUX QCSCRATCH QCRUNNAME QCFILEPREF QCPROG QCPROG_S GUIFILE

Running Job 1 of 1 Methylthiophene_Phi_10_Theta_270_Methylthiophene_Hydrogenated.qcin
qchem Methylthiophene_Phi_10_Theta_270_Methylthiophene_Hydrogenated.qcin_1726586.0 ./qchem1726586/ 0
/cm/shared/apps/spack/cpu/opt/spack/linux-centos8-zen2/gcc-10.2.0/qchem-5.4-akfmr7b3t57bfs6qan3padb2wnb2i7cl/exe/qcprog.exe_s Methylthiophene_Phi_10_Theta_270_Methylthiophene_Hydrogenated.qcin_1726586.0 ./qchem1726586/
                  Welcome to Q-Chem
     A Quantum Leap Into The Future Of Chemistry


 Q-Chem 5.4, Q-Chem, Inc., Pleasanton, CA (2021)

 License issued to: University of California, San Diego (site)

 E. Epifanovsky,  A. T. B. Gilbert,  Xintian Feng,  Joonho Lee,  Yuezhi Mao,  
 N. Mardirossian,  P. Pokhilko,  A. White,  M. Wormit,  M. P. Coons,  
 A. L. Dempwolff,  Zhengting Gan,  D. Hait,  P. R. Horn,  L. D. Jacobson,  
 I. Kaliman,  J. Kussmann,  A. W. Lange,  Ka Un Lao,  D. S. Levine,  Jie Liu,  
 S. C. McKenzie,  A. F. Morrison,  K. Nanda,  F. Plasser,  D. R. Rehn,  
 M. L. Vidal,  Zhi-Qiang You,  Ying Zhu,  B. Alam,  B. Albrecht,  
 A. Aldossary,  E. Alguire,  J. H. Andersen,  D. Barton,  K. Begam,  A. Behn,  
 Y. A. Bernard,  E. J. Berquist,  H. Burton,  A. Carreras,  K. Carter-Fenk,  
 R. Chakraborty,  A. D. Chien,  K. D. Closser,  V. Cofer-Shabica,  
 S. Dasgupta,  Jia Deng,  M. de Wergifosse,  M. Diedenhofen,  Hainam Do,  
 S. Ehlert,  Po-Tung Fang,  S. Fatehi,  Qingguo Feng,  J. Gayvert,  
 Qinghui Ge,  G. Gidofalvi,  M. Goldey,  J. Gomes,  C. Gonzalez-Espinoza,  
 S. Gulania,  A. Gunina,  M. W. D. Hanson-Heine,  P. H. P. Harbach,  
 A. W. Hauser,  M. F. Herbst,  M. Hernandez Vera,  M. Hodecker,  
 Z. C. Holden,  S. Houck,  Xunkun Huang,  Kerwin Hui,  B. C. Huynh,  
 M. Ivanov,  Hyunjun Ji,  Hanjie Jiang,  B. Kaduk,  S. Kaehler,  
 K. Khistyaev,  Jaehoon Kim,  P. Klunzinger,  Z. Koczor-Benda,  
 Joong Hoon Koh,  D. Kosenkov,  L. Koulias,  T. Kowalczyk,  C. M. Krauter,  
 K. Kue,  A. Kunitsa,  T. Kus,  A. Landau,  K. V. Lawler,  D. Lefrancois,  
 S. Lehtola,  Rain Li,  Yi-Pei Li,  Jiashu Liang,  M. Liebenthal,  
 Hung-Hsuan Lin,  You-Sheng Lin,  Fenglai Liu,  Kuan-Yu Liu,  
 M. Loipersberger,  A. Luenser,  A. Manjanath,  P. Manohar,  E. Mansoor,  
 S. F. Manzer,  Shan-Ping Mao,  A. V. Marenich,  T. Markovich,  S. Mason,  
 S. A. Maurer,  P. F. McLaughlin,  M. F. S. J. Menger,  J.-M. Mewes,  
 S. A. Mewes,  P. Morgante,  J. W. Mullinax,  T. S. Nguyen-Beck,  
 K. J. Oosterbaan,  G. Paran,  Alexander C. Paul,  Suranjan K. Paul,  
 F. Pavosevic,  Zheng Pei,  S. Prager,  E. I. Proynov,  E. Ramos,  B. Rana,  
 A. E. Rask,  A. Rettig,  R. M. Richard,  F. Rob,  E. Rossomme,  T. Scheele,  
 M. Scheurer,  M. Schneider,  N. Sergueev,  S. M. Sharada,  W. Skomorowski,  
 D. W. Small,  C. J. Stein,  Yu-Chuan Su,  E. J. Sundstrom,  Zhen Tao,  
 J. Thirman,  T. Tsuchimochi,  N. M. Tubman,  S. P. Veccham,  O. Vydrov,  
 J. Wenzel,  J. Witte,  A. Yamada,  Kun Yao,  S. Yeganeh,  S. R. Yost,  
 A. Zech,  Igor Ying Zhang,  Xing Zhang,  Yu Zhang,  D. Zuev,  
 A. Aspuru-Guzik,  A. T. Bell,  N. A. Besley,  K. B. Bravaya,  B. R. Brooks,  
 D. Casanova,  Jeng-Da Chai,  S. Coriani,  C. J. Cramer,  
 A. E. DePrince, III,  R. A. DiStasio Jr.,  A. Dreuw,  B. D. Dunietz,  
 T. R. Furlani,  W. A. Goddard III,  S. Grimme,  S. Hammes-Schiffer,  
 T. Head-Gordon,  W. J. Hehre,  Chao-Ping Hsu,  T.-C. Jagau,  Yousung Jung,  
 A. Klamt,  Jing Kong,  D. S. Lambrecht,  WanZhen Liang,  N. J. Mayhall,  
 C. W. McCurdy,  J. B. Neaton,  C. Ochsenfeld,  J. A. Parkhill,  R. Peverati,  
 V. A. Rassolov,  Yihan Shao,  L. V. Slipchenko,  T. Stauch,  R. P. Steele,  
 J. E. Subotnik,  A. J. W. Thom,  A. Tkatchenko,  D. G. Truhlar,  
 T. Van Voorhis,  T. A. Wesolowski,  K. B. Whaley,  H. L. Woodcock III,  
 P. M. Zimmerman,  S. Faraji,  P. M. W. Gill,  M. Head-Gordon,  
 J. M. Herbert,  A. I. Krylov

 Contributors to earlier versions of Q-Chem not listed above: 
 R. D. Adamson,  B. Austin,  R. Baer,  J. Baker,  G. J. O. Beran,  
 K. Brandhorst,  S. T. Brown,  E. F. C. Byrd,  A. K. Chakraborty,  
 G. K. L. Chan,  Chun-Min Chang,  Yunqing Chen,  C.-L. Cheng,  
 Siu Hung Chien,  D. M. Chipman,  D. L. Crittenden,  H. Dachsel,  
 R. J. Doerksen,  A. D. Dutoi,  R. G. Edgar,  J. Fosso-Tande,  
 L. Fusti-Molnar,  D. Ghosh,  A. Ghysels,  A. Golubeva-Zadorozhnaya,  
 J. Gonthier,  M. S. Gordon,  S. R. Gwaltney,  G. Hawkins,  J. E. Herr,  
 A. Heyden,  S. Hirata,  E. G. Hohenstein,  G. Kedziora,  F. J. Keil,  
 C. Kelley,  Jihan Kim,  R. A. King,  R. Z. Khaliullin,  P. P. Korambath,  
 W. Kurlancheek,  A. Laurent,  A. M. Lee,  M. S. Lee,  S. V. Levchenko,  
 Ching Yeh Lin,  D. Liotard,  E. Livshits,  R. C. Lochan,  I. Lotan,  
 L. A. Martinez-Martinez,  P. E. Maslen,  N. Nair,  D. P. O'Neill,  
 D. Neuhauser,  E. Neuscamman,  C. M. Oana,  R. Olivares-Amaya,  R. Olson,  
 T. M. Perrine,  B. Peters,  P. A. Pieniazek,  A. Prociuk,  Y. M. Rhee,  
 J. Ritchie,  M. A. Rohrdanz,  E. Rosta,  N. J. Russ,  H. F. Schaefer III,  
 M. W. Schmidt,  N. E. Schultz,  S. Sharma,  N. Shenvi,  C. D. Sherrill,  
 A. C. Simmonett,  A. Sodt,  T. Stein,  D. Stuck,  K. S. Thanthiriwatte,  
 V. Vanovschi,  L. Vogt,  Tao Wang,  A. Warshel,  M. A. Watson,  
 C. F. Williams,  Q. Wu,  X. Xu,  Jun Yang,  W. Zhang,  Yan Zhao

 Please cite Q-Chem as follows:
 Y. Shao et al., Mol. Phys. 113, 184-215 (2015)
 DOI: 10.1080/00268976.2014.952696

 Q-Chem 5.4.0 for Intel X86 EM64T Linux

 Parts of Q-Chem use Armadillo 9.800.1 (Horizon Scraper).
 http://arma.sourceforge.net/

 Q-Chem begins on Sun Jul 10 03:55:19 2022  

 Host: 
0

     Scratch files written to ./qchem1726586//
 May1621 |scratch|qcdevops|jenkins|workspace|build_RNUM    
 Processing $rem in /cm/shared/apps/spack/cpu/opt/spack/linux-centos8-zen2/gcc-10.2.0/qchem-5.4-akfmr7b3t57bfs6qan3padb2wnb2i7cl/config/preferences:
 Processing $rem in /home/theleonzhang/.qchemrc:
 Symmetry turned off for PCM/SM12/SMD calculation
 Core orbitals will be frozen

 Checking the input file for inconsistencies... 	...done.

--------------------------------------------------------------
User input:
--------------------------------------------------------------
$molecule
0 1
C	0.775127	-3.866725	0.000713
C	-0.612565	-3.703963	0.000302
C	-1.066639	-2.357056	-0.000067
H	-1.302900	-4.561092	0.000470
C	-0.000000	-1.440664	-0.000000
S	1.544483	-2.286957	-0.000009
C	-2.521872	-1.978743	-0.000295
H	-3.166949	-2.878678	-0.000221
H	-2.790821	-1.376015	-0.892850
H	-2.791023	-1.375728	0.892005
C	0.000000	0.000000	0.000000
C	0.149995	0.850475	1.099446
C	0.390327	2.213354	0.776721
H	0.085947	0.487279	2.136088
C	0.428665	2.430655	-0.612546
S	0.163670	0.928078	-1.486809
C	0.579235	3.284574	1.814609
H	0.505323	2.865404	2.836676
H	-0.185980	4.083890	1.726239
H	1.571698	3.773937	1.726228
H	0.593515	3.365448	-1.161575
H	1.119411	-4.392713	-0.896681
H	1.119277	-4.392347	0.898372
H	-0.000115	-1.440391	1.080000
$end

$rem
JOBTYPE		SP
EXCHANGE	HF
CORRELATION	pRIMP2
BASIS		cc-pvtz
METHOD		rimp2
AUX_BASIS	rimp2-cc-pvtz
SOLVENT_METHOD	PCM
PURECART	11111
SYMMETRY	false
MEM_TOTAL	110000
SCF_CONVERGENCE = 6
THRESH=10
$end



$solvent
dielectric 4.90
$end
--------------------------------------------------------------
 ----------------------------------------------------------------
             Standard Nuclear Orientation (Angstroms)
    I     Atom           X                Y                Z
 ----------------------------------------------------------------
    1      C       0.7751270000    -3.8667250000     0.0007130000
    2      C      -0.6125650000    -3.7039630000     0.0003020000
    3      C      -1.0666390000    -2.3570560000    -0.0000670000
    4      H      -1.3029000000    -4.5610920000     0.0004700000
    5      C       0.0000000000    -1.4406640000     0.0000000000
    6      S       1.5444830000    -2.2869570000    -0.0000090000
    7      C      -2.5218720000    -1.9787430000    -0.0002950000
    8      H      -3.1669490000    -2.8786780000    -0.0002210000
    9      H      -2.7908210000    -1.3760150000    -0.8928500000
   10      H      -2.7910230000    -1.3757280000     0.8920050000
   11      C       0.0000000000     0.0000000000     0.0000000000
   12      C       0.1499950000     0.8504750000     1.0994460000
   13      C       0.3903270000     2.2133540000     0.7767210000
   14      H       0.0859470000     0.4872790000     2.1360880000
   15      C       0.4286650000     2.4306550000    -0.6125460000
   16      S       0.1636700000     0.9280780000    -1.4868090000
   17      C       0.5792350000     3.2845740000     1.8146090000
   18      H       0.5053230000     2.8654040000     2.8366760000
   19      H      -0.1859800000     4.0838900000     1.7262390000
   20      H       1.5716980000     3.7739370000     1.7262280000
   21      H       0.5935150000     3.3654480000    -1.1615750000
   22      H       1.1194110000    -4.3927130000    -0.8966810000
   23      H       1.1192770000    -4.3923470000     0.8983720000
   24      H      -0.0001150000    -1.4403910000     1.0800000000
 ----------------------------------------------------------------
 Nuclear Repulsion Energy =         871.78225186 hartrees
 There are       52 alpha and       52 beta electrons

 Q-Chem warning in module forms1/BasisType.C, line 2236:

 You are not using the predefined 5D/6D in this basis set.

 Requested basis set is cc-pVTZ
 There are 196 shells and 536 basis functions

 Total QAlloc Memory Limit 110000 MB
 Mega-Array Size       188 MB
 MEM_STATIC part       192 MB
 Discretize the solute cavity surface with Lebedev spheres
	Using 110 Lebedev grid points for each H atom
	Using 194 Lebedev grid points for other atoms
	Atomic van der Waals radii will be scaled by 1.20
 Remove points where switching function is < 1.0e-08
 Keep 1620 surface tesserae and discard 2028 interior tesserae
 Molecular Surface Area = 240.427 Angst**2
 Requested basis set is rimp2-cc-pVTZ
 There are 414 shells and 1414 basis functions
 A cutoff of  1.0D-10 yielded  13861 shell pairs
 There are    100397 function pairs (    128790 Cartesian)
 Smallest overlap matrix eigenvalue = 7.32E-05

 Scale SEOQF with 1.000000e-01/1.000000e-01/1.000000e-01

 Standard Electronic Orientation quadrupole field applied
 Nucleus-field energy     =     0.0000000372 hartrees
 Guess from superposition of atomic densities
 Warning:  Energy on first SCF cycle will be non-variational
 SAD guess density has 104.000000 electrons

 -----------------------------------------------------------------------
  General SCF calculation program by
  Eric Jon Sundstrom, Paul Horn, Yuezhi Mao, Dmitri Zuev, Alec White,
  David Stuck, Shaama M.S., Shane Yost, Joonho Lee, David Small,
  Daniel Levine, Susi Lehtola, Hugh Burton, Evgeny Epifanovsky,
  Bang C. Huynh
 -----------------------------------------------------------------------
 Hartree-Fock
 A restricted SCF calculation will be
 performed using DIIS
 SCF converges when DIIS error is below 1.0e-06
 ---------------------------------------
  Cycle       Energy         DIIS error
 ---------------------------------------
    1   -1186.0187767113      2.39e-02  
    2   -1180.6215923976      1.54e-03  
    3   -1180.7450464716      5.79e-04  
    4   -1180.7583616880      3.25e-04  
    5   -1180.7630928551      5.79e-05  
    6   -1180.7633276810      2.38e-05  
    7   -1180.7633843980      8.84e-06  
    8   -1180.7633980160      4.29e-06  
    9   -1180.7634011005      1.49e-06  
   10   -1180.7634015751      5.06e-07  Convergence criterion met
 ---------------------------------------
 SCF time:   CPU 565.80s  wall 569.00s 

************** Final PCM Free Energy Summary **************
 G_electrostatic  =      -0.00938502 hartree =      -5.88919034 kcal/mol
 G_cavitation     =       0.00000000 hartree =       0.00000000 kcal/mol
 G_dispersion     =       0.00000000 hartree =       0.00000000 kcal/mol
 G_repulsion      =       0.00000000 hartree =       0.00000000 kcal/mol
 --------------------------------------------------
 Non-electrostatic Free Energy =       0.00000000 hartree =       0.00000000 kcal/mol
 Total                         =      -0.00938502 hartree =      -5.88919034 kcal/mol
 --------------------------------------------------
 SCF Energy (H0 + V/2)                       =   -1180.76340158 
 Solute Internal Energy (H0)                 =   -1180.75401655 
 Total Free Energy (H0 + V/2 + non-elec)     =   -1180.76340158 hartree
                                             = -740940.21749857 kcal/mol
***********************************************************

 SCF   energy in the final basis set =    -1180.7634015751
 Total energy in the final basis set =    -1180.7634015751


 --------------------------------------------------------------
  Generalized many-body perturbation theory program
  by Joonho Lee, Fazle Rob, Xintian Feng, Evgeny Epifanovsky

 No regularization used 
 (reg. param. = 0.0000e+00)
  (P|Q)^-1/2 Time:  CPU 1.91 s  wall 1.92 s

 In RI-MP2 calculation: 
 # of frozen core orbitals: 20

 Components of the RIMP2 correlation energy:
        aaaa    correlation energy =        -0.2510478478 a.u.
        abab    correlation energy =        -1.5024109496 a.u.
        bbbb    correlation energy =        -0.2510478478 a.u.
        non-Brillouin singles      =        -0.0000000000 a.u.
        total same-spin energy     =        -0.5020956956 a.u.
        total opposite-spin energy =        -1.5024109496 a.u.

 Total  RIMP2   correlation energy =        -2.0045066452 a.u.
        RIMP2         total energy =     -1182.7679082204 a.u.

 RI-MP2 Energy Time:  CPU 79.54 s  wall 79.83 s
 
 --------------------------------------------------------------
 
                    Orbital Energies (a.u.)
 --------------------------------------------------------------
 
 Alpha MOs
 -- Occupied --
-91.9799 -91.9416 -11.2807 -11.2654 -11.2620 -11.2552 -11.2506 -11.2444
-11.2407 -11.2315 -11.2293 -11.2188  -8.9799  -8.9462  -6.6609  -6.6603
 -6.6598  -6.6276  -6.6266  -6.6253  -1.1979  -1.1537  -1.0579  -1.0261
 -1.0057  -0.9597  -0.9119  -0.9010  -0.8153  -0.7612  -0.7357  -0.7014
 -0.6610  -0.6409  -0.6104  -0.5889  -0.5805  -0.5713  -0.5659  -0.5504
 -0.5415  -0.5303  -0.5121  -0.5063  -0.4926  -0.4811  -0.4598  -0.4486
 -0.3565  -0.3404  -0.3116  -0.2827
 -- Virtual --
  0.0937   0.1323   0.1419   0.1507   0.1584   0.1715   0.1764   0.1800
  0.1877   0.1966   0.2045   0.2159   0.2277   0.2311   0.2348   0.2454
  0.2487   0.2570   0.2647   0.3015   0.3021   0.3394   0.3434   0.3524
  0.3686   0.3750   0.3774   0.3909   0.3950   0.4050   0.4105   0.4193
  0.4333   0.4388   0.4545   0.4582   0.4655   0.4758   0.4775   0.4853
  0.5036   0.5119   0.5139   0.5248   0.5283   0.5339   0.5419   0.5553
  0.5688   0.5808   0.5852   0.5993   0.6031   0.6073   0.6088   0.6174
  0.6272   0.6292   0.6311   0.6363   0.6425   0.6449   0.6475   0.6511
  0.6605   0.6700   0.6786   0.6817   0.6896   0.6989   0.7177   0.7227
  0.7329   0.7500   0.7544   0.7726   0.7863   0.8047   0.8105   0.8183
  0.8267   0.8413   0.8470   0.8519   0.8749   0.8989   0.9100   0.9220
  0.9238   0.9423   0.9455   0.9537   0.9715   0.9867   1.0016   1.0083
  1.0163   1.0252   1.0294   1.0432   1.0613   1.0629   1.0705   1.0778
  1.0896   1.1013   1.1047   1.1201   1.1273   1.1619   1.1635   1.1685
  1.1712   1.1849   1.1877   1.2069   1.2122   1.2276   1.2311   1.2458
  1.2537   1.2587   1.2638   1.2699   1.2830   1.2906   1.3100   1.3165
  1.3206   1.3307   1.3431   1.3506   1.3603   1.3934   1.4078   1.4130
  1.4195   1.4326   1.4499   1.4568   1.4685   1.4816   1.4871   1.4981
  1.5076   1.5177   1.5212   1.5297   1.5401   1.5434   1.5466   1.5526
  1.5694   1.5728   1.5819   1.5922   1.6040   1.6140   1.6233   1.6364
  1.6481   1.6733   1.6824   1.6877   1.7004   1.7204   1.7218   1.7361
  1.7438   1.7574   1.7723   1.7820   1.7993   1.8216   1.8326   1.8616
  1.8674   1.9092   1.9180   1.9429   1.9563   1.9719   1.9890   2.0013
  2.0156   2.0305   2.0498   2.0555   2.0743   2.1243   2.1347   2.1475
  2.1881   2.1907   2.2004   2.2166   2.2287   2.2506   2.2694   2.2741
  2.2892   2.3296   2.3413   2.3712   2.4141   2.4422   2.4512   2.4696
  2.4923   2.5039   2.5194   2.5377   2.5761   2.5805   2.6023   2.6146
  2.6298   2.6349   2.6614   2.6659   2.6708   2.6872   2.7042   2.7216
  2.7418   2.7475   2.7604   2.7635   2.7747   2.7845   2.8013   2.8236
  2.8419   2.8457   2.8641   2.8781   2.8860   2.8954   2.9165   2.9225
  2.9275   2.9446   2.9654   2.9774   3.0157   3.0195   3.0238   3.0390
  3.0489   3.0789   3.0848   3.0948   3.1112   3.1159   3.1315   3.1419
  3.1548   3.1576   3.1657   3.1722   3.1866   3.2028   3.2048   3.2180
  3.2349   3.2382   3.2498   3.2628   3.2805   3.2904   3.2985   3.3127
  3.3198   3.3272   3.3320   3.3406   3.3468   3.3496   3.3544   3.3651
  3.3724   3.3803   3.3891   3.3976   3.4041   3.4056   3.4205   3.4348
  3.4370   3.4423   3.4528   3.4633   3.4800   3.4922   3.4949   3.5103
  3.5140   3.5294   3.5391   3.5410   3.5496   3.5577   3.5705   3.5823
  3.5955   3.6014   3.6090   3.6187   3.6250   3.6317   3.6407   3.6505
  3.6697   3.6774   3.6889   3.7031   3.7106   3.7143   3.7285   3.7328
  3.7383   3.7522   3.7593   3.7799   3.7917   3.7985   3.8100   3.8162
  3.8301   3.8343   3.8416   3.8693   3.8806   3.8843   3.8994   3.9202
  3.9243   3.9472   3.9543   3.9686   3.9759   3.9910   3.9987   4.0070
  4.0168   4.0347   4.0441   4.0522   4.0702   4.0791   4.0866   4.1026
  4.1156   4.1237   4.1465   4.1598   4.1632   4.1700   4.1872   4.1976
  4.2160   4.2176   4.2303   4.2449   4.2515   4.2596   4.2683   4.2794
  4.2934   4.3106   4.3151   4.3340   4.3361   4.3488   4.3634   4.3697
  4.3734   4.3804   4.3993   4.4023   4.4069   4.4198   4.4259   4.4491
  4.4602   4.4753   4.4808   4.4879   4.5028   4.5195   4.5418   4.5490
  4.5753   4.5920   4.6147   4.6204   4.6401   4.6482   4.6517   4.6706
  4.7019   4.7209   4.7258   4.7574   4.7713   4.8085   4.8244   4.8314
  4.8564   4.8609   4.8979   4.8999   4.9237   4.9574   4.9759   4.9924
  5.0192   5.0439   5.0924   5.1098   5.1136   5.1257   5.1550   5.1797
  5.1910   5.2035   5.2305   5.2619   5.2836   5.2935   5.3096   5.3228
  5.3442   5.3699   5.3770   5.3999   5.4064   5.4269   5.4415   5.4542
  5.4870   5.5161   5.5269   5.5436   5.5481   5.5593   5.5784   5.5870
  5.6217   5.6293   5.6514   5.6739   5.6819   5.6997   5.7128   5.7336
  5.7766   5.7931   5.8359   5.9661   5.9960   6.0682   6.1295   6.1468
  6.2017   6.2173   6.2260   6.2461   6.2517   6.2749   6.2975   6.3271
  6.3746   6.4840   9.4823  10.6653  12.0585  12.9416  13.1839  13.9243
 14.1028  14.1955  14.3379  14.6620
 --------------------------------------------------------------
 
          Ground-State Mulliken Net Atomic Charges

     Atom                 Charge (a.u.)
  ----------------------------------------
      1 C                    -0.075718
      2 C                    -0.326991
      3 C                    -0.029149
      4 H                     0.176213
      5 C                     0.087529
      6 S                    -0.172601
      7 C                    -0.266731
      8 H                     0.112226
      9 H                     0.106614
     10 H                     0.100784
     11 C                    -0.077328
     12 C                    -0.245398
     13 C                     0.024529
     14 H                     0.181620
     15 C                    -0.235825
     16 S                     0.005798
     17 C                    -0.271569
     18 H                     0.101946
     19 H                     0.107803
     20 H                     0.108858
     21 H                     0.196867
     22 H                     0.112225
     23 H                     0.110556
     24 H                     0.167742
  ----------------------------------------
  Sum of atomic charges =     0.000000

 -----------------------------------------------------------------
                    Cartesian Multipole Moments
 -----------------------------------------------------------------
    Charge (ESU x 10^10)
                -0.0000
    Dipole Moment (Debye)
         X      -2.0788      Y       0.5860      Z       2.3012
       Tot       3.1560
    Quadrupole Moments (Debye-Ang)
        XX     -91.3722     XY       5.4148     YY     -73.9664
        XZ       0.5246     YZ      -0.2738     ZZ     -86.0612
    Octopole Moments (Debye-Ang^2)
       XXX     -43.4985    XXY      42.3789    XYY      -4.4241
       YYY     127.3843    XXZ      -1.3789    XYZ      -1.2017
       YYZ      -1.2926    XZZ      -8.8458    YZZ      56.4468
       ZZZ       3.5166
    Hexadecapole Moments (Debye-Ang^3)
      XXXX    -732.5101   XXXY     -51.1883   XXYY    -615.1666
      XYYY     -66.2000   YYYY   -2764.6870   XXXZ     -13.6521
      XXYZ     -30.9287   XYYZ      -5.9420   YYYZ    -111.2208
      XXZZ    -224.5256   XYZZ     -26.2067   YYZZ    -594.3842
      XZZZ     -16.1155   YZZZ     -94.4672   ZZZZ    -537.4338
 -----------------------------------------------------------------
 Total job time:  652.34s(wall), 646.25s(cpu) 
 Sun Jul 10 04:06:11 2022

        *************************************************************
        *                                                           *
        *  Thank you very much for using Q-Chem.  Have a nice day.  *
        *                                                           *
        *************************************************************


remove work dirs ./qchem1726586.0 -- ./qchem1726586.-1
rm -rf ./qchem1726586
You are running Q-Chem version: 5.4.0

#
# job setting
#
local host:  exp-1-04
current dir: /expanse/lustre/scratch/theleonzhang/temp_project/Hydrogenated_Rotation_Test
input file:  Methylthiophene_Phi_10_Theta_270_Methylthiophene_Hydrogenated.qcin
output file: 
nprocs     : 0
nthreads   : 1
#
# qchem installation setting
#
QC:          /cm/shared/apps/spack/cpu/opt/spack/linux-centos8-zen2/gcc-10.2.0/qchem-5.4-akfmr7b3t57bfs6qan3padb2wnb2i7cl
QCAUX:       /cm/shared/apps/spack/cpu/opt/spack/linux-centos8-zen2/gcc-10.2.0/qchem-5.4-akfmr7b3t57bfs6qan3padb2wnb2i7cl/qcaux
QCPROG:      /cm/shared/apps/spack/cpu/opt/spack/linux-centos8-zen2/gcc-10.2.0/qchem-5.4-akfmr7b3t57bfs6qan3padb2wnb2i7cl/exe/qcprog.exe_s
QCPROG_S:    /cm/shared/apps/spack/cpu/opt/spack/linux-centos8-zen2/gcc-10.2.0/qchem-5.4-akfmr7b3t57bfs6qan3padb2wnb2i7cl/exe/qcprog.exe_s
PARALLEL:    -DSERIAL
QCMPI:       mpich
#
# qchem directory setting
#
qcrun:       qchem1335858
QCSCRATCH:   .
QCLOCALSCR:  
QCTMPDIR:    .
QCFILEPREF:  ./qchem1335858
QCSAVEDIR:   
workdirs:    ./qchem1335858
workdir0:    ./qchem1335858
partmpdirs =  
#
# parallel setting
#
QCRSH:           ssh
QCMPI:           mpich
QCMPIRUN:        /cm/shared/apps/spack/cpu/opt/spack/linux-centos8-zen2/gcc-10.2.0/qchem-5.4-akfmr7b3t57bfs6qan3padb2wnb2i7cl/bin/mpi/mpirun_qchem
QCMACHINEFILE:   ./qchem1335858/hostfile

#
# env setting
#
exported envs:   QC QCAUX QCSCRATCH QCRUNNAME QCFILEPREF QCPROG QCPROG_S GUIFILE

Running Job 1 of 1 Methylthiophene_Phi_10_Theta_270_Methylthiophene_Hydrogenated.qcin
qchem Methylthiophene_Phi_10_Theta_270_Methylthiophene_Hydrogenated.qcin_1335858.0 ./qchem1335858/ 0
/cm/shared/apps/spack/cpu/opt/spack/linux-centos8-zen2/gcc-10.2.0/qchem-5.4-akfmr7b3t57bfs6qan3padb2wnb2i7cl/exe/qcprog.exe_s Methylthiophene_Phi_10_Theta_270_Methylthiophene_Hydrogenated.qcin_1335858.0 ./qchem1335858/
                  Welcome to Q-Chem
     A Quantum Leap Into The Future Of Chemistry


 Q-Chem 5.4, Q-Chem, Inc., Pleasanton, CA (2021)

 License issued to: University of California, San Diego (site)

 E. Epifanovsky,  A. T. B. Gilbert,  Xintian Feng,  Joonho Lee,  Yuezhi Mao,  
 N. Mardirossian,  P. Pokhilko,  A. White,  M. Wormit,  M. P. Coons,  
 A. L. Dempwolff,  Zhengting Gan,  D. Hait,  P. R. Horn,  L. D. Jacobson,  
 I. Kaliman,  J. Kussmann,  A. W. Lange,  Ka Un Lao,  D. S. Levine,  Jie Liu,  
 S. C. McKenzie,  A. F. Morrison,  K. Nanda,  F. Plasser,  D. R. Rehn,  
 M. L. Vidal,  Zhi-Qiang You,  Ying Zhu,  B. Alam,  B. Albrecht,  
 A. Aldossary,  E. Alguire,  J. H. Andersen,  D. Barton,  K. Begam,  A. Behn,  
 Y. A. Bernard,  E. J. Berquist,  H. Burton,  A. Carreras,  K. Carter-Fenk,  
 R. Chakraborty,  A. D. Chien,  K. D. Closser,  V. Cofer-Shabica,  
 S. Dasgupta,  Jia Deng,  M. de Wergifosse,  M. Diedenhofen,  Hainam Do,  
 S. Ehlert,  Po-Tung Fang,  S. Fatehi,  Qingguo Feng,  J. Gayvert,  
 Qinghui Ge,  G. Gidofalvi,  M. Goldey,  J. Gomes,  C. Gonzalez-Espinoza,  
 S. Gulania,  A. Gunina,  M. W. D. Hanson-Heine,  P. H. P. Harbach,  
 A. W. Hauser,  M. F. Herbst,  M. Hernandez Vera,  M. Hodecker,  
 Z. C. Holden,  S. Houck,  Xunkun Huang,  Kerwin Hui,  B. C. Huynh,  
 M. Ivanov,  Hyunjun Ji,  Hanjie Jiang,  B. Kaduk,  S. Kaehler,  
 K. Khistyaev,  Jaehoon Kim,  P. Klunzinger,  Z. Koczor-Benda,  
 Joong Hoon Koh,  D. Kosenkov,  L. Koulias,  T. Kowalczyk,  C. M. Krauter,  
 K. Kue,  A. Kunitsa,  T. Kus,  A. Landau,  K. V. Lawler,  D. Lefrancois,  
 S. Lehtola,  Rain Li,  Yi-Pei Li,  Jiashu Liang,  M. Liebenthal,  
 Hung-Hsuan Lin,  You-Sheng Lin,  Fenglai Liu,  Kuan-Yu Liu,  
 M. Loipersberger,  A. Luenser,  A. Manjanath,  P. Manohar,  E. Mansoor,  
 S. F. Manzer,  Shan-Ping Mao,  A. V. Marenich,  T. Markovich,  S. Mason,  
 S. A. Maurer,  P. F. McLaughlin,  M. F. S. J. Menger,  J.-M. Mewes,  
 S. A. Mewes,  P. Morgante,  J. W. Mullinax,  T. S. Nguyen-Beck,  
 K. J. Oosterbaan,  G. Paran,  Alexander C. Paul,  Suranjan K. Paul,  
 F. Pavosevic,  Zheng Pei,  S. Prager,  E. I. Proynov,  E. Ramos,  B. Rana,  
 A. E. Rask,  A. Rettig,  R. M. Richard,  F. Rob,  E. Rossomme,  T. Scheele,  
 M. Scheurer,  M. Schneider,  N. Sergueev,  S. M. Sharada,  W. Skomorowski,  
 D. W. Small,  C. J. Stein,  Yu-Chuan Su,  E. J. Sundstrom,  Zhen Tao,  
 J. Thirman,  T. Tsuchimochi,  N. M. Tubman,  S. P. Veccham,  O. Vydrov,  
 J. Wenzel,  J. Witte,  A. Yamada,  Kun Yao,  S. Yeganeh,  S. R. Yost,  
 A. Zech,  Igor Ying Zhang,  Xing Zhang,  Yu Zhang,  D. Zuev,  
 A. Aspuru-Guzik,  A. T. Bell,  N. A. Besley,  K. B. Bravaya,  B. R. Brooks,  
 D. Casanova,  Jeng-Da Chai,  S. Coriani,  C. J. Cramer,  
 A. E. DePrince, III,  R. A. DiStasio Jr.,  A. Dreuw,  B. D. Dunietz,  
 T. R. Furlani,  W. A. Goddard III,  S. Grimme,  S. Hammes-Schiffer,  
 T. Head-Gordon,  W. J. Hehre,  Chao-Ping Hsu,  T.-C. Jagau,  Yousung Jung,  
 A. Klamt,  Jing Kong,  D. S. Lambrecht,  WanZhen Liang,  N. J. Mayhall,  
 C. W. McCurdy,  J. B. Neaton,  C. Ochsenfeld,  J. A. Parkhill,  R. Peverati,  
 V. A. Rassolov,  Yihan Shao,  L. V. Slipchenko,  T. Stauch,  R. P. Steele,  
 J. E. Subotnik,  A. J. W. Thom,  A. Tkatchenko,  D. G. Truhlar,  
 T. Van Voorhis,  T. A. Wesolowski,  K. B. Whaley,  H. L. Woodcock III,  
 P. M. Zimmerman,  S. Faraji,  P. M. W. Gill,  M. Head-Gordon,  
 J. M. Herbert,  A. I. Krylov

 Contributors to earlier versions of Q-Chem not listed above: 
 R. D. Adamson,  B. Austin,  R. Baer,  J. Baker,  G. J. O. Beran,  
 K. Brandhorst,  S. T. Brown,  E. F. C. Byrd,  A. K. Chakraborty,  
 G. K. L. Chan,  Chun-Min Chang,  Yunqing Chen,  C.-L. Cheng,  
 Siu Hung Chien,  D. M. Chipman,  D. L. Crittenden,  H. Dachsel,  
 R. J. Doerksen,  A. D. Dutoi,  R. G. Edgar,  J. Fosso-Tande,  
 L. Fusti-Molnar,  D. Ghosh,  A. Ghysels,  A. Golubeva-Zadorozhnaya,  
 J. Gonthier,  M. S. Gordon,  S. R. Gwaltney,  G. Hawkins,  J. E. Herr,  
 A. Heyden,  S. Hirata,  E. G. Hohenstein,  G. Kedziora,  F. J. Keil,  
 C. Kelley,  Jihan Kim,  R. A. King,  R. Z. Khaliullin,  P. P. Korambath,  
 W. Kurlancheek,  A. Laurent,  A. M. Lee,  M. S. Lee,  S. V. Levchenko,  
 Ching Yeh Lin,  D. Liotard,  E. Livshits,  R. C. Lochan,  I. Lotan,  
 L. A. Martinez-Martinez,  P. E. Maslen,  N. Nair,  D. P. O'Neill,  
 D. Neuhauser,  E. Neuscamman,  C. M. Oana,  R. Olivares-Amaya,  R. Olson,  
 T. M. Perrine,  B. Peters,  P. A. Pieniazek,  A. Prociuk,  Y. M. Rhee,  
 J. Ritchie,  M. A. Rohrdanz,  E. Rosta,  N. J. Russ,  H. F. Schaefer III,  
 M. W. Schmidt,  N. E. Schultz,  S. Sharma,  N. Shenvi,  C. D. Sherrill,  
 A. C. Simmonett,  A. Sodt,  T. Stein,  D. Stuck,  K. S. Thanthiriwatte,  
 V. Vanovschi,  L. Vogt,  Tao Wang,  A. Warshel,  M. A. Watson,  
 C. F. Williams,  Q. Wu,  X. Xu,  Jun Yang,  W. Zhang,  Yan Zhao

 Please cite Q-Chem as follows:
 Y. Shao et al., Mol. Phys. 113, 184-215 (2015)
 DOI: 10.1080/00268976.2014.952696

 Q-Chem 5.4.0 for Intel X86 EM64T Linux

 Parts of Q-Chem use Armadillo 9.800.1 (Horizon Scraper).
 http://arma.sourceforge.net/

 Q-Chem begins on Sun Jul 10 04:29:57 2022  

 Host: 
0

     Scratch files written to ./qchem1335858//
 May1621 |scratch|qcdevops|jenkins|workspace|build_RNUM    
 Processing $rem in /cm/shared/apps/spack/cpu/opt/spack/linux-centos8-zen2/gcc-10.2.0/qchem-5.4-akfmr7b3t57bfs6qan3padb2wnb2i7cl/config/preferences:
 Processing $rem in /home/theleonzhang/.qchemrc:
 Symmetry turned off for PCM/SM12/SMD calculation
 Core orbitals will be frozen

 Checking the input file for inconsistencies... 	...done.

--------------------------------------------------------------
User input:
--------------------------------------------------------------
$molecule
0 1
C	0.775127	-3.866725	0.000713
C	-0.612565	-3.703963	0.000302
C	-1.066639	-2.357056	-0.000067
H	-1.302900	-4.561092	0.000470
C	-0.000000	-1.440664	-0.000000
S	1.544483	-2.286957	-0.000009
C	-2.521872	-1.978743	-0.000295
H	-3.166949	-2.878678	-0.000221
H	-2.790821	-1.376015	-0.892850
H	-2.791023	-1.375728	0.892005
C	0.000000	0.000000	0.000000
C	0.149995	0.850475	1.099446
C	0.390327	2.213354	0.776721
H	0.085947	0.487279	2.136088
C	0.428665	2.430655	-0.612546
S	0.163670	0.928078	-1.486809
C	0.579235	3.284574	1.814609
H	0.505323	2.865404	2.836676
H	-0.185980	4.083890	1.726239
H	1.571698	3.773937	1.726228
H	0.593515	3.365448	-1.161575
H	1.119411	-4.392713	-0.896681
H	1.119277	-4.392347	0.898372
H	-0.000115	-1.440391	1.080000
$end

$rem
JOBTYPE		SP
EXCHANGE	HF
CORRELATION	pRIMP2
BASIS		cc-pvtz
METHOD		rimp2
AUX_BASIS	rimp2-cc-pvtz
SOLVENT_METHOD	PCM
PURECART	11111
SYMMETRY	false
MEM_TOTAL	110000
SCF_CONVERGENCE = 6
THRESH=10
$end



$solvent
dielectric 4.90
$end
--------------------------------------------------------------
 ----------------------------------------------------------------
             Standard Nuclear Orientation (Angstroms)
    I     Atom           X                Y                Z
 ----------------------------------------------------------------
    1      C       0.7751270000    -3.8667250000     0.0007130000
    2      C      -0.6125650000    -3.7039630000     0.0003020000
    3      C      -1.0666390000    -2.3570560000    -0.0000670000
    4      H      -1.3029000000    -4.5610920000     0.0004700000
    5      C       0.0000000000    -1.4406640000     0.0000000000
    6      S       1.5444830000    -2.2869570000    -0.0000090000
    7      C      -2.5218720000    -1.9787430000    -0.0002950000
    8      H      -3.1669490000    -2.8786780000    -0.0002210000
    9      H      -2.7908210000    -1.3760150000    -0.8928500000
   10      H      -2.7910230000    -1.3757280000     0.8920050000
   11      C       0.0000000000     0.0000000000     0.0000000000
   12      C       0.1499950000     0.8504750000     1.0994460000
   13      C       0.3903270000     2.2133540000     0.7767210000
   14      H       0.0859470000     0.4872790000     2.1360880000
   15      C       0.4286650000     2.4306550000    -0.6125460000
   16      S       0.1636700000     0.9280780000    -1.4868090000
   17      C       0.5792350000     3.2845740000     1.8146090000
   18      H       0.5053230000     2.8654040000     2.8366760000
   19      H      -0.1859800000     4.0838900000     1.7262390000
   20      H       1.5716980000     3.7739370000     1.7262280000
   21      H       0.5935150000     3.3654480000    -1.1615750000
   22      H       1.1194110000    -4.3927130000    -0.8966810000
   23      H       1.1192770000    -4.3923470000     0.8983720000
   24      H      -0.0001150000    -1.4403910000     1.0800000000
 ----------------------------------------------------------------
 Nuclear Repulsion Energy =         871.78225186 hartrees
 There are       52 alpha and       52 beta electrons

 Q-Chem warning in module forms1/BasisType.C, line 2236:

 You are not using the predefined 5D/6D in this basis set.

 Requested basis set is cc-pVTZ
 There are 196 shells and 536 basis functions

 Total QAlloc Memory Limit 110000 MB
 Mega-Array Size       188 MB
 MEM_STATIC part       192 MB
 Discretize the solute cavity surface with Lebedev spheres
	Using 110 Lebedev grid points for each H atom
	Using 194 Lebedev grid points for other atoms
	Atomic van der Waals radii will be scaled by 1.20
 Remove points where switching function is < 1.0e-08
 Keep 1620 surface tesserae and discard 2028 interior tesserae
 Molecular Surface Area = 240.427 Angst**2
 Requested basis set is rimp2-cc-pVTZ
 There are 414 shells and 1414 basis functions
 A cutoff of  1.0D-10 yielded  13861 shell pairs
 There are    100397 function pairs (    128790 Cartesian)
 Smallest overlap matrix eigenvalue = 7.32E-05

 Scale SEOQF with 1.000000e-01/1.000000e-01/1.000000e-01

 Standard Electronic Orientation quadrupole field applied
 Nucleus-field energy     =     0.0000000372 hartrees
 Guess from superposition of atomic densities
 Warning:  Energy on first SCF cycle will be non-variational
 SAD guess density has 104.000000 electrons

 -----------------------------------------------------------------------
  General SCF calculation program by
  Eric Jon Sundstrom, Paul Horn, Yuezhi Mao, Dmitri Zuev, Alec White,
  David Stuck, Shaama M.S., Shane Yost, Joonho Lee, David Small,
  Daniel Levine, Susi Lehtola, Hugh Burton, Evgeny Epifanovsky,
  Bang C. Huynh
 -----------------------------------------------------------------------
 Hartree-Fock
 A restricted SCF calculation will be
 performed using DIIS
 SCF converges when DIIS error is below 1.0e-06
 ---------------------------------------
  Cycle       Energy         DIIS error
 ---------------------------------------
    1   -1186.0187767113      2.39e-02  
    2   -1180.6215923976      1.54e-03  
    3   -1180.7450464716      5.79e-04  
    4   -1180.7583616880      3.25e-04  
    5   -1180.7630928551      5.79e-05  
    6   -1180.7633276810      2.38e-05  
    7   -1180.7633843980      8.84e-06  
    8   -1180.7633980160      4.29e-06  
    9   -1180.7634011005      1.49e-06  
   10   -1180.7634015751      5.06e-07  Convergence criterion met
 ---------------------------------------
 SCF time:   CPU 562.69s  wall 566.00s 

************** Final PCM Free Energy Summary **************
 G_electrostatic  =      -0.00938502 hartree =      -5.88919034 kcal/mol
 G_cavitation     =       0.00000000 hartree =       0.00000000 kcal/mol
 G_dispersion     =       0.00000000 hartree =       0.00000000 kcal/mol
 G_repulsion      =       0.00000000 hartree =       0.00000000 kcal/mol
 --------------------------------------------------
 Non-electrostatic Free Energy =       0.00000000 hartree =       0.00000000 kcal/mol
 Total                         =      -0.00938502 hartree =      -5.88919034 kcal/mol
 --------------------------------------------------
 SCF Energy (H0 + V/2)                       =   -1180.76340158 
 Solute Internal Energy (H0)                 =   -1180.75401655 
 Total Free Energy (H0 + V/2 + non-elec)     =   -1180.76340158 hartree
                                             = -740940.21749857 kcal/mol
***********************************************************

 SCF   energy in the final basis set =    -1180.7634015751
 Total energy in the final basis set =    -1180.7634015751


 --------------------------------------------------------------
  Generalized many-body perturbation theory program
  by Joonho Lee, Fazle Rob, Xintian Feng, Evgeny Epifanovsky

 No regularization used 
 (reg. param. = 0.0000e+00)
  (P|Q)^-1/2 Time:  CPU 1.91 s  wall 1.92 s

 In RI-MP2 calculation: 
 # of frozen core orbitals: 20

 Components of the RIMP2 correlation energy:
        aaaa    correlation energy =        -0.2510478478 a.u.
        abab    correlation energy =        -1.5024109496 a.u.
        bbbb    correlation energy =        -0.2510478478 a.u.
        non-Brillouin singles      =        -0.0000000000 a.u.
        total same-spin energy     =        -0.5020956956 a.u.
        total opposite-spin energy =        -1.5024109496 a.u.

 Total  RIMP2   correlation energy =        -2.0045066452 a.u.
        RIMP2         total energy =     -1182.7679082204 a.u.

 RI-MP2 Energy Time:  CPU 79.58 s  wall 79.94 s
 
 --------------------------------------------------------------
 
                    Orbital Energies (a.u.)
 --------------------------------------------------------------
 
 Alpha MOs
 -- Occupied --
-91.9799 -91.9416 -11.2807 -11.2654 -11.2620 -11.2552 -11.2506 -11.2444
-11.2407 -11.2315 -11.2293 -11.2188  -8.9799  -8.9462  -6.6609  -6.6603
 -6.6598  -6.6276  -6.6266  -6.6253  -1.1979  -1.1537  -1.0579  -1.0261
 -1.0057  -0.9597  -0.9119  -0.9010  -0.8153  -0.7612  -0.7357  -0.7014
 -0.6610  -0.6409  -0.6104  -0.5889  -0.5805  -0.5713  -0.5659  -0.5504
 -0.5415  -0.5303  -0.5121  -0.5063  -0.4926  -0.4811  -0.4598  -0.4486
 -0.3565  -0.3404  -0.3116  -0.2827
 -- Virtual --
  0.0937   0.1323   0.1419   0.1507   0.1584   0.1715   0.1764   0.1800
  0.1877   0.1966   0.2045   0.2159   0.2277   0.2311   0.2348   0.2454
  0.2487   0.2570   0.2647   0.3015   0.3021   0.3394   0.3434   0.3524
  0.3686   0.3750   0.3774   0.3909   0.3950   0.4050   0.4105   0.4193
  0.4333   0.4388   0.4545   0.4582   0.4655   0.4758   0.4775   0.4853
  0.5036   0.5119   0.5139   0.5248   0.5283   0.5339   0.5419   0.5553
  0.5688   0.5808   0.5852   0.5993   0.6031   0.6073   0.6088   0.6174
  0.6272   0.6292   0.6311   0.6363   0.6425   0.6449   0.6475   0.6511
  0.6605   0.6700   0.6786   0.6817   0.6896   0.6989   0.7177   0.7227
  0.7329   0.7500   0.7544   0.7726   0.7863   0.8047   0.8105   0.8183
  0.8267   0.8413   0.8470   0.8519   0.8749   0.8989   0.9100   0.9220
  0.9238   0.9423   0.9455   0.9537   0.9715   0.9867   1.0016   1.0083
  1.0163   1.0252   1.0294   1.0432   1.0613   1.0629   1.0705   1.0778
  1.0896   1.1013   1.1047   1.1201   1.1273   1.1619   1.1635   1.1685
  1.1712   1.1849   1.1877   1.2069   1.2122   1.2276   1.2311   1.2458
  1.2537   1.2587   1.2638   1.2699   1.2830   1.2906   1.3100   1.3165
  1.3206   1.3307   1.3431   1.3506   1.3603   1.3934   1.4078   1.4130
  1.4195   1.4326   1.4499   1.4568   1.4685   1.4816   1.4871   1.4981
  1.5076   1.5177   1.5212   1.5297   1.5401   1.5434   1.5466   1.5526
  1.5694   1.5728   1.5819   1.5922   1.6040   1.6140   1.6233   1.6364
  1.6481   1.6733   1.6824   1.6877   1.7004   1.7204   1.7218   1.7361
  1.7438   1.7574   1.7723   1.7820   1.7993   1.8216   1.8326   1.8616
  1.8674   1.9092   1.9180   1.9429   1.9563   1.9719   1.9890   2.0013
  2.0156   2.0305   2.0498   2.0555   2.0743   2.1243   2.1347   2.1475
  2.1881   2.1907   2.2004   2.2166   2.2287   2.2506   2.2694   2.2741
  2.2892   2.3296   2.3413   2.3712   2.4141   2.4422   2.4512   2.4696
  2.4923   2.5039   2.5194   2.5377   2.5761   2.5805   2.6023   2.6146
  2.6298   2.6349   2.6614   2.6659   2.6708   2.6872   2.7042   2.7216
  2.7418   2.7475   2.7604   2.7635   2.7747   2.7845   2.8013   2.8236
  2.8419   2.8457   2.8641   2.8781   2.8860   2.8954   2.9165   2.9225
  2.9275   2.9446   2.9654   2.9774   3.0157   3.0195   3.0238   3.0390
  3.0489   3.0789   3.0848   3.0948   3.1112   3.1159   3.1315   3.1419
  3.1548   3.1576   3.1657   3.1722   3.1866   3.2028   3.2048   3.2180
  3.2349   3.2382   3.2498   3.2628   3.2805   3.2904   3.2985   3.3127
  3.3198   3.3272   3.3320   3.3406   3.3468   3.3496   3.3544   3.3651
  3.3724   3.3803   3.3891   3.3976   3.4041   3.4056   3.4205   3.4348
  3.4370   3.4423   3.4528   3.4633   3.4800   3.4922   3.4949   3.5103
  3.5140   3.5294   3.5391   3.5410   3.5496   3.5577   3.5705   3.5823
  3.5955   3.6014   3.6090   3.6187   3.6250   3.6317   3.6407   3.6505
  3.6697   3.6774   3.6889   3.7031   3.7106   3.7143   3.7285   3.7328
  3.7383   3.7522   3.7593   3.7799   3.7917   3.7985   3.8100   3.8162
  3.8301   3.8343   3.8416   3.8693   3.8806   3.8843   3.8994   3.9202
  3.9243   3.9472   3.9543   3.9686   3.9759   3.9910   3.9987   4.0070
  4.0168   4.0347   4.0441   4.0522   4.0702   4.0791   4.0866   4.1026
  4.1156   4.1237   4.1465   4.1598   4.1632   4.1700   4.1872   4.1976
  4.2160   4.2176   4.2303   4.2449   4.2515   4.2596   4.2683   4.2794
  4.2934   4.3106   4.3151   4.3340   4.3361   4.3488   4.3634   4.3697
  4.3734   4.3804   4.3993   4.4023   4.4069   4.4198   4.4259   4.4491
  4.4602   4.4753   4.4808   4.4879   4.5028   4.5195   4.5418   4.5490
  4.5753   4.5920   4.6147   4.6204   4.6401   4.6482   4.6517   4.6706
  4.7019   4.7209   4.7258   4.7574   4.7713   4.8085   4.8244   4.8314
  4.8564   4.8609   4.8979   4.8999   4.9237   4.9574   4.9759   4.9924
  5.0192   5.0439   5.0924   5.1098   5.1136   5.1257   5.1550   5.1797
  5.1910   5.2035   5.2305   5.2619   5.2836   5.2935   5.3096   5.3228
  5.3442   5.3699   5.3770   5.3999   5.4064   5.4269   5.4415   5.4542
  5.4870   5.5161   5.5269   5.5436   5.5481   5.5593   5.5784   5.5870
  5.6217   5.6293   5.6514   5.6739   5.6819   5.6997   5.7128   5.7336
  5.7766   5.7931   5.8359   5.9661   5.9960   6.0682   6.1295   6.1468
  6.2017   6.2173   6.2260   6.2461   6.2517   6.2749   6.2975   6.3271
  6.3746   6.4840   9.4823  10.6653  12.0585  12.9416  13.1839  13.9243
 14.1028  14.1955  14.3379  14.6620
 --------------------------------------------------------------
 
          Ground-State Mulliken Net Atomic Charges

     Atom                 Charge (a.u.)
  ----------------------------------------
      1 C                    -0.075718
      2 C                    -0.326991
      3 C                    -0.029149
      4 H                     0.176213
      5 C                     0.087529
      6 S                    -0.172601
      7 C                    -0.266731
      8 H                     0.112226
      9 H                     0.106614
     10 H                     0.100784
     11 C                    -0.077328
     12 C                    -0.245398
     13 C                     0.024529
     14 H                     0.181620
     15 C                    -0.235825
     16 S                     0.005798
     17 C                    -0.271569
     18 H                     0.101946
     19 H                     0.107803
     20 H                     0.108858
     21 H                     0.196867
     22 H                     0.112225
     23 H                     0.110556
     24 H                     0.167742
  ----------------------------------------
  Sum of atomic charges =     0.000000

 -----------------------------------------------------------------
                    Cartesian Multipole Moments
 -----------------------------------------------------------------
    Charge (ESU x 10^10)
                -0.0000
    Dipole Moment (Debye)
         X      -2.0788      Y       0.5860      Z       2.3012
       Tot       3.1560
    Quadrupole Moments (Debye-Ang)
        XX     -91.3722     XY       5.4148     YY     -73.9664
        XZ       0.5246     YZ      -0.2738     ZZ     -86.0612
    Octopole Moments (Debye-Ang^2)
       XXX     -43.4985    XXY      42.3789    XYY      -4.4241
       YYY     127.3843    XXZ      -1.3789    XYZ      -1.2017
       YYZ      -1.2926    XZZ      -8.8458    YZZ      56.4468
       ZZZ       3.5166
    Hexadecapole Moments (Debye-Ang^3)
      XXXX    -732.5101   XXXY     -51.1883   XXYY    -615.1666
      XYYY     -66.2000   YYYY   -2764.6870   XXXZ     -13.6521
      XXYZ     -30.9287   XYYZ      -5.9420   YYYZ    -111.2208
      XXZZ    -224.5256   XYZZ     -26.2067   YYZZ    -594.3842
      XZZZ     -16.1155   YZZZ     -94.4672   ZZZZ    -537.4338
 -----------------------------------------------------------------
 Total job time:  647.90s(wall), 643.19s(cpu) 
 Sun Jul 10 04:40:45 2022

        *************************************************************
        *                                                           *
        *  Thank you very much for using Q-Chem.  Have a nice day.  *
        *                                                           *
        *************************************************************


remove work dirs ./qchem1335858.0 -- ./qchem1335858.-1
rm -rf ./qchem1335858
