You are running Q-Chem version: 5.4.0

#
# job setting
#
local host:  exp-1-30
current dir: /expanse/lustre/scratch/theleonzhang/temp_project/Hydrogenated_Rotation_Test
input file:  Methylthiophene_Phi_60_Theta_340_Methylthiophene_Hydrogenated.qcin
output file: 
nprocs     : 0
nthreads   : 1
#
# qchem installation setting
#
QC:          /cm/shared/apps/spack/cpu/opt/spack/linux-centos8-zen2/gcc-10.2.0/qchem-5.4-akfmr7b3t57bfs6qan3padb2wnb2i7cl
QCAUX:       /cm/shared/apps/spack/cpu/opt/spack/linux-centos8-zen2/gcc-10.2.0/qchem-5.4-akfmr7b3t57bfs6qan3padb2wnb2i7cl/qcaux
QCPROG:      /cm/shared/apps/spack/cpu/opt/spack/linux-centos8-zen2/gcc-10.2.0/qchem-5.4-akfmr7b3t57bfs6qan3padb2wnb2i7cl/exe/qcprog.exe_s
QCPROG_S:    /cm/shared/apps/spack/cpu/opt/spack/linux-centos8-zen2/gcc-10.2.0/qchem-5.4-akfmr7b3t57bfs6qan3padb2wnb2i7cl/exe/qcprog.exe_s
PARALLEL:    -DSERIAL
QCMPI:       mpich
#
# qchem directory setting
#
qcrun:       qchem836709
QCSCRATCH:   .
QCLOCALSCR:  
QCTMPDIR:    .
QCFILEPREF:  ./qchem836709
QCSAVEDIR:   
workdirs:    ./qchem836709
workdir0:    ./qchem836709
partmpdirs =  
#
# parallel setting
#
QCRSH:           ssh
QCMPI:           mpich
QCMPIRUN:        /cm/shared/apps/spack/cpu/opt/spack/linux-centos8-zen2/gcc-10.2.0/qchem-5.4-akfmr7b3t57bfs6qan3padb2wnb2i7cl/bin/mpi/mpirun_qchem
QCMACHINEFILE:   ./qchem836709/hostfile

#
# env setting
#
exported envs:   QC QCAUX QCSCRATCH QCRUNNAME QCFILEPREF QCPROG QCPROG_S GUIFILE

Running Job 1 of 1 Methylthiophene_Phi_60_Theta_340_Methylthiophene_Hydrogenated.qcin
qchem Methylthiophene_Phi_60_Theta_340_Methylthiophene_Hydrogenated.qcin_836709.0 ./qchem836709/ 0
/cm/shared/apps/spack/cpu/opt/spack/linux-centos8-zen2/gcc-10.2.0/qchem-5.4-akfmr7b3t57bfs6qan3padb2wnb2i7cl/exe/qcprog.exe_s Methylthiophene_Phi_60_Theta_340_Methylthiophene_Hydrogenated.qcin_836709.0 ./qchem836709/
                  Welcome to Q-Chem
     A Quantum Leap Into The Future Of Chemistry


 Q-Chem 5.4, Q-Chem, Inc., Pleasanton, CA (2021)

 License issued to: University of California, San Diego (site)

 E. Epifanovsky,  A. T. B. Gilbert,  Xintian Feng,  Joonho Lee,  Yuezhi Mao,  
 N. Mardirossian,  P. Pokhilko,  A. White,  M. Wormit,  M. P. Coons,  
 A. L. Dempwolff,  Zhengting Gan,  D. Hait,  P. R. Horn,  L. D. Jacobson,  
 I. Kaliman,  J. Kussmann,  A. W. Lange,  Ka Un Lao,  D. S. Levine,  Jie Liu,  
 S. C. McKenzie,  A. F. Morrison,  K. Nanda,  F. Plasser,  D. R. Rehn,  
 M. L. Vidal,  Zhi-Qiang You,  Ying Zhu,  B. Alam,  B. Albrecht,  
 A. Aldossary,  E. Alguire,  J. H. Andersen,  D. Barton,  K. Begam,  A. Behn,  
 Y. A. Bernard,  E. J. Berquist,  H. Burton,  A. Carreras,  K. Carter-Fenk,  
 R. Chakraborty,  A. D. Chien,  K. D. Closser,  V. Cofer-Shabica,  
 S. Dasgupta,  Jia Deng,  M. de Wergifosse,  M. Diedenhofen,  Hainam Do,  
 S. Ehlert,  Po-Tung Fang,  S. Fatehi,  Qingguo Feng,  J. Gayvert,  
 Qinghui Ge,  G. Gidofalvi,  M. Goldey,  J. Gomes,  C. Gonzalez-Espinoza,  
 S. Gulania,  A. Gunina,  M. W. D. Hanson-Heine,  P. H. P. Harbach,  
 A. W. Hauser,  M. F. Herbst,  M. Hernandez Vera,  M. Hodecker,  
 Z. C. Holden,  S. Houck,  Xunkun Huang,  Kerwin Hui,  B. C. Huynh,  
 M. Ivanov,  Hyunjun Ji,  Hanjie Jiang,  B. Kaduk,  S. Kaehler,  
 K. Khistyaev,  Jaehoon Kim,  P. Klunzinger,  Z. Koczor-Benda,  
 Joong Hoon Koh,  D. Kosenkov,  L. Koulias,  T. Kowalczyk,  C. M. Krauter,  
 K. Kue,  A. Kunitsa,  T. Kus,  A. Landau,  K. V. Lawler,  D. Lefrancois,  
 S. Lehtola,  Rain Li,  Yi-Pei Li,  Jiashu Liang,  M. Liebenthal,  
 Hung-Hsuan Lin,  You-Sheng Lin,  Fenglai Liu,  Kuan-Yu Liu,  
 M. Loipersberger,  A. Luenser,  A. Manjanath,  P. Manohar,  E. Mansoor,  
 S. F. Manzer,  Shan-Ping Mao,  A. V. Marenich,  T. Markovich,  S. Mason,  
 S. A. Maurer,  P. F. McLaughlin,  M. F. S. J. Menger,  J.-M. Mewes,  
 S. A. Mewes,  P. Morgante,  J. W. Mullinax,  T. S. Nguyen-Beck,  
 K. J. Oosterbaan,  G. Paran,  Alexander C. Paul,  Suranjan K. Paul,  
 F. Pavosevic,  Zheng Pei,  S. Prager,  E. I. Proynov,  E. Ramos,  B. Rana,  
 A. E. Rask,  A. Rettig,  R. M. Richard,  F. Rob,  E. Rossomme,  T. Scheele,  
 M. Scheurer,  M. Schneider,  N. Sergueev,  S. M. Sharada,  W. Skomorowski,  
 D. W. Small,  C. J. Stein,  Yu-Chuan Su,  E. J. Sundstrom,  Zhen Tao,  
 J. Thirman,  T. Tsuchimochi,  N. M. Tubman,  S. P. Veccham,  O. Vydrov,  
 J. Wenzel,  J. Witte,  A. Yamada,  Kun Yao,  S. Yeganeh,  S. R. Yost,  
 A. Zech,  Igor Ying Zhang,  Xing Zhang,  Yu Zhang,  D. Zuev,  
 A. Aspuru-Guzik,  A. T. Bell,  N. A. Besley,  K. B. Bravaya,  B. R. Brooks,  
 D. Casanova,  Jeng-Da Chai,  S. Coriani,  C. J. Cramer,  
 A. E. DePrince, III,  R. A. DiStasio Jr.,  A. Dreuw,  B. D. Dunietz,  
 T. R. Furlani,  W. A. Goddard III,  S. Grimme,  S. Hammes-Schiffer,  
 T. Head-Gordon,  W. J. Hehre,  Chao-Ping Hsu,  T.-C. Jagau,  Yousung Jung,  
 A. Klamt,  Jing Kong,  D. S. Lambrecht,  WanZhen Liang,  N. J. Mayhall,  
 C. W. McCurdy,  J. B. Neaton,  C. Ochsenfeld,  J. A. Parkhill,  R. Peverati,  
 V. A. Rassolov,  Yihan Shao,  L. V. Slipchenko,  T. Stauch,  R. P. Steele,  
 J. E. Subotnik,  A. J. W. Thom,  A. Tkatchenko,  D. G. Truhlar,  
 T. Van Voorhis,  T. A. Wesolowski,  K. B. Whaley,  H. L. Woodcock III,  
 P. M. Zimmerman,  S. Faraji,  P. M. W. Gill,  M. Head-Gordon,  
 J. M. Herbert,  A. I. Krylov

 Contributors to earlier versions of Q-Chem not listed above: 
 R. D. Adamson,  B. Austin,  R. Baer,  J. Baker,  G. J. O. Beran,  
 K. Brandhorst,  S. T. Brown,  E. F. C. Byrd,  A. K. Chakraborty,  
 G. K. L. Chan,  Chun-Min Chang,  Yunqing Chen,  C.-L. Cheng,  
 Siu Hung Chien,  D. M. Chipman,  D. L. Crittenden,  H. Dachsel,  
 R. J. Doerksen,  A. D. Dutoi,  R. G. Edgar,  J. Fosso-Tande,  
 L. Fusti-Molnar,  D. Ghosh,  A. Ghysels,  A. Golubeva-Zadorozhnaya,  
 J. Gonthier,  M. S. Gordon,  S. R. Gwaltney,  G. Hawkins,  J. E. Herr,  
 A. Heyden,  S. Hirata,  E. G. Hohenstein,  G. Kedziora,  F. J. Keil,  
 C. Kelley,  Jihan Kim,  R. A. King,  R. Z. Khaliullin,  P. P. Korambath,  
 W. Kurlancheek,  A. Laurent,  A. M. Lee,  M. S. Lee,  S. V. Levchenko,  
 Ching Yeh Lin,  D. Liotard,  E. Livshits,  R. C. Lochan,  I. Lotan,  
 L. A. Martinez-Martinez,  P. E. Maslen,  N. Nair,  D. P. O'Neill,  
 D. Neuhauser,  E. Neuscamman,  C. M. Oana,  R. Olivares-Amaya,  R. Olson,  
 T. M. Perrine,  B. Peters,  P. A. Pieniazek,  A. Prociuk,  Y. M. Rhee,  
 J. Ritchie,  M. A. Rohrdanz,  E. Rosta,  N. J. Russ,  H. F. Schaefer III,  
 M. W. Schmidt,  N. E. Schultz,  S. Sharma,  N. Shenvi,  C. D. Sherrill,  
 A. C. Simmonett,  A. Sodt,  T. Stein,  D. Stuck,  K. S. Thanthiriwatte,  
 V. Vanovschi,  L. Vogt,  Tao Wang,  A. Warshel,  M. A. Watson,  
 C. F. Williams,  Q. Wu,  X. Xu,  Jun Yang,  W. Zhang,  Yan Zhao

 Please cite Q-Chem as follows:
 Y. Shao et al., Mol. Phys. 113, 184-215 (2015)
 DOI: 10.1080/00268976.2014.952696

 Q-Chem 5.4.0 for Intel X86 EM64T Linux

 Parts of Q-Chem use Armadillo 9.800.1 (Horizon Scraper).
 http://arma.sourceforge.net/

 Q-Chem begins on Sun Jul 10 06:29:58 2022  

 Host: 
0

     Scratch files written to ./qchem836709//
 May1621 |scratch|qcdevops|jenkins|workspace|build_RNUM    
 Processing $rem in /cm/shared/apps/spack/cpu/opt/spack/linux-centos8-zen2/gcc-10.2.0/qchem-5.4-akfmr7b3t57bfs6qan3padb2wnb2i7cl/config/preferences:
 Processing $rem in /home/theleonzhang/.qchemrc:
 Symmetry turned off for PCM/SM12/SMD calculation
 Core orbitals will be frozen

 Checking the input file for inconsistencies... 	...done.

--------------------------------------------------------------
User input:
--------------------------------------------------------------
$molecule
0 1
C	0.264439	-3.866725	0.728625
C	-0.209794	-3.703963	-0.575519
C	-0.364749	-2.357056	-1.002336
H	-0.446060	-4.561092	-1.224165
C	0.000000	-1.440664	0.000000
S	0.528253	-2.286957	1.451336
C	-0.862253	-1.978743	-2.369885
H	-1.082953	-2.878678	-2.976034
H	-0.115513	-1.376015	-2.927887
H	-1.792797	-1.375728	-2.317620
C	0.000000	0.000000	0.000000
C	0.747916	0.431772	1.099446
C	1.946425	1.123709	0.776721
H	0.428523	0.247378	2.136088
C	2.137531	1.234018	-0.612546
S	0.816154	0.471179	-1.486809
C	2.888455	1.667564	1.814609
H	2.519842	1.454746	2.836676
H	3.008896	2.767543	1.726239
H	3.901271	1.221850	1.726228
H	2.959587	1.708609	-1.161575
H	1.225465	-4.392713	0.745219
H	-0.461378	-4.392347	1.359038
H	-1.014907	-1.440391	0.369273
$end

$rem
JOBTYPE		SP
EXCHANGE	HF
CORRELATION	pRIMP2
BASIS		cc-pvtz
METHOD		rimp2
AUX_BASIS	rimp2-cc-pvtz
SOLVENT_METHOD	PCM
PURECART	11111
SYMMETRY	false
MEM_TOTAL	110000
SCF_CONVERGENCE = 6
THRESH=10
$end



$solvent
dielectric 4.90
$end
--------------------------------------------------------------
 ----------------------------------------------------------------
             Standard Nuclear Orientation (Angstroms)
    I     Atom           X                Y                Z
 ----------------------------------------------------------------
    1      C       0.2644390000    -3.8667250000     0.7286250000
    2      C      -0.2097940000    -3.7039630000    -0.5755190000
    3      C      -0.3647490000    -2.3570560000    -1.0023360000
    4      H      -0.4460600000    -4.5610920000    -1.2241650000
    5      C       0.0000000000    -1.4406640000     0.0000000000
    6      S       0.5282530000    -2.2869570000     1.4513360000
    7      C      -0.8622530000    -1.9787430000    -2.3698850000
    8      H      -1.0829530000    -2.8786780000    -2.9760340000
    9      H      -0.1155130000    -1.3760150000    -2.9278870000
   10      H      -1.7927970000    -1.3757280000    -2.3176200000
   11      C       0.0000000000     0.0000000000     0.0000000000
   12      C       0.7479160000     0.4317720000     1.0994460000
   13      C       1.9464250000     1.1237090000     0.7767210000
   14      H       0.4285230000     0.2473780000     2.1360880000
   15      C       2.1375310000     1.2340180000    -0.6125460000
   16      S       0.8161540000     0.4711790000    -1.4868090000
   17      C       2.8884550000     1.6675640000     1.8146090000
   18      H       2.5198420000     1.4547460000     2.8366760000
   19      H       3.0088960000     2.7675430000     1.7262390000
   20      H       3.9012710000     1.2218500000     1.7262280000
   21      H       2.9595870000     1.7086090000    -1.1615750000
   22      H       1.2254650000    -4.3927130000     0.7452190000
   23      H      -0.4613780000    -4.3923470000     1.3590380000
   24      H      -1.0149070000    -1.4403910000     0.3692730000
 ----------------------------------------------------------------
 Nuclear Repulsion Energy =         903.21255289 hartrees
 There are       52 alpha and       52 beta electrons

 Q-Chem warning in module forms1/BasisType.C, line 2236:

 You are not using the predefined 5D/6D in this basis set.

 Requested basis set is cc-pVTZ
 There are 196 shells and 536 basis functions

 Total QAlloc Memory Limit 110000 MB
 Mega-Array Size       188 MB
 MEM_STATIC part       192 MB
 Discretize the solute cavity surface with Lebedev spheres
	Using 110 Lebedev grid points for each H atom
	Using 194 Lebedev grid points for other atoms
	Atomic van der Waals radii will be scaled by 1.20
 Remove points where switching function is < 1.0e-08
 Keep 1563 surface tesserae and discard 2085 interior tesserae
 Molecular Surface Area = 226.961 Angst**2
 Requested basis set is rimp2-cc-pVTZ
 There are 414 shells and 1414 basis functions
 A cutoff of  1.0D-10 yielded  14460 shell pairs
 There are    104764 function pairs (    134281 Cartesian)
 Smallest overlap matrix eigenvalue = 6.40E-05

 Scale SEOQF with 1.000000e-01/1.000000e-01/1.000000e-01

 Standard Electronic Orientation quadrupole field applied
 Nucleus-field energy     =     0.0000000176 hartrees
 Guess from superposition of atomic densities
 Warning:  Energy on first SCF cycle will be non-variational
 SAD guess density has 104.000000 electrons

 -----------------------------------------------------------------------
  General SCF calculation program by
  Eric Jon Sundstrom, Paul Horn, Yuezhi Mao, Dmitri Zuev, Alec White,
  David Stuck, Shaama M.S., Shane Yost, Joonho Lee, David Small,
  Daniel Levine, Susi Lehtola, Hugh Burton, Evgeny Epifanovsky,
  Bang C. Huynh
 -----------------------------------------------------------------------
 Hartree-Fock
 A restricted SCF calculation will be
 performed using DIIS
 SCF converges when DIIS error is below 1.0e-06
 ---------------------------------------
  Cycle       Energy         DIIS error
 ---------------------------------------
    1   -1186.1927467719      2.41e-02  
    2   -1180.5257900261      1.53e-03  
    3   -1180.6523621703      5.30e-04  
    4   -1180.6656906113      2.81e-04  
    5   -1180.6694136532      5.95e-05  
    6   -1180.6696919373      2.54e-05  
    7   -1180.6697740603      1.29e-05  
    8   -1180.6698005512      6.03e-06  
    9   -1180.6698095529      3.11e-06  
   10   -1180.6698116153      1.29e-06  
   11   -1180.6698120071      6.20e-07  Convergence criterion met
 ---------------------------------------
 SCF time:   CPU 658.10s  wall 661.00s 

************** Final PCM Free Energy Summary **************
 G_electrostatic  =      -0.00848825 hartree =      -5.32645873 kcal/mol
 G_cavitation     =       0.00000000 hartree =       0.00000000 kcal/mol
 G_dispersion     =       0.00000000 hartree =       0.00000000 kcal/mol
 G_repulsion      =       0.00000000 hartree =       0.00000000 kcal/mol
 --------------------------------------------------
 Non-electrostatic Free Energy =       0.00000000 hartree =       0.00000000 kcal/mol
 Total                         =      -0.00848825 hartree =      -5.32645873 kcal/mol
 --------------------------------------------------
 SCF Energy (H0 + V/2)                       =   -1180.66981201 
 Solute Internal Energy (H0)                 =   -1180.66132375 
 Total Free Energy (H0 + V/2 + non-elec)     =   -1180.66981201 hartree
                                             = -740881.48915825 kcal/mol
***********************************************************

 SCF   energy in the final basis set =    -1180.6698120071
 Total energy in the final basis set =    -1180.6698120071


 --------------------------------------------------------------
  Generalized many-body perturbation theory program
  by Joonho Lee, Fazle Rob, Xintian Feng, Evgeny Epifanovsky

 No regularization used 
 (reg. param. = 0.0000e+00)
  (P|Q)^-1/2 Time:  CPU 1.91 s  wall 1.92 s

 In RI-MP2 calculation: 
 # of frozen core orbitals: 20

 Components of the RIMP2 correlation energy:
        aaaa    correlation energy =        -0.2556792077 a.u.
        abab    correlation energy =        -1.5161158017 a.u.
        bbbb    correlation energy =        -0.2556792077 a.u.
        non-Brillouin singles      =        -0.0000000000 a.u.
        total same-spin energy     =        -0.5113584153 a.u.
        total opposite-spin energy =        -1.5161158017 a.u.

 Total  RIMP2   correlation energy =        -2.0274742170 a.u.
        RIMP2         total energy =     -1182.6972862242 a.u.

 RI-MP2 Energy Time:  CPU 80.96 s  wall 81.34 s
 
 --------------------------------------------------------------
 
                    Orbital Energies (a.u.)
 --------------------------------------------------------------
 
 Alpha MOs
 -- Occupied --
-91.9750 -91.9381 -11.2836 -11.2596 -11.2595 -11.2529 -11.2524 -11.2468
-11.2366 -11.2297 -11.2288 -11.2124  -8.9765  -8.9431  -6.6573  -6.6563
 -6.6560  -6.6244  -6.6233  -6.6220  -1.2053  -1.1535  -1.0586  -1.0269
 -1.0081  -0.9560  -0.9124  -0.9037  -0.8096  -0.7729  -0.7278  -0.6984
 -0.6538  -0.6409  -0.6148  -0.5892  -0.5870  -0.5764  -0.5666  -0.5519
 -0.5388  -0.5356  -0.5187  -0.5097  -0.4871  -0.4569  -0.4496  -0.4360
 -0.3573  -0.3351  -0.3284  -0.2531
 -- Virtual --
  0.0576   0.1341   0.1437   0.1514   0.1613   0.1702   0.1816   0.1831
  0.1878   0.1974   0.2061   0.2139   0.2234   0.2333   0.2403   0.2434
  0.2550   0.2616   0.2782   0.2916   0.3061   0.3213   0.3437   0.3569
  0.3675   0.3717   0.3934   0.3942   0.4020   0.4110   0.4177   0.4245
  0.4351   0.4437   0.4512   0.4681   0.4740   0.4793   0.4850   0.4941
  0.5106   0.5140   0.5179   0.5215   0.5354   0.5437   0.5554   0.5647
  0.5681   0.5772   0.5856   0.5937   0.5991   0.6105   0.6142   0.6215
  0.6219   0.6259   0.6313   0.6352   0.6418   0.6494   0.6526   0.6564
  0.6641   0.6710   0.6860   0.6930   0.6966   0.7081   0.7243   0.7418
  0.7468   0.7593   0.7625   0.7729   0.7822   0.7987   0.8069   0.8233
  0.8366   0.8518   0.8620   0.8663   0.8737   0.8811   0.8945   0.9210
  0.9337   0.9389   0.9441   0.9655   0.9736   0.9848   1.0048   1.0095
  1.0237   1.0353   1.0432   1.0525   1.0582   1.0691   1.0778   1.0997
  1.1009   1.1124   1.1219   1.1291   1.1416   1.1589   1.1699   1.1725
  1.1871   1.1981   1.2070   1.2150   1.2249   1.2283   1.2322   1.2483
  1.2636   1.2654   1.2759   1.2810   1.2850   1.3003   1.3034   1.3228
  1.3262   1.3346   1.3457   1.3700   1.3814   1.3852   1.3972   1.4023
  1.4220   1.4353   1.4418   1.4594   1.4642   1.4808   1.4891   1.4927
  1.5043   1.5133   1.5274   1.5321   1.5366   1.5394   1.5511   1.5578
  1.5661   1.5709   1.5820   1.5924   1.6082   1.6222   1.6329   1.6452
  1.6604   1.6675   1.6708   1.6924   1.6976   1.7077   1.7281   1.7410
  1.7543   1.7668   1.7860   1.8046   1.8172   1.8308   1.8617   1.8671
  1.8765   1.9140   1.9474   1.9615   1.9812   1.9947   2.0008   2.0129
  2.0367   2.0524   2.0629   2.0766   2.0959   2.1084   2.1224   2.1604
  2.1663   2.1898   2.1939   2.2073   2.2263   2.2399   2.2659   2.2925
  2.2989   2.3249   2.3272   2.3764   2.4199   2.4252   2.4575   2.4846
  2.4872   2.4986   2.5255   2.5483   2.5797   2.5964   2.6037   2.6311
  2.6467   2.6593   2.6768   2.6847   2.6973   2.7050   2.7311   2.7398
  2.7413   2.7580   2.7624   2.7753   2.7947   2.8077   2.8214   2.8336
  2.8430   2.8538   2.8773   2.8827   2.8977   2.9211   2.9294   2.9368
  2.9430   2.9649   2.9806   2.9959   2.9990   3.0261   3.0333   3.0429
  3.0529   3.0640   3.0894   3.1058   3.1129   3.1275   3.1441   3.1515
  3.1643   3.1647   3.1768   3.1791   3.1966   3.1992   3.2107   3.2131
  3.2164   3.2366   3.2430   3.2585   3.2710   3.2813   3.2886   3.3007
  3.3158   3.3304   3.3333   3.3398   3.3461   3.3576   3.3614   3.3741
  3.3748   3.3820   3.3943   3.3989   3.4082   3.4130   3.4270   3.4316
  3.4489   3.4545   3.4640   3.4825   3.4916   3.4984   3.5024   3.5206
  3.5272   3.5419   3.5432   3.5542   3.5621   3.5656   3.5719   3.5806
  3.5901   3.6135   3.6234   3.6288   3.6421   3.6620   3.6652   3.6809
  3.6969   3.7003   3.7117   3.7241   3.7317   3.7336   3.7427   3.7572
  3.7622   3.7670   3.7835   3.7931   3.7997   3.8099   3.8146   3.8348
  3.8421   3.8500   3.8645   3.8738   3.8911   3.8983   3.9023   3.9340
  3.9408   3.9505   3.9699   3.9746   3.9782   4.0057   4.0146   4.0270
  4.0299   4.0536   4.0603   4.0715   4.0834   4.0998   4.1116   4.1220
  4.1370   4.1528   4.1544   4.1803   4.1899   4.1917   4.1934   4.2042
  4.2110   4.2359   4.2413   4.2632   4.2641   4.2745   4.2784   4.2839
  4.2959   4.3242   4.3285   4.3373   4.3473   4.3577   4.3680   4.3736
  4.3892   4.4031   4.4087   4.4135   4.4276   4.4392   4.4439   4.4611
  4.4711   4.4777   4.4836   4.4915   4.5011   4.5362   4.5606   4.5753
  4.5947   4.6017   4.6170   4.6181   4.6449   4.6546   4.6693   4.6794
  4.6883   4.7369   4.7506   4.7760   4.7871   4.8135   4.8323   4.8359
  4.8676   4.8909   4.9014   4.9107   4.9161   4.9369   4.9518   5.0084
  5.0409   5.0636   5.0895   5.1059   5.1220   5.1320   5.1480   5.1628
  5.1960   5.2139   5.2276   5.2750   5.2853   5.2934   5.3008   5.3144
  5.3449   5.3652   5.3851   5.3988   5.4054   5.4212   5.4460   5.4479
  5.4666   5.5126   5.5186   5.5406   5.5531   5.5699   5.5761   5.5966
  5.6142   5.6250   5.6418   5.6578   5.6832   5.7009   5.7110   5.7269
  5.7732   5.8003   5.8189   5.9700   6.0127   6.0629   6.0906   6.1349
  6.2171   6.2177   6.2298   6.2373   6.2500   6.2672   6.2923   6.3146
  6.3814   6.4090   9.4788  10.5855  12.6149  12.8433  13.2033  13.8293
 14.1308  14.2471  14.2902  14.7416
 --------------------------------------------------------------
 
          Ground-State Mulliken Net Atomic Charges

     Atom                 Charge (a.u.)
  ----------------------------------------
      1 C                    -0.085738
      2 C                    -0.341722
      3 C                    -0.060261
      4 H                     0.174895
      5 C                     0.102363
      6 S                    -0.201848
      7 C                    -0.294651
      8 H                     0.115607
      9 H                     0.111560
     10 H                     0.111192
     11 C                    -0.146268
     12 C                    -0.160899
     13 C                     0.002407
     14 H                     0.196420
     15 C                    -0.186106
     16 S                     0.014237
     17 C                    -0.268650
     18 H                     0.103748
     19 H                     0.108808
     20 H                     0.107172
     21 H                     0.199237
     22 H                     0.107749
     23 H                     0.108670
     24 H                     0.182078
  ----------------------------------------
  Sum of atomic charges =     0.000000

 -----------------------------------------------------------------
                    Cartesian Multipole Moments
 -----------------------------------------------------------------
    Charge (ESU x 10^10)
                -0.0000
    Dipole Moment (Debye)
         X       0.9742      Y       0.6071      Z      -0.2476
       Tot       1.1743
    Quadrupole Moments (Debye-Ang)
        XX     -82.7759     XY       7.8397     YY     -83.6734
        XZ       0.5809     YZ       3.5477     ZZ     -84.9166
    Octopole Moments (Debye-Ang^2)
       XXX    -154.8972    XXY      99.4443    XYY     -54.2229
       YYY     210.6475    XXZ      -3.3278    XYZ      -2.4997
       YYZ      -0.3719    XZZ     -56.3857    YZZ      82.9577
       ZZZ       0.4497
    Hexadecapole Moments (Debye-Ang^3)
      XXXX    -885.1288   XXXY    -174.9517   XXYY    -540.3473
      XYYY    -202.9748   YYYY   -2188.7221   XXXZ    -190.9262
      XXYZ     -21.0518   XYYZ     -54.2645   YYYZ     -51.2771
      XXZZ    -320.4249   XYZZ     -47.8680   YYZZ    -553.5553
      XZZZ    -171.3716   YZZZ     -15.9404   ZZZZ   -1030.5120
 -----------------------------------------------------------------
 Total job time:  744.66s(wall), 739.99s(cpu) 
 Sun Jul 10 06:42:23 2022

        *************************************************************
        *                                                           *
        *  Thank you very much for using Q-Chem.  Have a nice day.  *
        *                                                           *
        *************************************************************


remove work dirs ./qchem836709.0 -- ./qchem836709.-1
rm -rf ./qchem836709
