You are running Q-Chem version: 5.4.0

#
# job setting
#
local host:  exp-1-46
current dir: /expanse/lustre/scratch/theleonzhang/temp_project/Hydrogenated_Rotation_Test
input file:  Methylthiophene_Phi_20_Theta_210_Methylthiophene_Hydrogenated.qcin
output file: 
nprocs     : 0
nthreads   : 1
#
# qchem installation setting
#
QC:          /cm/shared/apps/spack/cpu/opt/spack/linux-centos8-zen2/gcc-10.2.0/qchem-5.4-akfmr7b3t57bfs6qan3padb2wnb2i7cl
QCAUX:       /cm/shared/apps/spack/cpu/opt/spack/linux-centos8-zen2/gcc-10.2.0/qchem-5.4-akfmr7b3t57bfs6qan3padb2wnb2i7cl/qcaux
QCPROG:      /cm/shared/apps/spack/cpu/opt/spack/linux-centos8-zen2/gcc-10.2.0/qchem-5.4-akfmr7b3t57bfs6qan3padb2wnb2i7cl/exe/qcprog.exe_s
QCPROG_S:    /cm/shared/apps/spack/cpu/opt/spack/linux-centos8-zen2/gcc-10.2.0/qchem-5.4-akfmr7b3t57bfs6qan3padb2wnb2i7cl/exe/qcprog.exe_s
PARALLEL:    -DSERIAL
QCMPI:       mpich
#
# qchem directory setting
#
qcrun:       qchem4023120
QCSCRATCH:   .
QCLOCALSCR:  
QCTMPDIR:    .
QCFILEPREF:  ./qchem4023120
QCSAVEDIR:   
workdirs:    ./qchem4023120
workdir0:    ./qchem4023120
partmpdirs =  
#
# parallel setting
#
QCRSH:           ssh
QCMPI:           mpich
QCMPIRUN:        /cm/shared/apps/spack/cpu/opt/spack/linux-centos8-zen2/gcc-10.2.0/qchem-5.4-akfmr7b3t57bfs6qan3padb2wnb2i7cl/bin/mpi/mpirun_qchem
QCMACHINEFILE:   ./qchem4023120/hostfile

#
# env setting
#
exported envs:   QC QCAUX QCSCRATCH QCRUNNAME QCFILEPREF QCPROG QCPROG_S GUIFILE

Running Job 1 of 1 Methylthiophene_Phi_20_Theta_210_Methylthiophene_Hydrogenated.qcin
qchem Methylthiophene_Phi_20_Theta_210_Methylthiophene_Hydrogenated.qcin_4023120.0 ./qchem4023120/ 0
/cm/shared/apps/spack/cpu/opt/spack/linux-centos8-zen2/gcc-10.2.0/qchem-5.4-akfmr7b3t57bfs6qan3padb2wnb2i7cl/exe/qcprog.exe_s Methylthiophene_Phi_20_Theta_210_Methylthiophene_Hydrogenated.qcin_4023120.0 ./qchem4023120/
                  Welcome to Q-Chem
     A Quantum Leap Into The Future Of Chemistry


 Q-Chem 5.4, Q-Chem, Inc., Pleasanton, CA (2021)

 License issued to: University of California, San Diego (site)

 E. Epifanovsky,  A. T. B. Gilbert,  Xintian Feng,  Joonho Lee,  Yuezhi Mao,  
 N. Mardirossian,  P. Pokhilko,  A. White,  M. Wormit,  M. P. Coons,  
 A. L. Dempwolff,  Zhengting Gan,  D. Hait,  P. R. Horn,  L. D. Jacobson,  
 I. Kaliman,  J. Kussmann,  A. W. Lange,  Ka Un Lao,  D. S. Levine,  Jie Liu,  
 S. C. McKenzie,  A. F. Morrison,  K. Nanda,  F. Plasser,  D. R. Rehn,  
 M. L. Vidal,  Zhi-Qiang You,  Ying Zhu,  B. Alam,  B. Albrecht,  
 A. Aldossary,  E. Alguire,  J. H. Andersen,  D. Barton,  K. Begam,  A. Behn,  
 Y. A. Bernard,  E. J. Berquist,  H. Burton,  A. Carreras,  K. Carter-Fenk,  
 R. Chakraborty,  A. D. Chien,  K. D. Closser,  V. Cofer-Shabica,  
 S. Dasgupta,  Jia Deng,  M. de Wergifosse,  M. Diedenhofen,  Hainam Do,  
 S. Ehlert,  Po-Tung Fang,  S. Fatehi,  Qingguo Feng,  J. Gayvert,  
 Qinghui Ge,  G. Gidofalvi,  M. Goldey,  J. Gomes,  C. Gonzalez-Espinoza,  
 S. Gulania,  A. Gunina,  M. W. D. Hanson-Heine,  P. H. P. Harbach,  
 A. W. Hauser,  M. F. Herbst,  M. Hernandez Vera,  M. Hodecker,  
 Z. C. Holden,  S. Houck,  Xunkun Huang,  Kerwin Hui,  B. C. Huynh,  
 M. Ivanov,  Hyunjun Ji,  Hanjie Jiang,  B. Kaduk,  S. Kaehler,  
 K. Khistyaev,  Jaehoon Kim,  P. Klunzinger,  Z. Koczor-Benda,  
 Joong Hoon Koh,  D. Kosenkov,  L. Koulias,  T. Kowalczyk,  C. M. Krauter,  
 K. Kue,  A. Kunitsa,  T. Kus,  A. Landau,  K. V. Lawler,  D. Lefrancois,  
 S. Lehtola,  Rain Li,  Yi-Pei Li,  Jiashu Liang,  M. Liebenthal,  
 Hung-Hsuan Lin,  You-Sheng Lin,  Fenglai Liu,  Kuan-Yu Liu,  
 M. Loipersberger,  A. Luenser,  A. Manjanath,  P. Manohar,  E. Mansoor,  
 S. F. Manzer,  Shan-Ping Mao,  A. V. Marenich,  T. Markovich,  S. Mason,  
 S. A. Maurer,  P. F. McLaughlin,  M. F. S. J. Menger,  J.-M. Mewes,  
 S. A. Mewes,  P. Morgante,  J. W. Mullinax,  T. S. Nguyen-Beck,  
 K. J. Oosterbaan,  G. Paran,  Alexander C. Paul,  Suranjan K. Paul,  
 F. Pavosevic,  Zheng Pei,  S. Prager,  E. I. Proynov,  E. Ramos,  B. Rana,  
 A. E. Rask,  A. Rettig,  R. M. Richard,  F. Rob,  E. Rossomme,  T. Scheele,  
 M. Scheurer,  M. Schneider,  N. Sergueev,  S. M. Sharada,  W. Skomorowski,  
 D. W. Small,  C. J. Stein,  Yu-Chuan Su,  E. J. Sundstrom,  Zhen Tao,  
 J. Thirman,  T. Tsuchimochi,  N. M. Tubman,  S. P. Veccham,  O. Vydrov,  
 J. Wenzel,  J. Witte,  A. Yamada,  Kun Yao,  S. Yeganeh,  S. R. Yost,  
 A. Zech,  Igor Ying Zhang,  Xing Zhang,  Yu Zhang,  D. Zuev,  
 A. Aspuru-Guzik,  A. T. Bell,  N. A. Besley,  K. B. Bravaya,  B. R. Brooks,  
 D. Casanova,  Jeng-Da Chai,  S. Coriani,  C. J. Cramer,  
 A. E. DePrince, III,  R. A. DiStasio Jr.,  A. Dreuw,  B. D. Dunietz,  
 T. R. Furlani,  W. A. Goddard III,  S. Grimme,  S. Hammes-Schiffer,  
 T. Head-Gordon,  W. J. Hehre,  Chao-Ping Hsu,  T.-C. Jagau,  Yousung Jung,  
 A. Klamt,  Jing Kong,  D. S. Lambrecht,  WanZhen Liang,  N. J. Mayhall,  
 C. W. McCurdy,  J. B. Neaton,  C. Ochsenfeld,  J. A. Parkhill,  R. Peverati,  
 V. A. Rassolov,  Yihan Shao,  L. V. Slipchenko,  T. Stauch,  R. P. Steele,  
 J. E. Subotnik,  A. J. W. Thom,  A. Tkatchenko,  D. G. Truhlar,  
 T. Van Voorhis,  T. A. Wesolowski,  K. B. Whaley,  H. L. Woodcock III,  
 P. M. Zimmerman,  S. Faraji,  P. M. W. Gill,  M. Head-Gordon,  
 J. M. Herbert,  A. I. Krylov

 Contributors to earlier versions of Q-Chem not listed above: 
 R. D. Adamson,  B. Austin,  R. Baer,  J. Baker,  G. J. O. Beran,  
 K. Brandhorst,  S. T. Brown,  E. F. C. Byrd,  A. K. Chakraborty,  
 G. K. L. Chan,  Chun-Min Chang,  Yunqing Chen,  C.-L. Cheng,  
 Siu Hung Chien,  D. M. Chipman,  D. L. Crittenden,  H. Dachsel,  
 R. J. Doerksen,  A. D. Dutoi,  R. G. Edgar,  J. Fosso-Tande,  
 L. Fusti-Molnar,  D. Ghosh,  A. Ghysels,  A. Golubeva-Zadorozhnaya,  
 J. Gonthier,  M. S. Gordon,  S. R. Gwaltney,  G. Hawkins,  J. E. Herr,  
 A. Heyden,  S. Hirata,  E. G. Hohenstein,  G. Kedziora,  F. J. Keil,  
 C. Kelley,  Jihan Kim,  R. A. King,  R. Z. Khaliullin,  P. P. Korambath,  
 W. Kurlancheek,  A. Laurent,  A. M. Lee,  M. S. Lee,  S. V. Levchenko,  
 Ching Yeh Lin,  D. Liotard,  E. Livshits,  R. C. Lochan,  I. Lotan,  
 L. A. Martinez-Martinez,  P. E. Maslen,  N. Nair,  D. P. O'Neill,  
 D. Neuhauser,  E. Neuscamman,  C. M. Oana,  R. Olivares-Amaya,  R. Olson,  
 T. M. Perrine,  B. Peters,  P. A. Pieniazek,  A. Prociuk,  Y. M. Rhee,  
 J. Ritchie,  M. A. Rohrdanz,  E. Rosta,  N. J. Russ,  H. F. Schaefer III,  
 M. W. Schmidt,  N. E. Schultz,  S. Sharma,  N. Shenvi,  C. D. Sherrill,  
 A. C. Simmonett,  A. Sodt,  T. Stein,  D. Stuck,  K. S. Thanthiriwatte,  
 V. Vanovschi,  L. Vogt,  Tao Wang,  A. Warshel,  M. A. Watson,  
 C. F. Williams,  Q. Wu,  X. Xu,  Jun Yang,  W. Zhang,  Yan Zhao

 Please cite Q-Chem as follows:
 Y. Shao et al., Mol. Phys. 113, 184-215 (2015)
 DOI: 10.1080/00268976.2014.952696

 Q-Chem 5.4.0 for Intel X86 EM64T Linux

 Parts of Q-Chem use Armadillo 9.800.1 (Horizon Scraper).
 http://arma.sourceforge.net/

 Q-Chem begins on Sun Jul 10 03:09:31 2022  

 Host: 
0

     Scratch files written to ./qchem4023120//
 May1621 |scratch|qcdevops|jenkins|workspace|build_RNUM    
 Processing $rem in /cm/shared/apps/spack/cpu/opt/spack/linux-centos8-zen2/gcc-10.2.0/qchem-5.4-akfmr7b3t57bfs6qan3padb2wnb2i7cl/config/preferences:
 Processing $rem in /home/theleonzhang/.qchemrc:
 Symmetry turned off for PCM/SM12/SMD calculation
 Core orbitals will be frozen

 Checking the input file for inconsistencies... 	...done.

--------------------------------------------------------------
User input:
--------------------------------------------------------------
$molecule
0 1
C	0.388181	-3.866725	-0.670924
C	-0.306020	-3.703963	0.530648
C	-0.533378	-2.357056	0.923703
H	-0.651043	-4.561092	1.128579
C	0.000000	-1.440664	0.000000
S	0.772234	-2.286957	-1.337567
C	-1.261192	-1.978743	2.183857
H	-1.583666	-2.878678	2.742548
H	-2.168641	-1.376015	1.970497
H	-0.623012	-1.375728	2.863099
C	0.000000	0.000000	0.000000
C	0.295399	0.811508	1.099446
C	0.768742	2.111949	0.776721
H	0.169256	0.464952	2.136088
C	0.844232	2.319291	-0.612546
S	0.322342	0.885558	-1.486809
C	1.140796	3.134091	1.814609
H	0.995218	2.734123	2.836676
H	0.526006	4.054142	1.726239
H	2.203157	3.443680	1.726228
H	1.168902	3.211257	-1.161575
H	-0.216843	-4.392713	-1.417779
H	1.337652	-4.392347	-0.520136
H	-0.935250	-1.440937	-0.540100
$end

$rem
JOBTYPE		SP
EXCHANGE	HF
CORRELATION	pRIMP2
BASIS		cc-pvtz
METHOD		rimp2
AUX_BASIS	rimp2-cc-pvtz
SOLVENT_METHOD	PCM
PURECART	11111
SYMMETRY	false
MEM_TOTAL	110000
SCF_CONVERGENCE = 6
THRESH=10
$end



$solvent
dielectric 4.90
$end
--------------------------------------------------------------
 ----------------------------------------------------------------
             Standard Nuclear Orientation (Angstroms)
    I     Atom           X                Y                Z
 ----------------------------------------------------------------
    1      C       0.3881810000    -3.8667250000    -0.6709240000
    2      C      -0.3060200000    -3.7039630000     0.5306480000
    3      C      -0.5333780000    -2.3570560000     0.9237030000
    4      H      -0.6510430000    -4.5610920000     1.1285790000
    5      C       0.0000000000    -1.4406640000     0.0000000000
    6      S       0.7722340000    -2.2869570000    -1.3375670000
    7      C      -1.2611920000    -1.9787430000     2.1838570000
    8      H      -1.5836660000    -2.8786780000     2.7425480000
    9      H      -2.1686410000    -1.3760150000     1.9704970000
   10      H      -0.6230120000    -1.3757280000     2.8630990000
   11      C       0.0000000000     0.0000000000     0.0000000000
   12      C       0.2953990000     0.8115080000     1.0994460000
   13      C       0.7687420000     2.1119490000     0.7767210000
   14      H       0.1692560000     0.4649520000     2.1360880000
   15      C       0.8442320000     2.3192910000    -0.6125460000
   16      S       0.3223420000     0.8855580000    -1.4868090000
   17      C       1.1407960000     3.1340910000     1.8146090000
   18      H       0.9952180000     2.7341230000     2.8366760000
   19      H       0.5260060000     4.0541420000     1.7262390000
   20      H       2.2031570000     3.4436800000     1.7262280000
   21      H       1.1689020000     3.2112570000    -1.1615750000
   22      H      -0.2168430000    -4.3927130000    -1.4177790000
   23      H       1.3376520000    -4.3923470000    -0.5201360000
   24      H      -0.9352500000    -1.4409370000    -0.5401000000
 ----------------------------------------------------------------
 Nuclear Repulsion Energy =         877.74330150 hartrees
 There are       52 alpha and       52 beta electrons

 Q-Chem warning in module forms1/BasisType.C, line 2236:

 You are not using the predefined 5D/6D in this basis set.

 Requested basis set is cc-pVTZ
 There are 196 shells and 536 basis functions

 Total QAlloc Memory Limit 110000 MB
 Mega-Array Size       188 MB
 MEM_STATIC part       192 MB
 Discretize the solute cavity surface with Lebedev spheres
	Using 110 Lebedev grid points for each H atom
	Using 194 Lebedev grid points for other atoms
	Atomic van der Waals radii will be scaled by 1.20
 Remove points where switching function is < 1.0e-08
 Keep 1593 surface tesserae and discard 2055 interior tesserae
 Molecular Surface Area = 232.611 Angst**2
 Requested basis set is rimp2-cc-pVTZ
 There are 414 shells and 1414 basis functions
 A cutoff of  1.0D-10 yielded  14033 shell pairs
 There are    101659 function pairs (    130318 Cartesian)
 Smallest overlap matrix eigenvalue = 7.09E-05

 Scale SEOQF with 1.000000e-01/1.000000e-01/1.000000e-01

 Standard Electronic Orientation quadrupole field applied
 Nucleus-field energy     =     0.0000000243 hartrees
 Guess from superposition of atomic densities
 Warning:  Energy on first SCF cycle will be non-variational
 SAD guess density has 104.000000 electrons

 -----------------------------------------------------------------------
  General SCF calculation program by
  Eric Jon Sundstrom, Paul Horn, Yuezhi Mao, Dmitri Zuev, Alec White,
  David Stuck, Shaama M.S., Shane Yost, Joonho Lee, David Small,
  Daniel Levine, Susi Lehtola, Hugh Burton, Evgeny Epifanovsky,
  Bang C. Huynh
 -----------------------------------------------------------------------
 Hartree-Fock
 A restricted SCF calculation will be
 performed using DIIS
 SCF converges when DIIS error is below 1.0e-06
 ---------------------------------------
  Cycle       Energy         DIIS error
 ---------------------------------------
    1   -1186.0476753513      2.39e-02  
    2   -1180.6009497321      1.58e-03  
    3   -1180.7270395871      6.32e-04  
    4   -1180.7422696051      3.39e-04  
    5   -1180.7476034802      6.07e-05  
    6   -1180.7478634354      2.51e-05  
    7   -1180.7479272555      9.33e-06  
    8   -1180.7479419422      4.51e-06  
    9   -1180.7479452822      1.51e-06  
   10   -1180.7479457771      5.14e-07  Convergence criterion met
 ---------------------------------------
 SCF time:   CPU 569.93s  wall 573.00s 

************** Final PCM Free Energy Summary **************
 G_electrostatic  =      -0.00956088 hartree =      -5.99954201 kcal/mol
 G_cavitation     =       0.00000000 hartree =       0.00000000 kcal/mol
 G_dispersion     =       0.00000000 hartree =       0.00000000 kcal/mol
 G_repulsion      =       0.00000000 hartree =       0.00000000 kcal/mol
 --------------------------------------------------
 Non-electrostatic Free Energy =       0.00000000 hartree =       0.00000000 kcal/mol
 Total                         =      -0.00956088 hartree =      -5.99954201 kcal/mol
 --------------------------------------------------
 SCF Energy (H0 + V/2)                       =   -1180.74794578 
 Solute Internal Energy (H0)                 =   -1180.73838490 
 Total Free Energy (H0 + V/2 + non-elec)     =   -1180.74794578 hartree
                                             = -740930.51883895 kcal/mol
***********************************************************

 SCF   energy in the final basis set =    -1180.7479457771
 Total energy in the final basis set =    -1180.7479457771


 --------------------------------------------------------------
  Generalized many-body perturbation theory program
  by Joonho Lee, Fazle Rob, Xintian Feng, Evgeny Epifanovsky

 No regularization used 
 (reg. param. = 0.0000e+00)
  (P|Q)^-1/2 Time:  CPU 2.31 s  wall 2.32 s

 In RI-MP2 calculation: 
 # of frozen core orbitals: 20

 Components of the RIMP2 correlation energy:
        aaaa    correlation energy =        -0.2516442260 a.u.
        abab    correlation energy =        -1.5042486477 a.u.
        bbbb    correlation energy =        -0.2516442260 a.u.
        non-Brillouin singles      =        -0.0000000000 a.u.
        total same-spin energy     =        -0.5032884520 a.u.
        total opposite-spin energy =        -1.5042486477 a.u.

 Total  RIMP2   correlation energy =        -2.0075370997 a.u.
        RIMP2         total energy =     -1182.7554828768 a.u.

 RI-MP2 Energy Time:  CPU 118.75 s  wall 119.18 s
 
 --------------------------------------------------------------
 
                    Orbital Energies (a.u.)
 --------------------------------------------------------------
 
 Alpha MOs
 -- Occupied --
-91.9839 -91.9446 -11.2834 -11.2649 -11.2599 -11.2572 -11.2503 -11.2423
-11.2343 -11.2334 -11.2283 -11.2212  -8.9838  -8.9492  -6.6647  -6.6642
 -6.6635  -6.6305  -6.6295  -6.6282  -1.2007  -1.1530  -1.0592  -1.0308
 -1.0004  -0.9632  -0.9142  -0.8999  -0.8170  -0.7610  -0.7364  -0.7038
 -0.6545  -0.6416  -0.6100  -0.5922  -0.5832  -0.5682  -0.5658  -0.5525
 -0.5453  -0.5339  -0.5186  -0.5044  -0.4878  -0.4786  -0.4682  -0.4449
 -0.3573  -0.3431  -0.3234  -0.2652
 -- Virtual --
  0.0940   0.1321   0.1408   0.1491   0.1584   0.1693   0.1788   0.1867
  0.1908   0.2024   0.2073   0.2193   0.2218   0.2329   0.2393   0.2408
  0.2531   0.2684   0.2809   0.3011   0.3164   0.3288   0.3529   0.3586
  0.3666   0.3809   0.3813   0.3894   0.4017   0.4111   0.4125   0.4196
  0.4410   0.4474   0.4632   0.4663   0.4775   0.4782   0.4861   0.4898
  0.4942   0.5106   0.5183   0.5303   0.5408   0.5474   0.5562   0.5613
  0.5679   0.5773   0.5849   0.5889   0.5989   0.6061   0.6135   0.6185
  0.6249   0.6276   0.6313   0.6332   0.6401   0.6475   0.6518   0.6628
  0.6681   0.6711   0.6811   0.6894   0.7039   0.7128   0.7190   0.7253
  0.7373   0.7470   0.7620   0.7750   0.7778   0.7917   0.7999   0.8228
  0.8328   0.8550   0.8598   0.8645   0.8836   0.9020   0.9040   0.9133
  0.9263   0.9370   0.9490   0.9589   0.9669   0.9921   1.0079   1.0120
  1.0229   1.0290   1.0315   1.0426   1.0501   1.0589   1.0696   1.0768
  1.0901   1.0933   1.1107   1.1293   1.1466   1.1535   1.1663   1.1705
  1.1777   1.1862   1.1906   1.2052   1.2100   1.2221   1.2328   1.2464
  1.2510   1.2597   1.2633   1.2731   1.2813   1.2870   1.2917   1.3092
  1.3208   1.3296   1.3400   1.3536   1.3721   1.3861   1.4053   1.4165
  1.4242   1.4289   1.4361   1.4545   1.4720   1.4796   1.4884   1.5017
  1.5060   1.5168   1.5197   1.5311   1.5358   1.5417   1.5530   1.5588
  1.5645   1.5750   1.5880   1.5899   1.6258   1.6316   1.6375   1.6471
  1.6492   1.6651   1.6733   1.6921   1.6973   1.7153   1.7287   1.7375
  1.7487   1.7575   1.7778   1.7886   1.8167   1.8256   1.8408   1.8574
  1.8947   1.9054   1.9097   1.9291   1.9375   1.9718   1.9844   2.0038
  2.0203   2.0415   2.0564   2.0622   2.1028   2.1116   2.1474   2.1508
  2.1847   2.1973   2.2140   2.2209   2.2343   2.2419   2.2657   2.2830
  2.2960   2.3073   2.3103   2.3869   2.4174   2.4363   2.4576   2.4721
  2.4866   2.5166   2.5340   2.5472   2.5631   2.5744   2.5845   2.5993
  2.6222   2.6407   2.6600   2.6732   2.6741   2.6885   2.7110   2.7338
  2.7486   2.7555   2.7645   2.7845   2.7895   2.7949   2.8019   2.8108
  2.8367   2.8432   2.8522   2.8783   2.8949   2.8978   2.9197   2.9269
  2.9404   2.9568   2.9724   3.0038   3.0051   3.0316   3.0375   3.0401
  3.0634   3.0727   3.0847   3.0988   3.1108   3.1170   3.1218   3.1413
  3.1485   3.1602   3.1628   3.1676   3.1783   3.1819   3.1976   3.2224
  3.2311   3.2380   3.2519   3.2555   3.2780   3.2842   3.2931   3.3154
  3.3244   3.3285   3.3335   3.3445   3.3459   3.3544   3.3570   3.3600
  3.3689   3.3846   3.3923   3.3960   3.4086   3.4169   3.4226   3.4331
  3.4412   3.4432   3.4614   3.4692   3.4781   3.4857   3.4904   3.5074
  3.5139   3.5233   3.5356   3.5455   3.5479   3.5604   3.5770   3.5867
  3.5969   3.6085   3.6143   3.6219   3.6249   3.6325   3.6446   3.6583
  3.6660   3.6700   3.6902   3.7039   3.7096   3.7251   3.7407   3.7440
  3.7466   3.7582   3.7690   3.7729   3.7871   3.7912   3.7967   3.8135
  3.8289   3.8395   3.8515   3.8626   3.8745   3.8850   3.8931   3.9149
  3.9280   3.9393   3.9578   3.9681   3.9717   3.9851   4.0066   4.0245
  4.0274   4.0457   4.0492   4.0597   4.0606   4.0767   4.0982   4.0991
  4.1222   4.1280   4.1500   4.1535   4.1651   4.1746   4.1853   4.2071
  4.2144   4.2227   4.2391   4.2403   4.2445   4.2635   4.2694   4.2848
  4.2950   4.3031   4.3170   4.3256   4.3410   4.3561   4.3686   4.3732
  4.3792   4.3940   4.4018   4.4095   4.4173   4.4303   4.4442   4.4545
  4.4687   4.4713   4.4808   4.4864   4.4920   4.5001   4.5407   4.5650
  4.5877   4.6004   4.6036   4.6262   4.6338   4.6420   4.6566   4.6847
  4.6989   4.7173   4.7530   4.7663   4.7794   4.8211   4.8308   4.8467
  4.8657   4.8683   4.8926   4.9063   4.9390   4.9676   4.9851   4.9934
  5.0208   5.0438   5.0928   5.1053   5.1193   5.1277   5.1648   5.1812
  5.1895   5.2127   5.2447   5.2619   5.2820   5.2988   5.3098   5.3274
  5.3479   5.3710   5.3756   5.4059   5.4136   5.4158   5.4335   5.4419
  5.4836   5.5150   5.5314   5.5398   5.5528   5.5634   5.5751   5.5998
  5.6132   5.6245   5.6298   5.6625   5.6940   5.6966   5.7132   5.7360
  5.7701   5.7944   5.8343   5.9858   6.0348   6.0844   6.1197   6.1657
  6.2114   6.2278   6.2354   6.2477   6.2647   6.2969   6.3006   6.3636
  6.3955   6.5068   9.4558  10.8361  12.0999  12.9478  13.1910  13.9681
 14.0824  14.2021  14.3489  14.7049
 --------------------------------------------------------------
 
          Ground-State Mulliken Net Atomic Charges

     Atom                 Charge (a.u.)
  ----------------------------------------
      1 C                    -0.078361
      2 C                    -0.322970
      3 C                    -0.038680
      4 H                     0.177203
      5 C                     0.109682
      6 S                    -0.171806
      7 C                    -0.290061
      8 H                     0.118024
      9 H                     0.110523
     10 H                     0.104153
     11 C                    -0.086582
     12 C                    -0.237988
     13 C                     0.021366
     14 H                     0.191940
     15 C                    -0.247325
     16 S                    -0.000893
     17 C                    -0.273232
     18 H                     0.100842
     19 H                     0.108229
     20 H                     0.108401
     21 H                     0.197921
     22 H                     0.110747
     23 H                     0.114146
     24 H                     0.174721
  ----------------------------------------
  Sum of atomic charges =     0.000000

 -----------------------------------------------------------------
                    Cartesian Multipole Moments
 -----------------------------------------------------------------
    Charge (ESU x 10^10)
                -0.0000
    Dipole Moment (Debye)
         X      -1.3470      Y       0.0325      Z       3.0265
       Tot       3.3129
    Quadrupole Moments (Debye-Ang)
        XX     -90.7619     XY       6.3077     YY     -74.3747
        XZ       0.2885     YZ      -1.3204     ZZ     -85.5182
    Octopole Moments (Debye-Ang^2)
       XXX     -71.4112    XXY      52.6104    XYY     -13.4317
       YYY     125.9580    XXZ      -0.5237    XYZ       1.3857
       YYZ      -5.5550    XZZ     -24.5443    YZZ      54.1959
       ZZZ       5.3514
    Hexadecapole Moments (Debye-Ang^3)
      XXXX    -403.5367   XXXY    -158.7113   XXYY    -558.1219
      XYYY    -125.8805   YYYY   -2683.7896   XXXZ      94.6724
      XXYZ     -37.9802   XYYZ      11.6033   YYYZ     -97.6333
      XXZZ    -230.2363   XYZZ     -29.7594   YYZZ    -626.1473
      XZZZ      84.4961   YZZZ    -112.5366   ZZZZ    -961.7647
 -----------------------------------------------------------------
 Total job time:  694.05s(wall), 689.73s(cpu) 
 Sun Jul 10 03:21:05 2022

        *************************************************************
        *                                                           *
        *  Thank you very much for using Q-Chem.  Have a nice day.  *
        *                                                           *
        *************************************************************


remove work dirs ./qchem4023120.0 -- ./qchem4023120.-1
rm -rf ./qchem4023120
You are running Q-Chem version: 5.4.0

#
# job setting
#
local host:  exp-3-09
current dir: /expanse/lustre/scratch/theleonzhang/temp_project/Hydrogenated_Rotation_Test
input file:  Methylthiophene_Phi_20_Theta_210_Methylthiophene_Hydrogenated.qcin
output file: 
nprocs     : 0
nthreads   : 1
#
# qchem installation setting
#
QC:          /cm/shared/apps/spack/cpu/opt/spack/linux-centos8-zen2/gcc-10.2.0/qchem-5.4-akfmr7b3t57bfs6qan3padb2wnb2i7cl
QCAUX:       /cm/shared/apps/spack/cpu/opt/spack/linux-centos8-zen2/gcc-10.2.0/qchem-5.4-akfmr7b3t57bfs6qan3padb2wnb2i7cl/qcaux
QCPROG:      /cm/shared/apps/spack/cpu/opt/spack/linux-centos8-zen2/gcc-10.2.0/qchem-5.4-akfmr7b3t57bfs6qan3padb2wnb2i7cl/exe/qcprog.exe_s
QCPROG_S:    /cm/shared/apps/spack/cpu/opt/spack/linux-centos8-zen2/gcc-10.2.0/qchem-5.4-akfmr7b3t57bfs6qan3padb2wnb2i7cl/exe/qcprog.exe_s
PARALLEL:    -DSERIAL
QCMPI:       mpich
#
# qchem directory setting
#
qcrun:       qchem925758
QCSCRATCH:   .
QCLOCALSCR:  
QCTMPDIR:    .
QCFILEPREF:  ./qchem925758
QCSAVEDIR:   
workdirs:    ./qchem925758
workdir0:    ./qchem925758
partmpdirs =  
#
# parallel setting
#
QCRSH:           ssh
QCMPI:           mpich
QCMPIRUN:        /cm/shared/apps/spack/cpu/opt/spack/linux-centos8-zen2/gcc-10.2.0/qchem-5.4-akfmr7b3t57bfs6qan3padb2wnb2i7cl/bin/mpi/mpirun_qchem
QCMACHINEFILE:   ./qchem925758/hostfile

#
# env setting
#
exported envs:   QC QCAUX QCSCRATCH QCRUNNAME QCFILEPREF QCPROG QCPROG_S GUIFILE

Running Job 1 of 1 Methylthiophene_Phi_20_Theta_210_Methylthiophene_Hydrogenated.qcin
qchem Methylthiophene_Phi_20_Theta_210_Methylthiophene_Hydrogenated.qcin_925758.0 ./qchem925758/ 0
/cm/shared/apps/spack/cpu/opt/spack/linux-centos8-zen2/gcc-10.2.0/qchem-5.4-akfmr7b3t57bfs6qan3padb2wnb2i7cl/exe/qcprog.exe_s Methylthiophene_Phi_20_Theta_210_Methylthiophene_Hydrogenated.qcin_925758.0 ./qchem925758/
                  Welcome to Q-Chem
     A Quantum Leap Into The Future Of Chemistry


 Q-Chem 5.4, Q-Chem, Inc., Pleasanton, CA (2021)

 License issued to: University of California, San Diego (site)

 E. Epifanovsky,  A. T. B. Gilbert,  Xintian Feng,  Joonho Lee,  Yuezhi Mao,  
 N. Mardirossian,  P. Pokhilko,  A. White,  M. Wormit,  M. P. Coons,  
 A. L. Dempwolff,  Zhengting Gan,  D. Hait,  P. R. Horn,  L. D. Jacobson,  
 I. Kaliman,  J. Kussmann,  A. W. Lange,  Ka Un Lao,  D. S. Levine,  Jie Liu,  
 S. C. McKenzie,  A. F. Morrison,  K. Nanda,  F. Plasser,  D. R. Rehn,  
 M. L. Vidal,  Zhi-Qiang You,  Ying Zhu,  B. Alam,  B. Albrecht,  
 A. Aldossary,  E. Alguire,  J. H. Andersen,  D. Barton,  K. Begam,  A. Behn,  
 Y. A. Bernard,  E. J. Berquist,  H. Burton,  A. Carreras,  K. Carter-Fenk,  
 R. Chakraborty,  A. D. Chien,  K. D. Closser,  V. Cofer-Shabica,  
 S. Dasgupta,  Jia Deng,  M. de Wergifosse,  M. Diedenhofen,  Hainam Do,  
 S. Ehlert,  Po-Tung Fang,  S. Fatehi,  Qingguo Feng,  J. Gayvert,  
 Qinghui Ge,  G. Gidofalvi,  M. Goldey,  J. Gomes,  C. Gonzalez-Espinoza,  
 S. Gulania,  A. Gunina,  M. W. D. Hanson-Heine,  P. H. P. Harbach,  
 A. W. Hauser,  M. F. Herbst,  M. Hernandez Vera,  M. Hodecker,  
 Z. C. Holden,  S. Houck,  Xunkun Huang,  Kerwin Hui,  B. C. Huynh,  
 M. Ivanov,  Hyunjun Ji,  Hanjie Jiang,  B. Kaduk,  S. Kaehler,  
 K. Khistyaev,  Jaehoon Kim,  P. Klunzinger,  Z. Koczor-Benda,  
 Joong Hoon Koh,  D. Kosenkov,  L. Koulias,  T. Kowalczyk,  C. M. Krauter,  
 K. Kue,  A. Kunitsa,  T. Kus,  A. Landau,  K. V. Lawler,  D. Lefrancois,  
 S. Lehtola,  Rain Li,  Yi-Pei Li,  Jiashu Liang,  M. Liebenthal,  
 Hung-Hsuan Lin,  You-Sheng Lin,  Fenglai Liu,  Kuan-Yu Liu,  
 M. Loipersberger,  A. Luenser,  A. Manjanath,  P. Manohar,  E. Mansoor,  
 S. F. Manzer,  Shan-Ping Mao,  A. V. Marenich,  T. Markovich,  S. Mason,  
 S. A. Maurer,  P. F. McLaughlin,  M. F. S. J. Menger,  J.-M. Mewes,  
 S. A. Mewes,  P. Morgante,  J. W. Mullinax,  T. S. Nguyen-Beck,  
 K. J. Oosterbaan,  G. Paran,  Alexander C. Paul,  Suranjan K. Paul,  
 F. Pavosevic,  Zheng Pei,  S. Prager,  E. I. Proynov,  E. Ramos,  B. Rana,  
 A. E. Rask,  A. Rettig,  R. M. Richard,  F. Rob,  E. Rossomme,  T. Scheele,  
 M. Scheurer,  M. Schneider,  N. Sergueev,  S. M. Sharada,  W. Skomorowski,  
 D. W. Small,  C. J. Stein,  Yu-Chuan Su,  E. J. Sundstrom,  Zhen Tao,  
 J. Thirman,  T. Tsuchimochi,  N. M. Tubman,  S. P. Veccham,  O. Vydrov,  
 J. Wenzel,  J. Witte,  A. Yamada,  Kun Yao,  S. Yeganeh,  S. R. Yost,  
 A. Zech,  Igor Ying Zhang,  Xing Zhang,  Yu Zhang,  D. Zuev,  
 A. Aspuru-Guzik,  A. T. Bell,  N. A. Besley,  K. B. Bravaya,  B. R. Brooks,  
 D. Casanova,  Jeng-Da Chai,  S. Coriani,  C. J. Cramer,  
 A. E. DePrince, III,  R. A. DiStasio Jr.,  A. Dreuw,  B. D. Dunietz,  
 T. R. Furlani,  W. A. Goddard III,  S. Grimme,  S. Hammes-Schiffer,  
 T. Head-Gordon,  W. J. Hehre,  Chao-Ping Hsu,  T.-C. Jagau,  Yousung Jung,  
 A. Klamt,  Jing Kong,  D. S. Lambrecht,  WanZhen Liang,  N. J. Mayhall,  
 C. W. McCurdy,  J. B. Neaton,  C. Ochsenfeld,  J. A. Parkhill,  R. Peverati,  
 V. A. Rassolov,  Yihan Shao,  L. V. Slipchenko,  T. Stauch,  R. P. Steele,  
 J. E. Subotnik,  A. J. W. Thom,  A. Tkatchenko,  D. G. Truhlar,  
 T. Van Voorhis,  T. A. Wesolowski,  K. B. Whaley,  H. L. Woodcock III,  
 P. M. Zimmerman,  S. Faraji,  P. M. W. Gill,  M. Head-Gordon,  
 J. M. Herbert,  A. I. Krylov

 Contributors to earlier versions of Q-Chem not listed above: 
 R. D. Adamson,  B. Austin,  R. Baer,  J. Baker,  G. J. O. Beran,  
 K. Brandhorst,  S. T. Brown,  E. F. C. Byrd,  A. K. Chakraborty,  
 G. K. L. Chan,  Chun-Min Chang,  Yunqing Chen,  C.-L. Cheng,  
 Siu Hung Chien,  D. M. Chipman,  D. L. Crittenden,  H. Dachsel,  
 R. J. Doerksen,  A. D. Dutoi,  R. G. Edgar,  J. Fosso-Tande,  
 L. Fusti-Molnar,  D. Ghosh,  A. Ghysels,  A. Golubeva-Zadorozhnaya,  
 J. Gonthier,  M. S. Gordon,  S. R. Gwaltney,  G. Hawkins,  J. E. Herr,  
 A. Heyden,  S. Hirata,  E. G. Hohenstein,  G. Kedziora,  F. J. Keil,  
 C. Kelley,  Jihan Kim,  R. A. King,  R. Z. Khaliullin,  P. P. Korambath,  
 W. Kurlancheek,  A. Laurent,  A. M. Lee,  M. S. Lee,  S. V. Levchenko,  
 Ching Yeh Lin,  D. Liotard,  E. Livshits,  R. C. Lochan,  I. Lotan,  
 L. A. Martinez-Martinez,  P. E. Maslen,  N. Nair,  D. P. O'Neill,  
 D. Neuhauser,  E. Neuscamman,  C. M. Oana,  R. Olivares-Amaya,  R. Olson,  
 T. M. Perrine,  B. Peters,  P. A. Pieniazek,  A. Prociuk,  Y. M. Rhee,  
 J. Ritchie,  M. A. Rohrdanz,  E. Rosta,  N. J. Russ,  H. F. Schaefer III,  
 M. W. Schmidt,  N. E. Schultz,  S. Sharma,  N. Shenvi,  C. D. Sherrill,  
 A. C. Simmonett,  A. Sodt,  T. Stein,  D. Stuck,  K. S. Thanthiriwatte,  
 V. Vanovschi,  L. Vogt,  Tao Wang,  A. Warshel,  M. A. Watson,  
 C. F. Williams,  Q. Wu,  X. Xu,  Jun Yang,  W. Zhang,  Yan Zhao

 Please cite Q-Chem as follows:
 Y. Shao et al., Mol. Phys. 113, 184-215 (2015)
 DOI: 10.1080/00268976.2014.952696

 Q-Chem 5.4.0 for Intel X86 EM64T Linux

 Parts of Q-Chem use Armadillo 9.800.1 (Horizon Scraper).
 http://arma.sourceforge.net/

 Q-Chem begins on Sun Jul 10 03:37:56 2022  

 Host: 
0

     Scratch files written to ./qchem925758//
 May1621 |scratch|qcdevops|jenkins|workspace|build_RNUM    
 Processing $rem in /cm/shared/apps/spack/cpu/opt/spack/linux-centos8-zen2/gcc-10.2.0/qchem-5.4-akfmr7b3t57bfs6qan3padb2wnb2i7cl/config/preferences:
 Processing $rem in /home/theleonzhang/.qchemrc:
 Symmetry turned off for PCM/SM12/SMD calculation
 Core orbitals will be frozen

 Checking the input file for inconsistencies... 	...done.

--------------------------------------------------------------
User input:
--------------------------------------------------------------
$molecule
0 1
C	0.388181	-3.866725	-0.670924
C	-0.306020	-3.703963	0.530648
C	-0.533378	-2.357056	0.923703
H	-0.651043	-4.561092	1.128579
C	0.000000	-1.440664	0.000000
S	0.772234	-2.286957	-1.337567
C	-1.261192	-1.978743	2.183857
H	-1.583666	-2.878678	2.742548
H	-2.168641	-1.376015	1.970497
H	-0.623012	-1.375728	2.863099
C	0.000000	0.000000	0.000000
C	0.295399	0.811508	1.099446
C	0.768742	2.111949	0.776721
H	0.169256	0.464952	2.136088
C	0.844232	2.319291	-0.612546
S	0.322342	0.885558	-1.486809
C	1.140796	3.134091	1.814609
H	0.995218	2.734123	2.836676
H	0.526006	4.054142	1.726239
H	2.203157	3.443680	1.726228
H	1.168902	3.211257	-1.161575
H	-0.216843	-4.392713	-1.417779
H	1.337652	-4.392347	-0.520136
H	-0.935250	-1.440937	-0.540100
$end

$rem
JOBTYPE		SP
EXCHANGE	HF
CORRELATION	pRIMP2
BASIS		cc-pvtz
METHOD		rimp2
AUX_BASIS	rimp2-cc-pvtz
SOLVENT_METHOD	PCM
PURECART	11111
SYMMETRY	false
MEM_TOTAL	110000
SCF_CONVERGENCE = 6
THRESH=10
$end



$solvent
dielectric 4.90
$end
--------------------------------------------------------------
 ----------------------------------------------------------------
             Standard Nuclear Orientation (Angstroms)
    I     Atom           X                Y                Z
 ----------------------------------------------------------------
    1      C       0.3881810000    -3.8667250000    -0.6709240000
    2      C      -0.3060200000    -3.7039630000     0.5306480000
    3      C      -0.5333780000    -2.3570560000     0.9237030000
    4      H      -0.6510430000    -4.5610920000     1.1285790000
    5      C       0.0000000000    -1.4406640000     0.0000000000
    6      S       0.7722340000    -2.2869570000    -1.3375670000
    7      C      -1.2611920000    -1.9787430000     2.1838570000
    8      H      -1.5836660000    -2.8786780000     2.7425480000
    9      H      -2.1686410000    -1.3760150000     1.9704970000
   10      H      -0.6230120000    -1.3757280000     2.8630990000
   11      C       0.0000000000     0.0000000000     0.0000000000
   12      C       0.2953990000     0.8115080000     1.0994460000
   13      C       0.7687420000     2.1119490000     0.7767210000
   14      H       0.1692560000     0.4649520000     2.1360880000
   15      C       0.8442320000     2.3192910000    -0.6125460000
   16      S       0.3223420000     0.8855580000    -1.4868090000
   17      C       1.1407960000     3.1340910000     1.8146090000
   18      H       0.9952180000     2.7341230000     2.8366760000
   19      H       0.5260060000     4.0541420000     1.7262390000
   20      H       2.2031570000     3.4436800000     1.7262280000
   21      H       1.1689020000     3.2112570000    -1.1615750000
   22      H      -0.2168430000    -4.3927130000    -1.4177790000
   23      H       1.3376520000    -4.3923470000    -0.5201360000
   24      H      -0.9352500000    -1.4409370000    -0.5401000000
 ----------------------------------------------------------------
 Nuclear Repulsion Energy =         877.74330150 hartrees
 There are       52 alpha and       52 beta electrons

 Q-Chem warning in module forms1/BasisType.C, line 2236:

 You are not using the predefined 5D/6D in this basis set.

 Requested basis set is cc-pVTZ
 There are 196 shells and 536 basis functions

 Total QAlloc Memory Limit 110000 MB
 Mega-Array Size       188 MB
 MEM_STATIC part       192 MB
 Discretize the solute cavity surface with Lebedev spheres
	Using 110 Lebedev grid points for each H atom
	Using 194 Lebedev grid points for other atoms
	Atomic van der Waals radii will be scaled by 1.20
 Remove points where switching function is < 1.0e-08
 Keep 1593 surface tesserae and discard 2055 interior tesserae
 Molecular Surface Area = 232.611 Angst**2
 Requested basis set is rimp2-cc-pVTZ
 There are 414 shells and 1414 basis functions
 A cutoff of  1.0D-10 yielded  14033 shell pairs
 There are    101659 function pairs (    130318 Cartesian)
 Smallest overlap matrix eigenvalue = 7.09E-05

 Scale SEOQF with 1.000000e-01/1.000000e-01/1.000000e-01

 Standard Electronic Orientation quadrupole field applied
 Nucleus-field energy     =     0.0000000243 hartrees
 Guess from superposition of atomic densities
 Warning:  Energy on first SCF cycle will be non-variational
 SAD guess density has 104.000000 electrons

 -----------------------------------------------------------------------
  General SCF calculation program by
  Eric Jon Sundstrom, Paul Horn, Yuezhi Mao, Dmitri Zuev, Alec White,
  David Stuck, Shaama M.S., Shane Yost, Joonho Lee, David Small,
  Daniel Levine, Susi Lehtola, Hugh Burton, Evgeny Epifanovsky,
  Bang C. Huynh
 -----------------------------------------------------------------------
 Hartree-Fock
 A restricted SCF calculation will be
 performed using DIIS
 SCF converges when DIIS error is below 1.0e-06
 ---------------------------------------
  Cycle       Energy         DIIS error
 ---------------------------------------
    1   -1186.0476753513      2.39e-02  
    2   -1180.6009497321      1.58e-03  
    3   -1180.7270395871      6.32e-04  
    4   -1180.7422696051      3.39e-04  
    5   -1180.7476034802      6.07e-05  
    6   -1180.7478634354      2.51e-05  
    7   -1180.7479272555      9.33e-06  
    8   -1180.7479419422      4.51e-06  
    9   -1180.7479452822      1.51e-06  
   10   -1180.7479457771      5.14e-07  Convergence criterion met
 ---------------------------------------
 SCF time:   CPU 567.46s  wall 570.00s 

************** Final PCM Free Energy Summary **************
 G_electrostatic  =      -0.00956088 hartree =      -5.99954201 kcal/mol
 G_cavitation     =       0.00000000 hartree =       0.00000000 kcal/mol
 G_dispersion     =       0.00000000 hartree =       0.00000000 kcal/mol
 G_repulsion      =       0.00000000 hartree =       0.00000000 kcal/mol
 --------------------------------------------------
 Non-electrostatic Free Energy =       0.00000000 hartree =       0.00000000 kcal/mol
 Total                         =      -0.00956088 hartree =      -5.99954201 kcal/mol
 --------------------------------------------------
 SCF Energy (H0 + V/2)                       =   -1180.74794578 
 Solute Internal Energy (H0)                 =   -1180.73838490 
 Total Free Energy (H0 + V/2 + non-elec)     =   -1180.74794578 hartree
                                             = -740930.51883895 kcal/mol
***********************************************************

 SCF   energy in the final basis set =    -1180.7479457771
 Total energy in the final basis set =    -1180.7479457771


 --------------------------------------------------------------
  Generalized many-body perturbation theory program
  by Joonho Lee, Fazle Rob, Xintian Feng, Evgeny Epifanovsky

 No regularization used 
 (reg. param. = 0.0000e+00)
  (P|Q)^-1/2 Time:  CPU 1.89 s  wall 1.90 s

 In RI-MP2 calculation: 
 # of frozen core orbitals: 20

 Components of the RIMP2 correlation energy:
        aaaa    correlation energy =        -0.2516442260 a.u.
        abab    correlation energy =        -1.5042486477 a.u.
        bbbb    correlation energy =        -0.2516442260 a.u.
        non-Brillouin singles      =        -0.0000000000 a.u.
        total same-spin energy     =        -0.5032884520 a.u.
        total opposite-spin energy =        -1.5042486477 a.u.

 Total  RIMP2   correlation energy =        -2.0075370997 a.u.
        RIMP2         total energy =     -1182.7554828768 a.u.

 RI-MP2 Energy Time:  CPU 79.77 s  wall 80.02 s
 
 --------------------------------------------------------------
 
                    Orbital Energies (a.u.)
 --------------------------------------------------------------
 
 Alpha MOs
 -- Occupied --
-91.9839 -91.9446 -11.2834 -11.2649 -11.2599 -11.2572 -11.2503 -11.2423
-11.2343 -11.2334 -11.2283 -11.2212  -8.9838  -8.9492  -6.6647  -6.6642
 -6.6635  -6.6305  -6.6295  -6.6282  -1.2007  -1.1530  -1.0592  -1.0308
 -1.0004  -0.9632  -0.9142  -0.8999  -0.8170  -0.7610  -0.7364  -0.7038
 -0.6545  -0.6416  -0.6100  -0.5922  -0.5832  -0.5682  -0.5658  -0.5525
 -0.5453  -0.5339  -0.5186  -0.5044  -0.4878  -0.4786  -0.4682  -0.4449
 -0.3573  -0.3431  -0.3234  -0.2652
 -- Virtual --
  0.0940   0.1321   0.1408   0.1491   0.1584   0.1693   0.1788   0.1867
  0.1908   0.2024   0.2073   0.2193   0.2218   0.2329   0.2393   0.2408
  0.2531   0.2684   0.2809   0.3011   0.3164   0.3288   0.3529   0.3586
  0.3666   0.3809   0.3813   0.3894   0.4017   0.4111   0.4125   0.4196
  0.4410   0.4474   0.4632   0.4663   0.4775   0.4782   0.4861   0.4898
  0.4942   0.5106   0.5183   0.5303   0.5408   0.5474   0.5562   0.5613
  0.5679   0.5773   0.5849   0.5889   0.5989   0.6061   0.6135   0.6185
  0.6249   0.6276   0.6313   0.6332   0.6401   0.6475   0.6518   0.6628
  0.6681   0.6711   0.6811   0.6894   0.7039   0.7128   0.7190   0.7253
  0.7373   0.7470   0.7620   0.7750   0.7778   0.7917   0.7999   0.8228
  0.8328   0.8550   0.8598   0.8645   0.8836   0.9020   0.9040   0.9133
  0.9263   0.9370   0.9490   0.9589   0.9669   0.9921   1.0079   1.0120
  1.0229   1.0290   1.0315   1.0426   1.0501   1.0589   1.0696   1.0768
  1.0901   1.0933   1.1107   1.1293   1.1466   1.1535   1.1663   1.1705
  1.1777   1.1862   1.1906   1.2052   1.2100   1.2221   1.2328   1.2464
  1.2510   1.2597   1.2633   1.2731   1.2813   1.2870   1.2917   1.3092
  1.3208   1.3296   1.3400   1.3536   1.3721   1.3861   1.4053   1.4165
  1.4242   1.4289   1.4361   1.4545   1.4720   1.4796   1.4884   1.5017
  1.5060   1.5168   1.5197   1.5311   1.5358   1.5417   1.5530   1.5588
  1.5645   1.5750   1.5880   1.5899   1.6258   1.6316   1.6375   1.6471
  1.6492   1.6651   1.6733   1.6921   1.6973   1.7153   1.7287   1.7375
  1.7487   1.7575   1.7778   1.7886   1.8167   1.8256   1.8408   1.8574
  1.8947   1.9054   1.9097   1.9291   1.9375   1.9718   1.9844   2.0038
  2.0203   2.0415   2.0564   2.0622   2.1028   2.1116   2.1474   2.1508
  2.1847   2.1973   2.2140   2.2209   2.2343   2.2419   2.2657   2.2830
  2.2960   2.3073   2.3103   2.3869   2.4174   2.4363   2.4576   2.4721
  2.4866   2.5166   2.5340   2.5472   2.5631   2.5744   2.5845   2.5993
  2.6222   2.6407   2.6600   2.6732   2.6741   2.6885   2.7110   2.7338
  2.7486   2.7555   2.7645   2.7845   2.7895   2.7949   2.8019   2.8108
  2.8367   2.8432   2.8522   2.8783   2.8949   2.8978   2.9197   2.9269
  2.9404   2.9568   2.9724   3.0038   3.0051   3.0316   3.0375   3.0401
  3.0634   3.0727   3.0847   3.0988   3.1108   3.1170   3.1218   3.1413
  3.1485   3.1602   3.1628   3.1676   3.1783   3.1819   3.1976   3.2224
  3.2311   3.2380   3.2519   3.2555   3.2780   3.2842   3.2931   3.3154
  3.3244   3.3285   3.3335   3.3445   3.3459   3.3544   3.3570   3.3600
  3.3689   3.3846   3.3923   3.3960   3.4086   3.4169   3.4226   3.4331
  3.4412   3.4432   3.4614   3.4692   3.4781   3.4857   3.4904   3.5074
  3.5139   3.5233   3.5356   3.5455   3.5479   3.5604   3.5770   3.5867
  3.5969   3.6085   3.6143   3.6219   3.6249   3.6325   3.6446   3.6583
  3.6660   3.6700   3.6902   3.7039   3.7096   3.7251   3.7407   3.7440
  3.7466   3.7582   3.7690   3.7729   3.7871   3.7912   3.7967   3.8135
  3.8289   3.8395   3.8515   3.8626   3.8745   3.8850   3.8931   3.9149
  3.9280   3.9393   3.9578   3.9681   3.9717   3.9851   4.0066   4.0245
  4.0274   4.0457   4.0492   4.0597   4.0606   4.0767   4.0982   4.0991
  4.1222   4.1280   4.1500   4.1535   4.1651   4.1746   4.1853   4.2071
  4.2144   4.2227   4.2391   4.2403   4.2445   4.2635   4.2694   4.2848
  4.2950   4.3031   4.3170   4.3256   4.3410   4.3561   4.3686   4.3732
  4.3792   4.3940   4.4018   4.4095   4.4173   4.4303   4.4442   4.4545
  4.4687   4.4713   4.4808   4.4864   4.4920   4.5001   4.5407   4.5650
  4.5877   4.6004   4.6036   4.6262   4.6338   4.6420   4.6566   4.6847
  4.6989   4.7173   4.7530   4.7663   4.7794   4.8211   4.8308   4.8467
  4.8657   4.8683   4.8926   4.9063   4.9390   4.9676   4.9851   4.9934
  5.0208   5.0438   5.0928   5.1053   5.1193   5.1277   5.1648   5.1812
  5.1895   5.2127   5.2447   5.2619   5.2820   5.2988   5.3098   5.3274
  5.3479   5.3710   5.3756   5.4059   5.4136   5.4158   5.4335   5.4419
  5.4836   5.5150   5.5314   5.5398   5.5528   5.5634   5.5751   5.5998
  5.6132   5.6245   5.6298   5.6625   5.6940   5.6966   5.7132   5.7360
  5.7701   5.7944   5.8343   5.9858   6.0348   6.0844   6.1197   6.1657
  6.2114   6.2278   6.2354   6.2477   6.2647   6.2969   6.3006   6.3636
  6.3955   6.5068   9.4558  10.8361  12.0999  12.9478  13.1910  13.9681
 14.0824  14.2021  14.3489  14.7049
 --------------------------------------------------------------
 
          Ground-State Mulliken Net Atomic Charges

     Atom                 Charge (a.u.)
  ----------------------------------------
      1 C                    -0.078361
      2 C                    -0.322970
      3 C                    -0.038680
      4 H                     0.177203
      5 C                     0.109682
      6 S                    -0.171806
      7 C                    -0.290061
      8 H                     0.118024
      9 H                     0.110523
     10 H                     0.104153
     11 C                    -0.086582
     12 C                    -0.237988
     13 C                     0.021366
     14 H                     0.191940
     15 C                    -0.247325
     16 S                    -0.000893
     17 C                    -0.273232
     18 H                     0.100842
     19 H                     0.108229
     20 H                     0.108401
     21 H                     0.197921
     22 H                     0.110747
     23 H                     0.114146
     24 H                     0.174721
  ----------------------------------------
  Sum of atomic charges =     0.000000

 -----------------------------------------------------------------
                    Cartesian Multipole Moments
 -----------------------------------------------------------------
    Charge (ESU x 10^10)
                -0.0000
    Dipole Moment (Debye)
         X      -1.3470      Y       0.0325      Z       3.0265
       Tot       3.3129
    Quadrupole Moments (Debye-Ang)
        XX     -90.7619     XY       6.3077     YY     -74.3747
        XZ       0.2885     YZ      -1.3204     ZZ     -85.5182
    Octopole Moments (Debye-Ang^2)
       XXX     -71.4112    XXY      52.6104    XYY     -13.4317
       YYY     125.9580    XXZ      -0.5237    XYZ       1.3857
       YYZ      -5.5550    XZZ     -24.5443    YZZ      54.1959
       ZZZ       5.3514
    Hexadecapole Moments (Debye-Ang^3)
      XXXX    -403.5367   XXXY    -158.7113   XXYY    -558.1219
      XYYY    -125.8805   YYYY   -2683.7896   XXXZ      94.6724
      XXYZ     -37.9802   XYYZ      11.6033   YYYZ     -97.6333
      XXZZ    -230.2363   XYZZ     -29.7594   YYZZ    -626.1473
      XZZZ      84.4961   YZZZ    -112.5366   ZZZZ    -961.7647
 -----------------------------------------------------------------
 Total job time:  652.24s(wall), 648.14s(cpu) 
 Sun Jul 10 03:48:48 2022

        *************************************************************
        *                                                           *
        *  Thank you very much for using Q-Chem.  Have a nice day.  *
        *                                                           *
        *************************************************************


remove work dirs ./qchem925758.0 -- ./qchem925758.-1
rm -rf ./qchem925758
