You are running Q-Chem version: 5.4.0

#
# job setting
#
local host:  exp-1-17
current dir: /expanse/lustre/scratch/theleonzhang/temp_project/Hydrogenated_Rotation_Test
input file:  Methylthiophene_Phi_0_Theta_200_Methylthiophene_Hydrogenated.qcin
output file: 
nprocs     : 0
nthreads   : 1
#
# qchem installation setting
#
QC:          /cm/shared/apps/spack/cpu/opt/spack/linux-centos8-zen2/gcc-10.2.0/qchem-5.4-akfmr7b3t57bfs6qan3padb2wnb2i7cl
QCAUX:       /cm/shared/apps/spack/cpu/opt/spack/linux-centos8-zen2/gcc-10.2.0/qchem-5.4-akfmr7b3t57bfs6qan3padb2wnb2i7cl/qcaux
QCPROG:      /cm/shared/apps/spack/cpu/opt/spack/linux-centos8-zen2/gcc-10.2.0/qchem-5.4-akfmr7b3t57bfs6qan3padb2wnb2i7cl/exe/qcprog.exe_s
QCPROG_S:    /cm/shared/apps/spack/cpu/opt/spack/linux-centos8-zen2/gcc-10.2.0/qchem-5.4-akfmr7b3t57bfs6qan3padb2wnb2i7cl/exe/qcprog.exe_s
PARALLEL:    -DSERIAL
QCMPI:       mpich
#
# qchem directory setting
#
qcrun:       qchem3531374
QCSCRATCH:   .
QCLOCALSCR:  
QCTMPDIR:    .
QCFILEPREF:  ./qchem3531374
QCSAVEDIR:   
workdirs:    ./qchem3531374
workdir0:    ./qchem3531374
partmpdirs =  
#
# parallel setting
#
QCRSH:           ssh
QCMPI:           mpich
QCMPIRUN:        /cm/shared/apps/spack/cpu/opt/spack/linux-centos8-zen2/gcc-10.2.0/qchem-5.4-akfmr7b3t57bfs6qan3padb2wnb2i7cl/bin/mpi/mpirun_qchem
QCMACHINEFILE:   ./qchem3531374/hostfile

#
# env setting
#
exported envs:   QC QCAUX QCSCRATCH QCRUNNAME QCFILEPREF QCPROG QCPROG_S GUIFILE

Running Job 1 of 1 Methylthiophene_Phi_0_Theta_200_Methylthiophene_Hydrogenated.qcin
qchem Methylthiophene_Phi_0_Theta_200_Methylthiophene_Hydrogenated.qcin_3531374.0 ./qchem3531374/ 0
/cm/shared/apps/spack/cpu/opt/spack/linux-centos8-zen2/gcc-10.2.0/qchem-5.4-akfmr7b3t57bfs6qan3padb2wnb2i7cl/exe/qcprog.exe_s Methylthiophene_Phi_0_Theta_200_Methylthiophene_Hydrogenated.qcin_3531374.0 ./qchem3531374/
                  Welcome to Q-Chem
     A Quantum Leap Into The Future Of Chemistry


 Q-Chem 5.4, Q-Chem, Inc., Pleasanton, CA (2021)

 License issued to: University of California, San Diego (site)

 E. Epifanovsky,  A. T. B. Gilbert,  Xintian Feng,  Joonho Lee,  Yuezhi Mao,  
 N. Mardirossian,  P. Pokhilko,  A. White,  M. Wormit,  M. P. Coons,  
 A. L. Dempwolff,  Zhengting Gan,  D. Hait,  P. R. Horn,  L. D. Jacobson,  
 I. Kaliman,  J. Kussmann,  A. W. Lange,  Ka Un Lao,  D. S. Levine,  Jie Liu,  
 S. C. McKenzie,  A. F. Morrison,  K. Nanda,  F. Plasser,  D. R. Rehn,  
 M. L. Vidal,  Zhi-Qiang You,  Ying Zhu,  B. Alam,  B. Albrecht,  
 A. Aldossary,  E. Alguire,  J. H. Andersen,  D. Barton,  K. Begam,  A. Behn,  
 Y. A. Bernard,  E. J. Berquist,  H. Burton,  A. Carreras,  K. Carter-Fenk,  
 R. Chakraborty,  A. D. Chien,  K. D. Closser,  V. Cofer-Shabica,  
 S. Dasgupta,  Jia Deng,  M. de Wergifosse,  M. Diedenhofen,  Hainam Do,  
 S. Ehlert,  Po-Tung Fang,  S. Fatehi,  Qingguo Feng,  J. Gayvert,  
 Qinghui Ge,  G. Gidofalvi,  M. Goldey,  J. Gomes,  C. Gonzalez-Espinoza,  
 S. Gulania,  A. Gunina,  M. W. D. Hanson-Heine,  P. H. P. Harbach,  
 A. W. Hauser,  M. F. Herbst,  M. Hernandez Vera,  M. Hodecker,  
 Z. C. Holden,  S. Houck,  Xunkun Huang,  Kerwin Hui,  B. C. Huynh,  
 M. Ivanov,  Hyunjun Ji,  Hanjie Jiang,  B. Kaduk,  S. Kaehler,  
 K. Khistyaev,  Jaehoon Kim,  P. Klunzinger,  Z. Koczor-Benda,  
 Joong Hoon Koh,  D. Kosenkov,  L. Koulias,  T. Kowalczyk,  C. M. Krauter,  
 K. Kue,  A. Kunitsa,  T. Kus,  A. Landau,  K. V. Lawler,  D. Lefrancois,  
 S. Lehtola,  Rain Li,  Yi-Pei Li,  Jiashu Liang,  M. Liebenthal,  
 Hung-Hsuan Lin,  You-Sheng Lin,  Fenglai Liu,  Kuan-Yu Liu,  
 M. Loipersberger,  A. Luenser,  A. Manjanath,  P. Manohar,  E. Mansoor,  
 S. F. Manzer,  Shan-Ping Mao,  A. V. Marenich,  T. Markovich,  S. Mason,  
 S. A. Maurer,  P. F. McLaughlin,  M. F. S. J. Menger,  J.-M. Mewes,  
 S. A. Mewes,  P. Morgante,  J. W. Mullinax,  T. S. Nguyen-Beck,  
 K. J. Oosterbaan,  G. Paran,  Alexander C. Paul,  Suranjan K. Paul,  
 F. Pavosevic,  Zheng Pei,  S. Prager,  E. I. Proynov,  E. Ramos,  B. Rana,  
 A. E. Rask,  A. Rettig,  R. M. Richard,  F. Rob,  E. Rossomme,  T. Scheele,  
 M. Scheurer,  M. Schneider,  N. Sergueev,  S. M. Sharada,  W. Skomorowski,  
 D. W. Small,  C. J. Stein,  Yu-Chuan Su,  E. J. Sundstrom,  Zhen Tao,  
 J. Thirman,  T. Tsuchimochi,  N. M. Tubman,  S. P. Veccham,  O. Vydrov,  
 J. Wenzel,  J. Witte,  A. Yamada,  Kun Yao,  S. Yeganeh,  S. R. Yost,  
 A. Zech,  Igor Ying Zhang,  Xing Zhang,  Yu Zhang,  D. Zuev,  
 A. Aspuru-Guzik,  A. T. Bell,  N. A. Besley,  K. B. Bravaya,  B. R. Brooks,  
 D. Casanova,  Jeng-Da Chai,  S. Coriani,  C. J. Cramer,  
 A. E. DePrince, III,  R. A. DiStasio Jr.,  A. Dreuw,  B. D. Dunietz,  
 T. R. Furlani,  W. A. Goddard III,  S. Grimme,  S. Hammes-Schiffer,  
 T. Head-Gordon,  W. J. Hehre,  Chao-Ping Hsu,  T.-C. Jagau,  Yousung Jung,  
 A. Klamt,  Jing Kong,  D. S. Lambrecht,  WanZhen Liang,  N. J. Mayhall,  
 C. W. McCurdy,  J. B. Neaton,  C. Ochsenfeld,  J. A. Parkhill,  R. Peverati,  
 V. A. Rassolov,  Yihan Shao,  L. V. Slipchenko,  T. Stauch,  R. P. Steele,  
 J. E. Subotnik,  A. J. W. Thom,  A. Tkatchenko,  D. G. Truhlar,  
 T. Van Voorhis,  T. A. Wesolowski,  K. B. Whaley,  H. L. Woodcock III,  
 P. M. Zimmerman,  S. Faraji,  P. M. W. Gill,  M. Head-Gordon,  
 J. M. Herbert,  A. I. Krylov

 Contributors to earlier versions of Q-Chem not listed above: 
 R. D. Adamson,  B. Austin,  R. Baer,  J. Baker,  G. J. O. Beran,  
 K. Brandhorst,  S. T. Brown,  E. F. C. Byrd,  A. K. Chakraborty,  
 G. K. L. Chan,  Chun-Min Chang,  Yunqing Chen,  C.-L. Cheng,  
 Siu Hung Chien,  D. M. Chipman,  D. L. Crittenden,  H. Dachsel,  
 R. J. Doerksen,  A. D. Dutoi,  R. G. Edgar,  J. Fosso-Tande,  
 L. Fusti-Molnar,  D. Ghosh,  A. Ghysels,  A. Golubeva-Zadorozhnaya,  
 J. Gonthier,  M. S. Gordon,  S. R. Gwaltney,  G. Hawkins,  J. E. Herr,  
 A. Heyden,  S. Hirata,  E. G. Hohenstein,  G. Kedziora,  F. J. Keil,  
 C. Kelley,  Jihan Kim,  R. A. King,  R. Z. Khaliullin,  P. P. Korambath,  
 W. Kurlancheek,  A. Laurent,  A. M. Lee,  M. S. Lee,  S. V. Levchenko,  
 Ching Yeh Lin,  D. Liotard,  E. Livshits,  R. C. Lochan,  I. Lotan,  
 L. A. Martinez-Martinez,  P. E. Maslen,  N. Nair,  D. P. O'Neill,  
 D. Neuhauser,  E. Neuscamman,  C. M. Oana,  R. Olivares-Amaya,  R. Olson,  
 T. M. Perrine,  B. Peters,  P. A. Pieniazek,  A. Prociuk,  Y. M. Rhee,  
 J. Ritchie,  M. A. Rohrdanz,  E. Rosta,  N. J. Russ,  H. F. Schaefer III,  
 M. W. Schmidt,  N. E. Schultz,  S. Sharma,  N. Shenvi,  C. D. Sherrill,  
 A. C. Simmonett,  A. Sodt,  T. Stein,  D. Stuck,  K. S. Thanthiriwatte,  
 V. Vanovschi,  L. Vogt,  Tao Wang,  A. Warshel,  M. A. Watson,  
 C. F. Williams,  Q. Wu,  X. Xu,  Jun Yang,  W. Zhang,  Yan Zhao

 Please cite Q-Chem as follows:
 Y. Shao et al., Mol. Phys. 113, 184-215 (2015)
 DOI: 10.1080/00268976.2014.952696

 Q-Chem 5.4.0 for Intel X86 EM64T Linux

 Parts of Q-Chem use Armadillo 9.800.1 (Horizon Scraper).
 http://arma.sourceforge.net/

 Q-Chem begins on Sun Jul 10 02:33:00 2022  

 Host: 
0

     Scratch files written to ./qchem3531374//
 May1621 |scratch|qcdevops|jenkins|workspace|build_RNUM    
 Processing $rem in /cm/shared/apps/spack/cpu/opt/spack/linux-centos8-zen2/gcc-10.2.0/qchem-5.4-akfmr7b3t57bfs6qan3padb2wnb2i7cl/config/preferences:
 Processing $rem in /home/theleonzhang/.qchemrc:
 Symmetry turned off for PCM/SM12/SMD calculation
 Core orbitals will be frozen

 Checking the input file for inconsistencies... 	...done.

--------------------------------------------------------------
User input:
--------------------------------------------------------------
$molecule
0 1
C	0.265779	-3.866725	-0.728138
C	-0.209225	-3.703963	0.575726
C	-0.364875	-2.357056	1.002290
H	-0.445176	-4.561092	1.224486
C	0.000000	-1.440664	0.000000
S	0.528236	-2.286957	-1.451343
C	-0.862808	-1.978743	2.369683
H	-1.083368	-2.878678	2.975883
H	-1.793522	-1.376015	2.317142
H	-0.116375	-1.375728	2.927787
C	0.000000	0.000000	0.000000
C	0.000033	0.863600	1.099446
C	0.000052	2.247508	0.776721
H	0.000026	0.494801	2.136088
C	0.000074	2.468165	-0.612546
S	0.000024	0.942399	-1.486809
C	0.000075	3.335257	1.814609
H	0.000074	2.909620	2.836676
H	-0.892314	3.989552	1.726239
H	0.892483	3.989525	1.726228
H	0.000094	3.417382	-1.161575
H	-0.459743	-4.392713	-1.358585
H	1.227009	-4.392347	-0.744515
H	1.014829	-1.440391	0.369490
$end

$rem
JOBTYPE		SP
EXCHANGE	HF
CORRELATION	pRIMP2
BASIS		cc-pvtz
METHOD		rimp2
AUX_BASIS	rimp2-cc-pvtz
SOLVENT_METHOD	PCM
PURECART	11111
SYMMETRY	false
MEM_TOTAL	110000
SCF_CONVERGENCE = 6
THRESH=10
$end



$solvent
dielectric 4.90
$end
--------------------------------------------------------------
 ----------------------------------------------------------------
             Standard Nuclear Orientation (Angstroms)
    I     Atom           X                Y                Z
 ----------------------------------------------------------------
    1      C       0.2657790000    -3.8667250000    -0.7281380000
    2      C      -0.2092250000    -3.7039630000     0.5757260000
    3      C      -0.3648750000    -2.3570560000     1.0022900000
    4      H      -0.4451760000    -4.5610920000     1.2244860000
    5      C       0.0000000000    -1.4406640000     0.0000000000
    6      S       0.5282360000    -2.2869570000    -1.4513430000
    7      C      -0.8628080000    -1.9787430000     2.3696830000
    8      H      -1.0833680000    -2.8786780000     2.9758830000
    9      H      -1.7935220000    -1.3760150000     2.3171420000
   10      H      -0.1163750000    -1.3757280000     2.9277870000
   11      C       0.0000000000     0.0000000000     0.0000000000
   12      C       0.0000330000     0.8636000000     1.0994460000
   13      C       0.0000520000     2.2475080000     0.7767210000
   14      H       0.0000260000     0.4948010000     2.1360880000
   15      C       0.0000740000     2.4681650000    -0.6125460000
   16      S       0.0000240000     0.9423990000    -1.4868090000
   17      C       0.0000750000     3.3352570000     1.8146090000
   18      H       0.0000740000     2.9096200000     2.8366760000
   19      H      -0.8923140000     3.9895520000     1.7262390000
   20      H       0.8924830000     3.9895250000     1.7262280000
   21      H       0.0000940000     3.4173820000    -1.1615750000
   22      H      -0.4597430000    -4.3927130000    -1.3585850000
   23      H       1.2270090000    -4.3923470000    -0.7445150000
   24      H       1.0148290000    -1.4403910000     0.3694900000
 ----------------------------------------------------------------
 Nuclear Repulsion Energy =         875.34750880 hartrees
 There are       52 alpha and       52 beta electrons

 Q-Chem warning in module forms1/BasisType.C, line 2236:

 You are not using the predefined 5D/6D in this basis set.

 Requested basis set is cc-pVTZ
 There are 196 shells and 536 basis functions

 Total QAlloc Memory Limit 110000 MB
 Mega-Array Size       188 MB
 MEM_STATIC part       192 MB
 Discretize the solute cavity surface with Lebedev spheres
	Using 110 Lebedev grid points for each H atom
	Using 194 Lebedev grid points for other atoms
	Atomic van der Waals radii will be scaled by 1.20
 Remove points where switching function is < 1.0e-08
 Keep 1583 surface tesserae and discard 2065 interior tesserae
 Molecular Surface Area = 232.967 Angst**2
 Requested basis set is rimp2-cc-pVTZ
 There are 414 shells and 1414 basis functions
 A cutoff of  1.0D-10 yielded  14025 shell pairs
 There are    101597 function pairs (    130198 Cartesian)
 Smallest overlap matrix eigenvalue = 4.22E-05

 Scale SEOQF with 1.000000e-01/1.000000e-01/1.000000e-01

 Standard Electronic Orientation quadrupole field applied
 Nucleus-field energy     =     0.0000000230 hartrees
 Guess from superposition of atomic densities
 Warning:  Energy on first SCF cycle will be non-variational
 SAD guess density has 104.000000 electrons

 -----------------------------------------------------------------------
  General SCF calculation program by
  Eric Jon Sundstrom, Paul Horn, Yuezhi Mao, Dmitri Zuev, Alec White,
  David Stuck, Shaama M.S., Shane Yost, Joonho Lee, David Small,
  Daniel Levine, Susi Lehtola, Hugh Burton, Evgeny Epifanovsky,
  Bang C. Huynh
 -----------------------------------------------------------------------
 Hartree-Fock
 A restricted SCF calculation will be
 performed using DIIS
 SCF converges when DIIS error is below 1.0e-06
 ---------------------------------------
  Cycle       Energy         DIIS error
 ---------------------------------------
    1   -1186.0487322200      2.39e-02  
    2   -1180.6090690296      1.59e-03  
    3   -1180.7354902012      6.63e-04  
    4   -1180.7518086517      3.49e-04  
    5   -1180.7574942457      5.91e-05  
    6   -1180.7577386534      2.46e-05  
    7   -1180.7577953265      8.52e-06  
    8   -1180.7578070545      4.10e-06  
    9   -1180.7578096162      1.39e-06  
   10   -1180.7578100208      5.05e-07  Convergence criterion met
 ---------------------------------------
 SCF time:   CPU 572.52s  wall 575.00s 

************** Final PCM Free Energy Summary **************
 G_electrostatic  =      -0.00959725 hartree =      -6.02236578 kcal/mol
 G_cavitation     =       0.00000000 hartree =       0.00000000 kcal/mol
 G_dispersion     =       0.00000000 hartree =       0.00000000 kcal/mol
 G_repulsion      =       0.00000000 hartree =       0.00000000 kcal/mol
 --------------------------------------------------
 Non-electrostatic Free Energy =       0.00000000 hartree =       0.00000000 kcal/mol
 Total                         =      -0.00959725 hartree =      -6.02236578 kcal/mol
 --------------------------------------------------
 SCF Energy (H0 + V/2)                       =   -1180.75781002 
 Solute Internal Energy (H0)                 =   -1180.74821277 
 Total Free Energy (H0 + V/2 + non-elec)     =   -1180.75781002 hartree
                                             = -740936.70874527 kcal/mol
***********************************************************

 SCF   energy in the final basis set =    -1180.7578100208
 Total energy in the final basis set =    -1180.7578100208


 --------------------------------------------------------------
  Generalized many-body perturbation theory program
  by Joonho Lee, Fazle Rob, Xintian Feng, Evgeny Epifanovsky

 No regularization used 
 (reg. param. = 0.0000e+00)
  (P|Q)^-1/2 Time:  CPU 1.89 s  wall 1.90 s

 In RI-MP2 calculation: 
 # of frozen core orbitals: 20

 Components of the RIMP2 correlation energy:
        aaaa    correlation energy =        -0.2515068239 a.u.
        abab    correlation energy =        -1.5028282297 a.u.
        bbbb    correlation energy =        -0.2515068239 a.u.
        non-Brillouin singles      =        -0.0000000000 a.u.
        total same-spin energy     =        -0.5030136479 a.u.
        total opposite-spin energy =        -1.5028282297 a.u.

 Total  RIMP2   correlation energy =        -2.0058418775 a.u.
        RIMP2         total energy =     -1182.7636518983 a.u.

 RI-MP2 Energy Time:  CPU 79.56 s  wall 79.86 s
 
 --------------------------------------------------------------
 
                    Orbital Energies (a.u.)
 --------------------------------------------------------------
 
 Alpha MOs
 -- Occupied --
-91.9841 -91.9461 -11.2904 -11.2665 -11.2614 -11.2532 -11.2501 -11.2444
-11.2341 -11.2291 -11.2282 -11.2237  -8.9836  -8.9507  -6.6645  -6.6640
 -6.6634  -6.6321  -6.6311  -6.6298  -1.2024  -1.1523  -1.0604  -1.0317
 -1.0019  -0.9613  -0.9158  -0.8996  -0.8187  -0.7633  -0.7261  -0.7066
 -0.6598  -0.6486  -0.6108  -0.5935  -0.5863  -0.5692  -0.5597  -0.5533
 -0.5436  -0.5352  -0.5222  -0.5024  -0.4864  -0.4826  -0.4689  -0.4439
 -0.3603  -0.3439  -0.3234  -0.2651
 -- Virtual --
  0.1063   0.1299   0.1421   0.1499   0.1562   0.1696   0.1716   0.1869
  0.1933   0.2038   0.2066   0.2120   0.2187   0.2351   0.2371   0.2421
  0.2595   0.2764   0.2857   0.3040   0.3164   0.3254   0.3526   0.3553
  0.3719   0.3794   0.3885   0.3894   0.3989   0.4118   0.4162   0.4239
  0.4370   0.4533   0.4663   0.4720   0.4750   0.4780   0.4859   0.4935
  0.5063   0.5197   0.5250   0.5324   0.5416   0.5427   0.5503   0.5580
  0.5641   0.5798   0.5859   0.5965   0.5995   0.6037   0.6131   0.6228
  0.6258   0.6268   0.6333   0.6364   0.6420   0.6460   0.6520   0.6635
  0.6700   0.6800   0.6812   0.6937   0.6970   0.7222   0.7252   0.7299
  0.7388   0.7449   0.7643   0.7736   0.7829   0.8015   0.8096   0.8251
  0.8359   0.8402   0.8564   0.8696   0.8900   0.8952   0.9052   0.9165
  0.9301   0.9502   0.9518   0.9657   0.9797   0.9884   1.0049   1.0119
  1.0293   1.0327   1.0409   1.0438   1.0611   1.0638   1.0688   1.0834
  1.0898   1.0985   1.1045   1.1294   1.1446   1.1489   1.1621   1.1691
  1.1768   1.1904   1.2043   1.2097   1.2139   1.2240   1.2267   1.2416
  1.2467   1.2552   1.2607   1.2793   1.2853   1.3018   1.3082   1.3121
  1.3244   1.3299   1.3498   1.3598   1.3712   1.3793   1.4059   1.4179
  1.4291   1.4360   1.4432   1.4620   1.4671   1.4853   1.4865   1.4972
  1.5110   1.5144   1.5298   1.5317   1.5444   1.5454   1.5519   1.5540
  1.5800   1.5900   1.5962   1.6028   1.6178   1.6262   1.6401   1.6455
  1.6503   1.6652   1.6811   1.6945   1.7065   1.7189   1.7288   1.7452
  1.7590   1.7638   1.7822   1.7931   1.8179   1.8310   1.8477   1.8622
  1.8846   1.8965   1.9257   1.9397   1.9430   1.9793   1.9923   1.9999
  2.0230   2.0448   2.0527   2.0592   2.0912   2.1156   2.1365   2.1695
  2.1789   2.2020   2.2064   2.2208   2.2289   2.2469   2.2647   2.2835
  2.2933   2.3025   2.3304   2.3813   2.4105   2.4438   2.4646   2.4780
  2.4944   2.5168   2.5376   2.5443   2.5604   2.5909   2.5995   2.6084
  2.6350   2.6515   2.6571   2.6738   2.6858   2.6984   2.7250   2.7321
  2.7424   2.7550   2.7681   2.7704   2.7778   2.7809   2.8023   2.8095
  2.8332   2.8571   2.8592   2.8742   2.8910   2.9054   2.9091   2.9251
  2.9370   2.9539   2.9797   2.9937   3.0103   3.0198   3.0373   3.0419
  3.0458   3.0718   3.1010   3.1083   3.1126   3.1175   3.1317   3.1390
  3.1471   3.1596   3.1611   3.1780   3.1935   3.1944   3.2029   3.2163
  3.2312   3.2398   3.2491   3.2594   3.2660   3.2868   3.2903   3.3055
  3.3095   3.3279   3.3336   3.3406   3.3474   3.3612   3.3679   3.3727
  3.3749   3.3879   3.3904   3.3957   3.4027   3.4088   3.4276   3.4330
  3.4455   3.4484   3.4540   3.4670   3.4817   3.4862   3.4940   3.5066
  3.5114   3.5166   3.5247   3.5385   3.5518   3.5582   3.5646   3.5688
  3.5957   3.5974   3.6093   3.6225   3.6326   3.6352   3.6471   3.6575
  3.6721   3.6793   3.6937   3.6999   3.7176   3.7320   3.7350   3.7412
  3.7473   3.7536   3.7592   3.7775   3.7937   3.7945   3.8068   3.8184
  3.8247   3.8416   3.8494   3.8670   3.8843   3.8905   3.8965   3.9067
  3.9254   3.9369   3.9598   3.9704   3.9918   3.9969   4.0098   4.0211
  4.0418   4.0454   4.0552   4.0580   4.0637   4.0826   4.0888   4.1135
  4.1197   4.1368   4.1454   4.1527   4.1589   4.1717   4.1816   4.1941
  4.2093   4.2220   4.2307   4.2386   4.2587   4.2661   4.2760   4.3001
  4.3058   4.3123   4.3301   4.3383   4.3487   4.3561   4.3658   4.3732
  4.3890   4.3996   4.4020   4.4188   4.4249   4.4381   4.4447   4.4550
  4.4641   4.4762   4.4931   4.4978   4.5065   4.5267   4.5596   4.5732
  4.5809   4.5966   4.6017   4.6292   4.6393   4.6475   4.6602   4.6912
  4.7002   4.7243   4.7423   4.7733   4.7836   4.8139   4.8399   4.8467
  4.8570   4.8807   4.8947   4.9135   4.9454   4.9762   4.9841   5.0015
  5.0508   5.0762   5.0938   5.1158   5.1172   5.1287   5.1694   5.1958
  5.2187   5.2341   5.2573   5.2672   5.2858   5.3013   5.3142   5.3267
  5.3540   5.3619   5.3876   5.3929   5.4141   5.4266   5.4361   5.4392
  5.4717   5.5231   5.5258   5.5447   5.5502   5.5741   5.5784   5.5950
  5.6241   5.6245   5.6293   5.6649   5.6752   5.7059   5.7122   5.7379
  5.7735   5.8083   5.8398   5.9605   6.0392   6.0901   6.1421   6.1806
  6.2132   6.2278   6.2325   6.2657   6.2747   6.2908   6.3124   6.4129
  6.4224   6.6001   9.5196  11.0142  12.0931  12.9832  13.1915  13.9139
 14.1022  14.2119  14.4093  15.2571
 --------------------------------------------------------------
 
          Ground-State Mulliken Net Atomic Charges

     Atom                 Charge (a.u.)
  ----------------------------------------
      1 C                    -0.074017
      2 C                    -0.313612
      3 C                    -0.064345
      4 H                     0.178611
      5 C                     0.136947
      6 S                    -0.180408
      7 C                    -0.296377
      8 H                     0.121229
      9 H                     0.118313
     10 H                     0.100255
     11 C                    -0.060224
     12 C                    -0.271480
     13 C                     0.032615
     14 H                     0.188220
     15 C                    -0.280338
     16 S                     0.010271
     17 C                    -0.273498
     18 H                     0.100615
     19 H                     0.108460
     20 H                     0.108578
     21 H                     0.195879
     22 H                     0.112800
     23 H                     0.112871
     24 H                     0.188636
  ----------------------------------------
  Sum of atomic charges =     0.000000

 -----------------------------------------------------------------
                    Cartesian Multipole Moments
 -----------------------------------------------------------------
    Charge (ESU x 10^10)
                -0.0000
    Dipole Moment (Debye)
         X      -0.0038      Y      -0.4862      Z       3.9026
       Tot       3.9327
    Quadrupole Moments (Debye-Ang)
        XX     -91.5267     XY      -0.2657     YY     -72.9177
        XZ      -0.3305     YZ      -2.6343     ZZ     -85.9563
    Octopole Moments (Debye-Ang^2)
       XXX       1.1394    XXY      42.4327    XYY       2.3411
       YYY     113.2595    XXZ      -1.6845    XYZ       2.4597
       YYZ      -3.4135    XZZ      -3.0934    YZZ      49.8433
       ZZZ       6.3924
    Hexadecapole Moments (Debye-Ang^3)
      XXXX    -203.7660   XXXY      -1.0571   XXYY    -560.7663
      XYYY      -4.2711   YYYY   -2762.2587   XXXZ      93.7346
      XXYZ     -32.3485   XYYZ      17.8774   YYYZ    -105.4561
      XXZZ    -215.4536   XYZZ      11.8698   YYZZ    -652.5194
      XZZZ      84.8320   YZZZ    -126.8829   ZZZZ   -1038.6241
 -----------------------------------------------------------------
 Total job time:  657.21s(wall), 652.98s(cpu) 
 Sun Jul 10 02:43:57 2022

        *************************************************************
        *                                                           *
        *  Thank you very much for using Q-Chem.  Have a nice day.  *
        *                                                           *
        *************************************************************


remove work dirs ./qchem3531374.0 -- ./qchem3531374.-1
rm -rf ./qchem3531374
You are running Q-Chem version: 5.4.0

#
# job setting
#
local host:  exp-2-18
current dir: /expanse/lustre/scratch/theleonzhang/temp_project/Hydrogenated_Rotation_Test
input file:  Methylthiophene_Phi_0_Theta_200_Methylthiophene_Hydrogenated.qcin
output file: 
nprocs     : 0
nthreads   : 1
#
# qchem installation setting
#
QC:          /cm/shared/apps/spack/cpu/opt/spack/linux-centos8-zen2/gcc-10.2.0/qchem-5.4-akfmr7b3t57bfs6qan3padb2wnb2i7cl
QCAUX:       /cm/shared/apps/spack/cpu/opt/spack/linux-centos8-zen2/gcc-10.2.0/qchem-5.4-akfmr7b3t57bfs6qan3padb2wnb2i7cl/qcaux
QCPROG:      /cm/shared/apps/spack/cpu/opt/spack/linux-centos8-zen2/gcc-10.2.0/qchem-5.4-akfmr7b3t57bfs6qan3padb2wnb2i7cl/exe/qcprog.exe_s
QCPROG_S:    /cm/shared/apps/spack/cpu/opt/spack/linux-centos8-zen2/gcc-10.2.0/qchem-5.4-akfmr7b3t57bfs6qan3padb2wnb2i7cl/exe/qcprog.exe_s
PARALLEL:    -DSERIAL
QCMPI:       mpich
#
# qchem directory setting
#
qcrun:       qchem1908036
QCSCRATCH:   .
QCLOCALSCR:  
QCTMPDIR:    .
QCFILEPREF:  ./qchem1908036
QCSAVEDIR:   
workdirs:    ./qchem1908036
workdir0:    ./qchem1908036
partmpdirs =  
#
# parallel setting
#
QCRSH:           ssh
QCMPI:           mpich
QCMPIRUN:        /cm/shared/apps/spack/cpu/opt/spack/linux-centos8-zen2/gcc-10.2.0/qchem-5.4-akfmr7b3t57bfs6qan3padb2wnb2i7cl/bin/mpi/mpirun_qchem
QCMACHINEFILE:   ./qchem1908036/hostfile

#
# env setting
#
exported envs:   QC QCAUX QCSCRATCH QCRUNNAME QCFILEPREF QCPROG QCPROG_S GUIFILE

Running Job 1 of 1 Methylthiophene_Phi_0_Theta_200_Methylthiophene_Hydrogenated.qcin
qchem Methylthiophene_Phi_0_Theta_200_Methylthiophene_Hydrogenated.qcin_1908036.0 ./qchem1908036/ 0
/cm/shared/apps/spack/cpu/opt/spack/linux-centos8-zen2/gcc-10.2.0/qchem-5.4-akfmr7b3t57bfs6qan3padb2wnb2i7cl/exe/qcprog.exe_s Methylthiophene_Phi_0_Theta_200_Methylthiophene_Hydrogenated.qcin_1908036.0 ./qchem1908036/
                  Welcome to Q-Chem
     A Quantum Leap Into The Future Of Chemistry


 Q-Chem 5.4, Q-Chem, Inc., Pleasanton, CA (2021)

 License issued to: University of California, San Diego (site)

 E. Epifanovsky,  A. T. B. Gilbert,  Xintian Feng,  Joonho Lee,  Yuezhi Mao,  
 N. Mardirossian,  P. Pokhilko,  A. White,  M. Wormit,  M. P. Coons,  
 A. L. Dempwolff,  Zhengting Gan,  D. Hait,  P. R. Horn,  L. D. Jacobson,  
 I. Kaliman,  J. Kussmann,  A. W. Lange,  Ka Un Lao,  D. S. Levine,  Jie Liu,  
 S. C. McKenzie,  A. F. Morrison,  K. Nanda,  F. Plasser,  D. R. Rehn,  
 M. L. Vidal,  Zhi-Qiang You,  Ying Zhu,  B. Alam,  B. Albrecht,  
 A. Aldossary,  E. Alguire,  J. H. Andersen,  D. Barton,  K. Begam,  A. Behn,  
 Y. A. Bernard,  E. J. Berquist,  H. Burton,  A. Carreras,  K. Carter-Fenk,  
 R. Chakraborty,  A. D. Chien,  K. D. Closser,  V. Cofer-Shabica,  
 S. Dasgupta,  Jia Deng,  M. de Wergifosse,  M. Diedenhofen,  Hainam Do,  
 S. Ehlert,  Po-Tung Fang,  S. Fatehi,  Qingguo Feng,  J. Gayvert,  
 Qinghui Ge,  G. Gidofalvi,  M. Goldey,  J. Gomes,  C. Gonzalez-Espinoza,  
 S. Gulania,  A. Gunina,  M. W. D. Hanson-Heine,  P. H. P. Harbach,  
 A. W. Hauser,  M. F. Herbst,  M. Hernandez Vera,  M. Hodecker,  
 Z. C. Holden,  S. Houck,  Xunkun Huang,  Kerwin Hui,  B. C. Huynh,  
 M. Ivanov,  Hyunjun Ji,  Hanjie Jiang,  B. Kaduk,  S. Kaehler,  
 K. Khistyaev,  Jaehoon Kim,  P. Klunzinger,  Z. Koczor-Benda,  
 Joong Hoon Koh,  D. Kosenkov,  L. Koulias,  T. Kowalczyk,  C. M. Krauter,  
 K. Kue,  A. Kunitsa,  T. Kus,  A. Landau,  K. V. Lawler,  D. Lefrancois,  
 S. Lehtola,  Rain Li,  Yi-Pei Li,  Jiashu Liang,  M. Liebenthal,  
 Hung-Hsuan Lin,  You-Sheng Lin,  Fenglai Liu,  Kuan-Yu Liu,  
 M. Loipersberger,  A. Luenser,  A. Manjanath,  P. Manohar,  E. Mansoor,  
 S. F. Manzer,  Shan-Ping Mao,  A. V. Marenich,  T. Markovich,  S. Mason,  
 S. A. Maurer,  P. F. McLaughlin,  M. F. S. J. Menger,  J.-M. Mewes,  
 S. A. Mewes,  P. Morgante,  J. W. Mullinax,  T. S. Nguyen-Beck,  
 K. J. Oosterbaan,  G. Paran,  Alexander C. Paul,  Suranjan K. Paul,  
 F. Pavosevic,  Zheng Pei,  S. Prager,  E. I. Proynov,  E. Ramos,  B. Rana,  
 A. E. Rask,  A. Rettig,  R. M. Richard,  F. Rob,  E. Rossomme,  T. Scheele,  
 M. Scheurer,  M. Schneider,  N. Sergueev,  S. M. Sharada,  W. Skomorowski,  
 D. W. Small,  C. J. Stein,  Yu-Chuan Su,  E. J. Sundstrom,  Zhen Tao,  
 J. Thirman,  T. Tsuchimochi,  N. M. Tubman,  S. P. Veccham,  O. Vydrov,  
 J. Wenzel,  J. Witte,  A. Yamada,  Kun Yao,  S. Yeganeh,  S. R. Yost,  
 A. Zech,  Igor Ying Zhang,  Xing Zhang,  Yu Zhang,  D. Zuev,  
 A. Aspuru-Guzik,  A. T. Bell,  N. A. Besley,  K. B. Bravaya,  B. R. Brooks,  
 D. Casanova,  Jeng-Da Chai,  S. Coriani,  C. J. Cramer,  
 A. E. DePrince, III,  R. A. DiStasio Jr.,  A. Dreuw,  B. D. Dunietz,  
 T. R. Furlani,  W. A. Goddard III,  S. Grimme,  S. Hammes-Schiffer,  
 T. Head-Gordon,  W. J. Hehre,  Chao-Ping Hsu,  T.-C. Jagau,  Yousung Jung,  
 A. Klamt,  Jing Kong,  D. S. Lambrecht,  WanZhen Liang,  N. J. Mayhall,  
 C. W. McCurdy,  J. B. Neaton,  C. Ochsenfeld,  J. A. Parkhill,  R. Peverati,  
 V. A. Rassolov,  Yihan Shao,  L. V. Slipchenko,  T. Stauch,  R. P. Steele,  
 J. E. Subotnik,  A. J. W. Thom,  A. Tkatchenko,  D. G. Truhlar,  
 T. Van Voorhis,  T. A. Wesolowski,  K. B. Whaley,  H. L. Woodcock III,  
 P. M. Zimmerman,  S. Faraji,  P. M. W. Gill,  M. Head-Gordon,  
 J. M. Herbert,  A. I. Krylov

 Contributors to earlier versions of Q-Chem not listed above: 
 R. D. Adamson,  B. Austin,  R. Baer,  J. Baker,  G. J. O. Beran,  
 K. Brandhorst,  S. T. Brown,  E. F. C. Byrd,  A. K. Chakraborty,  
 G. K. L. Chan,  Chun-Min Chang,  Yunqing Chen,  C.-L. Cheng,  
 Siu Hung Chien,  D. M. Chipman,  D. L. Crittenden,  H. Dachsel,  
 R. J. Doerksen,  A. D. Dutoi,  R. G. Edgar,  J. Fosso-Tande,  
 L. Fusti-Molnar,  D. Ghosh,  A. Ghysels,  A. Golubeva-Zadorozhnaya,  
 J. Gonthier,  M. S. Gordon,  S. R. Gwaltney,  G. Hawkins,  J. E. Herr,  
 A. Heyden,  S. Hirata,  E. G. Hohenstein,  G. Kedziora,  F. J. Keil,  
 C. Kelley,  Jihan Kim,  R. A. King,  R. Z. Khaliullin,  P. P. Korambath,  
 W. Kurlancheek,  A. Laurent,  A. M. Lee,  M. S. Lee,  S. V. Levchenko,  
 Ching Yeh Lin,  D. Liotard,  E. Livshits,  R. C. Lochan,  I. Lotan,  
 L. A. Martinez-Martinez,  P. E. Maslen,  N. Nair,  D. P. O'Neill,  
 D. Neuhauser,  E. Neuscamman,  C. M. Oana,  R. Olivares-Amaya,  R. Olson,  
 T. M. Perrine,  B. Peters,  P. A. Pieniazek,  A. Prociuk,  Y. M. Rhee,  
 J. Ritchie,  M. A. Rohrdanz,  E. Rosta,  N. J. Russ,  H. F. Schaefer III,  
 M. W. Schmidt,  N. E. Schultz,  S. Sharma,  N. Shenvi,  C. D. Sherrill,  
 A. C. Simmonett,  A. Sodt,  T. Stein,  D. Stuck,  K. S. Thanthiriwatte,  
 V. Vanovschi,  L. Vogt,  Tao Wang,  A. Warshel,  M. A. Watson,  
 C. F. Williams,  Q. Wu,  X. Xu,  Jun Yang,  W. Zhang,  Yan Zhao

 Please cite Q-Chem as follows:
 Y. Shao et al., Mol. Phys. 113, 184-215 (2015)
 DOI: 10.1080/00268976.2014.952696

 Q-Chem 5.4.0 for Intel X86 EM64T Linux

 Parts of Q-Chem use Armadillo 9.800.1 (Horizon Scraper).
 http://arma.sourceforge.net/

 Q-Chem begins on Sun Jul 10 03:05:22 2022  

 Host: 
0

     Scratch files written to ./qchem1908036//
 May1621 |scratch|qcdevops|jenkins|workspace|build_RNUM    
 Processing $rem in /cm/shared/apps/spack/cpu/opt/spack/linux-centos8-zen2/gcc-10.2.0/qchem-5.4-akfmr7b3t57bfs6qan3padb2wnb2i7cl/config/preferences:
 Processing $rem in /home/theleonzhang/.qchemrc:
 Symmetry turned off for PCM/SM12/SMD calculation
 Core orbitals will be frozen

 Checking the input file for inconsistencies... 	...done.

--------------------------------------------------------------
User input:
--------------------------------------------------------------
$molecule
0 1
C	0.265779	-3.866725	-0.728138
C	-0.209225	-3.703963	0.575726
C	-0.364875	-2.357056	1.002290
H	-0.445176	-4.561092	1.224486
C	0.000000	-1.440664	0.000000
S	0.528236	-2.286957	-1.451343
C	-0.862808	-1.978743	2.369683
H	-1.083368	-2.878678	2.975883
H	-1.793522	-1.376015	2.317142
H	-0.116375	-1.375728	2.927787
C	0.000000	0.000000	0.000000
C	0.000033	0.863600	1.099446
C	0.000052	2.247508	0.776721
H	0.000026	0.494801	2.136088
C	0.000074	2.468165	-0.612546
S	0.000024	0.942399	-1.486809
C	0.000075	3.335257	1.814609
H	0.000074	2.909620	2.836676
H	-0.892314	3.989552	1.726239
H	0.892483	3.989525	1.726228
H	0.000094	3.417382	-1.161575
H	-0.459743	-4.392713	-1.358585
H	1.227009	-4.392347	-0.744515
H	1.014829	-1.440391	0.369490
$end

$rem
JOBTYPE		SP
EXCHANGE	HF
CORRELATION	pRIMP2
BASIS		cc-pvtz
METHOD		rimp2
AUX_BASIS	rimp2-cc-pvtz
SOLVENT_METHOD	PCM
PURECART	11111
SYMMETRY	false
MEM_TOTAL	110000
SCF_CONVERGENCE = 6
THRESH=10
$end



$solvent
dielectric 4.90
$end
--------------------------------------------------------------
 ----------------------------------------------------------------
             Standard Nuclear Orientation (Angstroms)
    I     Atom           X                Y                Z
 ----------------------------------------------------------------
    1      C       0.2657790000    -3.8667250000    -0.7281380000
    2      C      -0.2092250000    -3.7039630000     0.5757260000
    3      C      -0.3648750000    -2.3570560000     1.0022900000
    4      H      -0.4451760000    -4.5610920000     1.2244860000
    5      C       0.0000000000    -1.4406640000     0.0000000000
    6      S       0.5282360000    -2.2869570000    -1.4513430000
    7      C      -0.8628080000    -1.9787430000     2.3696830000
    8      H      -1.0833680000    -2.8786780000     2.9758830000
    9      H      -1.7935220000    -1.3760150000     2.3171420000
   10      H      -0.1163750000    -1.3757280000     2.9277870000
   11      C       0.0000000000     0.0000000000     0.0000000000
   12      C       0.0000330000     0.8636000000     1.0994460000
   13      C       0.0000520000     2.2475080000     0.7767210000
   14      H       0.0000260000     0.4948010000     2.1360880000
   15      C       0.0000740000     2.4681650000    -0.6125460000
   16      S       0.0000240000     0.9423990000    -1.4868090000
   17      C       0.0000750000     3.3352570000     1.8146090000
   18      H       0.0000740000     2.9096200000     2.8366760000
   19      H      -0.8923140000     3.9895520000     1.7262390000
   20      H       0.8924830000     3.9895250000     1.7262280000
   21      H       0.0000940000     3.4173820000    -1.1615750000
   22      H      -0.4597430000    -4.3927130000    -1.3585850000
   23      H       1.2270090000    -4.3923470000    -0.7445150000
   24      H       1.0148290000    -1.4403910000     0.3694900000
 ----------------------------------------------------------------
 Nuclear Repulsion Energy =         875.34750880 hartrees
 There are       52 alpha and       52 beta electrons

 Q-Chem warning in module forms1/BasisType.C, line 2236:

 You are not using the predefined 5D/6D in this basis set.

 Requested basis set is cc-pVTZ
 There are 196 shells and 536 basis functions

 Total QAlloc Memory Limit 110000 MB
 Mega-Array Size       188 MB
 MEM_STATIC part       192 MB
 Discretize the solute cavity surface with Lebedev spheres
	Using 110 Lebedev grid points for each H atom
	Using 194 Lebedev grid points for other atoms
	Atomic van der Waals radii will be scaled by 1.20
 Remove points where switching function is < 1.0e-08
 Keep 1583 surface tesserae and discard 2065 interior tesserae
 Molecular Surface Area = 232.967 Angst**2
 Requested basis set is rimp2-cc-pVTZ
 There are 414 shells and 1414 basis functions
 A cutoff of  1.0D-10 yielded  14025 shell pairs
 There are    101597 function pairs (    130198 Cartesian)
 Smallest overlap matrix eigenvalue = 4.22E-05

 Scale SEOQF with 1.000000e-01/1.000000e-01/1.000000e-01

 Standard Electronic Orientation quadrupole field applied
 Nucleus-field energy     =     0.0000000230 hartrees
 Guess from superposition of atomic densities
 Warning:  Energy on first SCF cycle will be non-variational
 SAD guess density has 104.000000 electrons

 -----------------------------------------------------------------------
  General SCF calculation program by
  Eric Jon Sundstrom, Paul Horn, Yuezhi Mao, Dmitri Zuev, Alec White,
  David Stuck, Shaama M.S., Shane Yost, Joonho Lee, David Small,
  Daniel Levine, Susi Lehtola, Hugh Burton, Evgeny Epifanovsky,
  Bang C. Huynh
 -----------------------------------------------------------------------
 Hartree-Fock
 A restricted SCF calculation will be
 performed using DIIS
 SCF converges when DIIS error is below 1.0e-06
 ---------------------------------------
  Cycle       Energy         DIIS error
 ---------------------------------------
    1   -1186.0487322200      2.39e-02  
    2   -1180.6090690296      1.59e-03  
    3   -1180.7354902012      6.63e-04  
    4   -1180.7518086517      3.49e-04  
    5   -1180.7574942457      5.91e-05  
    6   -1180.7577386534      2.46e-05  
    7   -1180.7577953265      8.52e-06  
    8   -1180.7578070545      4.10e-06  
    9   -1180.7578096162      1.39e-06  
   10   -1180.7578100208      5.05e-07  Convergence criterion met
 ---------------------------------------
 SCF time:   CPU 573.94s  wall 576.00s 

************** Final PCM Free Energy Summary **************
 G_electrostatic  =      -0.00959725 hartree =      -6.02236578 kcal/mol
 G_cavitation     =       0.00000000 hartree =       0.00000000 kcal/mol
 G_dispersion     =       0.00000000 hartree =       0.00000000 kcal/mol
 G_repulsion      =       0.00000000 hartree =       0.00000000 kcal/mol
 --------------------------------------------------
 Non-electrostatic Free Energy =       0.00000000 hartree =       0.00000000 kcal/mol
 Total                         =      -0.00959725 hartree =      -6.02236578 kcal/mol
 --------------------------------------------------
 SCF Energy (H0 + V/2)                       =   -1180.75781002 
 Solute Internal Energy (H0)                 =   -1180.74821277 
 Total Free Energy (H0 + V/2 + non-elec)     =   -1180.75781002 hartree
                                             = -740936.70874527 kcal/mol
***********************************************************

 SCF   energy in the final basis set =    -1180.7578100208
 Total energy in the final basis set =    -1180.7578100208


 --------------------------------------------------------------
  Generalized many-body perturbation theory program
  by Joonho Lee, Fazle Rob, Xintian Feng, Evgeny Epifanovsky

 No regularization used 
 (reg. param. = 0.0000e+00)
  (P|Q)^-1/2 Time:  CPU 1.89 s  wall 1.90 s

 In RI-MP2 calculation: 
 # of frozen core orbitals: 20

 Components of the RIMP2 correlation energy:
        aaaa    correlation energy =        -0.2515068239 a.u.
        abab    correlation energy =        -1.5028282297 a.u.
        bbbb    correlation energy =        -0.2515068239 a.u.
        non-Brillouin singles      =        -0.0000000000 a.u.
        total same-spin energy     =        -0.5030136479 a.u.
        total opposite-spin energy =        -1.5028282297 a.u.

 Total  RIMP2   correlation energy =        -2.0058418775 a.u.
        RIMP2         total energy =     -1182.7636518983 a.u.

 RI-MP2 Energy Time:  CPU 79.53 s  wall 79.84 s
 
 --------------------------------------------------------------
 
                    Orbital Energies (a.u.)
 --------------------------------------------------------------
 
 Alpha MOs
 -- Occupied --
-91.9841 -91.9461 -11.2904 -11.2665 -11.2614 -11.2532 -11.2501 -11.2444
-11.2341 -11.2291 -11.2282 -11.2237  -8.9836  -8.9507  -6.6645  -6.6640
 -6.6634  -6.6321  -6.6311  -6.6298  -1.2024  -1.1523  -1.0604  -1.0317
 -1.0019  -0.9613  -0.9158  -0.8996  -0.8187  -0.7633  -0.7261  -0.7066
 -0.6598  -0.6486  -0.6108  -0.5935  -0.5863  -0.5692  -0.5597  -0.5533
 -0.5436  -0.5352  -0.5222  -0.5024  -0.4864  -0.4826  -0.4689  -0.4439
 -0.3603  -0.3439  -0.3234  -0.2651
 -- Virtual --
  0.1063   0.1299   0.1421   0.1499   0.1562   0.1696   0.1716   0.1869
  0.1933   0.2038   0.2066   0.2120   0.2187   0.2351   0.2371   0.2421
  0.2595   0.2764   0.2857   0.3040   0.3164   0.3254   0.3526   0.3553
  0.3719   0.3794   0.3885   0.3894   0.3989   0.4118   0.4162   0.4239
  0.4370   0.4533   0.4663   0.4720   0.4750   0.4780   0.4859   0.4935
  0.5063   0.5197   0.5250   0.5324   0.5416   0.5427   0.5503   0.5580
  0.5641   0.5798   0.5859   0.5965   0.5995   0.6037   0.6131   0.6228
  0.6258   0.6268   0.6333   0.6364   0.6420   0.6460   0.6520   0.6635
  0.6700   0.6800   0.6812   0.6937   0.6970   0.7222   0.7252   0.7299
  0.7388   0.7449   0.7643   0.7736   0.7829   0.8015   0.8096   0.8251
  0.8359   0.8402   0.8564   0.8696   0.8900   0.8952   0.9052   0.9165
  0.9301   0.9502   0.9518   0.9657   0.9797   0.9884   1.0049   1.0119
  1.0293   1.0327   1.0409   1.0438   1.0611   1.0638   1.0688   1.0834
  1.0898   1.0985   1.1045   1.1294   1.1446   1.1489   1.1621   1.1691
  1.1768   1.1904   1.2043   1.2097   1.2139   1.2240   1.2267   1.2416
  1.2467   1.2552   1.2607   1.2793   1.2853   1.3018   1.3082   1.3121
  1.3244   1.3299   1.3498   1.3598   1.3712   1.3793   1.4059   1.4179
  1.4291   1.4360   1.4432   1.4620   1.4671   1.4853   1.4865   1.4972
  1.5110   1.5144   1.5298   1.5317   1.5444   1.5454   1.5519   1.5540
  1.5800   1.5900   1.5962   1.6028   1.6178   1.6262   1.6401   1.6455
  1.6503   1.6652   1.6811   1.6945   1.7065   1.7189   1.7288   1.7452
  1.7590   1.7638   1.7822   1.7931   1.8179   1.8310   1.8477   1.8622
  1.8846   1.8965   1.9257   1.9397   1.9430   1.9793   1.9923   1.9999
  2.0230   2.0448   2.0527   2.0592   2.0912   2.1156   2.1365   2.1695
  2.1789   2.2020   2.2064   2.2208   2.2289   2.2469   2.2647   2.2835
  2.2933   2.3025   2.3304   2.3813   2.4105   2.4438   2.4646   2.4780
  2.4944   2.5168   2.5376   2.5443   2.5604   2.5909   2.5995   2.6084
  2.6350   2.6515   2.6571   2.6738   2.6858   2.6984   2.7250   2.7321
  2.7424   2.7550   2.7681   2.7704   2.7778   2.7809   2.8023   2.8095
  2.8332   2.8571   2.8592   2.8742   2.8910   2.9054   2.9091   2.9251
  2.9370   2.9539   2.9797   2.9937   3.0103   3.0198   3.0373   3.0419
  3.0458   3.0718   3.1010   3.1083   3.1126   3.1175   3.1317   3.1390
  3.1471   3.1596   3.1611   3.1780   3.1935   3.1944   3.2029   3.2163
  3.2312   3.2398   3.2491   3.2594   3.2660   3.2868   3.2903   3.3055
  3.3095   3.3279   3.3336   3.3406   3.3474   3.3612   3.3679   3.3727
  3.3749   3.3879   3.3904   3.3957   3.4027   3.4088   3.4276   3.4330
  3.4455   3.4484   3.4540   3.4670   3.4817   3.4862   3.4940   3.5066
  3.5114   3.5166   3.5247   3.5385   3.5518   3.5582   3.5646   3.5688
  3.5957   3.5974   3.6093   3.6225   3.6326   3.6352   3.6471   3.6575
  3.6721   3.6793   3.6937   3.6999   3.7176   3.7320   3.7350   3.7412
  3.7473   3.7536   3.7592   3.7775   3.7937   3.7945   3.8068   3.8184
  3.8247   3.8416   3.8494   3.8670   3.8843   3.8905   3.8965   3.9067
  3.9254   3.9369   3.9598   3.9704   3.9918   3.9969   4.0098   4.0211
  4.0418   4.0454   4.0552   4.0580   4.0637   4.0826   4.0888   4.1135
  4.1197   4.1368   4.1454   4.1527   4.1589   4.1717   4.1816   4.1941
  4.2093   4.2220   4.2307   4.2386   4.2587   4.2661   4.2760   4.3001
  4.3058   4.3123   4.3301   4.3383   4.3487   4.3561   4.3658   4.3732
  4.3890   4.3996   4.4020   4.4188   4.4249   4.4381   4.4447   4.4550
  4.4641   4.4762   4.4931   4.4978   4.5065   4.5267   4.5596   4.5732
  4.5809   4.5966   4.6017   4.6292   4.6393   4.6475   4.6602   4.6912
  4.7002   4.7243   4.7423   4.7733   4.7836   4.8139   4.8399   4.8467
  4.8570   4.8807   4.8947   4.9135   4.9454   4.9762   4.9841   5.0015
  5.0508   5.0762   5.0938   5.1158   5.1172   5.1287   5.1694   5.1958
  5.2187   5.2341   5.2573   5.2672   5.2858   5.3013   5.3142   5.3267
  5.3540   5.3619   5.3876   5.3929   5.4141   5.4266   5.4361   5.4392
  5.4717   5.5231   5.5258   5.5447   5.5502   5.5741   5.5784   5.5950
  5.6241   5.6245   5.6293   5.6649   5.6752   5.7059   5.7122   5.7379
  5.7735   5.8083   5.8398   5.9605   6.0392   6.0901   6.1421   6.1806
  6.2132   6.2278   6.2325   6.2657   6.2747   6.2908   6.3124   6.4129
  6.4224   6.6001   9.5196  11.0142  12.0931  12.9832  13.1915  13.9139
 14.1022  14.2119  14.4093  15.2571
 --------------------------------------------------------------
 
          Ground-State Mulliken Net Atomic Charges

     Atom                 Charge (a.u.)
  ----------------------------------------
      1 C                    -0.074017
      2 C                    -0.313612
      3 C                    -0.064345
      4 H                     0.178611
      5 C                     0.136947
      6 S                    -0.180408
      7 C                    -0.296377
      8 H                     0.121229
      9 H                     0.118313
     10 H                     0.100255
     11 C                    -0.060224
     12 C                    -0.271480
     13 C                     0.032615
     14 H                     0.188220
     15 C                    -0.280338
     16 S                     0.010271
     17 C                    -0.273498
     18 H                     0.100615
     19 H                     0.108460
     20 H                     0.108578
     21 H                     0.195879
     22 H                     0.112800
     23 H                     0.112871
     24 H                     0.188636
  ----------------------------------------
  Sum of atomic charges =     0.000000

 -----------------------------------------------------------------
                    Cartesian Multipole Moments
 -----------------------------------------------------------------
    Charge (ESU x 10^10)
                -0.0000
    Dipole Moment (Debye)
         X      -0.0038      Y      -0.4862      Z       3.9026
       Tot       3.9327
    Quadrupole Moments (Debye-Ang)
        XX     -91.5267     XY      -0.2657     YY     -72.9177
        XZ      -0.3305     YZ      -2.6343     ZZ     -85.9563
    Octopole Moments (Debye-Ang^2)
       XXX       1.1394    XXY      42.4327    XYY       2.3411
       YYY     113.2595    XXZ      -1.6845    XYZ       2.4597
       YYZ      -3.4135    XZZ      -3.0934    YZZ      49.8433
       ZZZ       6.3924
    Hexadecapole Moments (Debye-Ang^3)
      XXXX    -203.7660   XXXY      -1.0571   XXYY    -560.7663
      XYYY      -4.2711   YYYY   -2762.2587   XXXZ      93.7346
      XXYZ     -32.3485   XYYZ      17.8774   YYYZ    -105.4561
      XXZZ    -215.4536   XYZZ      11.8698   YYZZ    -652.5194
      XZZZ      84.8320   YZZZ    -126.8829   ZZZZ   -1038.6241
 -----------------------------------------------------------------
 Total job time:  658.06s(wall), 654.37s(cpu) 
 Sun Jul 10 03:16:20 2022

        *************************************************************
        *                                                           *
        *  Thank you very much for using Q-Chem.  Have a nice day.  *
        *                                                           *
        *************************************************************


remove work dirs ./qchem1908036.0 -- ./qchem1908036.-1
rm -rf ./qchem1908036
