You are running Q-Chem version: 5.4.0

#
# job setting
#
local host:  exp-1-30
current dir: /expanse/lustre/scratch/theleonzhang/temp_project/Hydrogenated_Rotation_Test
input file:  Methylthiophene_Phi_60_Theta_310_Methylthiophene_Hydrogenated.qcin
output file: 
nprocs     : 0
nthreads   : 1
#
# qchem installation setting
#
QC:          /cm/shared/apps/spack/cpu/opt/spack/linux-centos8-zen2/gcc-10.2.0/qchem-5.4-akfmr7b3t57bfs6qan3padb2wnb2i7cl
QCAUX:       /cm/shared/apps/spack/cpu/opt/spack/linux-centos8-zen2/gcc-10.2.0/qchem-5.4-akfmr7b3t57bfs6qan3padb2wnb2i7cl/qcaux
QCPROG:      /cm/shared/apps/spack/cpu/opt/spack/linux-centos8-zen2/gcc-10.2.0/qchem-5.4-akfmr7b3t57bfs6qan3padb2wnb2i7cl/exe/qcprog.exe_s
QCPROG_S:    /cm/shared/apps/spack/cpu/opt/spack/linux-centos8-zen2/gcc-10.2.0/qchem-5.4-akfmr7b3t57bfs6qan3padb2wnb2i7cl/exe/qcprog.exe_s
PARALLEL:    -DSERIAL
QCMPI:       mpich
#
# qchem directory setting
#
qcrun:       qchem822660
QCSCRATCH:   .
QCLOCALSCR:  
QCTMPDIR:    .
QCFILEPREF:  ./qchem822660
QCSAVEDIR:   
workdirs:    ./qchem822660
workdir0:    ./qchem822660
partmpdirs =  
#
# parallel setting
#
QCRSH:           ssh
QCMPI:           mpich
QCMPIRUN:        /cm/shared/apps/spack/cpu/opt/spack/linux-centos8-zen2/gcc-10.2.0/qchem-5.4-akfmr7b3t57bfs6qan3padb2wnb2i7cl/bin/mpi/mpirun_qchem
QCMACHINEFILE:   ./qchem822660/hostfile

#
# env setting
#
exported envs:   QC QCAUX QCSCRATCH QCRUNNAME QCFILEPREF QCPROG QCPROG_S GUIFILE

Running Job 1 of 1 Methylthiophene_Phi_60_Theta_310_Methylthiophene_Hydrogenated.qcin
qchem Methylthiophene_Phi_60_Theta_310_Methylthiophene_Hydrogenated.qcin_822660.0 ./qchem822660/ 0
/cm/shared/apps/spack/cpu/opt/spack/linux-centos8-zen2/gcc-10.2.0/qchem-5.4-akfmr7b3t57bfs6qan3padb2wnb2i7cl/exe/qcprog.exe_s Methylthiophene_Phi_60_Theta_310_Methylthiophene_Hydrogenated.qcin_822660.0 ./qchem822660/
                  Welcome to Q-Chem
     A Quantum Leap Into The Future Of Chemistry


 Q-Chem 5.4, Q-Chem, Inc., Pleasanton, CA (2021)

 License issued to: University of California, San Diego (site)

 E. Epifanovsky,  A. T. B. Gilbert,  Xintian Feng,  Joonho Lee,  Yuezhi Mao,  
 N. Mardirossian,  P. Pokhilko,  A. White,  M. Wormit,  M. P. Coons,  
 A. L. Dempwolff,  Zhengting Gan,  D. Hait,  P. R. Horn,  L. D. Jacobson,  
 I. Kaliman,  J. Kussmann,  A. W. Lange,  Ka Un Lao,  D. S. Levine,  Jie Liu,  
 S. C. McKenzie,  A. F. Morrison,  K. Nanda,  F. Plasser,  D. R. Rehn,  
 M. L. Vidal,  Zhi-Qiang You,  Ying Zhu,  B. Alam,  B. Albrecht,  
 A. Aldossary,  E. Alguire,  J. H. Andersen,  D. Barton,  K. Begam,  A. Behn,  
 Y. A. Bernard,  E. J. Berquist,  H. Burton,  A. Carreras,  K. Carter-Fenk,  
 R. Chakraborty,  A. D. Chien,  K. D. Closser,  V. Cofer-Shabica,  
 S. Dasgupta,  Jia Deng,  M. de Wergifosse,  M. Diedenhofen,  Hainam Do,  
 S. Ehlert,  Po-Tung Fang,  S. Fatehi,  Qingguo Feng,  J. Gayvert,  
 Qinghui Ge,  G. Gidofalvi,  M. Goldey,  J. Gomes,  C. Gonzalez-Espinoza,  
 S. Gulania,  A. Gunina,  M. W. D. Hanson-Heine,  P. H. P. Harbach,  
 A. W. Hauser,  M. F. Herbst,  M. Hernandez Vera,  M. Hodecker,  
 Z. C. Holden,  S. Houck,  Xunkun Huang,  Kerwin Hui,  B. C. Huynh,  
 M. Ivanov,  Hyunjun Ji,  Hanjie Jiang,  B. Kaduk,  S. Kaehler,  
 K. Khistyaev,  Jaehoon Kim,  P. Klunzinger,  Z. Koczor-Benda,  
 Joong Hoon Koh,  D. Kosenkov,  L. Koulias,  T. Kowalczyk,  C. M. Krauter,  
 K. Kue,  A. Kunitsa,  T. Kus,  A. Landau,  K. V. Lawler,  D. Lefrancois,  
 S. Lehtola,  Rain Li,  Yi-Pei Li,  Jiashu Liang,  M. Liebenthal,  
 Hung-Hsuan Lin,  You-Sheng Lin,  Fenglai Liu,  Kuan-Yu Liu,  
 M. Loipersberger,  A. Luenser,  A. Manjanath,  P. Manohar,  E. Mansoor,  
 S. F. Manzer,  Shan-Ping Mao,  A. V. Marenich,  T. Markovich,  S. Mason,  
 S. A. Maurer,  P. F. McLaughlin,  M. F. S. J. Menger,  J.-M. Mewes,  
 S. A. Mewes,  P. Morgante,  J. W. Mullinax,  T. S. Nguyen-Beck,  
 K. J. Oosterbaan,  G. Paran,  Alexander C. Paul,  Suranjan K. Paul,  
 F. Pavosevic,  Zheng Pei,  S. Prager,  E. I. Proynov,  E. Ramos,  B. Rana,  
 A. E. Rask,  A. Rettig,  R. M. Richard,  F. Rob,  E. Rossomme,  T. Scheele,  
 M. Scheurer,  M. Schneider,  N. Sergueev,  S. M. Sharada,  W. Skomorowski,  
 D. W. Small,  C. J. Stein,  Yu-Chuan Su,  E. J. Sundstrom,  Zhen Tao,  
 J. Thirman,  T. Tsuchimochi,  N. M. Tubman,  S. P. Veccham,  O. Vydrov,  
 J. Wenzel,  J. Witte,  A. Yamada,  Kun Yao,  S. Yeganeh,  S. R. Yost,  
 A. Zech,  Igor Ying Zhang,  Xing Zhang,  Yu Zhang,  D. Zuev,  
 A. Aspuru-Guzik,  A. T. Bell,  N. A. Besley,  K. B. Bravaya,  B. R. Brooks,  
 D. Casanova,  Jeng-Da Chai,  S. Coriani,  C. J. Cramer,  
 A. E. DePrince, III,  R. A. DiStasio Jr.,  A. Dreuw,  B. D. Dunietz,  
 T. R. Furlani,  W. A. Goddard III,  S. Grimme,  S. Hammes-Schiffer,  
 T. Head-Gordon,  W. J. Hehre,  Chao-Ping Hsu,  T.-C. Jagau,  Yousung Jung,  
 A. Klamt,  Jing Kong,  D. S. Lambrecht,  WanZhen Liang,  N. J. Mayhall,  
 C. W. McCurdy,  J. B. Neaton,  C. Ochsenfeld,  J. A. Parkhill,  R. Peverati,  
 V. A. Rassolov,  Yihan Shao,  L. V. Slipchenko,  T. Stauch,  R. P. Steele,  
 J. E. Subotnik,  A. J. W. Thom,  A. Tkatchenko,  D. G. Truhlar,  
 T. Van Voorhis,  T. A. Wesolowski,  K. B. Whaley,  H. L. Woodcock III,  
 P. M. Zimmerman,  S. Faraji,  P. M. W. Gill,  M. Head-Gordon,  
 J. M. Herbert,  A. I. Krylov

 Contributors to earlier versions of Q-Chem not listed above: 
 R. D. Adamson,  B. Austin,  R. Baer,  J. Baker,  G. J. O. Beran,  
 K. Brandhorst,  S. T. Brown,  E. F. C. Byrd,  A. K. Chakraborty,  
 G. K. L. Chan,  Chun-Min Chang,  Yunqing Chen,  C.-L. Cheng,  
 Siu Hung Chien,  D. M. Chipman,  D. L. Crittenden,  H. Dachsel,  
 R. J. Doerksen,  A. D. Dutoi,  R. G. Edgar,  J. Fosso-Tande,  
 L. Fusti-Molnar,  D. Ghosh,  A. Ghysels,  A. Golubeva-Zadorozhnaya,  
 J. Gonthier,  M. S. Gordon,  S. R. Gwaltney,  G. Hawkins,  J. E. Herr,  
 A. Heyden,  S. Hirata,  E. G. Hohenstein,  G. Kedziora,  F. J. Keil,  
 C. Kelley,  Jihan Kim,  R. A. King,  R. Z. Khaliullin,  P. P. Korambath,  
 W. Kurlancheek,  A. Laurent,  A. M. Lee,  M. S. Lee,  S. V. Levchenko,  
 Ching Yeh Lin,  D. Liotard,  E. Livshits,  R. C. Lochan,  I. Lotan,  
 L. A. Martinez-Martinez,  P. E. Maslen,  N. Nair,  D. P. O'Neill,  
 D. Neuhauser,  E. Neuscamman,  C. M. Oana,  R. Olivares-Amaya,  R. Olson,  
 T. M. Perrine,  B. Peters,  P. A. Pieniazek,  A. Prociuk,  Y. M. Rhee,  
 J. Ritchie,  M. A. Rohrdanz,  E. Rosta,  N. J. Russ,  H. F. Schaefer III,  
 M. W. Schmidt,  N. E. Schultz,  S. Sharma,  N. Shenvi,  C. D. Sherrill,  
 A. C. Simmonett,  A. Sodt,  T. Stein,  D. Stuck,  K. S. Thanthiriwatte,  
 V. Vanovschi,  L. Vogt,  Tao Wang,  A. Warshel,  M. A. Watson,  
 C. F. Williams,  Q. Wu,  X. Xu,  Jun Yang,  W. Zhang,  Yan Zhao

 Please cite Q-Chem as follows:
 Y. Shao et al., Mol. Phys. 113, 184-215 (2015)
 DOI: 10.1080/00268976.2014.952696

 Q-Chem 5.4.0 for Intel X86 EM64T Linux

 Parts of Q-Chem use Armadillo 9.800.1 (Horizon Scraper).
 http://arma.sourceforge.net/

 Q-Chem begins on Sun Jul 10 05:54:32 2022  

 Host: 
0

     Scratch files written to ./qchem822660//
 May1621 |scratch|qcdevops|jenkins|workspace|build_RNUM    
 Processing $rem in /cm/shared/apps/spack/cpu/opt/spack/linux-centos8-zen2/gcc-10.2.0/qchem-5.4-akfmr7b3t57bfs6qan3padb2wnb2i7cl/config/preferences:
 Processing $rem in /home/theleonzhang/.qchemrc:
 Symmetry turned off for PCM/SM12/SMD calculation
 Core orbitals will be frozen

 Checking the input file for inconsistencies... 	...done.

--------------------------------------------------------------
User input:
--------------------------------------------------------------
$molecule
0 1
C	0.593324	-3.866725	0.498788
C	-0.469446	-3.703963	-0.393517
C	-0.817050	-2.357056	-0.685674
H	-0.998381	-4.561092	-0.837128
C	0.000000	-1.440664	0.000000
S	1.183149	-2.286957	0.992768
C	-1.931676	-1.978743	-1.621254
H	-2.425882	-2.878678	-2.035845
H	-1.563980	-1.376015	-2.477868
H	-2.711417	-1.375728	-1.110719
C	0.000000	0.000000	0.000000
C	0.747916	0.431772	1.099446
C	1.946425	1.123709	0.776721
H	0.428523	0.247378	2.136088
C	2.137531	1.234018	-0.612546
S	0.816154	0.471179	-1.486809
C	2.888455	1.667564	1.814609
H	2.519842	1.454746	2.836676
H	3.008896	2.767543	1.726239
H	3.901271	1.221850	1.726228
H	2.959587	1.708609	-1.161575
H	1.433894	-4.392713	0.032646
H	0.279954	-4.392347	1.407651
H	-0.694299	-1.440391	0.827254
$end

$rem
JOBTYPE		SP
EXCHANGE	HF
CORRELATION	pRIMP2
BASIS		cc-pvtz
METHOD		rimp2
AUX_BASIS	rimp2-cc-pvtz
SOLVENT_METHOD	PCM
PURECART	11111
SYMMETRY	false
MEM_TOTAL	110000
SCF_CONVERGENCE = 6
THRESH=10
$end



$solvent
dielectric 4.90
$end
--------------------------------------------------------------
 ----------------------------------------------------------------
             Standard Nuclear Orientation (Angstroms)
    I     Atom           X                Y                Z
 ----------------------------------------------------------------
    1      C       0.5933240000    -3.8667250000     0.4987880000
    2      C      -0.4694460000    -3.7039630000    -0.3935170000
    3      C      -0.8170500000    -2.3570560000    -0.6856740000
    4      H      -0.9983810000    -4.5610920000    -0.8371280000
    5      C       0.0000000000    -1.4406640000     0.0000000000
    6      S       1.1831490000    -2.2869570000     0.9927680000
    7      C      -1.9316760000    -1.9787430000    -1.6212540000
    8      H      -2.4258820000    -2.8786780000    -2.0358450000
    9      H      -1.5639800000    -1.3760150000    -2.4778680000
   10      H      -2.7114170000    -1.3757280000    -1.1107190000
   11      C       0.0000000000     0.0000000000     0.0000000000
   12      C       0.7479160000     0.4317720000     1.0994460000
   13      C       1.9464250000     1.1237090000     0.7767210000
   14      H       0.4285230000     0.2473780000     2.1360880000
   15      C       2.1375310000     1.2340180000    -0.6125460000
   16      S       0.8161540000     0.4711790000    -1.4868090000
   17      C       2.8884550000     1.6675640000     1.8146090000
   18      H       2.5198420000     1.4547460000     2.8366760000
   19      H       3.0088960000     2.7675430000     1.7262390000
   20      H       3.9012710000     1.2218500000     1.7262280000
   21      H       2.9595870000     1.7086090000    -1.1615750000
   22      H       1.4338940000    -4.3927130000     0.0326460000
   23      H       0.2799540000    -4.3923470000     1.4076510000
   24      H      -0.6942990000    -1.4403910000     0.8272540000
 ----------------------------------------------------------------
 Nuclear Repulsion Energy =         902.27532685 hartrees
 There are       52 alpha and       52 beta electrons

 Q-Chem warning in module forms1/BasisType.C, line 2236:

 You are not using the predefined 5D/6D in this basis set.

 Requested basis set is cc-pVTZ
 There are 196 shells and 536 basis functions

 Total QAlloc Memory Limit 110000 MB
 Mega-Array Size       188 MB
 MEM_STATIC part       192 MB
 Discretize the solute cavity surface with Lebedev spheres
	Using 110 Lebedev grid points for each H atom
	Using 194 Lebedev grid points for other atoms
	Atomic van der Waals radii will be scaled by 1.20
 Remove points where switching function is < 1.0e-08
 Keep 1572 surface tesserae and discard 2076 interior tesserae
 Molecular Surface Area = 231.140 Angst**2
 Requested basis set is rimp2-cc-pVTZ
 There are 414 shells and 1414 basis functions
 A cutoff of  1.0D-10 yielded  14425 shell pairs
 There are    104571 function pairs (    134101 Cartesian)
 Smallest overlap matrix eigenvalue = 6.37E-05

 Scale SEOQF with 1.000000e-01/1.000000e-01/1.000000e-01

 Standard Electronic Orientation quadrupole field applied
 Nucleus-field energy     =     0.0000000253 hartrees
 Guess from superposition of atomic densities
 Warning:  Energy on first SCF cycle will be non-variational
 SAD guess density has 104.000000 electrons

 -----------------------------------------------------------------------
  General SCF calculation program by
  Eric Jon Sundstrom, Paul Horn, Yuezhi Mao, Dmitri Zuev, Alec White,
  David Stuck, Shaama M.S., Shane Yost, Joonho Lee, David Small,
  Daniel Levine, Susi Lehtola, Hugh Burton, Evgeny Epifanovsky,
  Bang C. Huynh
 -----------------------------------------------------------------------
 Hartree-Fock
 A restricted SCF calculation will be
 performed using DIIS
 SCF converges when DIIS error is below 1.0e-06
 ---------------------------------------
  Cycle       Energy         DIIS error
 ---------------------------------------
    1   -1186.1585223160      2.41e-02  
    2   -1180.5464901525      1.52e-03  
    3   -1180.6719253575      5.09e-04  
    4   -1180.6848268208      2.58e-04  
    5   -1180.6879618563      4.99e-05  
    6   -1180.6881947242      2.16e-05  
    7   -1180.6882572707      1.10e-05  
    8   -1180.6882780603      5.12e-06  
    9   -1180.6882840849      2.51e-06  
   10   -1180.6882852828      8.60e-07  Convergence criterion met
 ---------------------------------------
 SCF time:   CPU 604.82s  wall 607.00s 

************** Final PCM Free Energy Summary **************
 G_electrostatic  =      -0.00936267 hartree =      -5.87516162 kcal/mol
 G_cavitation     =       0.00000000 hartree =       0.00000000 kcal/mol
 G_dispersion     =       0.00000000 hartree =       0.00000000 kcal/mol
 G_repulsion      =       0.00000000 hartree =       0.00000000 kcal/mol
 --------------------------------------------------
 Non-electrostatic Free Energy =       0.00000000 hartree =       0.00000000 kcal/mol
 Total                         =      -0.00936267 hartree =      -5.87516162 kcal/mol
 --------------------------------------------------
 SCF Energy (H0 + V/2)                       =   -1180.68828528 
 Solute Internal Energy (H0)                 =   -1180.67892262 
 Total Free Energy (H0 + V/2 + non-elec)     =   -1180.68828528 hartree
                                             = -740893.08131372 kcal/mol
***********************************************************

 SCF   energy in the final basis set =    -1180.6882852828
 Total energy in the final basis set =    -1180.6882852828


 --------------------------------------------------------------
  Generalized many-body perturbation theory program
  by Joonho Lee, Fazle Rob, Xintian Feng, Evgeny Epifanovsky

 No regularization used 
 (reg. param. = 0.0000e+00)
  (P|Q)^-1/2 Time:  CPU 1.94 s  wall 1.94 s

 In RI-MP2 calculation: 
 # of frozen core orbitals: 20

 Components of the RIMP2 correlation energy:
        aaaa    correlation energy =        -0.2548004313 a.u.
        abab    correlation energy =        -1.5132529394 a.u.
        bbbb    correlation energy =        -0.2548004313 a.u.
        non-Brillouin singles      =        -0.0000000000 a.u.
        total same-spin energy     =        -0.5096008627 a.u.
        total opposite-spin energy =        -1.5132529394 a.u.

 Total  RIMP2   correlation energy =        -2.0228538021 a.u.
        RIMP2         total energy =     -1182.7111390849 a.u.

 RI-MP2 Energy Time:  CPU 81.72 s  wall 82.09 s
 
 --------------------------------------------------------------
 
                    Orbital Energies (a.u.)
 --------------------------------------------------------------
 
 Alpha MOs
 -- Occupied --
-91.9768 -91.9351 -11.2887 -11.2627 -11.2556 -11.2546 -11.2503 -11.2484
-11.2355 -11.2307 -11.2294 -11.2130  -8.9780  -8.9402  -6.6588  -6.6578
 -6.6576  -6.6215  -6.6205  -6.6192  -1.2052  -1.1539  -1.0584  -1.0244
 -1.0095  -0.9556  -0.9122  -0.9021  -0.8108  -0.7674  -0.7369  -0.6945
 -0.6553  -0.6374  -0.6151  -0.5907  -0.5797  -0.5780  -0.5652  -0.5499
 -0.5392  -0.5362  -0.5139  -0.5062  -0.4894  -0.4628  -0.4501  -0.4408
 -0.3516  -0.3403  -0.3231  -0.2632
 -- Virtual --
  0.0542   0.1350   0.1399   0.1515   0.1599   0.1704   0.1768   0.1822
  0.1914   0.2028   0.2077   0.2092   0.2252   0.2332   0.2398   0.2422
  0.2526   0.2575   0.2735   0.2978   0.3025   0.3228   0.3445   0.3533
  0.3619   0.3735   0.3769   0.3810   0.4028   0.4116   0.4192   0.4232
  0.4307   0.4361   0.4472   0.4656   0.4693   0.4759   0.4814   0.4925
  0.5008   0.5055   0.5168   0.5263   0.5358   0.5436   0.5478   0.5618
  0.5696   0.5836   0.5879   0.5953   0.5970   0.6093   0.6162   0.6202
  0.6265   0.6284   0.6339   0.6369   0.6407   0.6497   0.6534   0.6579
  0.6623   0.6792   0.6842   0.6902   0.7025   0.7114   0.7184   0.7288
  0.7411   0.7516   0.7602   0.7727   0.7829   0.7937   0.8073   0.8239
  0.8354   0.8424   0.8520   0.8650   0.8822   0.8859   0.9073   0.9206
  0.9241   0.9429   0.9566   0.9769   0.9893   1.0063   1.0158   1.0221
  1.0264   1.0399   1.0452   1.0478   1.0558   1.0600   1.0753   1.0906
  1.0967   1.1042   1.1167   1.1402   1.1432   1.1545   1.1615   1.1741
  1.1935   1.1996   1.2064   1.2126   1.2265   1.2327   1.2444   1.2554
  1.2606   1.2622   1.2709   1.2790   1.2836   1.2928   1.3043   1.3177
  1.3226   1.3481   1.3603   1.3768   1.3810   1.3855   1.3927   1.4174
  1.4259   1.4285   1.4445   1.4612   1.4734   1.4794   1.4833   1.4962
  1.5077   1.5168   1.5272   1.5299   1.5406   1.5521   1.5531   1.5553
  1.5672   1.5789   1.5900   1.5954   1.6008   1.6240   1.6281   1.6417
  1.6572   1.6625   1.6756   1.6876   1.6919   1.7219   1.7283   1.7293
  1.7436   1.7628   1.7735   1.7764   1.7931   1.8293   1.8470   1.8737
  1.8922   1.9160   1.9332   1.9433   1.9634   1.9868   1.9937   1.9982
  2.0205   2.0457   2.0509   2.0778   2.0787   2.0967   2.1388   2.1643
  2.1750   2.1950   2.1973   2.2173   2.2247   2.2587   2.2737   2.2844
  2.3017   2.3318   2.3448   2.3854   2.4205   2.4320   2.4407   2.4752
  2.4907   2.5053   2.5233   2.5528   2.5628   2.5857   2.6066   2.6329
  2.6466   2.6577   2.6680   2.6789   2.6953   2.7012   2.7218   2.7370
  2.7462   2.7547   2.7786   2.7869   2.8041   2.8084   2.8170   2.8209
  2.8566   2.8597   2.8841   2.8940   2.9022   2.9045   2.9249   2.9335
  2.9505   2.9557   2.9818   2.9920   3.0060   3.0223   3.0256   3.0333
  3.0489   3.0680   3.1026   3.1105   3.1187   3.1270   3.1354   3.1471
  3.1611   3.1663   3.1757   3.1826   3.1946   3.2025   3.2055   3.2092
  3.2313   3.2412   3.2499   3.2592   3.2669   3.2751   3.2897   3.3054
  3.3141   3.3247   3.3314   3.3419   3.3500   3.3556   3.3610   3.3714
  3.3802   3.3881   3.3948   3.4000   3.4084   3.4141   3.4258   3.4308
  3.4380   3.4578   3.4681   3.4776   3.4924   3.4986   3.5118   3.5168
  3.5200   3.5290   3.5403   3.5544   3.5611   3.5700   3.5779   3.5881
  3.6009   3.6093   3.6164   3.6327   3.6383   3.6450   3.6490   3.6699
  3.6842   3.6952   3.7056   3.7176   3.7221   3.7361   3.7409   3.7521
  3.7597   3.7682   3.7771   3.7854   3.7946   3.8125   3.8240   3.8283
  3.8374   3.8607   3.8680   3.8786   3.8859   3.9017   3.9154   3.9237
  3.9334   3.9488   3.9696   3.9778   3.9824   4.0045   4.0173   4.0204
  4.0268   4.0380   4.0633   4.0782   4.0822   4.0880   4.0988   4.1296
  4.1363   4.1465   4.1572   4.1662   4.1732   4.1899   4.2038   4.2057
  4.2157   4.2248   4.2403   4.2581   4.2589   4.2677   4.2772   4.2802
  4.2977   4.3079   4.3272   4.3392   4.3537   4.3553   4.3610   4.3767
  4.3826   4.4034   4.4075   4.4153   4.4191   4.4306   4.4359   4.4548
  4.4616   4.4725   4.4826   4.4867   4.5105   4.5322   4.5565   4.5714
  4.5840   4.6008   4.6070   4.6291   4.6392   4.6503   4.6655   4.6760
  4.6872   4.7202   4.7302   4.7605   4.7700   4.8142   4.8333   4.8449
  4.8712   4.8819   4.8921   4.9208   4.9353   4.9442   4.9604   5.0093
  5.0298   5.0497   5.1000   5.1073   5.1191   5.1329   5.1443   5.1484
  5.1742   5.2182   5.2251   5.2758   5.2844   5.2980   5.3102   5.3147
  5.3452   5.3650   5.3876   5.3949   5.4078   5.4106   5.4438   5.4528
  5.4674   5.5104   5.5263   5.5419   5.5514   5.5653   5.5684   5.6003
  5.6254   5.6328   5.6364   5.6730   5.6856   5.7030   5.7149   5.7433
  5.7794   5.7954   5.8150   5.9715   6.0147   6.0518   6.0950   6.1322
  6.2016   6.2171   6.2237   6.2323   6.2541   6.2731   6.2951   6.3253
  6.3926   6.4116   9.4632  10.5530  12.6649  12.8406  13.2012  13.9009
 14.1398  14.2622  14.2987  14.7301
 --------------------------------------------------------------
 
          Ground-State Mulliken Net Atomic Charges

     Atom                 Charge (a.u.)
  ----------------------------------------
      1 C                    -0.089390
      2 C                    -0.323828
      3 C                    -0.068633
      4 H                     0.173806
      5 C                     0.093415
      6 S                    -0.195359
      7 C                    -0.278988
      8 H                     0.114099
      9 H                     0.106210
     10 H                     0.103634
     11 C                    -0.161175
     12 C                    -0.146740
     13 C                    -0.006520
     14 H                     0.197900
     15 C                    -0.167766
     16 S                     0.014230
     17 C                    -0.267568
     18 H                     0.104282
     19 H                     0.110607
     20 H                     0.107939
     21 H                     0.201035
     22 H                     0.108469
     23 H                     0.105119
     24 H                     0.165224
  ----------------------------------------
  Sum of atomic charges =     0.000000

 -----------------------------------------------------------------
                    Cartesian Multipole Moments
 -----------------------------------------------------------------
    Charge (ESU x 10^10)
                -0.0000
    Dipole Moment (Debye)
         X       0.4281      Y       0.8668      Z       0.8853
       Tot       1.3109
    Quadrupole Moments (Debye-Ang)
        XX     -82.4436     XY       9.4622     YY     -83.5649
        XZ       0.9154     YZ       1.8313     ZZ     -85.0384
    Octopole Moments (Debye-Ang^2)
       XXX    -155.6173    XXY      98.7715    XYY     -53.4853
       YYY     212.2306    XXZ      -7.0695    XYZ      -3.9303
       YYZ       0.0958    XZZ     -55.4409    YZZ      85.4354
       ZZZ       6.8802
    Hexadecapole Moments (Debye-Ang^3)
      XXXX   -1153.2932   XXXY    -156.1817   XXYY    -571.5493
      XYYY    -200.0468   YYYY   -2190.9889   XXXZ    -233.4920
      XXYZ      -8.7215   XYYZ     -63.8736   YYYZ     -51.5069
      XXZZ    -314.1852   XYZZ     -48.2653   YYZZ    -521.7843
      XZZZ    -221.8186   YZZZ     -39.6914   ZZZZ    -772.9586
 -----------------------------------------------------------------
 Total job time:  691.84s(wall), 687.50s(cpu) 
 Sun Jul 10 06:06:04 2022

        *************************************************************
        *                                                           *
        *  Thank you very much for using Q-Chem.  Have a nice day.  *
        *                                                           *
        *************************************************************


remove work dirs ./qchem822660.0 -- ./qchem822660.-1
rm -rf ./qchem822660
