You are running Q-Chem version: 5.4.0

#
# job setting
#
local host:  exp-1-30
current dir: /expanse/lustre/scratch/theleonzhang/temp_project/Hydrogenated_Rotation_Test
input file:  Methylthiophene_Phi_60_Theta_270_Methylthiophene_Hydrogenated.qcin
output file: 
nprocs     : 0
nthreads   : 1
#
# qchem installation setting
#
QC:          /cm/shared/apps/spack/cpu/opt/spack/linux-centos8-zen2/gcc-10.2.0/qchem-5.4-akfmr7b3t57bfs6qan3padb2wnb2i7cl
QCAUX:       /cm/shared/apps/spack/cpu/opt/spack/linux-centos8-zen2/gcc-10.2.0/qchem-5.4-akfmr7b3t57bfs6qan3padb2wnb2i7cl/qcaux
QCPROG:      /cm/shared/apps/spack/cpu/opt/spack/linux-centos8-zen2/gcc-10.2.0/qchem-5.4-akfmr7b3t57bfs6qan3padb2wnb2i7cl/exe/qcprog.exe_s
QCPROG_S:    /cm/shared/apps/spack/cpu/opt/spack/linux-centos8-zen2/gcc-10.2.0/qchem-5.4-akfmr7b3t57bfs6qan3padb2wnb2i7cl/exe/qcprog.exe_s
PARALLEL:    -DSERIAL
QCMPI:       mpich
#
# qchem directory setting
#
qcrun:       qchem807356
QCSCRATCH:   .
QCLOCALSCR:  
QCTMPDIR:    .
QCFILEPREF:  ./qchem807356
QCSAVEDIR:   
workdirs:    ./qchem807356
workdir0:    ./qchem807356
partmpdirs =  
#
# parallel setting
#
QCRSH:           ssh
QCMPI:           mpich
QCMPIRUN:        /cm/shared/apps/spack/cpu/opt/spack/linux-centos8-zen2/gcc-10.2.0/qchem-5.4-akfmr7b3t57bfs6qan3padb2wnb2i7cl/bin/mpi/mpirun_qchem
QCMACHINEFILE:   ./qchem807356/hostfile

#
# env setting
#
exported envs:   QC QCAUX QCSCRATCH QCRUNNAME QCFILEPREF QCPROG QCPROG_S GUIFILE

Running Job 1 of 1 Methylthiophene_Phi_60_Theta_270_Methylthiophene_Hydrogenated.qcin
qchem Methylthiophene_Phi_60_Theta_270_Methylthiophene_Hydrogenated.qcin_807356.0 ./qchem807356/ 0
/cm/shared/apps/spack/cpu/opt/spack/linux-centos8-zen2/gcc-10.2.0/qchem-5.4-akfmr7b3t57bfs6qan3padb2wnb2i7cl/exe/qcprog.exe_s Methylthiophene_Phi_60_Theta_270_Methylthiophene_Hydrogenated.qcin_807356.0 ./qchem807356/
                  Welcome to Q-Chem
     A Quantum Leap Into The Future Of Chemistry


 Q-Chem 5.4, Q-Chem, Inc., Pleasanton, CA (2021)

 License issued to: University of California, San Diego (site)

 E. Epifanovsky,  A. T. B. Gilbert,  Xintian Feng,  Joonho Lee,  Yuezhi Mao,  
 N. Mardirossian,  P. Pokhilko,  A. White,  M. Wormit,  M. P. Coons,  
 A. L. Dempwolff,  Zhengting Gan,  D. Hait,  P. R. Horn,  L. D. Jacobson,  
 I. Kaliman,  J. Kussmann,  A. W. Lange,  Ka Un Lao,  D. S. Levine,  Jie Liu,  
 S. C. McKenzie,  A. F. Morrison,  K. Nanda,  F. Plasser,  D. R. Rehn,  
 M. L. Vidal,  Zhi-Qiang You,  Ying Zhu,  B. Alam,  B. Albrecht,  
 A. Aldossary,  E. Alguire,  J. H. Andersen,  D. Barton,  K. Begam,  A. Behn,  
 Y. A. Bernard,  E. J. Berquist,  H. Burton,  A. Carreras,  K. Carter-Fenk,  
 R. Chakraborty,  A. D. Chien,  K. D. Closser,  V. Cofer-Shabica,  
 S. Dasgupta,  Jia Deng,  M. de Wergifosse,  M. Diedenhofen,  Hainam Do,  
 S. Ehlert,  Po-Tung Fang,  S. Fatehi,  Qingguo Feng,  J. Gayvert,  
 Qinghui Ge,  G. Gidofalvi,  M. Goldey,  J. Gomes,  C. Gonzalez-Espinoza,  
 S. Gulania,  A. Gunina,  M. W. D. Hanson-Heine,  P. H. P. Harbach,  
 A. W. Hauser,  M. F. Herbst,  M. Hernandez Vera,  M. Hodecker,  
 Z. C. Holden,  S. Houck,  Xunkun Huang,  Kerwin Hui,  B. C. Huynh,  
 M. Ivanov,  Hyunjun Ji,  Hanjie Jiang,  B. Kaduk,  S. Kaehler,  
 K. Khistyaev,  Jaehoon Kim,  P. Klunzinger,  Z. Koczor-Benda,  
 Joong Hoon Koh,  D. Kosenkov,  L. Koulias,  T. Kowalczyk,  C. M. Krauter,  
 K. Kue,  A. Kunitsa,  T. Kus,  A. Landau,  K. V. Lawler,  D. Lefrancois,  
 S. Lehtola,  Rain Li,  Yi-Pei Li,  Jiashu Liang,  M. Liebenthal,  
 Hung-Hsuan Lin,  You-Sheng Lin,  Fenglai Liu,  Kuan-Yu Liu,  
 M. Loipersberger,  A. Luenser,  A. Manjanath,  P. Manohar,  E. Mansoor,  
 S. F. Manzer,  Shan-Ping Mao,  A. V. Marenich,  T. Markovich,  S. Mason,  
 S. A. Maurer,  P. F. McLaughlin,  M. F. S. J. Menger,  J.-M. Mewes,  
 S. A. Mewes,  P. Morgante,  J. W. Mullinax,  T. S. Nguyen-Beck,  
 K. J. Oosterbaan,  G. Paran,  Alexander C. Paul,  Suranjan K. Paul,  
 F. Pavosevic,  Zheng Pei,  S. Prager,  E. I. Proynov,  E. Ramos,  B. Rana,  
 A. E. Rask,  A. Rettig,  R. M. Richard,  F. Rob,  E. Rossomme,  T. Scheele,  
 M. Scheurer,  M. Schneider,  N. Sergueev,  S. M. Sharada,  W. Skomorowski,  
 D. W. Small,  C. J. Stein,  Yu-Chuan Su,  E. J. Sundstrom,  Zhen Tao,  
 J. Thirman,  T. Tsuchimochi,  N. M. Tubman,  S. P. Veccham,  O. Vydrov,  
 J. Wenzel,  J. Witte,  A. Yamada,  Kun Yao,  S. Yeganeh,  S. R. Yost,  
 A. Zech,  Igor Ying Zhang,  Xing Zhang,  Yu Zhang,  D. Zuev,  
 A. Aspuru-Guzik,  A. T. Bell,  N. A. Besley,  K. B. Bravaya,  B. R. Brooks,  
 D. Casanova,  Jeng-Da Chai,  S. Coriani,  C. J. Cramer,  
 A. E. DePrince, III,  R. A. DiStasio Jr.,  A. Dreuw,  B. D. Dunietz,  
 T. R. Furlani,  W. A. Goddard III,  S. Grimme,  S. Hammes-Schiffer,  
 T. Head-Gordon,  W. J. Hehre,  Chao-Ping Hsu,  T.-C. Jagau,  Yousung Jung,  
 A. Klamt,  Jing Kong,  D. S. Lambrecht,  WanZhen Liang,  N. J. Mayhall,  
 C. W. McCurdy,  J. B. Neaton,  C. Ochsenfeld,  J. A. Parkhill,  R. Peverati,  
 V. A. Rassolov,  Yihan Shao,  L. V. Slipchenko,  T. Stauch,  R. P. Steele,  
 J. E. Subotnik,  A. J. W. Thom,  A. Tkatchenko,  D. G. Truhlar,  
 T. Van Voorhis,  T. A. Wesolowski,  K. B. Whaley,  H. L. Woodcock III,  
 P. M. Zimmerman,  S. Faraji,  P. M. W. Gill,  M. Head-Gordon,  
 J. M. Herbert,  A. I. Krylov

 Contributors to earlier versions of Q-Chem not listed above: 
 R. D. Adamson,  B. Austin,  R. Baer,  J. Baker,  G. J. O. Beran,  
 K. Brandhorst,  S. T. Brown,  E. F. C. Byrd,  A. K. Chakraborty,  
 G. K. L. Chan,  Chun-Min Chang,  Yunqing Chen,  C.-L. Cheng,  
 Siu Hung Chien,  D. M. Chipman,  D. L. Crittenden,  H. Dachsel,  
 R. J. Doerksen,  A. D. Dutoi,  R. G. Edgar,  J. Fosso-Tande,  
 L. Fusti-Molnar,  D. Ghosh,  A. Ghysels,  A. Golubeva-Zadorozhnaya,  
 J. Gonthier,  M. S. Gordon,  S. R. Gwaltney,  G. Hawkins,  J. E. Herr,  
 A. Heyden,  S. Hirata,  E. G. Hohenstein,  G. Kedziora,  F. J. Keil,  
 C. Kelley,  Jihan Kim,  R. A. King,  R. Z. Khaliullin,  P. P. Korambath,  
 W. Kurlancheek,  A. Laurent,  A. M. Lee,  M. S. Lee,  S. V. Levchenko,  
 Ching Yeh Lin,  D. Liotard,  E. Livshits,  R. C. Lochan,  I. Lotan,  
 L. A. Martinez-Martinez,  P. E. Maslen,  N. Nair,  D. P. O'Neill,  
 D. Neuhauser,  E. Neuscamman,  C. M. Oana,  R. Olivares-Amaya,  R. Olson,  
 T. M. Perrine,  B. Peters,  P. A. Pieniazek,  A. Prociuk,  Y. M. Rhee,  
 J. Ritchie,  M. A. Rohrdanz,  E. Rosta,  N. J. Russ,  H. F. Schaefer III,  
 M. W. Schmidt,  N. E. Schultz,  S. Sharma,  N. Shenvi,  C. D. Sherrill,  
 A. C. Simmonett,  A. Sodt,  T. Stein,  D. Stuck,  K. S. Thanthiriwatte,  
 V. Vanovschi,  L. Vogt,  Tao Wang,  A. Warshel,  M. A. Watson,  
 C. F. Williams,  Q. Wu,  X. Xu,  Jun Yang,  W. Zhang,  Yan Zhao

 Please cite Q-Chem as follows:
 Y. Shao et al., Mol. Phys. 113, 184-215 (2015)
 DOI: 10.1080/00268976.2014.952696

 Q-Chem 5.4.0 for Intel X86 EM64T Linux

 Parts of Q-Chem use Armadillo 9.800.1 (Horizon Scraper).
 http://arma.sourceforge.net/

 Q-Chem begins on Sun Jul 10 05:07:38 2022  

 Host: 
0

     Scratch files written to ./qchem807356//
 May1621 |scratch|qcdevops|jenkins|workspace|build_RNUM    
 Processing $rem in /cm/shared/apps/spack/cpu/opt/spack/linux-centos8-zen2/gcc-10.2.0/qchem-5.4-akfmr7b3t57bfs6qan3padb2wnb2i7cl/config/preferences:
 Processing $rem in /home/theleonzhang/.qchemrc:
 Symmetry turned off for PCM/SM12/SMD calculation
 Core orbitals will be frozen

 Checking the input file for inconsistencies... 	...done.

--------------------------------------------------------------
User input:
--------------------------------------------------------------
$molecule
0 1
C	0.775127	-3.866725	0.000713
C	-0.612565	-3.703963	0.000302
C	-1.066639	-2.357056	-0.000067
H	-1.302900	-4.561092	0.000470
C	0.000000	-1.440664	0.000000
S	1.544483	-2.286957	-0.000009
C	-2.521872	-1.978743	-0.000295
H	-3.166949	-2.878678	-0.000221
H	-2.790821	-1.376015	-0.892850
H	-2.791023	-1.375728	0.892005
C	0.000000	0.000000	0.000000
C	0.747916	0.431772	1.099446
C	1.946425	1.123709	0.776721
H	0.428523	0.247378	2.136088
C	2.137531	1.234018	-0.612546
S	0.816154	0.471179	-1.486809
C	2.888455	1.667564	1.814609
H	2.519842	1.454746	2.836676
H	3.008896	2.767543	1.726239
H	3.901271	1.221850	1.726228
H	2.959587	1.708609	-1.161575
H	1.119411	-4.392713	-0.896681
H	1.119277	-4.392347	0.898372
H	-0.000115	-1.440391	1.080000
$end

$rem
JOBTYPE		SP
EXCHANGE	HF
CORRELATION	pRIMP2
BASIS		cc-pvtz
METHOD		rimp2
AUX_BASIS	rimp2-cc-pvtz
SOLVENT_METHOD	PCM
PURECART	11111
SYMMETRY	false
MEM_TOTAL	110000
SCF_CONVERGENCE = 6
THRESH=10
$end



$solvent
dielectric 4.90
$end
--------------------------------------------------------------
 ----------------------------------------------------------------
             Standard Nuclear Orientation (Angstroms)
    I     Atom           X                Y                Z
 ----------------------------------------------------------------
    1      C       0.7751270000    -3.8667250000     0.0007130000
    2      C      -0.6125650000    -3.7039630000     0.0003020000
    3      C      -1.0666390000    -2.3570560000    -0.0000670000
    4      H      -1.3029000000    -4.5610920000     0.0004700000
    5      C       0.0000000000    -1.4406640000     0.0000000000
    6      S       1.5444830000    -2.2869570000    -0.0000090000
    7      C      -2.5218720000    -1.9787430000    -0.0002950000
    8      H      -3.1669490000    -2.8786780000    -0.0002210000
    9      H      -2.7908210000    -1.3760150000    -0.8928500000
   10      H      -2.7910230000    -1.3757280000     0.8920050000
   11      C       0.0000000000     0.0000000000     0.0000000000
   12      C       0.7479160000     0.4317720000     1.0994460000
   13      C       1.9464250000     1.1237090000     0.7767210000
   14      H       0.4285230000     0.2473780000     2.1360880000
   15      C       2.1375310000     1.2340180000    -0.6125460000
   16      S       0.8161540000     0.4711790000    -1.4868090000
   17      C       2.8884550000     1.6675640000     1.8146090000
   18      H       2.5198420000     1.4547460000     2.8366760000
   19      H       3.0088960000     2.7675430000     1.7262390000
   20      H       3.9012710000     1.2218500000     1.7262280000
   21      H       2.9595870000     1.7086090000    -1.1615750000
   22      H       1.1194110000    -4.3927130000    -0.8966810000
   23      H       1.1192770000    -4.3923470000     0.8983720000
   24      H      -0.0001150000    -1.4403910000     1.0800000000
 ----------------------------------------------------------------
 Nuclear Repulsion Energy =         903.00198555 hartrees
 There are       52 alpha and       52 beta electrons

 Q-Chem warning in module forms1/BasisType.C, line 2236:

 You are not using the predefined 5D/6D in this basis set.

 Requested basis set is cc-pVTZ
 There are 196 shells and 536 basis functions

 Total QAlloc Memory Limit 110000 MB
 Mega-Array Size       188 MB
 MEM_STATIC part       192 MB
 Discretize the solute cavity surface with Lebedev spheres
	Using 110 Lebedev grid points for each H atom
	Using 194 Lebedev grid points for other atoms
	Atomic van der Waals radii will be scaled by 1.20
 Remove points where switching function is < 1.0e-08
 Keep 1566 surface tesserae and discard 2082 interior tesserae
 Molecular Surface Area = 232.055 Angst**2
 Requested basis set is rimp2-cc-pVTZ
 There are 414 shells and 1414 basis functions
 A cutoff of  1.0D-10 yielded  14450 shell pairs
 There are    104616 function pairs (    134067 Cartesian)
 Smallest overlap matrix eigenvalue = 6.11E-05

 Scale SEOQF with 1.000000e-01/1.000000e-01/1.000000e-01

 Standard Electronic Orientation quadrupole field applied
 Nucleus-field energy     =     0.0000000320 hartrees
 Guess from superposition of atomic densities
 Warning:  Energy on first SCF cycle will be non-variational
 SAD guess density has 104.000000 electrons

 -----------------------------------------------------------------------
  General SCF calculation program by
  Eric Jon Sundstrom, Paul Horn, Yuezhi Mao, Dmitri Zuev, Alec White,
  David Stuck, Shaama M.S., Shane Yost, Joonho Lee, David Small,
  Daniel Levine, Susi Lehtola, Hugh Burton, Evgeny Epifanovsky,
  Bang C. Huynh
 -----------------------------------------------------------------------
 Hartree-Fock
 A restricted SCF calculation will be
 performed using DIIS
 SCF converges when DIIS error is below 1.0e-06
 ---------------------------------------
  Cycle       Energy         DIIS error
 ---------------------------------------
    1   -1186.1752558811      2.41e-02  
    2   -1180.5458725551      1.53e-03  
    3   -1180.6720697461      5.14e-04  
    4   -1180.6850897724      2.56e-04  
    5   -1180.6882175129      5.11e-05  
    6   -1180.6884608885      2.20e-05  
    7   -1180.6885296040      1.14e-05  
    8   -1180.6885529272      5.37e-06  
    9   -1180.6885595902      2.57e-06  
   10   -1180.6885608691      8.09e-07  Convergence criterion met
 ---------------------------------------
 SCF time:   CPU 618.15s  wall 621.00s 

************** Final PCM Free Energy Summary **************
 G_electrostatic  =      -0.01036903 hartree =      -6.50666417 kcal/mol
 G_cavitation     =       0.00000000 hartree =       0.00000000 kcal/mol
 G_dispersion     =       0.00000000 hartree =       0.00000000 kcal/mol
 G_repulsion      =       0.00000000 hartree =       0.00000000 kcal/mol
 --------------------------------------------------
 Non-electrostatic Free Energy =       0.00000000 hartree =       0.00000000 kcal/mol
 Total                         =      -0.01036903 hartree =      -6.50666417 kcal/mol
 --------------------------------------------------
 SCF Energy (H0 + V/2)                       =   -1180.68856087 
 Solute Internal Energy (H0)                 =   -1180.67819184 
 Total Free Energy (H0 + V/2 + non-elec)     =   -1180.68856087 hartree
                                             = -740893.25424671 kcal/mol
***********************************************************

 SCF   energy in the final basis set =    -1180.6885608691
 Total energy in the final basis set =    -1180.6885608691


 --------------------------------------------------------------
  Generalized many-body perturbation theory program
  by Joonho Lee, Fazle Rob, Xintian Feng, Evgeny Epifanovsky

 No regularization used 
 (reg. param. = 0.0000e+00)
  (P|Q)^-1/2 Time:  CPU 1.93 s  wall 1.94 s

 In RI-MP2 calculation: 
 # of frozen core orbitals: 20

 Components of the RIMP2 correlation energy:
        aaaa    correlation energy =        -0.2545456102 a.u.
        abab    correlation energy =        -1.5124341804 a.u.
        bbbb    correlation energy =        -0.2545456102 a.u.
        non-Brillouin singles      =        -0.0000000000 a.u.
        total same-spin energy     =        -0.5090912203 a.u.
        total opposite-spin energy =        -1.5124341804 a.u.

 Total  RIMP2   correlation energy =        -2.0215254007 a.u.
        RIMP2         total energy =     -1182.7100862698 a.u.

 RI-MP2 Energy Time:  CPU 82.64 s  wall 82.96 s
 
 --------------------------------------------------------------
 
                    Orbital Energies (a.u.)
 --------------------------------------------------------------
 
 Alpha MOs
 -- Occupied --
-91.9769 -91.9330 -11.2893 -11.2631 -11.2532 -11.2526 -11.2502 -11.2475
-11.2359 -11.2307 -11.2282 -11.2099  -8.9779  -8.9382  -6.6586  -6.6578
 -6.6576  -6.6195  -6.6185  -6.6173  -1.2064  -1.1528  -1.0584  -1.0240
 -1.0068  -0.9570  -0.9086  -0.9025  -0.8106  -0.7572  -0.7471  -0.6951
 -0.6568  -0.6365  -0.6130  -0.5922  -0.5791  -0.5731  -0.5638  -0.5493
 -0.5383  -0.5343  -0.5051  -0.5043  -0.4937  -0.4657  -0.4496  -0.4411
 -0.3622  -0.3264  -0.3146  -0.2751
 -- Virtual --
  0.0551   0.1370   0.1389   0.1572   0.1601   0.1686   0.1755   0.1828
  0.1872   0.1992   0.2072   0.2166   0.2241   0.2264   0.2375   0.2456
  0.2475   0.2570   0.2686   0.2943   0.3083   0.3108   0.3408   0.3525
  0.3632   0.3734   0.3780   0.3817   0.3898   0.3970   0.4120   0.4230
  0.4266   0.4335   0.4460   0.4525   0.4728   0.4799   0.4922   0.5010
  0.5028   0.5074   0.5124   0.5285   0.5301   0.5435   0.5518   0.5637
  0.5667   0.5733   0.5891   0.5949   0.6033   0.6105   0.6191   0.6226
  0.6255   0.6315   0.6346   0.6416   0.6434   0.6457   0.6565   0.6614
  0.6696   0.6759   0.6833   0.6884   0.6971   0.7092   0.7173   0.7313
  0.7380   0.7523   0.7653   0.7686   0.7854   0.7937   0.8150   0.8252
  0.8358   0.8385   0.8521   0.8630   0.8747   0.8841   0.9067   0.9204
  0.9349   0.9423   0.9583   0.9667   0.9781   0.9894   1.0043   1.0197
  1.0274   1.0393   1.0419   1.0517   1.0671   1.0739   1.0840   1.0886
  1.0953   1.1120   1.1242   1.1333   1.1495   1.1564   1.1603   1.1749
  1.1775   1.1885   1.2050   1.2176   1.2197   1.2245   1.2456   1.2536
  1.2591   1.2612   1.2648   1.2770   1.2836   1.2863   1.3042   1.3136
  1.3319   1.3456   1.3575   1.3724   1.3874   1.3885   1.4089   1.4166
  1.4308   1.4326   1.4442   1.4526   1.4600   1.4730   1.4863   1.5025
  1.5061   1.5197   1.5282   1.5337   1.5411   1.5466   1.5537   1.5601
  1.5691   1.5781   1.5817   1.5878   1.6082   1.6166   1.6290   1.6421
  1.6494   1.6552   1.6716   1.6943   1.7063   1.7185   1.7249   1.7291
  1.7460   1.7634   1.7689   1.7875   1.8126   1.8256   1.8395   1.8666
  1.8735   1.9021   1.9428   1.9479   1.9652   1.9770   1.9923   2.0100
  2.0260   2.0322   2.0437   2.0666   2.0768   2.1094   2.1381   2.1593
  2.1835   2.1884   2.2048   2.2246   2.2363   2.2395   2.2616   2.2803
  2.2979   2.3300   2.3655   2.3730   2.3843   2.4400   2.4591   2.4706
  2.4823   2.5230   2.5327   2.5624   2.5795   2.6051   2.6189   2.6240
  2.6444   2.6506   2.6684   2.6803   2.6994   2.7053   2.7116   2.7179
  2.7509   2.7612   2.7781   2.7854   2.7926   2.8034   2.8149   2.8246
  2.8498   2.8588   2.8764   2.8817   2.8984   2.9063   2.9108   2.9386
  2.9624   2.9692   2.9760   3.0008   3.0076   3.0222   3.0353   3.0530
  3.0681   3.0823   3.1108   3.1113   3.1187   3.1264   3.1360   3.1495
  3.1585   3.1691   3.1730   3.1810   3.1912   3.2019   3.2156   3.2261
  3.2347   3.2386   3.2522   3.2596   3.2669   3.2784   3.2912   3.2931
  3.3212   3.3289   3.3342   3.3393   3.3505   3.3603   3.3611   3.3670
  3.3763   3.3808   3.3913   3.3968   3.4063   3.4130   3.4256   3.4344
  3.4480   3.4567   3.4617   3.4689   3.4875   3.4953   3.5167   3.5206
  3.5216   3.5366   3.5422   3.5563   3.5640   3.5695   3.5799   3.5860
  3.5906   3.6100   3.6285   3.6335   3.6398   3.6635   3.6681   3.6781
  3.6835   3.6957   3.7088   3.7186   3.7258   3.7323   3.7381   3.7409
  3.7597   3.7629   3.7689   3.7852   3.7888   3.8096   3.8188   3.8248
  3.8324   3.8477   3.8508   3.8748   3.8894   3.9054   3.9149   3.9256
  3.9441   3.9611   3.9647   3.9713   3.9827   4.0057   4.0167   4.0240
  4.0303   4.0393   4.0586   4.0663   4.0835   4.1009   4.1056   4.1202
  4.1240   4.1383   4.1555   4.1670   4.1806   4.1885   4.2028   4.2125
  4.2151   4.2273   4.2325   4.2563   4.2621   4.2659   4.2817   4.2829
  4.2959   4.3155   4.3271   4.3415   4.3487   4.3582   4.3673   4.3740
  4.3903   4.3985   4.3995   4.4030   4.4109   4.4248   4.4283   4.4532
  4.4640   4.4689   4.4817   4.4961   4.5129   4.5380   4.5398   4.5697
  4.5854   4.5977   4.6162   4.6250   4.6387   4.6534   4.6750   4.6810
  4.6884   4.7232   4.7346   4.7681   4.8127   4.8366   4.8421   4.8653
  4.8778   4.8794   4.9045   4.9203   4.9424   4.9692   4.9814   5.0082
  5.0266   5.0526   5.0822   5.1173   5.1195   5.1319   5.1385   5.1814
  5.1995   5.2116   5.2282   5.2792   5.2827   5.2979   5.3064   5.3172
  5.3393   5.3747   5.3871   5.4012   5.4077   5.4285   5.4470   5.4574
  5.4662   5.5045   5.5215   5.5459   5.5463   5.5580   5.5725   5.5932
  5.6226   5.6329   5.6413   5.6619   5.6904   5.7064   5.7185   5.7498
  5.7705   5.7973   5.8071   5.9727   6.0153   6.0347   6.0904   6.1477
  6.2034   6.2163   6.2233   6.2307   6.2458   6.2716   6.2905   6.3255
  6.3903   6.4033   9.4882  10.5295  12.7211  12.8390  13.1769  13.8790
 14.1350  14.2553  14.2948  14.6477
 --------------------------------------------------------------
 
          Ground-State Mulliken Net Atomic Charges

     Atom                 Charge (a.u.)
  ----------------------------------------
      1 C                    -0.087698
      2 C                    -0.331326
      3 C                    -0.072206
      4 H                     0.172516
      5 C                     0.075297
      6 S                    -0.187396
      7 C                    -0.272957
      8 H                     0.112084
      9 H                     0.105528
     10 H                     0.098907
     11 C                    -0.153266
     12 C                    -0.132549
     13 C                    -0.004957
     14 H                     0.184821
     15 C                    -0.161694
     16 S                     0.021868
     17 C                    -0.268335
     18 H                     0.102616
     19 H                     0.108613
     20 H                     0.107228
     21 H                     0.200971
     22 H                     0.110580
     23 H                     0.106742
     24 H                     0.164613
  ----------------------------------------
  Sum of atomic charges =     0.000000

 -----------------------------------------------------------------
                    Cartesian Multipole Moments
 -----------------------------------------------------------------
    Charge (ESU x 10^10)
                -0.0000
    Dipole Moment (Debye)
         X       0.4590      Y       0.9613      Z       2.4073
       Tot       2.6324
    Quadrupole Moments (Debye-Ang)
        XX     -82.2984     XY       9.0923     YY     -84.3643
        XZ       0.8549     YZ      -0.6015     ZZ     -85.2072
    Octopole Moments (Debye-Ang^2)
       XXX    -160.1807    XXY      96.8448    XYY     -50.8786
       YYY     215.4809    XXZ      -4.9387    XYZ      -2.4188
       YYZ      -0.2296    XZZ     -51.4054    YZZ      87.7298
       ZZZ       4.8666
    Hexadecapole Moments (Debye-Ang^3)
      XXXX   -1379.7017   XXXY    -136.2998   XXYY    -599.0308
      XYYY    -207.0237   YYYY   -2205.3548   XXXZ     -94.5030
      XXYZ     -24.5728   XYYZ     -30.1345   YYYZ     -50.8270
      XXZZ    -322.5912   XYZZ     -62.6440   YYZZ    -497.3122
      XZZZ     -82.3987   YZZZ     -44.9844   ZZZZ    -532.8812
 -----------------------------------------------------------------
 Total job time:  706.59s(wall), 701.74s(cpu) 
 Sun Jul 10 05:19:25 2022

        *************************************************************
        *                                                           *
        *  Thank you very much for using Q-Chem.  Have a nice day.  *
        *                                                           *
        *************************************************************


remove work dirs ./qchem807356.0 -- ./qchem807356.-1
rm -rf ./qchem807356
