You are running Q-Chem version: 5.4.0

#
# job setting
#
local host:  exp-1-30
current dir: /expanse/lustre/scratch/theleonzhang/temp_project/Hydrogenated_Rotation_Test
input file:  Methylthiophene_Phi_60_Theta_240_Methylthiophene_Hydrogenated.qcin
output file: 
nprocs     : 0
nthreads   : 1
#
# qchem installation setting
#
QC:          /cm/shared/apps/spack/cpu/opt/spack/linux-centos8-zen2/gcc-10.2.0/qchem-5.4-akfmr7b3t57bfs6qan3padb2wnb2i7cl
QCAUX:       /cm/shared/apps/spack/cpu/opt/spack/linux-centos8-zen2/gcc-10.2.0/qchem-5.4-akfmr7b3t57bfs6qan3padb2wnb2i7cl/qcaux
QCPROG:      /cm/shared/apps/spack/cpu/opt/spack/linux-centos8-zen2/gcc-10.2.0/qchem-5.4-akfmr7b3t57bfs6qan3padb2wnb2i7cl/exe/qcprog.exe_s
QCPROG_S:    /cm/shared/apps/spack/cpu/opt/spack/linux-centos8-zen2/gcc-10.2.0/qchem-5.4-akfmr7b3t57bfs6qan3padb2wnb2i7cl/exe/qcprog.exe_s
PARALLEL:    -DSERIAL
QCMPI:       mpich
#
# qchem directory setting
#
qcrun:       qchem794061
QCSCRATCH:   .
QCLOCALSCR:  
QCTMPDIR:    .
QCFILEPREF:  ./qchem794061
QCSAVEDIR:   
workdirs:    ./qchem794061
workdir0:    ./qchem794061
partmpdirs =  
#
# parallel setting
#
QCRSH:           ssh
QCMPI:           mpich
QCMPIRUN:        /cm/shared/apps/spack/cpu/opt/spack/linux-centos8-zen2/gcc-10.2.0/qchem-5.4-akfmr7b3t57bfs6qan3padb2wnb2i7cl/bin/mpi/mpirun_qchem
QCMACHINEFILE:   ./qchem794061/hostfile

#
# env setting
#
exported envs:   QC QCAUX QCSCRATCH QCRUNNAME QCFILEPREF QCPROG QCPROG_S GUIFILE

Running Job 1 of 1 Methylthiophene_Phi_60_Theta_240_Methylthiophene_Hydrogenated.qcin
qchem Methylthiophene_Phi_60_Theta_240_Methylthiophene_Hydrogenated.qcin_794061.0 ./qchem794061/ 0
/cm/shared/apps/spack/cpu/opt/spack/linux-centos8-zen2/gcc-10.2.0/qchem-5.4-akfmr7b3t57bfs6qan3padb2wnb2i7cl/exe/qcprog.exe_s Methylthiophene_Phi_60_Theta_240_Methylthiophene_Hydrogenated.qcin_794061.0 ./qchem794061/
                  Welcome to Q-Chem
     A Quantum Leap Into The Future Of Chemistry


 Q-Chem 5.4, Q-Chem, Inc., Pleasanton, CA (2021)

 License issued to: University of California, San Diego (site)

 E. Epifanovsky,  A. T. B. Gilbert,  Xintian Feng,  Joonho Lee,  Yuezhi Mao,  
 N. Mardirossian,  P. Pokhilko,  A. White,  M. Wormit,  M. P. Coons,  
 A. L. Dempwolff,  Zhengting Gan,  D. Hait,  P. R. Horn,  L. D. Jacobson,  
 I. Kaliman,  J. Kussmann,  A. W. Lange,  Ka Un Lao,  D. S. Levine,  Jie Liu,  
 S. C. McKenzie,  A. F. Morrison,  K. Nanda,  F. Plasser,  D. R. Rehn,  
 M. L. Vidal,  Zhi-Qiang You,  Ying Zhu,  B. Alam,  B. Albrecht,  
 A. Aldossary,  E. Alguire,  J. H. Andersen,  D. Barton,  K. Begam,  A. Behn,  
 Y. A. Bernard,  E. J. Berquist,  H. Burton,  A. Carreras,  K. Carter-Fenk,  
 R. Chakraborty,  A. D. Chien,  K. D. Closser,  V. Cofer-Shabica,  
 S. Dasgupta,  Jia Deng,  M. de Wergifosse,  M. Diedenhofen,  Hainam Do,  
 S. Ehlert,  Po-Tung Fang,  S. Fatehi,  Qingguo Feng,  J. Gayvert,  
 Qinghui Ge,  G. Gidofalvi,  M. Goldey,  J. Gomes,  C. Gonzalez-Espinoza,  
 S. Gulania,  A. Gunina,  M. W. D. Hanson-Heine,  P. H. P. Harbach,  
 A. W. Hauser,  M. F. Herbst,  M. Hernandez Vera,  M. Hodecker,  
 Z. C. Holden,  S. Houck,  Xunkun Huang,  Kerwin Hui,  B. C. Huynh,  
 M. Ivanov,  Hyunjun Ji,  Hanjie Jiang,  B. Kaduk,  S. Kaehler,  
 K. Khistyaev,  Jaehoon Kim,  P. Klunzinger,  Z. Koczor-Benda,  
 Joong Hoon Koh,  D. Kosenkov,  L. Koulias,  T. Kowalczyk,  C. M. Krauter,  
 K. Kue,  A. Kunitsa,  T. Kus,  A. Landau,  K. V. Lawler,  D. Lefrancois,  
 S. Lehtola,  Rain Li,  Yi-Pei Li,  Jiashu Liang,  M. Liebenthal,  
 Hung-Hsuan Lin,  You-Sheng Lin,  Fenglai Liu,  Kuan-Yu Liu,  
 M. Loipersberger,  A. Luenser,  A. Manjanath,  P. Manohar,  E. Mansoor,  
 S. F. Manzer,  Shan-Ping Mao,  A. V. Marenich,  T. Markovich,  S. Mason,  
 S. A. Maurer,  P. F. McLaughlin,  M. F. S. J. Menger,  J.-M. Mewes,  
 S. A. Mewes,  P. Morgante,  J. W. Mullinax,  T. S. Nguyen-Beck,  
 K. J. Oosterbaan,  G. Paran,  Alexander C. Paul,  Suranjan K. Paul,  
 F. Pavosevic,  Zheng Pei,  S. Prager,  E. I. Proynov,  E. Ramos,  B. Rana,  
 A. E. Rask,  A. Rettig,  R. M. Richard,  F. Rob,  E. Rossomme,  T. Scheele,  
 M. Scheurer,  M. Schneider,  N. Sergueev,  S. M. Sharada,  W. Skomorowski,  
 D. W. Small,  C. J. Stein,  Yu-Chuan Su,  E. J. Sundstrom,  Zhen Tao,  
 J. Thirman,  T. Tsuchimochi,  N. M. Tubman,  S. P. Veccham,  O. Vydrov,  
 J. Wenzel,  J. Witte,  A. Yamada,  Kun Yao,  S. Yeganeh,  S. R. Yost,  
 A. Zech,  Igor Ying Zhang,  Xing Zhang,  Yu Zhang,  D. Zuev,  
 A. Aspuru-Guzik,  A. T. Bell,  N. A. Besley,  K. B. Bravaya,  B. R. Brooks,  
 D. Casanova,  Jeng-Da Chai,  S. Coriani,  C. J. Cramer,  
 A. E. DePrince, III,  R. A. DiStasio Jr.,  A. Dreuw,  B. D. Dunietz,  
 T. R. Furlani,  W. A. Goddard III,  S. Grimme,  S. Hammes-Schiffer,  
 T. Head-Gordon,  W. J. Hehre,  Chao-Ping Hsu,  T.-C. Jagau,  Yousung Jung,  
 A. Klamt,  Jing Kong,  D. S. Lambrecht,  WanZhen Liang,  N. J. Mayhall,  
 C. W. McCurdy,  J. B. Neaton,  C. Ochsenfeld,  J. A. Parkhill,  R. Peverati,  
 V. A. Rassolov,  Yihan Shao,  L. V. Slipchenko,  T. Stauch,  R. P. Steele,  
 J. E. Subotnik,  A. J. W. Thom,  A. Tkatchenko,  D. G. Truhlar,  
 T. Van Voorhis,  T. A. Wesolowski,  K. B. Whaley,  H. L. Woodcock III,  
 P. M. Zimmerman,  S. Faraji,  P. M. W. Gill,  M. Head-Gordon,  
 J. M. Herbert,  A. I. Krylov

 Contributors to earlier versions of Q-Chem not listed above: 
 R. D. Adamson,  B. Austin,  R. Baer,  J. Baker,  G. J. O. Beran,  
 K. Brandhorst,  S. T. Brown,  E. F. C. Byrd,  A. K. Chakraborty,  
 G. K. L. Chan,  Chun-Min Chang,  Yunqing Chen,  C.-L. Cheng,  
 Siu Hung Chien,  D. M. Chipman,  D. L. Crittenden,  H. Dachsel,  
 R. J. Doerksen,  A. D. Dutoi,  R. G. Edgar,  J. Fosso-Tande,  
 L. Fusti-Molnar,  D. Ghosh,  A. Ghysels,  A. Golubeva-Zadorozhnaya,  
 J. Gonthier,  M. S. Gordon,  S. R. Gwaltney,  G. Hawkins,  J. E. Herr,  
 A. Heyden,  S. Hirata,  E. G. Hohenstein,  G. Kedziora,  F. J. Keil,  
 C. Kelley,  Jihan Kim,  R. A. King,  R. Z. Khaliullin,  P. P. Korambath,  
 W. Kurlancheek,  A. Laurent,  A. M. Lee,  M. S. Lee,  S. V. Levchenko,  
 Ching Yeh Lin,  D. Liotard,  E. Livshits,  R. C. Lochan,  I. Lotan,  
 L. A. Martinez-Martinez,  P. E. Maslen,  N. Nair,  D. P. O'Neill,  
 D. Neuhauser,  E. Neuscamman,  C. M. Oana,  R. Olivares-Amaya,  R. Olson,  
 T. M. Perrine,  B. Peters,  P. A. Pieniazek,  A. Prociuk,  Y. M. Rhee,  
 J. Ritchie,  M. A. Rohrdanz,  E. Rosta,  N. J. Russ,  H. F. Schaefer III,  
 M. W. Schmidt,  N. E. Schultz,  S. Sharma,  N. Shenvi,  C. D. Sherrill,  
 A. C. Simmonett,  A. Sodt,  T. Stein,  D. Stuck,  K. S. Thanthiriwatte,  
 V. Vanovschi,  L. Vogt,  Tao Wang,  A. Warshel,  M. A. Watson,  
 C. F. Williams,  Q. Wu,  X. Xu,  Jun Yang,  W. Zhang,  Yan Zhao

 Please cite Q-Chem as follows:
 Y. Shao et al., Mol. Phys. 113, 184-215 (2015)
 DOI: 10.1080/00268976.2014.952696

 Q-Chem 5.4.0 for Intel X86 EM64T Linux

 Parts of Q-Chem use Armadillo 9.800.1 (Horizon Scraper).
 http://arma.sourceforge.net/

 Q-Chem begins on Sun Jul 10 04:32:33 2022  

 Host: 
0

     Scratch files written to ./qchem794061//
 May1621 |scratch|qcdevops|jenkins|workspace|build_RNUM    
 Processing $rem in /cm/shared/apps/spack/cpu/opt/spack/linux-centos8-zen2/gcc-10.2.0/qchem-5.4-akfmr7b3t57bfs6qan3padb2wnb2i7cl/config/preferences:
 Processing $rem in /home/theleonzhang/.qchemrc:
 Symmetry turned off for PCM/SM12/SMD calculation
 Core orbitals will be frozen

 Checking the input file for inconsistencies... 	...done.

--------------------------------------------------------------
User input:
--------------------------------------------------------------
$molecule
0 1
C	0.671636	-3.866725	-0.386946
C	-0.530345	-3.703963	0.306544
C	-0.923770	-2.357056	0.533261
H	-1.128109	-4.561092	0.651857
C	0.000000	-1.440664	0.000000
S	1.337557	-2.286957	-0.772250
C	-2.184153	-1.978743	1.260680
H	-2.742769	-2.878678	1.583283
H	-2.863347	-1.376015	0.622180
H	-1.971094	-1.375728	2.168011
C	0.000000	0.000000	0.000000
C	0.747916	0.431772	1.099446
C	1.946425	1.123709	0.776721
H	0.428523	0.247378	2.136088
C	2.137531	1.234018	-0.612546
S	0.816154	0.471179	-1.486809
C	2.888455	1.667564	1.814609
H	2.519842	1.454746	2.836676
H	3.008896	2.767543	1.726239
H	3.901271	1.221850	1.726228
H	2.959587	1.708609	-1.161575
H	0.521098	-4.392713	-1.336254
H	1.418509	-4.392347	0.218374
H	-0.539900	-1.440937	-0.935365
$end

$rem
JOBTYPE		SP
EXCHANGE	HF
CORRELATION	pRIMP2
BASIS		cc-pvtz
METHOD		rimp2
AUX_BASIS	rimp2-cc-pvtz
SOLVENT_METHOD	PCM
PURECART	11111
SYMMETRY	false
MEM_TOTAL	110000
SCF_CONVERGENCE = 6
THRESH=10
$end



$solvent
dielectric 4.90
$end
--------------------------------------------------------------
 ----------------------------------------------------------------
             Standard Nuclear Orientation (Angstroms)
    I     Atom           X                Y                Z
 ----------------------------------------------------------------
    1      C       0.6716360000    -3.8667250000    -0.3869460000
    2      C      -0.5303450000    -3.7039630000     0.3065440000
    3      C      -0.9237700000    -2.3570560000     0.5332610000
    4      H      -1.1281090000    -4.5610920000     0.6518570000
    5      C       0.0000000000    -1.4406640000     0.0000000000
    6      S       1.3375570000    -2.2869570000    -0.7722500000
    7      C      -2.1841530000    -1.9787430000     1.2606800000
    8      H      -2.7427690000    -2.8786780000     1.5832830000
    9      H      -2.8633470000    -1.3760150000     0.6221800000
   10      H      -1.9710940000    -1.3757280000     2.1680110000
   11      C       0.0000000000     0.0000000000     0.0000000000
   12      C       0.7479160000     0.4317720000     1.0994460000
   13      C       1.9464250000     1.1237090000     0.7767210000
   14      H       0.4285230000     0.2473780000     2.1360880000
   15      C       2.1375310000     1.2340180000    -0.6125460000
   16      S       0.8161540000     0.4711790000    -1.4868090000
   17      C       2.8884550000     1.6675640000     1.8146090000
   18      H       2.5198420000     1.4547460000     2.8366760000
   19      H       3.0088960000     2.7675430000     1.7262390000
   20      H       3.9012710000     1.2218500000     1.7262280000
   21      H       2.9595870000     1.7086090000    -1.1615750000
   22      H       0.5210980000    -4.3927130000    -1.3362540000
   23      H       1.4185090000    -4.3923470000     0.2183740000
   24      H      -0.5399000000    -1.4409370000    -0.9353650000
 ----------------------------------------------------------------
 Nuclear Repulsion Energy =         903.99186951 hartrees
 There are       52 alpha and       52 beta electrons

 Q-Chem warning in module forms1/BasisType.C, line 2236:

 You are not using the predefined 5D/6D in this basis set.

 Requested basis set is cc-pVTZ
 There are 196 shells and 536 basis functions

 Total QAlloc Memory Limit 110000 MB
 Mega-Array Size       188 MB
 MEM_STATIC part       192 MB
 Discretize the solute cavity surface with Lebedev spheres
	Using 110 Lebedev grid points for each H atom
	Using 194 Lebedev grid points for other atoms
	Atomic van der Waals radii will be scaled by 1.20
 Remove points where switching function is < 1.0e-08
 Keep 1579 surface tesserae and discard 2069 interior tesserae
 Molecular Surface Area = 231.657 Angst**2
 Requested basis set is rimp2-cc-pVTZ
 There are 414 shells and 1414 basis functions
 A cutoff of  1.0D-10 yielded  14416 shell pairs
 There are    104562 function pairs (    134106 Cartesian)
 Smallest overlap matrix eigenvalue = 6.42E-05

 Scale SEOQF with 1.000000e-01/1.000000e-01/1.000000e-01

 Standard Electronic Orientation quadrupole field applied
 Nucleus-field energy     =     0.0000000279 hartrees
 Guess from superposition of atomic densities
 Warning:  Energy on first SCF cycle will be non-variational
 SAD guess density has 104.000000 electrons

 -----------------------------------------------------------------------
  General SCF calculation program by
  Eric Jon Sundstrom, Paul Horn, Yuezhi Mao, Dmitri Zuev, Alec White,
  David Stuck, Shaama M.S., Shane Yost, Joonho Lee, David Small,
  Daniel Levine, Susi Lehtola, Hugh Burton, Evgeny Epifanovsky,
  Bang C. Huynh
 -----------------------------------------------------------------------
 Hartree-Fock
 A restricted SCF calculation will be
 performed using DIIS
 SCF converges when DIIS error is below 1.0e-06
 ---------------------------------------
  Cycle       Energy         DIIS error
 ---------------------------------------
    1   -1186.1738568639      2.41e-02  
    2   -1180.5359741392      1.54e-03  
    3   -1180.6633662492      5.38e-04  
    4   -1180.6769298120      2.67e-04  
    5   -1180.6804103561      5.14e-05  
    6   -1180.6806575637      2.19e-05  
    7   -1180.6807259725      1.11e-05  
    8   -1180.6807475889      5.30e-06  
    9   -1180.6807535876      2.47e-06  
   10   -1180.6807547721      7.92e-07  Convergence criterion met
 ---------------------------------------
 SCF time:   CPU 611.83s  wall 615.00s 

************** Final PCM Free Energy Summary **************
 G_electrostatic  =      -0.01015643 hartree =      -6.37325787 kcal/mol
 G_cavitation     =       0.00000000 hartree =       0.00000000 kcal/mol
 G_dispersion     =       0.00000000 hartree =       0.00000000 kcal/mol
 G_repulsion      =       0.00000000 hartree =       0.00000000 kcal/mol
 --------------------------------------------------
 Non-electrostatic Free Energy =       0.00000000 hartree =       0.00000000 kcal/mol
 Total                         =      -0.01015643 hartree =      -6.37325787 kcal/mol
 --------------------------------------------------
 SCF Energy (H0 + V/2)                       =   -1180.68075477 
 Solute Internal Energy (H0)                 =   -1180.67059834 
 Total Free Energy (H0 + V/2 + non-elec)     =   -1180.68075477 hartree
                                             = -740888.35584691 kcal/mol
***********************************************************

 SCF   energy in the final basis set =    -1180.6807547721
 Total energy in the final basis set =    -1180.6807547721


 --------------------------------------------------------------
  Generalized many-body perturbation theory program
  by Joonho Lee, Fazle Rob, Xintian Feng, Evgeny Epifanovsky

 No regularization used 
 (reg. param. = 0.0000e+00)
  (P|Q)^-1/2 Time:  CPU 1.95 s  wall 1.96 s

 In RI-MP2 calculation: 
 # of frozen core orbitals: 20

 Components of the RIMP2 correlation energy:
        aaaa    correlation energy =        -0.2545589621 a.u.
        abab    correlation energy =        -1.5126773169 a.u.
        bbbb    correlation energy =        -0.2545589621 a.u.
        non-Brillouin singles      =        -0.0000000000 a.u.
        total same-spin energy     =        -0.5091179241 a.u.
        total opposite-spin energy =        -1.5126773169 a.u.

 Total  RIMP2   correlation energy =        -2.0217952410 a.u.
        RIMP2         total energy =     -1182.7025500131 a.u.

 RI-MP2 Energy Time:  CPU 82.41 s  wall 82.71 s
 
 --------------------------------------------------------------
 
                    Orbital Energies (a.u.)
 --------------------------------------------------------------
 
 Alpha MOs
 -- Occupied --
-91.9815 -91.9302 -11.2907 -11.2592 -11.2556 -11.2519 -11.2479 -11.2452
-11.2329 -11.2300 -11.2289 -11.2107  -8.9825  -8.9355  -6.6633  -6.6625
 -6.6623  -6.6168  -6.6157  -6.6144  -1.2044  -1.1528  -1.0577  -1.0262
 -0.9988  -0.9656  -0.9068  -0.9017  -0.8100  -0.7541  -0.7510  -0.7038
 -0.6485  -0.6271  -0.6150  -0.5888  -0.5804  -0.5725  -0.5643  -0.5506
 -0.5409  -0.5334  -0.5075  -0.5046  -0.4879  -0.4730  -0.4544  -0.4370
 -0.3580  -0.3270  -0.3189  -0.2663
 -- Virtual --
  0.0562   0.1301   0.1403   0.1558   0.1622   0.1675   0.1766   0.1810
  0.1899   0.2040   0.2080   0.2158   0.2255   0.2315   0.2397   0.2439
  0.2462   0.2626   0.2751   0.2937   0.3076   0.3336   0.3443   0.3485
  0.3539   0.3741   0.3767   0.3879   0.3889   0.3914   0.4195   0.4254
  0.4293   0.4338   0.4486   0.4555   0.4726   0.4769   0.4867   0.4923
  0.5025   0.5062   0.5183   0.5244   0.5357   0.5430   0.5533   0.5649
  0.5691   0.5766   0.5881   0.5990   0.6035   0.6113   0.6127   0.6159
  0.6230   0.6311   0.6340   0.6374   0.6399   0.6484   0.6517   0.6645
  0.6664   0.6737   0.6929   0.6966   0.7010   0.7043   0.7217   0.7270
  0.7405   0.7500   0.7597   0.7742   0.7942   0.8002   0.8115   0.8190
  0.8338   0.8411   0.8604   0.8615   0.8722   0.8889   0.8988   0.9096
  0.9287   0.9384   0.9572   0.9690   0.9891   0.9913   1.0096   1.0232
  1.0274   1.0385   1.0468   1.0517   1.0618   1.0665   1.0785   1.0858
  1.1036   1.1134   1.1176   1.1335   1.1455   1.1714   1.1740   1.1767
  1.1842   1.1977   1.2048   1.2097   1.2258   1.2289   1.2359   1.2411
  1.2568   1.2670   1.2725   1.2740   1.2841   1.2935   1.3057   1.3085
  1.3259   1.3340   1.3589   1.3736   1.3769   1.3908   1.4063   1.4134
  1.4222   1.4288   1.4427   1.4622   1.4757   1.4780   1.4915   1.4997
  1.5101   1.5135   1.5222   1.5310   1.5388   1.5506   1.5543   1.5622
  1.5703   1.5726   1.5853   1.5914   1.6095   1.6272   1.6403   1.6448
  1.6609   1.6646   1.6776   1.6924   1.7007   1.7109   1.7221   1.7380
  1.7431   1.7488   1.7618   1.7731   1.8098   1.8216   1.8345   1.8642
  1.8752   1.9001   1.9053   1.9359   1.9704   1.9773   1.9950   2.0212
  2.0307   2.0409   2.0549   2.0674   2.0932   2.1051   2.1154   2.1611
  2.1777   2.1881   2.1967   2.2301   2.2393   2.2508   2.2612   2.2798
  2.3183   2.3361   2.3437   2.3864   2.4242   2.4538   2.4761   2.4833
  2.4915   2.5201   2.5309   2.5558   2.5717   2.6046   2.6270   2.6389
  2.6471   2.6584   2.6657   2.6688   2.6789   2.7058   2.7144   2.7335
  2.7406   2.7498   2.7653   2.7842   2.7995   2.8062   2.8176   2.8319
  2.8452   2.8576   2.8602   2.8856   2.8972   2.9031   2.9123   2.9200
  2.9523   2.9664   2.9762   2.9898   3.0030   3.0131   3.0313   3.0473
  3.0563   3.0737   3.1077   3.1087   3.1152   3.1261   3.1407   3.1435
  3.1566   3.1672   3.1717   3.1883   3.1930   3.2023   3.2040   3.2180
  3.2285   3.2353   3.2478   3.2519   3.2586   3.2695   3.3001   3.3140
  3.3244   3.3290   3.3434   3.3469   3.3508   3.3656   3.3702   3.3763
  3.3789   3.3912   3.3938   3.4053   3.4123   3.4175   3.4187   3.4337
  3.4465   3.4552   3.4587   3.4662   3.4959   3.5039   3.5132   3.5188
  3.5282   3.5346   3.5374   3.5469   3.5625   3.5662   3.5747   3.5980
  3.6057   3.6196   3.6219   3.6390   3.6405   3.6466   3.6612   3.6684
  3.6803   3.6928   3.7077   3.7136   3.7246   3.7367   3.7445   3.7458
  3.7486   3.7588   3.7765   3.7838   3.7925   3.7983   3.8138   3.8194
  3.8396   3.8561   3.8630   3.8852   3.8890   3.9053   3.9320   3.9375
  3.9417   3.9491   3.9563   3.9726   3.9819   4.0024   4.0113   4.0224
  4.0362   4.0485   4.0637   4.0727   4.0872   4.0908   4.1041   4.1192
  4.1234   4.1437   4.1518   4.1602   4.1637   4.1823   4.2020   4.2040
  4.2147   4.2280   4.2402   4.2626   4.2676   4.2713   4.2774   4.2872
  4.2975   4.3061   4.3246   4.3255   4.3486   4.3585   4.3634   4.3754
  4.3856   4.4001   4.4032   4.4096   4.4197   4.4241   4.4335   4.4509
  4.4604   4.4669   4.4784   4.4807   4.5088   4.5209   4.5283   4.5564
  4.5820   4.6002   4.6045   4.6152   4.6421   4.6509   4.6652   4.6817
  4.6842   4.7132   4.7235   4.7580   4.7859   4.8181   4.8412   4.8487
  4.8739   4.8972   4.9011   4.9226   4.9321   4.9542   4.9724   4.9866
  5.0336   5.0405   5.0525   5.1049   5.1117   5.1311   5.1517   5.1671
  5.1897   5.2153   5.2270   5.2660   5.2861   5.2968   5.3033   5.3190
  5.3422   5.3633   5.3862   5.3934   5.4067   5.4202   5.4494   5.4518
  5.4696   5.5119   5.5273   5.5360   5.5517   5.5660   5.5737   5.6009
  5.6184   5.6264   5.6357   5.6736   5.6837   5.6969   5.7201   5.7347
  5.7618   5.7885   5.8087   5.9763   6.0293   6.0700   6.0973   6.1633
  6.2116   6.2265   6.2293   6.2340   6.2610   6.2725   6.2998   6.3315
  6.3724   6.3881   9.3854  10.5097  12.6713  12.8766  13.1808  13.9568
 14.1096  14.2494  14.2740  14.6022
 --------------------------------------------------------------
 
          Ground-State Mulliken Net Atomic Charges

     Atom                 Charge (a.u.)
  ----------------------------------------
      1 C                    -0.091815
      2 C                    -0.327437
      3 C                    -0.076394
      4 H                     0.171697
      5 C                     0.066447
      6 S                    -0.183474
      7 C                    -0.273806
      8 H                     0.111576
      9 H                     0.103190
     10 H                     0.102356
     11 C                    -0.182203
     12 C                    -0.075628
     13 C                    -0.026805
     14 H                     0.196035
     15 C                    -0.161014
     16 S                     0.024696
     17 C                    -0.269680
     18 H                     0.102313
     19 H                     0.107494
     20 H                     0.106602
     21 H                     0.203256
     22 H                     0.104374
     23 H                     0.107983
     24 H                     0.160234
  ----------------------------------------
  Sum of atomic charges =     0.000000

 -----------------------------------------------------------------
                    Cartesian Multipole Moments
 -----------------------------------------------------------------
    Charge (ESU x 10^10)
                -0.0000
    Dipole Moment (Debye)
         X       0.5138      Y       1.1646      Z       2.0639
       Tot       2.4249
    Quadrupole Moments (Debye-Ang)
        XX     -82.5348     XY       9.6637     YY     -84.8186
        XZ       0.1179     YZ      -0.2426     ZZ     -84.5878
    Octopole Moments (Debye-Ang^2)
       XXX    -157.1243    XXY      98.9090    XYY     -53.2521
       YYY     217.9201    XXZ      -2.1415    XYZ      -0.2310
       YYZ      -4.5707    XZZ     -53.1473    YZZ      86.5525
       ZZZ       2.7416
    Hexadecapole Moments (Debye-Ang^3)
      XXXX   -1247.3974   XXXY    -148.3113   XXYY    -585.8673
      XYYY    -199.5995   YYYY   -2214.9906   XXXZ      20.7511
      XXYZ     -40.1117   XYYZ      -4.0769   YYYZ     -45.7052
      XXZZ    -315.5306   XYZZ     -53.6834   YYZZ    -512.4350
      XZZZ      40.1143   YZZZ     -48.0463   ZZZZ    -676.0307
 -----------------------------------------------------------------
 Total job time:  699.40s(wall), 695.20s(cpu) 
 Sun Jul 10 04:44:13 2022

        *************************************************************
        *                                                           *
        *  Thank you very much for using Q-Chem.  Have a nice day.  *
        *                                                           *
        *************************************************************


remove work dirs ./qchem794061.0 -- ./qchem794061.-1
rm -rf ./qchem794061
