You are running Q-Chem version: 5.4.0

#
# job setting
#
local host:  exp-1-41
current dir: /expanse/lustre/scratch/theleonzhang/temp_project/Hydrogenated_Rotation_Test
input file:  Methylthiophene_Phi_40_Theta_240_Methylthiophene_Hydrogenated.qcin
output file: 
nprocs     : 0
nthreads   : 1
#
# qchem installation setting
#
QC:          /cm/shared/apps/spack/cpu/opt/spack/linux-centos8-zen2/gcc-10.2.0/qchem-5.4-akfmr7b3t57bfs6qan3padb2wnb2i7cl
QCAUX:       /cm/shared/apps/spack/cpu/opt/spack/linux-centos8-zen2/gcc-10.2.0/qchem-5.4-akfmr7b3t57bfs6qan3padb2wnb2i7cl/qcaux
QCPROG:      /cm/shared/apps/spack/cpu/opt/spack/linux-centos8-zen2/gcc-10.2.0/qchem-5.4-akfmr7b3t57bfs6qan3padb2wnb2i7cl/exe/qcprog.exe_s
QCPROG_S:    /cm/shared/apps/spack/cpu/opt/spack/linux-centos8-zen2/gcc-10.2.0/qchem-5.4-akfmr7b3t57bfs6qan3padb2wnb2i7cl/exe/qcprog.exe_s
PARALLEL:    -DSERIAL
QCMPI:       mpich
#
# qchem directory setting
#
qcrun:       qchem1144394
QCSCRATCH:   .
QCLOCALSCR:  
QCTMPDIR:    .
QCFILEPREF:  ./qchem1144394
QCSAVEDIR:   
workdirs:    ./qchem1144394
workdir0:    ./qchem1144394
partmpdirs =  
#
# parallel setting
#
QCRSH:           ssh
QCMPI:           mpich
QCMPIRUN:        /cm/shared/apps/spack/cpu/opt/spack/linux-centos8-zen2/gcc-10.2.0/qchem-5.4-akfmr7b3t57bfs6qan3padb2wnb2i7cl/bin/mpi/mpirun_qchem
QCMACHINEFILE:   ./qchem1144394/hostfile

#
# env setting
#
exported envs:   QC QCAUX QCSCRATCH QCRUNNAME QCFILEPREF QCPROG QCPROG_S GUIFILE

Running Job 1 of 1 Methylthiophene_Phi_40_Theta_240_Methylthiophene_Hydrogenated.qcin
qchem Methylthiophene_Phi_40_Theta_240_Methylthiophene_Hydrogenated.qcin_1144394.0 ./qchem1144394/ 0
/cm/shared/apps/spack/cpu/opt/spack/linux-centos8-zen2/gcc-10.2.0/qchem-5.4-akfmr7b3t57bfs6qan3padb2wnb2i7cl/exe/qcprog.exe_s Methylthiophene_Phi_40_Theta_240_Methylthiophene_Hydrogenated.qcin_1144394.0 ./qchem1144394/
                  Welcome to Q-Chem
     A Quantum Leap Into The Future Of Chemistry


 Q-Chem 5.4, Q-Chem, Inc., Pleasanton, CA (2021)

 License issued to: University of California, San Diego (site)

 E. Epifanovsky,  A. T. B. Gilbert,  Xintian Feng,  Joonho Lee,  Yuezhi Mao,  
 N. Mardirossian,  P. Pokhilko,  A. White,  M. Wormit,  M. P. Coons,  
 A. L. Dempwolff,  Zhengting Gan,  D. Hait,  P. R. Horn,  L. D. Jacobson,  
 I. Kaliman,  J. Kussmann,  A. W. Lange,  Ka Un Lao,  D. S. Levine,  Jie Liu,  
 S. C. McKenzie,  A. F. Morrison,  K. Nanda,  F. Plasser,  D. R. Rehn,  
 M. L. Vidal,  Zhi-Qiang You,  Ying Zhu,  B. Alam,  B. Albrecht,  
 A. Aldossary,  E. Alguire,  J. H. Andersen,  D. Barton,  K. Begam,  A. Behn,  
 Y. A. Bernard,  E. J. Berquist,  H. Burton,  A. Carreras,  K. Carter-Fenk,  
 R. Chakraborty,  A. D. Chien,  K. D. Closser,  V. Cofer-Shabica,  
 S. Dasgupta,  Jia Deng,  M. de Wergifosse,  M. Diedenhofen,  Hainam Do,  
 S. Ehlert,  Po-Tung Fang,  S. Fatehi,  Qingguo Feng,  J. Gayvert,  
 Qinghui Ge,  G. Gidofalvi,  M. Goldey,  J. Gomes,  C. Gonzalez-Espinoza,  
 S. Gulania,  A. Gunina,  M. W. D. Hanson-Heine,  P. H. P. Harbach,  
 A. W. Hauser,  M. F. Herbst,  M. Hernandez Vera,  M. Hodecker,  
 Z. C. Holden,  S. Houck,  Xunkun Huang,  Kerwin Hui,  B. C. Huynh,  
 M. Ivanov,  Hyunjun Ji,  Hanjie Jiang,  B. Kaduk,  S. Kaehler,  
 K. Khistyaev,  Jaehoon Kim,  P. Klunzinger,  Z. Koczor-Benda,  
 Joong Hoon Koh,  D. Kosenkov,  L. Koulias,  T. Kowalczyk,  C. M. Krauter,  
 K. Kue,  A. Kunitsa,  T. Kus,  A. Landau,  K. V. Lawler,  D. Lefrancois,  
 S. Lehtola,  Rain Li,  Yi-Pei Li,  Jiashu Liang,  M. Liebenthal,  
 Hung-Hsuan Lin,  You-Sheng Lin,  Fenglai Liu,  Kuan-Yu Liu,  
 M. Loipersberger,  A. Luenser,  A. Manjanath,  P. Manohar,  E. Mansoor,  
 S. F. Manzer,  Shan-Ping Mao,  A. V. Marenich,  T. Markovich,  S. Mason,  
 S. A. Maurer,  P. F. McLaughlin,  M. F. S. J. Menger,  J.-M. Mewes,  
 S. A. Mewes,  P. Morgante,  J. W. Mullinax,  T. S. Nguyen-Beck,  
 K. J. Oosterbaan,  G. Paran,  Alexander C. Paul,  Suranjan K. Paul,  
 F. Pavosevic,  Zheng Pei,  S. Prager,  E. I. Proynov,  E. Ramos,  B. Rana,  
 A. E. Rask,  A. Rettig,  R. M. Richard,  F. Rob,  E. Rossomme,  T. Scheele,  
 M. Scheurer,  M. Schneider,  N. Sergueev,  S. M. Sharada,  W. Skomorowski,  
 D. W. Small,  C. J. Stein,  Yu-Chuan Su,  E. J. Sundstrom,  Zhen Tao,  
 J. Thirman,  T. Tsuchimochi,  N. M. Tubman,  S. P. Veccham,  O. Vydrov,  
 J. Wenzel,  J. Witte,  A. Yamada,  Kun Yao,  S. Yeganeh,  S. R. Yost,  
 A. Zech,  Igor Ying Zhang,  Xing Zhang,  Yu Zhang,  D. Zuev,  
 A. Aspuru-Guzik,  A. T. Bell,  N. A. Besley,  K. B. Bravaya,  B. R. Brooks,  
 D. Casanova,  Jeng-Da Chai,  S. Coriani,  C. J. Cramer,  
 A. E. DePrince, III,  R. A. DiStasio Jr.,  A. Dreuw,  B. D. Dunietz,  
 T. R. Furlani,  W. A. Goddard III,  S. Grimme,  S. Hammes-Schiffer,  
 T. Head-Gordon,  W. J. Hehre,  Chao-Ping Hsu,  T.-C. Jagau,  Yousung Jung,  
 A. Klamt,  Jing Kong,  D. S. Lambrecht,  WanZhen Liang,  N. J. Mayhall,  
 C. W. McCurdy,  J. B. Neaton,  C. Ochsenfeld,  J. A. Parkhill,  R. Peverati,  
 V. A. Rassolov,  Yihan Shao,  L. V. Slipchenko,  T. Stauch,  R. P. Steele,  
 J. E. Subotnik,  A. J. W. Thom,  A. Tkatchenko,  D. G. Truhlar,  
 T. Van Voorhis,  T. A. Wesolowski,  K. B. Whaley,  H. L. Woodcock III,  
 P. M. Zimmerman,  S. Faraji,  P. M. W. Gill,  M. Head-Gordon,  
 J. M. Herbert,  A. I. Krylov

 Contributors to earlier versions of Q-Chem not listed above: 
 R. D. Adamson,  B. Austin,  R. Baer,  J. Baker,  G. J. O. Beran,  
 K. Brandhorst,  S. T. Brown,  E. F. C. Byrd,  A. K. Chakraborty,  
 G. K. L. Chan,  Chun-Min Chang,  Yunqing Chen,  C.-L. Cheng,  
 Siu Hung Chien,  D. M. Chipman,  D. L. Crittenden,  H. Dachsel,  
 R. J. Doerksen,  A. D. Dutoi,  R. G. Edgar,  J. Fosso-Tande,  
 L. Fusti-Molnar,  D. Ghosh,  A. Ghysels,  A. Golubeva-Zadorozhnaya,  
 J. Gonthier,  M. S. Gordon,  S. R. Gwaltney,  G. Hawkins,  J. E. Herr,  
 A. Heyden,  S. Hirata,  E. G. Hohenstein,  G. Kedziora,  F. J. Keil,  
 C. Kelley,  Jihan Kim,  R. A. King,  R. Z. Khaliullin,  P. P. Korambath,  
 W. Kurlancheek,  A. Laurent,  A. M. Lee,  M. S. Lee,  S. V. Levchenko,  
 Ching Yeh Lin,  D. Liotard,  E. Livshits,  R. C. Lochan,  I. Lotan,  
 L. A. Martinez-Martinez,  P. E. Maslen,  N. Nair,  D. P. O'Neill,  
 D. Neuhauser,  E. Neuscamman,  C. M. Oana,  R. Olivares-Amaya,  R. Olson,  
 T. M. Perrine,  B. Peters,  P. A. Pieniazek,  A. Prociuk,  Y. M. Rhee,  
 J. Ritchie,  M. A. Rohrdanz,  E. Rosta,  N. J. Russ,  H. F. Schaefer III,  
 M. W. Schmidt,  N. E. Schultz,  S. Sharma,  N. Shenvi,  C. D. Sherrill,  
 A. C. Simmonett,  A. Sodt,  T. Stein,  D. Stuck,  K. S. Thanthiriwatte,  
 V. Vanovschi,  L. Vogt,  Tao Wang,  A. Warshel,  M. A. Watson,  
 C. F. Williams,  Q. Wu,  X. Xu,  Jun Yang,  W. Zhang,  Yan Zhao

 Please cite Q-Chem as follows:
 Y. Shao et al., Mol. Phys. 113, 184-215 (2015)
 DOI: 10.1080/00268976.2014.952696

 Q-Chem 5.4.0 for Intel X86 EM64T Linux

 Parts of Q-Chem use Armadillo 9.800.1 (Horizon Scraper).
 http://arma.sourceforge.net/

 Q-Chem begins on Sun Jul 10 03:44:52 2022  

 Host: 
0

     Scratch files written to ./qchem1144394//
 May1621 |scratch|qcdevops|jenkins|workspace|build_RNUM    
 Processing $rem in /cm/shared/apps/spack/cpu/opt/spack/linux-centos8-zen2/gcc-10.2.0/qchem-5.4-akfmr7b3t57bfs6qan3padb2wnb2i7cl/config/preferences:
 Processing $rem in /home/theleonzhang/.qchemrc:
 Symmetry turned off for PCM/SM12/SMD calculation
 Core orbitals will be frozen

 Checking the input file for inconsistencies... 	...done.

--------------------------------------------------------------
User input:
--------------------------------------------------------------
$molecule
0 1
C	0.671636	-3.866725	-0.386946
C	-0.530345	-3.703963	0.306544
C	-0.923770	-2.357056	0.533261
H	-1.128109	-4.561092	0.651857
C	-0.000000	-1.440664	-0.000000
S	1.337557	-2.286957	-0.772250
C	-2.184153	-1.978743	1.260680
H	-2.742769	-2.878678	1.583283
H	-2.863347	-1.376015	0.622180
H	-1.971094	-1.375728	2.168011
C	0.000000	0.000000	0.000000
C	0.555137	0.661535	1.099446
C	1.444710	1.721658	0.776721
H	0.318072	0.379023	2.136088
C	1.586563	1.890676	-0.612546
S	0.605781	0.721904	-1.486809
C	2.143920	2.554907	1.814609
H	1.870325	2.228851	2.836676
H	1.880882	3.629742	1.726239
H	3.248098	2.482476	1.726228
H	2.196723	2.617806	-1.161575
H	0.521098	-4.392713	-1.336254
H	1.418509	-4.392347	0.218374
H	-0.539900	-1.440937	-0.935365
$end

$rem
JOBTYPE		SP
EXCHANGE	HF
CORRELATION	pRIMP2
BASIS		cc-pvtz
METHOD		rimp2
AUX_BASIS	rimp2-cc-pvtz
SOLVENT_METHOD	PCM
PURECART	11111
SYMMETRY	false
MEM_TOTAL	110000
SCF_CONVERGENCE = 6
THRESH=10
$end



$solvent
dielectric 4.90
$end
--------------------------------------------------------------
 ----------------------------------------------------------------
             Standard Nuclear Orientation (Angstroms)
    I     Atom           X                Y                Z
 ----------------------------------------------------------------
    1      C       0.6716360000    -3.8667250000    -0.3869460000
    2      C      -0.5303450000    -3.7039630000     0.3065440000
    3      C      -0.9237700000    -2.3570560000     0.5332610000
    4      H      -1.1281090000    -4.5610920000     0.6518570000
    5      C       0.0000000000    -1.4406640000     0.0000000000
    6      S       1.3375570000    -2.2869570000    -0.7722500000
    7      C      -2.1841530000    -1.9787430000     1.2606800000
    8      H      -2.7427690000    -2.8786780000     1.5832830000
    9      H      -2.8633470000    -1.3760150000     0.6221800000
   10      H      -1.9710940000    -1.3757280000     2.1680110000
   11      C       0.0000000000     0.0000000000     0.0000000000
   12      C       0.5551370000     0.6615350000     1.0994460000
   13      C       1.4447100000     1.7216580000     0.7767210000
   14      H       0.3180720000     0.3790230000     2.1360880000
   15      C       1.5865630000     1.8906760000    -0.6125460000
   16      S       0.6057810000     0.7219040000    -1.4868090000
   17      C       2.1439200000     2.5549070000     1.8146090000
   18      H       1.8703250000     2.2288510000     2.8366760000
   19      H       1.8808820000     3.6297420000     1.7262390000
   20      H       3.2480980000     2.4824760000     1.7262280000
   21      H       2.1967230000     2.6178060000    -1.1615750000
   22      H       0.5210980000    -4.3927130000    -1.3362540000
   23      H       1.4185090000    -4.3923470000     0.2183740000
   24      H      -0.5399000000    -1.4409370000    -0.9353650000
 ----------------------------------------------------------------
 Nuclear Repulsion Energy =         885.78038591 hartrees
 There are       52 alpha and       52 beta electrons

 Q-Chem warning in module forms1/BasisType.C, line 2236:

 You are not using the predefined 5D/6D in this basis set.

 Requested basis set is cc-pVTZ
 There are 196 shells and 536 basis functions

 Total QAlloc Memory Limit 110000 MB
 Mega-Array Size       188 MB
 MEM_STATIC part       192 MB
 Discretize the solute cavity surface with Lebedev spheres
	Using 110 Lebedev grid points for each H atom
	Using 194 Lebedev grid points for other atoms
	Atomic van der Waals radii will be scaled by 1.20
 Remove points where switching function is < 1.0e-08
 Keep 1602 surface tesserae and discard 2046 interior tesserae
 Molecular Surface Area = 235.870 Angst**2
 Requested basis set is rimp2-cc-pVTZ
 There are 414 shells and 1414 basis functions
 A cutoff of  1.0D-10 yielded  14115 shell pairs
 There are    102175 function pairs (    131049 Cartesian)
 Smallest overlap matrix eigenvalue = 7.31E-05

 Scale SEOQF with 1.000000e-01/1.000000e-01/1.000000e-01

 Standard Electronic Orientation quadrupole field applied
 Nucleus-field energy     =     0.0000000304 hartrees
 Guess from superposition of atomic densities
 Warning:  Energy on first SCF cycle will be non-variational
 SAD guess density has 104.000000 electrons

 -----------------------------------------------------------------------
  General SCF calculation program by
  Eric Jon Sundstrom, Paul Horn, Yuezhi Mao, Dmitri Zuev, Alec White,
  David Stuck, Shaama M.S., Shane Yost, Joonho Lee, David Small,
  Daniel Levine, Susi Lehtola, Hugh Burton, Evgeny Epifanovsky,
  Bang C. Huynh
 -----------------------------------------------------------------------
 Hartree-Fock
 A restricted SCF calculation will be
 performed using DIIS
 SCF converges when DIIS error is below 1.0e-06
 ---------------------------------------
  Cycle       Energy         DIIS error
 ---------------------------------------
    1   -1186.0700290858      2.40e-02  
    2   -1180.5831280621      1.54e-03  
    3   -1180.7085150989      5.60e-04  
    4   -1180.7218773839      2.96e-04  
    5   -1180.7259541005      6.02e-05  
    6   -1180.7262024462      2.49e-05  
    7   -1180.7262679102      1.04e-05  
    8   -1180.7262852716      4.91e-06  
    9   -1180.7262897843      1.83e-06  
   10   -1180.7262905244      6.17e-07  Convergence criterion met
 ---------------------------------------
 SCF time:   CPU 568.50s  wall 570.00s 

************** Final PCM Free Energy Summary **************
 G_electrostatic  =      -0.00951274 hartree =      -5.96933528 kcal/mol
 G_cavitation     =       0.00000000 hartree =       0.00000000 kcal/mol
 G_dispersion     =       0.00000000 hartree =       0.00000000 kcal/mol
 G_repulsion      =       0.00000000 hartree =       0.00000000 kcal/mol
 --------------------------------------------------
 Non-electrostatic Free Energy =       0.00000000 hartree =       0.00000000 kcal/mol
 Total                         =      -0.00951274 hartree =      -5.96933528 kcal/mol
 --------------------------------------------------
 SCF Energy (H0 + V/2)                       =   -1180.72629052 
 Solute Internal Energy (H0)                 =   -1180.71677778 
 Total Free Energy (H0 + V/2 + non-elec)     =   -1180.72629052 hartree
                                             = -740916.92996274 kcal/mol
***********************************************************

 SCF   energy in the final basis set =    -1180.7262905244
 Total energy in the final basis set =    -1180.7262905244


 --------------------------------------------------------------
  Generalized many-body perturbation theory program
  by Joonho Lee, Fazle Rob, Xintian Feng, Evgeny Epifanovsky

 No regularization used 
 (reg. param. = 0.0000e+00)
  (P|Q)^-1/2 Time:  CPU 1.91 s  wall 1.91 s

 In RI-MP2 calculation: 
 # of frozen core orbitals: 20

 Components of the RIMP2 correlation energy:
        aaaa    correlation energy =        -0.2525034655 a.u.
        abab    correlation energy =        -1.5075618776 a.u.
        bbbb    correlation energy =        -0.2525034655 a.u.
        non-Brillouin singles      =        -0.0000000000 a.u.
        total same-spin energy     =        -0.5050069311 a.u.
        total opposite-spin energy =        -1.5075618776 a.u.

 Total  RIMP2   correlation energy =        -2.0125688087 a.u.
        RIMP2         total energy =     -1182.7388593330 a.u.

 RI-MP2 Energy Time:  CPU 79.91 s  wall 80.13 s
 
 --------------------------------------------------------------
 
                    Orbital Energies (a.u.)
 --------------------------------------------------------------
 
 Alpha MOs
 -- Occupied --
-91.9837 -91.9372 -11.2751 -11.2654 -11.2597 -11.2511 -11.2509 -11.2459
-11.2376 -11.2308 -11.2290 -11.2151  -8.9838  -8.9421  -6.6647  -6.6641
 -6.6636  -6.6234  -6.6224  -6.6211  -1.1990  -1.1536  -1.0572  -1.0271
 -0.9994  -0.9643  -0.9099  -0.9007  -0.8121  -0.7566  -0.7455  -0.7030
 -0.6513  -0.6312  -0.6115  -0.5875  -0.5804  -0.5713  -0.5659  -0.5524
 -0.5421  -0.5315  -0.5099  -0.5066  -0.4893  -0.4722  -0.4631  -0.4460
 -0.3562  -0.3362  -0.3174  -0.2713
 -- Virtual --
  0.0734   0.1287   0.1412   0.1546   0.1610   0.1677   0.1779   0.1819
  0.1889   0.2029   0.2057   0.2174   0.2265   0.2311   0.2368   0.2428
  0.2470   0.2621   0.2748   0.2949   0.3176   0.3337   0.3451   0.3484
  0.3579   0.3740   0.3789   0.3879   0.3933   0.3950   0.4142   0.4247
  0.4311   0.4358   0.4469   0.4595   0.4676   0.4757   0.4835   0.4864
  0.5000   0.5097   0.5153   0.5325   0.5357   0.5413   0.5497   0.5612
  0.5721   0.5812   0.5887   0.5935   0.6040   0.6102   0.6109   0.6176
  0.6224   0.6315   0.6356   0.6365   0.6389   0.6407   0.6496   0.6604
  0.6623   0.6678   0.6911   0.6950   0.7012   0.7069   0.7102   0.7213
  0.7351   0.7430   0.7517   0.7680   0.7925   0.7992   0.7999   0.8177
  0.8249   0.8334   0.8562   0.8613   0.8836   0.8892   0.8957   0.9054
  0.9125   0.9452   0.9547   0.9670   0.9721   0.9830   1.0017   1.0086
  1.0252   1.0343   1.0430   1.0471   1.0508   1.0613   1.0736   1.0831
  1.0924   1.0989   1.1130   1.1222   1.1441   1.1629   1.1736   1.1770
  1.1812   1.1894   1.1926   1.2050   1.2123   1.2297   1.2342   1.2433
  1.2506   1.2616   1.2653   1.2752   1.2813   1.2874   1.3054   1.3186
  1.3263   1.3338   1.3428   1.3537   1.3765   1.3924   1.4072   1.4111
  1.4237   1.4329   1.4442   1.4517   1.4636   1.4757   1.4828   1.4927
  1.5066   1.5108   1.5189   1.5275   1.5342   1.5464   1.5562   1.5590
  1.5727   1.5758   1.5806   1.5895   1.6082   1.6247   1.6345   1.6436
  1.6592   1.6724   1.6833   1.6922   1.6964   1.7155   1.7172   1.7310
  1.7511   1.7568   1.7667   1.7820   1.8057   1.8159   1.8323   1.8435
  1.8803   1.8949   1.9131   1.9406   1.9549   1.9731   1.9936   2.0012
  2.0224   2.0369   2.0489   2.0682   2.1005   2.1023   2.1138   2.1612
  2.1710   2.2025   2.2094   2.2275   2.2323   2.2448   2.2564   2.2823
  2.2912   2.3232   2.3308   2.3712   2.4092   2.4244   2.4593   2.4771
  2.4917   2.5057   2.5340   2.5522   2.5686   2.5906   2.6035   2.6253
  2.6388   2.6453   2.6551   2.6695   2.6823   2.6862   2.6998   2.7296
  2.7392   2.7516   2.7651   2.7749   2.7887   2.8002   2.8162   2.8223
  2.8334   2.8448   2.8675   2.8916   2.9002   2.9106   2.9141   2.9292
  2.9357   2.9569   2.9836   2.9997   3.0049   3.0166   3.0271   3.0403
  3.0587   3.0686   3.0805   3.1047   3.1113   3.1129   3.1307   3.1401
  3.1544   3.1555   3.1573   3.1801   3.1828   3.1909   3.1946   3.2157
  3.2275   3.2395   3.2491   3.2513   3.2698   3.2749   3.2986   3.3088
  3.3237   3.3272   3.3352   3.3451   3.3489   3.3605   3.3705   3.3774
  3.3807   3.3855   3.3905   3.3963   3.4090   3.4104   3.4204   3.4302
  3.4443   3.4560   3.4631   3.4696   3.4860   3.4956   3.5078   3.5158
  3.5179   3.5216   3.5382   3.5412   3.5431   3.5618   3.5727   3.5948
  3.6093   3.6193   3.6279   3.6312   3.6337   3.6499   3.6564   3.6660
  3.6747   3.6920   3.6933   3.7088   3.7183   3.7345   3.7391   3.7426
  3.7461   3.7548   3.7644   3.7736   3.7885   3.7901   3.7998   3.8035
  3.8375   3.8406   3.8505   3.8738   3.8847   3.8941   3.9071   3.9282
  3.9370   3.9461   3.9542   3.9732   3.9785   3.9869   3.9951   4.0150
  4.0375   4.0478   4.0561   4.0604   4.0611   4.0822   4.1001   4.1103
  4.1217   4.1284   4.1451   4.1518   4.1580   4.1647   4.1897   4.1981
  4.2053   4.2215   4.2319   4.2569   4.2613   4.2649   4.2731   4.2841
  4.2925   4.3064   4.3146   4.3279   4.3397   4.3523   4.3680   4.3705
  4.3883   4.3947   4.3985   4.4028   4.4161   4.4246   4.4295   4.4550
  4.4585   4.4623   4.4718   4.4776   4.4937   4.5121   4.5265   4.5549
  4.5740   4.5874   4.6030   4.6236   4.6352   4.6512   4.6583   4.6704
  4.7023   4.7129   4.7430   4.7454   4.7568   4.8077   4.8392   4.8506
  4.8644   4.8824   4.8916   4.9181   4.9201   4.9406   4.9785   4.9903
  5.0115   5.0373   5.0668   5.1000   5.1111   5.1284   5.1553   5.1619
  5.1858   5.2069   5.2315   5.2653   5.2824   5.2988   5.3100   5.3205
  5.3403   5.3663   5.3812   5.3976   5.4058   5.4190   5.4432   5.4493
  5.4822   5.5122   5.5327   5.5347   5.5526   5.5580   5.5746   5.5879
  5.6148   5.6238   5.6381   5.6678   5.6799   5.6969   5.7140   5.7442
  5.7600   5.7846   5.8212   5.9609   6.0053   6.0378   6.1121   6.1464
  6.2105   6.2197   6.2252   6.2358   6.2454   6.2800   6.2918   6.3172
  6.3759   6.4120   9.3647  10.5510  12.3854  12.8834  13.1729  13.9731
 14.0589  14.2153  14.2717  14.5819
 --------------------------------------------------------------
 
          Ground-State Mulliken Net Atomic Charges

     Atom                 Charge (a.u.)
  ----------------------------------------
      1 C                    -0.080188
      2 C                    -0.327448
      3 C                    -0.046650
      4 H                     0.173718
      5 C                     0.061928
      6 S                    -0.172144
      7 C                    -0.272878
      8 H                     0.113083
      9 H                     0.103916
     10 H                     0.103231
     11 C                    -0.120302
     12 C                    -0.167141
     13 C                     0.004364
     14 H                     0.189773
     15 C                    -0.204599
     16 S                     0.011726
     17 C                    -0.269957
     18 H                     0.102041
     19 H                     0.107315
     20 H                     0.107415
     21 H                     0.200099
     22 H                     0.106780
     23 H                     0.110846
     24 H                     0.165074
  ----------------------------------------
  Sum of atomic charges =     0.000000

 -----------------------------------------------------------------
                    Cartesian Multipole Moments
 -----------------------------------------------------------------
    Charge (ESU x 10^10)
                -0.0000
    Dipole Moment (Debye)
         X      -0.8317      Y       0.9518      Z       2.0202
       Tot       2.3830
    Quadrupole Moments (Debye-Ang)
        XX     -87.2505     XY       9.5944     YY     -79.1184
        XZ       0.2203     YZ       0.0025     ZZ     -85.2704
    Octopole Moments (Debye-Ang^2)
       XXX    -129.8202    XXY      74.3006    XYY     -30.3747
       YYY     162.6690    XXZ       0.6492    XYZ       0.4997
       YYZ      -5.7368    XZZ     -40.1551    YZZ      69.2606
       ZZZ       2.5754
    Hexadecapole Moments (Debye-Ang^3)
      XXXX    -968.0218   XXXY    -199.5006   XXYY    -573.9931
      XYYY    -210.3664   YYYY   -2479.6389   XXXZ      53.4781
      XXYZ     -45.3628   XYYZ      -1.1997   YYYZ     -76.8960
      XXZZ    -269.9671   XYZZ     -61.6537   YYZZ    -556.7698
      XZZZ      61.7263   YZZZ     -75.5176   ZZZZ    -679.8448
 -----------------------------------------------------------------
 Total job time:  652.94s(wall), 649.32s(cpu) 
 Sun Jul 10 03:55:45 2022

        *************************************************************
        *                                                           *
        *  Thank you very much for using Q-Chem.  Have a nice day.  *
        *                                                           *
        *************************************************************


remove work dirs ./qchem1144394.0 -- ./qchem1144394.-1
rm -rf ./qchem1144394
