You are running Q-Chem version: 5.4.0

#
# job setting
#
local host:  exp-1-30
current dir: /expanse/lustre/scratch/theleonzhang/temp_project/Hydrogenated_Rotation_Test
input file:  Methylthiophene_Phi_60_Theta_230_Methylthiophene_Hydrogenated.qcin
output file: 
nprocs     : 0
nthreads   : 1
#
# qchem installation setting
#
QC:          /cm/shared/apps/spack/cpu/opt/spack/linux-centos8-zen2/gcc-10.2.0/qchem-5.4-akfmr7b3t57bfs6qan3padb2wnb2i7cl
QCAUX:       /cm/shared/apps/spack/cpu/opt/spack/linux-centos8-zen2/gcc-10.2.0/qchem-5.4-akfmr7b3t57bfs6qan3padb2wnb2i7cl/qcaux
QCPROG:      /cm/shared/apps/spack/cpu/opt/spack/linux-centos8-zen2/gcc-10.2.0/qchem-5.4-akfmr7b3t57bfs6qan3padb2wnb2i7cl/exe/qcprog.exe_s
QCPROG_S:    /cm/shared/apps/spack/cpu/opt/spack/linux-centos8-zen2/gcc-10.2.0/qchem-5.4-akfmr7b3t57bfs6qan3padb2wnb2i7cl/exe/qcprog.exe_s
PARALLEL:    -DSERIAL
QCMPI:       mpich
#
# qchem directory setting
#
qcrun:       qchem784687
QCSCRATCH:   .
QCLOCALSCR:  
QCTMPDIR:    .
QCFILEPREF:  ./qchem784687
QCSAVEDIR:   
workdirs:    ./qchem784687
workdir0:    ./qchem784687
partmpdirs =  
#
# parallel setting
#
QCRSH:           ssh
QCMPI:           mpich
QCMPIRUN:        /cm/shared/apps/spack/cpu/opt/spack/linux-centos8-zen2/gcc-10.2.0/qchem-5.4-akfmr7b3t57bfs6qan3padb2wnb2i7cl/bin/mpi/mpirun_qchem
QCMACHINEFILE:   ./qchem784687/hostfile

#
# env setting
#
exported envs:   QC QCAUX QCSCRATCH QCRUNNAME QCFILEPREF QCPROG QCPROG_S GUIFILE

Running Job 1 of 1 Methylthiophene_Phi_60_Theta_230_Methylthiophene_Hydrogenated.qcin
qchem Methylthiophene_Phi_60_Theta_230_Methylthiophene_Hydrogenated.qcin_784687.0 ./qchem784687/ 0
/cm/shared/apps/spack/cpu/opt/spack/linux-centos8-zen2/gcc-10.2.0/qchem-5.4-akfmr7b3t57bfs6qan3padb2wnb2i7cl/exe/qcprog.exe_s Methylthiophene_Phi_60_Theta_230_Methylthiophene_Hydrogenated.qcin_784687.0 ./qchem784687/
                  Welcome to Q-Chem
     A Quantum Leap Into The Future Of Chemistry


 Q-Chem 5.4, Q-Chem, Inc., Pleasanton, CA (2021)

 License issued to: University of California, San Diego (site)

 E. Epifanovsky,  A. T. B. Gilbert,  Xintian Feng,  Joonho Lee,  Yuezhi Mao,  
 N. Mardirossian,  P. Pokhilko,  A. White,  M. Wormit,  M. P. Coons,  
 A. L. Dempwolff,  Zhengting Gan,  D. Hait,  P. R. Horn,  L. D. Jacobson,  
 I. Kaliman,  J. Kussmann,  A. W. Lange,  Ka Un Lao,  D. S. Levine,  Jie Liu,  
 S. C. McKenzie,  A. F. Morrison,  K. Nanda,  F. Plasser,  D. R. Rehn,  
 M. L. Vidal,  Zhi-Qiang You,  Ying Zhu,  B. Alam,  B. Albrecht,  
 A. Aldossary,  E. Alguire,  J. H. Andersen,  D. Barton,  K. Begam,  A. Behn,  
 Y. A. Bernard,  E. J. Berquist,  H. Burton,  A. Carreras,  K. Carter-Fenk,  
 R. Chakraborty,  A. D. Chien,  K. D. Closser,  V. Cofer-Shabica,  
 S. Dasgupta,  Jia Deng,  M. de Wergifosse,  M. Diedenhofen,  Hainam Do,  
 S. Ehlert,  Po-Tung Fang,  S. Fatehi,  Qingguo Feng,  J. Gayvert,  
 Qinghui Ge,  G. Gidofalvi,  M. Goldey,  J. Gomes,  C. Gonzalez-Espinoza,  
 S. Gulania,  A. Gunina,  M. W. D. Hanson-Heine,  P. H. P. Harbach,  
 A. W. Hauser,  M. F. Herbst,  M. Hernandez Vera,  M. Hodecker,  
 Z. C. Holden,  S. Houck,  Xunkun Huang,  Kerwin Hui,  B. C. Huynh,  
 M. Ivanov,  Hyunjun Ji,  Hanjie Jiang,  B. Kaduk,  S. Kaehler,  
 K. Khistyaev,  Jaehoon Kim,  P. Klunzinger,  Z. Koczor-Benda,  
 Joong Hoon Koh,  D. Kosenkov,  L. Koulias,  T. Kowalczyk,  C. M. Krauter,  
 K. Kue,  A. Kunitsa,  T. Kus,  A. Landau,  K. V. Lawler,  D. Lefrancois,  
 S. Lehtola,  Rain Li,  Yi-Pei Li,  Jiashu Liang,  M. Liebenthal,  
 Hung-Hsuan Lin,  You-Sheng Lin,  Fenglai Liu,  Kuan-Yu Liu,  
 M. Loipersberger,  A. Luenser,  A. Manjanath,  P. Manohar,  E. Mansoor,  
 S. F. Manzer,  Shan-Ping Mao,  A. V. Marenich,  T. Markovich,  S. Mason,  
 S. A. Maurer,  P. F. McLaughlin,  M. F. S. J. Menger,  J.-M. Mewes,  
 S. A. Mewes,  P. Morgante,  J. W. Mullinax,  T. S. Nguyen-Beck,  
 K. J. Oosterbaan,  G. Paran,  Alexander C. Paul,  Suranjan K. Paul,  
 F. Pavosevic,  Zheng Pei,  S. Prager,  E. I. Proynov,  E. Ramos,  B. Rana,  
 A. E. Rask,  A. Rettig,  R. M. Richard,  F. Rob,  E. Rossomme,  T. Scheele,  
 M. Scheurer,  M. Schneider,  N. Sergueev,  S. M. Sharada,  W. Skomorowski,  
 D. W. Small,  C. J. Stein,  Yu-Chuan Su,  E. J. Sundstrom,  Zhen Tao,  
 J. Thirman,  T. Tsuchimochi,  N. M. Tubman,  S. P. Veccham,  O. Vydrov,  
 J. Wenzel,  J. Witte,  A. Yamada,  Kun Yao,  S. Yeganeh,  S. R. Yost,  
 A. Zech,  Igor Ying Zhang,  Xing Zhang,  Yu Zhang,  D. Zuev,  
 A. Aspuru-Guzik,  A. T. Bell,  N. A. Besley,  K. B. Bravaya,  B. R. Brooks,  
 D. Casanova,  Jeng-Da Chai,  S. Coriani,  C. J. Cramer,  
 A. E. DePrince, III,  R. A. DiStasio Jr.,  A. Dreuw,  B. D. Dunietz,  
 T. R. Furlani,  W. A. Goddard III,  S. Grimme,  S. Hammes-Schiffer,  
 T. Head-Gordon,  W. J. Hehre,  Chao-Ping Hsu,  T.-C. Jagau,  Yousung Jung,  
 A. Klamt,  Jing Kong,  D. S. Lambrecht,  WanZhen Liang,  N. J. Mayhall,  
 C. W. McCurdy,  J. B. Neaton,  C. Ochsenfeld,  J. A. Parkhill,  R. Peverati,  
 V. A. Rassolov,  Yihan Shao,  L. V. Slipchenko,  T. Stauch,  R. P. Steele,  
 J. E. Subotnik,  A. J. W. Thom,  A. Tkatchenko,  D. G. Truhlar,  
 T. Van Voorhis,  T. A. Wesolowski,  K. B. Whaley,  H. L. Woodcock III,  
 P. M. Zimmerman,  S. Faraji,  P. M. W. Gill,  M. Head-Gordon,  
 J. M. Herbert,  A. I. Krylov

 Contributors to earlier versions of Q-Chem not listed above: 
 R. D. Adamson,  B. Austin,  R. Baer,  J. Baker,  G. J. O. Beran,  
 K. Brandhorst,  S. T. Brown,  E. F. C. Byrd,  A. K. Chakraborty,  
 G. K. L. Chan,  Chun-Min Chang,  Yunqing Chen,  C.-L. Cheng,  
 Siu Hung Chien,  D. M. Chipman,  D. L. Crittenden,  H. Dachsel,  
 R. J. Doerksen,  A. D. Dutoi,  R. G. Edgar,  J. Fosso-Tande,  
 L. Fusti-Molnar,  D. Ghosh,  A. Ghysels,  A. Golubeva-Zadorozhnaya,  
 J. Gonthier,  M. S. Gordon,  S. R. Gwaltney,  G. Hawkins,  J. E. Herr,  
 A. Heyden,  S. Hirata,  E. G. Hohenstein,  G. Kedziora,  F. J. Keil,  
 C. Kelley,  Jihan Kim,  R. A. King,  R. Z. Khaliullin,  P. P. Korambath,  
 W. Kurlancheek,  A. Laurent,  A. M. Lee,  M. S. Lee,  S. V. Levchenko,  
 Ching Yeh Lin,  D. Liotard,  E. Livshits,  R. C. Lochan,  I. Lotan,  
 L. A. Martinez-Martinez,  P. E. Maslen,  N. Nair,  D. P. O'Neill,  
 D. Neuhauser,  E. Neuscamman,  C. M. Oana,  R. Olivares-Amaya,  R. Olson,  
 T. M. Perrine,  B. Peters,  P. A. Pieniazek,  A. Prociuk,  Y. M. Rhee,  
 J. Ritchie,  M. A. Rohrdanz,  E. Rosta,  N. J. Russ,  H. F. Schaefer III,  
 M. W. Schmidt,  N. E. Schultz,  S. Sharma,  N. Shenvi,  C. D. Sherrill,  
 A. C. Simmonett,  A. Sodt,  T. Stein,  D. Stuck,  K. S. Thanthiriwatte,  
 V. Vanovschi,  L. Vogt,  Tao Wang,  A. Warshel,  M. A. Watson,  
 C. F. Williams,  Q. Wu,  X. Xu,  Jun Yang,  W. Zhang,  Yan Zhao

 Please cite Q-Chem as follows:
 Y. Shao et al., Mol. Phys. 113, 184-215 (2015)
 DOI: 10.1080/00268976.2014.952696

 Q-Chem 5.4.0 for Intel X86 EM64T Linux

 Parts of Q-Chem use Armadillo 9.800.1 (Horizon Scraper).
 http://arma.sourceforge.net/

 Q-Chem begins on Sun Jul 10 04:20:34 2022  

 Host: 
0

     Scratch files written to ./qchem784687//
 May1621 |scratch|qcdevops|jenkins|workspace|build_RNUM    
 Processing $rem in /cm/shared/apps/spack/cpu/opt/spack/linux-centos8-zen2/gcc-10.2.0/qchem-5.4-akfmr7b3t57bfs6qan3padb2wnb2i7cl/config/preferences:
 Processing $rem in /home/theleonzhang/.qchemrc:
 Symmetry turned off for PCM/SM12/SMD calculation
 Core orbitals will be frozen

 Checking the input file for inconsistencies... 	...done.

--------------------------------------------------------------
User input:
--------------------------------------------------------------
$molecule
0 1
C	0.594240	-3.866725	-0.497696
C	-0.469057	-3.703963	0.393981
C	-0.817136	-2.357056	0.685571
H	-0.997777	-4.561092	0.837848
C	0.000000	-1.440664	0.000000
S	1.183137	-2.286957	-0.992782
C	-1.932056	-1.978743	1.620802
H	-2.426166	-2.878678	2.035506
H	-2.711806	-1.376015	1.109943
H	-1.564678	-1.375728	2.477350
C	0.000000	0.000000	0.000000
C	0.747916	0.431772	1.099446
C	1.946425	1.123709	0.776721
H	0.428523	0.247378	2.136088
C	2.137531	1.234018	-0.612546
S	0.816154	0.471179	-1.486809
C	2.888455	1.667564	1.814609
H	2.519842	1.454746	2.836676
H	3.008896	2.767543	1.726239
H	3.901271	1.221850	1.726228
H	2.959587	1.708609	-1.161575
H	0.281143	-4.392713	-1.406441
H	1.434879	-4.392347	-0.031265
H	-0.694122	-1.440937	-0.827402
$end

$rem
JOBTYPE		SP
EXCHANGE	HF
CORRELATION	pRIMP2
BASIS		cc-pvtz
METHOD		rimp2
AUX_BASIS	rimp2-cc-pvtz
SOLVENT_METHOD	PCM
PURECART	11111
SYMMETRY	false
MEM_TOTAL	110000
SCF_CONVERGENCE = 6
THRESH=10
$end



$solvent
dielectric 4.90
$end
--------------------------------------------------------------
 ----------------------------------------------------------------
             Standard Nuclear Orientation (Angstroms)
    I     Atom           X                Y                Z
 ----------------------------------------------------------------
    1      C       0.5942400000    -3.8667250000    -0.4976960000
    2      C      -0.4690570000    -3.7039630000     0.3939810000
    3      C      -0.8171360000    -2.3570560000     0.6855710000
    4      H      -0.9977770000    -4.5610920000     0.8378480000
    5      C       0.0000000000    -1.4406640000     0.0000000000
    6      S       1.1831370000    -2.2869570000    -0.9927820000
    7      C      -1.9320560000    -1.9787430000     1.6208020000
    8      H      -2.4261660000    -2.8786780000     2.0355060000
    9      H      -2.7118060000    -1.3760150000     1.1099430000
   10      H      -1.5646780000    -1.3757280000     2.4773500000
   11      C       0.0000000000     0.0000000000     0.0000000000
   12      C       0.7479160000     0.4317720000     1.0994460000
   13      C       1.9464250000     1.1237090000     0.7767210000
   14      H       0.4285230000     0.2473780000     2.1360880000
   15      C       2.1375310000     1.2340180000    -0.6125460000
   16      S       0.8161540000     0.4711790000    -1.4868090000
   17      C       2.8884550000     1.6675640000     1.8146090000
   18      H       2.5198420000     1.4547460000     2.8366760000
   19      H       3.0088960000     2.7675430000     1.7262390000
   20      H       3.9012710000     1.2218500000     1.7262280000
   21      H       2.9595870000     1.7086090000    -1.1615750000
   22      H       0.2811430000    -4.3927130000    -1.4064410000
   23      H       1.4348790000    -4.3923470000    -0.0312650000
   24      H      -0.6941220000    -1.4409370000    -0.8274020000
 ----------------------------------------------------------------
 Nuclear Repulsion Energy =         904.20315243 hartrees
 There are       52 alpha and       52 beta electrons

 Q-Chem warning in module forms1/BasisType.C, line 2236:

 You are not using the predefined 5D/6D in this basis set.

 Requested basis set is cc-pVTZ
 There are 196 shells and 536 basis functions

 Total QAlloc Memory Limit 110000 MB
 Mega-Array Size       188 MB
 MEM_STATIC part       192 MB
 Discretize the solute cavity surface with Lebedev spheres
	Using 110 Lebedev grid points for each H atom
	Using 194 Lebedev grid points for other atoms
	Atomic van der Waals radii will be scaled by 1.20
 Remove points where switching function is < 1.0e-08
 Keep 1578 surface tesserae and discard 2070 interior tesserae
 Molecular Surface Area = 230.941 Angst**2
 Requested basis set is rimp2-cc-pVTZ
 There are 414 shells and 1414 basis functions
 A cutoff of  1.0D-10 yielded  14440 shell pairs
 There are    104656 function pairs (    134210 Cartesian)
 Smallest overlap matrix eigenvalue = 6.58E-05

 Scale SEOQF with 1.000000e-01/1.000000e-01/1.000000e-01

 Standard Electronic Orientation quadrupole field applied
 Nucleus-field energy     =     0.0000000253 hartrees
 Guess from superposition of atomic densities
 Warning:  Energy on first SCF cycle will be non-variational
 SAD guess density has 104.000000 electrons

 -----------------------------------------------------------------------
  General SCF calculation program by
  Eric Jon Sundstrom, Paul Horn, Yuezhi Mao, Dmitri Zuev, Alec White,
  David Stuck, Shaama M.S., Shane Yost, Joonho Lee, David Small,
  Daniel Levine, Susi Lehtola, Hugh Burton, Evgeny Epifanovsky,
  Bang C. Huynh
 -----------------------------------------------------------------------
 Hartree-Fock
 A restricted SCF calculation will be
 performed using DIIS
 SCF converges when DIIS error is below 1.0e-06
 ---------------------------------------
  Cycle       Energy         DIIS error
 ---------------------------------------
    1   -1186.1799398433      2.41e-02  
    2   -1180.5312236114      1.55e-03  
    3   -1180.6587947867      5.40e-04  
    4   -1180.6724262626      2.70e-04  
    5   -1180.6759760097      5.22e-05  
    6   -1180.6762266969      2.24e-05  
    7   -1180.6762970605      1.16e-05  
    8   -1180.6763196376      5.50e-06  
    9   -1180.6763262302      2.49e-06  
   10   -1180.6763274660      8.10e-07  Convergence criterion met
 ---------------------------------------
 SCF time:   CPU 612.49s  wall 615.00s 

************** Final PCM Free Energy Summary **************
 G_electrostatic  =      -0.01026410 hartree =      -6.44081737 kcal/mol
 G_cavitation     =       0.00000000 hartree =       0.00000000 kcal/mol
 G_dispersion     =       0.00000000 hartree =       0.00000000 kcal/mol
 G_repulsion      =       0.00000000 hartree =       0.00000000 kcal/mol
 --------------------------------------------------
 Non-electrostatic Free Energy =       0.00000000 hartree =       0.00000000 kcal/mol
 Total                         =      -0.01026410 hartree =      -6.44081737 kcal/mol
 --------------------------------------------------
 SCF Energy (H0 + V/2)                       =   -1180.67632747 
 Solute Internal Energy (H0)                 =   -1180.66606337 
 Total Free Energy (H0 + V/2 + non-elec)     =   -1180.67632747 hartree
                                             = -740885.57767044 kcal/mol
***********************************************************

 SCF   energy in the final basis set =    -1180.6763274660
 Total energy in the final basis set =    -1180.6763274660


 --------------------------------------------------------------
  Generalized many-body perturbation theory program
  by Joonho Lee, Fazle Rob, Xintian Feng, Evgeny Epifanovsky

 No regularization used 
 (reg. param. = 0.0000e+00)
  (P|Q)^-1/2 Time:  CPU 1.95 s  wall 1.96 s

 In RI-MP2 calculation: 
 # of frozen core orbitals: 20

 Components of the RIMP2 correlation energy:
        aaaa    correlation energy =        -0.2547158218 a.u.
        abab    correlation energy =        -1.5132642596 a.u.
        bbbb    correlation energy =        -0.2547158218 a.u.
        non-Brillouin singles      =        -0.0000000000 a.u.
        total same-spin energy     =        -0.5094316437 a.u.
        total opposite-spin energy =        -1.5132642596 a.u.

 Total  RIMP2   correlation energy =        -2.0226959032 a.u.
        RIMP2         total energy =     -1182.6990233693 a.u.

 RI-MP2 Energy Time:  CPU 82.63 s  wall 82.94 s
 
 --------------------------------------------------------------
 
                    Orbital Energies (a.u.)
 --------------------------------------------------------------
 
 Alpha MOs
 -- Occupied --
-91.9818 -91.9314 -11.2903 -11.2594 -11.2560 -11.2524 -11.2467 -11.2452
-11.2315 -11.2302 -11.2294 -11.2105  -8.9829  -8.9365  -6.6636  -6.6628
 -6.6626  -6.6178  -6.6167  -6.6154  -1.2042  -1.1528  -1.0573  -1.0274
 -0.9983  -0.9662  -0.9066  -0.9019  -0.8113  -0.7544  -0.7485  -0.7045
 -0.6485  -0.6282  -0.6144  -0.5901  -0.5814  -0.5712  -0.5646  -0.5508
 -0.5413  -0.5339  -0.5103  -0.5048  -0.4864  -0.4764  -0.4521  -0.4355
 -0.3535  -0.3317  -0.3216  -0.2607
 -- Virtual --
  0.0561   0.1312   0.1398   0.1557   0.1623   0.1680   0.1766   0.1814
  0.1902   0.2051   0.2092   0.2157   0.2240   0.2353   0.2403   0.2435
  0.2466   0.2632   0.2776   0.2940   0.3057   0.3412   0.3455   0.3505
  0.3522   0.3738   0.3761   0.3883   0.3920   0.3947   0.4225   0.4265
  0.4294   0.4357   0.4477   0.4582   0.4727   0.4765   0.4892   0.4904
  0.5005   0.5068   0.5194   0.5269   0.5334   0.5359   0.5583   0.5641
  0.5731   0.5778   0.5822   0.5968   0.6026   0.6085   0.6112   0.6165
  0.6224   0.6316   0.6330   0.6363   0.6372   0.6485   0.6529   0.6667
  0.6718   0.6750   0.6917   0.7007   0.7046   0.7098   0.7195   0.7211
  0.7401   0.7549   0.7597   0.7739   0.7910   0.7937   0.8076   0.8197
  0.8361   0.8437   0.8627   0.8676   0.8766   0.8923   0.9000   0.9114
  0.9255   0.9387   0.9498   0.9604   0.9867   0.9896   1.0134   1.0300
  1.0327   1.0383   1.0445   1.0546   1.0619   1.0756   1.0792   1.0806
  1.1052   1.1122   1.1182   1.1381   1.1422   1.1690   1.1745   1.1760
  1.1858   1.1965   1.2043   1.2149   1.2187   1.2278   1.2376   1.2399
  1.2520   1.2595   1.2702   1.2732   1.2862   1.2943   1.3005   1.3101
  1.3268   1.3285   1.3594   1.3724   1.3806   1.3864   1.4057   1.4087
  1.4271   1.4300   1.4479   1.4587   1.4748   1.4774   1.4921   1.5063
  1.5113   1.5196   1.5244   1.5332   1.5372   1.5458   1.5543   1.5601
  1.5648   1.5711   1.5844   1.5934   1.6142   1.6306   1.6398   1.6493
  1.6570   1.6694   1.6872   1.6917   1.6935   1.7109   1.7249   1.7375
  1.7407   1.7465   1.7603   1.7703   1.8153   1.8199   1.8359   1.8663
  1.8740   1.8938   1.9018   1.9392   1.9568   1.9775   1.9921   2.0126
  2.0433   2.0485   2.0574   2.0717   2.0790   2.1015   2.1388   2.1532
  2.1880   2.1890   2.2001   2.2258   2.2413   2.2528   2.2603   2.2823
  2.3180   2.3272   2.3471   2.3867   2.4279   2.4480   2.4703   2.4835
  2.4917   2.5234   2.5398   2.5602   2.5642   2.6155   2.6199   2.6369
  2.6425   2.6518   2.6634   2.6766   2.6813   2.6953   2.7130   2.7358
  2.7426   2.7481   2.7678   2.7843   2.7995   2.8071   2.8129   2.8325
  2.8445   2.8495   2.8509   2.8842   2.8990   2.9048   2.9118   2.9168
  2.9451   2.9658   2.9734   2.9882   2.9997   3.0152   3.0344   3.0447
  3.0533   3.0783   3.1057   3.1068   3.1132   3.1251   3.1376   3.1451
  3.1601   3.1688   3.1699   3.1878   3.1961   3.2015   3.2120   3.2221
  3.2302   3.2354   3.2463   3.2588   3.2593   3.2665   3.2986   3.3112
  3.3282   3.3302   3.3415   3.3462   3.3542   3.3678   3.3726   3.3757
  3.3842   3.3892   3.3921   3.4013   3.4062   3.4134   3.4222   3.4321
  3.4453   3.4471   3.4542   3.4662   3.4928   3.5015   3.5161   3.5205
  3.5309   3.5331   3.5419   3.5469   3.5605   3.5702   3.5756   3.5946
  3.6016   3.6181   3.6248   3.6296   3.6435   3.6473   3.6599   3.6685
  3.6787   3.6971   3.7027   3.7158   3.7223   3.7341   3.7426   3.7478
  3.7528   3.7585   3.7809   3.7850   3.7951   3.8057   3.8180   3.8302
  3.8383   3.8518   3.8618   3.8823   3.8917   3.9107   3.9249   3.9371
  3.9414   3.9476   3.9566   3.9733   3.9837   4.0003   4.0161   4.0252
  4.0378   4.0541   4.0654   4.0690   4.0890   4.0928   4.1020   4.1189
  4.1230   4.1411   4.1517   4.1585   4.1616   4.1788   4.1999   4.2071
  4.2136   4.2239   4.2365   4.2618   4.2686   4.2700   4.2781   4.2882
  4.2981   4.3024   4.3232   4.3330   4.3470   4.3618   4.3726   4.3803
  4.3906   4.3976   4.4040   4.4138   4.4186   4.4216   4.4329   4.4560
  4.4594   4.4700   4.4770   4.4804   4.5033   4.5214   4.5310   4.5658
  4.5747   4.5931   4.6084   4.6146   4.6415   4.6563   4.6624   4.6767
  4.6914   4.7177   4.7326   4.7526   4.7749   4.8192   4.8348   4.8558
  4.8791   4.8953   4.9012   4.9187   4.9350   4.9547   4.9680   4.9860
  5.0302   5.0465   5.0582   5.0923   5.1129   5.1297   5.1501   5.1644
  5.1897   5.2067   5.2273   5.2664   5.2842   5.3000   5.3039   5.3217
  5.3412   5.3615   5.3845   5.3941   5.4092   5.4234   5.4495   5.4507
  5.4703   5.5136   5.5306   5.5349   5.5523   5.5654   5.5689   5.5966
  5.6217   5.6259   5.6312   5.6692   5.6849   5.6947   5.7196   5.7350
  5.7684   5.7907   5.8096   5.9800   6.0349   6.0858   6.0985   6.1654
  6.2123   6.2270   6.2291   6.2403   6.2669   6.2700   6.2958   6.3292
  6.3700   6.3849   9.3840  10.4825  12.6653  12.8687  13.1823  13.9594
 14.1121  14.2280  14.2844  14.6031
 --------------------------------------------------------------
 
          Ground-State Mulliken Net Atomic Charges

     Atom                 Charge (a.u.)
  ----------------------------------------
      1 C                    -0.091479
      2 C                    -0.330587
      3 C                    -0.075186
      4 H                     0.171109
      5 C                     0.070431
      6 S                    -0.182969
      7 C                    -0.275977
      8 H                     0.112508
      9 H                     0.103821
     10 H                     0.101952
     11 C                    -0.182833
     12 C                    -0.081415
     13 C                    -0.027943
     14 H                     0.200338
     15 C                    -0.160039
     16 S                     0.023319
     17 C                    -0.269662
     18 H                     0.101967
     19 H                     0.107554
     20 H                     0.106665
     21 H                     0.203625
     22 H                     0.103320
     23 H                     0.106192
     24 H                     0.165287
  ----------------------------------------
  Sum of atomic charges =     0.000000

 -----------------------------------------------------------------
                    Cartesian Multipole Moments
 -----------------------------------------------------------------
    Charge (ESU x 10^10)
                -0.0000
    Dipole Moment (Debye)
         X       0.6538      Y       1.2181      Z       2.4312
       Tot       2.7967
    Quadrupole Moments (Debye-Ang)
        XX     -82.4775     XY       9.4740     YY     -85.0936
        XZ       0.2000     YZ      -0.8847     ZZ     -84.5362
    Octopole Moments (Debye-Ang^2)
       XXX    -155.3633    XXY      99.4917    XYY     -53.6313
       YYY     219.1785    XXZ      -2.3130    XYZ      -0.1800
       YYZ      -4.2485    XZZ     -54.3966    YZZ      85.9284
       ZZZ       2.9297
    Hexadecapole Moments (Debye-Ang^3)
      XXXX   -1155.3004   XXXY    -156.2117   XXYY    -574.7713
      XYYY    -198.5194   YYYY   -2221.2249   XXXZ      40.5382
      XXYZ     -40.2440   XYYZ       0.8596   YYYZ     -46.7039
      XXZZ    -313.9955   XYZZ     -49.0598   YYZZ    -523.8626
      XZZZ      54.9015   YZZZ     -52.4141   ZZZZ    -769.3754
 -----------------------------------------------------------------
 Total job time:  718.44s(wall), 696.05s(cpu) 
 Sun Jul 10 04:32:33 2022

        *************************************************************
        *                                                           *
        *  Thank you very much for using Q-Chem.  Have a nice day.  *
        *                                                           *
        *************************************************************


remove work dirs ./qchem784687.0 -- ./qchem784687.-1
rm -rf ./qchem784687
