You are running Q-Chem version: 5.4.0

#
# job setting
#
local host:  exp-1-46
current dir: /expanse/lustre/scratch/theleonzhang/temp_project/Hydrogenated_Rotation_Test
input file:  Methylthiophene_Phi_20_Theta_170_Methylthiophene_Hydrogenated.qcin
output file: 
nprocs     : 0
nthreads   : 1
#
# qchem installation setting
#
QC:          /cm/shared/apps/spack/cpu/opt/spack/linux-centos8-zen2/gcc-10.2.0/qchem-5.4-akfmr7b3t57bfs6qan3padb2wnb2i7cl
QCAUX:       /cm/shared/apps/spack/cpu/opt/spack/linux-centos8-zen2/gcc-10.2.0/qchem-5.4-akfmr7b3t57bfs6qan3padb2wnb2i7cl/qcaux
QCPROG:      /cm/shared/apps/spack/cpu/opt/spack/linux-centos8-zen2/gcc-10.2.0/qchem-5.4-akfmr7b3t57bfs6qan3padb2wnb2i7cl/exe/qcprog.exe_s
QCPROG_S:    /cm/shared/apps/spack/cpu/opt/spack/linux-centos8-zen2/gcc-10.2.0/qchem-5.4-akfmr7b3t57bfs6qan3padb2wnb2i7cl/exe/qcprog.exe_s
PARALLEL:    -DSERIAL
QCMPI:       mpich
#
# qchem directory setting
#
qcrun:       qchem3998747
QCSCRATCH:   .
QCLOCALSCR:  
QCTMPDIR:    .
QCFILEPREF:  ./qchem3998747
QCSAVEDIR:   
workdirs:    ./qchem3998747
workdir0:    ./qchem3998747
partmpdirs =  
#
# parallel setting
#
QCRSH:           ssh
QCMPI:           mpich
QCMPIRUN:        /cm/shared/apps/spack/cpu/opt/spack/linux-centos8-zen2/gcc-10.2.0/qchem-5.4-akfmr7b3t57bfs6qan3padb2wnb2i7cl/bin/mpi/mpirun_qchem
QCMACHINEFILE:   ./qchem3998747/hostfile

#
# env setting
#
exported envs:   QC QCAUX QCSCRATCH QCRUNNAME QCFILEPREF QCPROG QCPROG_S GUIFILE

Running Job 1 of 1 Methylthiophene_Phi_20_Theta_170_Methylthiophene_Hydrogenated.qcin
qchem Methylthiophene_Phi_20_Theta_170_Methylthiophene_Hydrogenated.qcin_3998747.0 ./qchem3998747/ 0
/cm/shared/apps/spack/cpu/opt/spack/linux-centos8-zen2/gcc-10.2.0/qchem-5.4-akfmr7b3t57bfs6qan3padb2wnb2i7cl/exe/qcprog.exe_s Methylthiophene_Phi_20_Theta_170_Methylthiophene_Hydrogenated.qcin_3998747.0 ./qchem3998747/
                  Welcome to Q-Chem
     A Quantum Leap Into The Future Of Chemistry


 Q-Chem 5.4, Q-Chem, Inc., Pleasanton, CA (2021)

 License issued to: University of California, San Diego (site)

 E. Epifanovsky,  A. T. B. Gilbert,  Xintian Feng,  Joonho Lee,  Yuezhi Mao,  
 N. Mardirossian,  P. Pokhilko,  A. White,  M. Wormit,  M. P. Coons,  
 A. L. Dempwolff,  Zhengting Gan,  D. Hait,  P. R. Horn,  L. D. Jacobson,  
 I. Kaliman,  J. Kussmann,  A. W. Lange,  Ka Un Lao,  D. S. Levine,  Jie Liu,  
 S. C. McKenzie,  A. F. Morrison,  K. Nanda,  F. Plasser,  D. R. Rehn,  
 M. L. Vidal,  Zhi-Qiang You,  Ying Zhu,  B. Alam,  B. Albrecht,  
 A. Aldossary,  E. Alguire,  J. H. Andersen,  D. Barton,  K. Begam,  A. Behn,  
 Y. A. Bernard,  E. J. Berquist,  H. Burton,  A. Carreras,  K. Carter-Fenk,  
 R. Chakraborty,  A. D. Chien,  K. D. Closser,  V. Cofer-Shabica,  
 S. Dasgupta,  Jia Deng,  M. de Wergifosse,  M. Diedenhofen,  Hainam Do,  
 S. Ehlert,  Po-Tung Fang,  S. Fatehi,  Qingguo Feng,  J. Gayvert,  
 Qinghui Ge,  G. Gidofalvi,  M. Goldey,  J. Gomes,  C. Gonzalez-Espinoza,  
 S. Gulania,  A. Gunina,  M. W. D. Hanson-Heine,  P. H. P. Harbach,  
 A. W. Hauser,  M. F. Herbst,  M. Hernandez Vera,  M. Hodecker,  
 Z. C. Holden,  S. Houck,  Xunkun Huang,  Kerwin Hui,  B. C. Huynh,  
 M. Ivanov,  Hyunjun Ji,  Hanjie Jiang,  B. Kaduk,  S. Kaehler,  
 K. Khistyaev,  Jaehoon Kim,  P. Klunzinger,  Z. Koczor-Benda,  
 Joong Hoon Koh,  D. Kosenkov,  L. Koulias,  T. Kowalczyk,  C. M. Krauter,  
 K. Kue,  A. Kunitsa,  T. Kus,  A. Landau,  K. V. Lawler,  D. Lefrancois,  
 S. Lehtola,  Rain Li,  Yi-Pei Li,  Jiashu Liang,  M. Liebenthal,  
 Hung-Hsuan Lin,  You-Sheng Lin,  Fenglai Liu,  Kuan-Yu Liu,  
 M. Loipersberger,  A. Luenser,  A. Manjanath,  P. Manohar,  E. Mansoor,  
 S. F. Manzer,  Shan-Ping Mao,  A. V. Marenich,  T. Markovich,  S. Mason,  
 S. A. Maurer,  P. F. McLaughlin,  M. F. S. J. Menger,  J.-M. Mewes,  
 S. A. Mewes,  P. Morgante,  J. W. Mullinax,  T. S. Nguyen-Beck,  
 K. J. Oosterbaan,  G. Paran,  Alexander C. Paul,  Suranjan K. Paul,  
 F. Pavosevic,  Zheng Pei,  S. Prager,  E. I. Proynov,  E. Ramos,  B. Rana,  
 A. E. Rask,  A. Rettig,  R. M. Richard,  F. Rob,  E. Rossomme,  T. Scheele,  
 M. Scheurer,  M. Schneider,  N. Sergueev,  S. M. Sharada,  W. Skomorowski,  
 D. W. Small,  C. J. Stein,  Yu-Chuan Su,  E. J. Sundstrom,  Zhen Tao,  
 J. Thirman,  T. Tsuchimochi,  N. M. Tubman,  S. P. Veccham,  O. Vydrov,  
 J. Wenzel,  J. Witte,  A. Yamada,  Kun Yao,  S. Yeganeh,  S. R. Yost,  
 A. Zech,  Igor Ying Zhang,  Xing Zhang,  Yu Zhang,  D. Zuev,  
 A. Aspuru-Guzik,  A. T. Bell,  N. A. Besley,  K. B. Bravaya,  B. R. Brooks,  
 D. Casanova,  Jeng-Da Chai,  S. Coriani,  C. J. Cramer,  
 A. E. DePrince, III,  R. A. DiStasio Jr.,  A. Dreuw,  B. D. Dunietz,  
 T. R. Furlani,  W. A. Goddard III,  S. Grimme,  S. Hammes-Schiffer,  
 T. Head-Gordon,  W. J. Hehre,  Chao-Ping Hsu,  T.-C. Jagau,  Yousung Jung,  
 A. Klamt,  Jing Kong,  D. S. Lambrecht,  WanZhen Liang,  N. J. Mayhall,  
 C. W. McCurdy,  J. B. Neaton,  C. Ochsenfeld,  J. A. Parkhill,  R. Peverati,  
 V. A. Rassolov,  Yihan Shao,  L. V. Slipchenko,  T. Stauch,  R. P. Steele,  
 J. E. Subotnik,  A. J. W. Thom,  A. Tkatchenko,  D. G. Truhlar,  
 T. Van Voorhis,  T. A. Wesolowski,  K. B. Whaley,  H. L. Woodcock III,  
 P. M. Zimmerman,  S. Faraji,  P. M. W. Gill,  M. Head-Gordon,  
 J. M. Herbert,  A. I. Krylov

 Contributors to earlier versions of Q-Chem not listed above: 
 R. D. Adamson,  B. Austin,  R. Baer,  J. Baker,  G. J. O. Beran,  
 K. Brandhorst,  S. T. Brown,  E. F. C. Byrd,  A. K. Chakraborty,  
 G. K. L. Chan,  Chun-Min Chang,  Yunqing Chen,  C.-L. Cheng,  
 Siu Hung Chien,  D. M. Chipman,  D. L. Crittenden,  H. Dachsel,  
 R. J. Doerksen,  A. D. Dutoi,  R. G. Edgar,  J. Fosso-Tande,  
 L. Fusti-Molnar,  D. Ghosh,  A. Ghysels,  A. Golubeva-Zadorozhnaya,  
 J. Gonthier,  M. S. Gordon,  S. R. Gwaltney,  G. Hawkins,  J. E. Herr,  
 A. Heyden,  S. Hirata,  E. G. Hohenstein,  G. Kedziora,  F. J. Keil,  
 C. Kelley,  Jihan Kim,  R. A. King,  R. Z. Khaliullin,  P. P. Korambath,  
 W. Kurlancheek,  A. Laurent,  A. M. Lee,  M. S. Lee,  S. V. Levchenko,  
 Ching Yeh Lin,  D. Liotard,  E. Livshits,  R. C. Lochan,  I. Lotan,  
 L. A. Martinez-Martinez,  P. E. Maslen,  N. Nair,  D. P. O'Neill,  
 D. Neuhauser,  E. Neuscamman,  C. M. Oana,  R. Olivares-Amaya,  R. Olson,  
 T. M. Perrine,  B. Peters,  P. A. Pieniazek,  A. Prociuk,  Y. M. Rhee,  
 J. Ritchie,  M. A. Rohrdanz,  E. Rosta,  N. J. Russ,  H. F. Schaefer III,  
 M. W. Schmidt,  N. E. Schultz,  S. Sharma,  N. Shenvi,  C. D. Sherrill,  
 A. C. Simmonett,  A. Sodt,  T. Stein,  D. Stuck,  K. S. Thanthiriwatte,  
 V. Vanovschi,  L. Vogt,  Tao Wang,  A. Warshel,  M. A. Watson,  
 C. F. Williams,  Q. Wu,  X. Xu,  Jun Yang,  W. Zhang,  Yan Zhao

 Please cite Q-Chem as follows:
 Y. Shao et al., Mol. Phys. 113, 184-215 (2015)
 DOI: 10.1080/00268976.2014.952696

 Q-Chem 5.4.0 for Intel X86 EM64T Linux

 Parts of Q-Chem use Armadillo 9.800.1 (Horizon Scraper).
 http://arma.sourceforge.net/

 Q-Chem begins on Sun Jul 10 02:22:27 2022  

 Host: 
0

     Scratch files written to ./qchem3998747//
 May1621 |scratch|qcdevops|jenkins|workspace|build_RNUM    
 Processing $rem in /cm/shared/apps/spack/cpu/opt/spack/linux-centos8-zen2/gcc-10.2.0/qchem-5.4-akfmr7b3t57bfs6qan3padb2wnb2i7cl/config/preferences:
 Processing $rem in /home/theleonzhang/.qchemrc:
 Symmetry turned off for PCM/SM12/SMD calculation
 Core orbitals will be frozen

 Checking the input file for inconsistencies... 	...done.

--------------------------------------------------------------
User input:
--------------------------------------------------------------
$molecule
0 1
C	-0.133897	-3.866725	-0.763475
C	0.106669	-3.703963	0.603206
C	0.185154	-2.357056	1.050446
H	0.226709	-4.561092	1.283024
C	0.000000	-1.440664	0.000000
S	-0.268206	-2.286957	-1.521018
C	0.437628	-1.978743	2.483610
H	0.549717	-2.878678	3.118875
H	-0.394664	-1.376015	2.903464
H	1.363110	-1.375728	2.593726
C	0.000000	0.000000	0.000000
C	0.295399	0.811508	1.099446
C	0.768742	2.111949	0.776721
H	0.169256	0.464952	2.136088
C	0.844232	2.319291	-0.612546
S	0.322342	0.885558	-1.486809
C	1.140796	3.134091	1.814609
H	0.995218	2.734123	2.836676
H	0.526006	4.054142	1.726239
H	2.203157	3.443680	1.726228
H	1.168902	3.211257	-1.161575
H	-1.077442	-4.392713	-0.946698
H	0.690363	-4.392347	-1.258274
H	-1.063612	-1.440937	0.187427
$end

$rem
JOBTYPE		SP
EXCHANGE	HF
CORRELATION	pRIMP2
BASIS		cc-pvtz
METHOD		rimp2
AUX_BASIS	rimp2-cc-pvtz
SOLVENT_METHOD	PCM
PURECART	11111
SYMMETRY	false
MEM_TOTAL	110000
SCF_CONVERGENCE = 6
THRESH=10
$end



$solvent
dielectric 4.90
$end
--------------------------------------------------------------
 ----------------------------------------------------------------
             Standard Nuclear Orientation (Angstroms)
    I     Atom           X                Y                Z
 ----------------------------------------------------------------
    1      C      -0.1338970000    -3.8667250000    -0.7634750000
    2      C       0.1066690000    -3.7039630000     0.6032060000
    3      C       0.1851540000    -2.3570560000     1.0504460000
    4      H       0.2267090000    -4.5610920000     1.2830240000
    5      C       0.0000000000    -1.4406640000     0.0000000000
    6      S      -0.2682060000    -2.2869570000    -1.5210180000
    7      C       0.4376280000    -1.9787430000     2.4836100000
    8      H       0.5497170000    -2.8786780000     3.1188750000
    9      H      -0.3946640000    -1.3760150000     2.9034640000
   10      H       1.3631100000    -1.3757280000     2.5937260000
   11      C       0.0000000000     0.0000000000     0.0000000000
   12      C       0.2953990000     0.8115080000     1.0994460000
   13      C       0.7687420000     2.1119490000     0.7767210000
   14      H       0.1692560000     0.4649520000     2.1360880000
   15      C       0.8442320000     2.3192910000    -0.6125460000
   16      S       0.3223420000     0.8855580000    -1.4868090000
   17      C       1.1407960000     3.1340910000     1.8146090000
   18      H       0.9952180000     2.7341230000     2.8366760000
   19      H       0.5260060000     4.0541420000     1.7262390000
   20      H       2.2031570000     3.4436800000     1.7262280000
   21      H       1.1689020000     3.2112570000    -1.1615750000
   22      H      -1.0774420000    -4.3927130000    -0.9466980000
   23      H       0.6903630000    -4.3923470000    -1.2582740000
   24      H      -1.0636120000    -1.4409370000     0.1874270000
 ----------------------------------------------------------------
 Nuclear Repulsion Energy =         878.63435741 hartrees
 There are       52 alpha and       52 beta electrons

 Q-Chem warning in module forms1/BasisType.C, line 2236:

 You are not using the predefined 5D/6D in this basis set.

 Requested basis set is cc-pVTZ
 There are 196 shells and 536 basis functions

 Total QAlloc Memory Limit 110000 MB
 Mega-Array Size       188 MB
 MEM_STATIC part       192 MB
 Discretize the solute cavity surface with Lebedev spheres
	Using 110 Lebedev grid points for each H atom
	Using 194 Lebedev grid points for other atoms
	Atomic van der Waals radii will be scaled by 1.20
 Remove points where switching function is < 1.0e-08
 Keep 1586 surface tesserae and discard 2062 interior tesserae
 Molecular Surface Area = 230.155 Angst**2
 Requested basis set is rimp2-cc-pVTZ
 There are 414 shells and 1414 basis functions
 A cutoff of  1.0D-10 yielded  14128 shell pairs
 There are    102268 function pairs (    131018 Cartesian)
 Smallest overlap matrix eigenvalue = 5.19E-05

 Scale SEOQF with 1.000000e-01/1.000000e-01/1.000000e-01

 Standard Electronic Orientation quadrupole field applied
 Nucleus-field energy     =     0.0000000208 hartrees
 Guess from superposition of atomic densities
 Warning:  Energy on first SCF cycle will be non-variational
 SAD guess density has 104.000000 electrons

 -----------------------------------------------------------------------
  General SCF calculation program by
  Eric Jon Sundstrom, Paul Horn, Yuezhi Mao, Dmitri Zuev, Alec White,
  David Stuck, Shaama M.S., Shane Yost, Joonho Lee, David Small,
  Daniel Levine, Susi Lehtola, Hugh Burton, Evgeny Epifanovsky,
  Bang C. Huynh
 -----------------------------------------------------------------------
 Hartree-Fock
 A restricted SCF calculation will be
 performed using DIIS
 SCF converges when DIIS error is below 1.0e-06
 ---------------------------------------
  Cycle       Energy         DIIS error
 ---------------------------------------
    1   -1186.0680903821      2.39e-02  
    2   -1180.5963948099      1.58e-03  
    3   -1180.7230409691      6.54e-04  
    4   -1180.7390634028      3.46e-04  
    5   -1180.7446718444      6.07e-05  
    6   -1180.7449298181      2.51e-05  
    7   -1180.7449910352      9.03e-06  
    8   -1180.7450042528      4.28e-06  
    9   -1180.7450072577      1.49e-06  
   10   -1180.7450077212      5.19e-07  Convergence criterion met
 ---------------------------------------
 SCF time:   CPU 584.00s  wall 587.00s 

************** Final PCM Free Energy Summary **************
 G_electrostatic  =      -0.00967554 hartree =      -6.07149262 kcal/mol
 G_cavitation     =       0.00000000 hartree =       0.00000000 kcal/mol
 G_dispersion     =       0.00000000 hartree =       0.00000000 kcal/mol
 G_repulsion      =       0.00000000 hartree =       0.00000000 kcal/mol
 --------------------------------------------------
 Non-electrostatic Free Energy =       0.00000000 hartree =       0.00000000 kcal/mol
 Total                         =      -0.00967554 hartree =      -6.07149262 kcal/mol
 --------------------------------------------------
 SCF Energy (H0 + V/2)                       =   -1180.74500772 
 Solute Internal Energy (H0)                 =   -1180.73533218 
 Total Free Energy (H0 + V/2 + non-elec)     =   -1180.74500772 hartree
                                             = -740928.67518102 kcal/mol
***********************************************************

 SCF   energy in the final basis set =    -1180.7450077212
 Total energy in the final basis set =    -1180.7450077212


 --------------------------------------------------------------
  Generalized many-body perturbation theory program
  by Joonho Lee, Fazle Rob, Xintian Feng, Evgeny Epifanovsky

 No regularization used 
 (reg. param. = 0.0000e+00)
  (P|Q)^-1/2 Time:  CPU 2.31 s  wall 2.32 s

 In RI-MP2 calculation: 
 # of frozen core orbitals: 20

 Components of the RIMP2 correlation energy:
        aaaa    correlation energy =        -0.2521940512 a.u.
        abab    correlation energy =        -1.5051627002 a.u.
        bbbb    correlation energy =        -0.2521940512 a.u.
        non-Brillouin singles      =        -0.0000000000 a.u.
        total same-spin energy     =        -0.5043881024 a.u.
        total opposite-spin energy =        -1.5051627002 a.u.

 Total  RIMP2   correlation energy =        -2.0095508027 a.u.
        RIMP2         total energy =     -1182.7545585239 a.u.

 RI-MP2 Energy Time:  CPU 118.28 s  wall 118.74 s
 
 --------------------------------------------------------------
 
                    Orbital Energies (a.u.)
 --------------------------------------------------------------
 
 Alpha MOs
 -- Occupied --
-91.9827 -91.9456 -11.2861 -11.2664 -11.2594 -11.2560 -11.2499 -11.2441
-11.2340 -11.2312 -11.2282 -11.2223  -8.9825  -8.9503  -6.6634  -6.6628
 -6.6622  -6.6317  -6.6307  -6.6294  -1.2020  -1.1523  -1.0599  -1.0320
 -1.0010  -0.9620  -0.9161  -0.8996  -0.8178  -0.7628  -0.7272  -0.7078
 -0.6563  -0.6481  -0.6101  -0.5942  -0.5871  -0.5690  -0.5603  -0.5511
 -0.5444  -0.5359  -0.5240  -0.5029  -0.4834  -0.4782  -0.4691  -0.4427
 -0.3609  -0.3432  -0.3233  -0.2626
 -- Virtual --
  0.1004   0.1299   0.1412   0.1476   0.1567   0.1718   0.1730   0.1861
  0.1870   0.2050   0.2076   0.2133   0.2190   0.2327   0.2364   0.2426
  0.2577   0.2736   0.2914   0.3086   0.3144   0.3249   0.3542   0.3566
  0.3706   0.3742   0.3836   0.3947   0.4061   0.4089   0.4173   0.4258
  0.4373   0.4519   0.4615   0.4706   0.4758   0.4789   0.4820   0.4955
  0.5090   0.5208   0.5237   0.5296   0.5405   0.5454   0.5504   0.5576
  0.5651   0.5813   0.5920   0.5946   0.6015   0.6113   0.6177   0.6222
  0.6259   0.6286   0.6327   0.6388   0.6408   0.6477   0.6537   0.6624
  0.6715   0.6756   0.6796   0.6878   0.6952   0.7187   0.7242   0.7309
  0.7409   0.7569   0.7643   0.7738   0.7802   0.7970   0.8039   0.8115
  0.8368   0.8483   0.8567   0.8582   0.8841   0.9019   0.9123   0.9215
  0.9307   0.9500   0.9519   0.9541   0.9664   0.9922   0.9996   1.0136
  1.0205   1.0320   1.0360   1.0485   1.0575   1.0629   1.0720   1.0844
  1.0909   1.0979   1.1064   1.1276   1.1414   1.1485   1.1628   1.1650
  1.1838   1.1895   1.1979   1.2099   1.2119   1.2223   1.2329   1.2393
  1.2477   1.2575   1.2655   1.2772   1.2788   1.2918   1.3075   1.3172
  1.3259   1.3314   1.3345   1.3614   1.3707   1.3793   1.4098   1.4130
  1.4234   1.4380   1.4447   1.4683   1.4787   1.4859   1.4896   1.5007
  1.5107   1.5233   1.5238   1.5288   1.5361   1.5425   1.5472   1.5645
  1.5811   1.5844   1.5961   1.6054   1.6146   1.6217   1.6312   1.6440
  1.6541   1.6574   1.6837   1.6992   1.7155   1.7229   1.7250   1.7296
  1.7678   1.7703   1.7808   1.7971   1.8209   1.8303   1.8544   1.8686
  1.8871   1.8931   1.9037   1.9278   1.9569   1.9788   1.9857   1.9995
  2.0240   2.0366   2.0561   2.0713   2.1017   2.1059   2.1565   2.1596
  2.1879   2.1919   2.2077   2.2206   2.2366   2.2416   2.2648   2.2769
  2.2845   2.3020   2.3089   2.3816   2.4169   2.4356   2.4555   2.4748
  2.5039   2.5167   2.5363   2.5507   2.5754   2.5887   2.5917   2.6292
  2.6346   2.6431   2.6488   2.6591   2.6752   2.6996   2.7107   2.7350
  2.7511   2.7553   2.7659   2.7713   2.7857   2.7964   2.8083   2.8212
  2.8302   2.8479   2.8510   2.8694   2.8907   2.9047   2.9186   2.9405
  2.9521   2.9633   2.9798   2.9863   3.0124   3.0180   3.0326   3.0408
  3.0765   3.0907   3.0951   3.1076   3.1100   3.1192   3.1280   3.1441
  3.1564   3.1604   3.1699   3.1761   3.1909   3.1950   3.2029   3.2091
  3.2231   3.2352   3.2508   3.2637   3.2674   3.2823   3.2974   3.3041
  3.3090   3.3276   3.3346   3.3401   3.3445   3.3539   3.3642   3.3713
  3.3785   3.3893   3.3948   3.4020   3.4056   3.4138   3.4210   3.4293
  3.4352   3.4507   3.4542   3.4702   3.4765   3.4903   3.5035   3.5097
  3.5121   3.5263   3.5294   3.5379   3.5400   3.5627   3.5728   3.5769
  3.5883   3.5948   3.6145   3.6250   3.6285   3.6432   3.6537   3.6548
  3.6688   3.6858   3.6943   3.6976   3.7108   3.7307   3.7374   3.7435
  3.7470   3.7602   3.7733   3.7750   3.7925   3.7972   3.8018   3.8156
  3.8312   3.8393   3.8537   3.8680   3.8765   3.8885   3.9078   3.9181
  3.9329   3.9384   3.9585   3.9622   3.9842   3.9953   4.0055   4.0265
  4.0328   4.0522   4.0559   4.0605   4.0776   4.0820   4.0919   4.1165
  4.1273   4.1443   4.1503   4.1514   4.1652   4.1735   4.1830   4.1996
  4.2229   4.2281   4.2331   4.2431   4.2500   4.2615   4.2665   4.2947
  4.2999   4.3037   4.3202   4.3406   4.3416   4.3518   4.3636   4.3726
  4.3774   4.4024   4.4038   4.4184   4.4257   4.4372   4.4441   4.4518
  4.4637   4.4695   4.4900   4.5017   4.5100   4.5413   4.5661   4.5799
  4.5974   4.6031   4.6170   4.6226   4.6508   4.6550   4.6656   4.6879
  4.6899   4.7355   4.7591   4.7788   4.7972   4.8035   4.8253   4.8501
  4.8688   4.8713   4.8903   4.9237   4.9454   4.9635   4.9770   4.9969
  5.0535   5.0746   5.0993   5.1154   5.1209   5.1261   5.1574   5.1887
  5.2128   5.2226   5.2496   5.2610   5.2842   5.2982   5.3105   5.3285
  5.3525   5.3698   5.3771   5.4037   5.4110   5.4249   5.4392   5.4417
  5.4704   5.5209   5.5307   5.5435   5.5534   5.5684   5.5750   5.6080
  5.6175   5.6234   5.6312   5.6605   5.6783   5.7068   5.7090   5.7489
  5.7702   5.8014   5.8357   5.9634   6.0287   6.0786   6.1360   6.1773
  6.2256   6.2284   6.2341   6.2619   6.2757   6.2927   6.2961   6.3303
  6.4256   6.5433   9.5525  10.8041  12.1069  12.9433  13.1602  13.9009
 14.1259  14.2119  14.4072  15.0485
 --------------------------------------------------------------
 
          Ground-State Mulliken Net Atomic Charges

     Atom                 Charge (a.u.)
  ----------------------------------------
      1 C                    -0.075177
      2 C                    -0.316910
      3 C                    -0.060215
      4 H                     0.179213
      5 C                     0.132265
      6 S                    -0.180453
      7 C                    -0.302016
      8 H                     0.122264
      9 H                     0.102028
     10 H                     0.114512
     11 C                    -0.037695
     12 C                    -0.307654
     13 C                     0.055752
     14 H                     0.189769
     15 C                    -0.281153
     16 S                     0.014817
     17 C                    -0.271588
     18 H                     0.100645
     19 H                     0.108466
     20 H                     0.108343
     21 H                     0.195850
     22 H                     0.112207
     23 H                     0.113576
     24 H                     0.183155
  ----------------------------------------
  Sum of atomic charges =     0.000000

 -----------------------------------------------------------------
                    Cartesian Multipole Moments
 -----------------------------------------------------------------
    Charge (ESU x 10^10)
                -0.0000
    Dipole Moment (Debye)
         X       0.0736      Y      -0.3558      Z       3.9202
       Tot       3.9370
    Quadrupole Moments (Debye-Ang)
        XX     -90.4807     XY       4.0635     YY     -74.2967
        XZ       0.7215     YZ      -2.5879     ZZ     -85.7535
    Octopole Moments (Debye-Ang^2)
       XXX     -74.1786    XXY      52.5067    XYY     -14.9520
       YYY     121.8247    XXZ      -2.9016    XYZ      -2.2677
       YYZ      -4.2123    XZZ     -19.5461    YZZ      53.0188
       ZZZ       8.0557
    Hexadecapole Moments (Debye-Ang^3)
      XXXX    -271.9258   XXXY    -159.7618   XXYY    -542.3690
      XYYY    -125.0997   YYYY   -2677.1536   XXXZ     -81.8666
      XXYZ     -28.9813   XYYZ     -24.2831   YYYZ     -96.5881
      XXZZ    -234.5570   XYZZ     -51.3897   YYZZ    -641.5903
      XZZZ     -77.2822   YZZZ    -125.2541   ZZZZ   -1083.2540
 -----------------------------------------------------------------
 Total job time:  708.79s(wall), 703.32s(cpu) 
 Sun Jul 10 02:34:15 2022

        *************************************************************
        *                                                           *
        *  Thank you very much for using Q-Chem.  Have a nice day.  *
        *                                                           *
        *************************************************************


remove work dirs ./qchem3998747.0 -- ./qchem3998747.-1
rm -rf ./qchem3998747
You are running Q-Chem version: 5.4.0

#
# job setting
#
local host:  exp-3-09
current dir: /expanse/lustre/scratch/theleonzhang/temp_project/Hydrogenated_Rotation_Test
input file:  Methylthiophene_Phi_20_Theta_170_Methylthiophene_Hydrogenated.qcin
output file: 
nprocs     : 0
nthreads   : 1
#
# qchem installation setting
#
QC:          /cm/shared/apps/spack/cpu/opt/spack/linux-centos8-zen2/gcc-10.2.0/qchem-5.4-akfmr7b3t57bfs6qan3padb2wnb2i7cl
QCAUX:       /cm/shared/apps/spack/cpu/opt/spack/linux-centos8-zen2/gcc-10.2.0/qchem-5.4-akfmr7b3t57bfs6qan3padb2wnb2i7cl/qcaux
QCPROG:      /cm/shared/apps/spack/cpu/opt/spack/linux-centos8-zen2/gcc-10.2.0/qchem-5.4-akfmr7b3t57bfs6qan3padb2wnb2i7cl/exe/qcprog.exe_s
QCPROG_S:    /cm/shared/apps/spack/cpu/opt/spack/linux-centos8-zen2/gcc-10.2.0/qchem-5.4-akfmr7b3t57bfs6qan3padb2wnb2i7cl/exe/qcprog.exe_s
PARALLEL:    -DSERIAL
QCMPI:       mpich
#
# qchem directory setting
#
qcrun:       qchem903313
QCSCRATCH:   .
QCLOCALSCR:  
QCTMPDIR:    .
QCFILEPREF:  ./qchem903313
QCSAVEDIR:   
workdirs:    ./qchem903313
workdir0:    ./qchem903313
partmpdirs =  
#
# parallel setting
#
QCRSH:           ssh
QCMPI:           mpich
QCMPIRUN:        /cm/shared/apps/spack/cpu/opt/spack/linux-centos8-zen2/gcc-10.2.0/qchem-5.4-akfmr7b3t57bfs6qan3padb2wnb2i7cl/bin/mpi/mpirun_qchem
QCMACHINEFILE:   ./qchem903313/hostfile

#
# env setting
#
exported envs:   QC QCAUX QCSCRATCH QCRUNNAME QCFILEPREF QCPROG QCPROG_S GUIFILE

Running Job 1 of 1 Methylthiophene_Phi_20_Theta_170_Methylthiophene_Hydrogenated.qcin
qchem Methylthiophene_Phi_20_Theta_170_Methylthiophene_Hydrogenated.qcin_903313.0 ./qchem903313/ 0
/cm/shared/apps/spack/cpu/opt/spack/linux-centos8-zen2/gcc-10.2.0/qchem-5.4-akfmr7b3t57bfs6qan3padb2wnb2i7cl/exe/qcprog.exe_s Methylthiophene_Phi_20_Theta_170_Methylthiophene_Hydrogenated.qcin_903313.0 ./qchem903313/
                  Welcome to Q-Chem
     A Quantum Leap Into The Future Of Chemistry


 Q-Chem 5.4, Q-Chem, Inc., Pleasanton, CA (2021)

 License issued to: University of California, San Diego (site)

 E. Epifanovsky,  A. T. B. Gilbert,  Xintian Feng,  Joonho Lee,  Yuezhi Mao,  
 N. Mardirossian,  P. Pokhilko,  A. White,  M. Wormit,  M. P. Coons,  
 A. L. Dempwolff,  Zhengting Gan,  D. Hait,  P. R. Horn,  L. D. Jacobson,  
 I. Kaliman,  J. Kussmann,  A. W. Lange,  Ka Un Lao,  D. S. Levine,  Jie Liu,  
 S. C. McKenzie,  A. F. Morrison,  K. Nanda,  F. Plasser,  D. R. Rehn,  
 M. L. Vidal,  Zhi-Qiang You,  Ying Zhu,  B. Alam,  B. Albrecht,  
 A. Aldossary,  E. Alguire,  J. H. Andersen,  D. Barton,  K. Begam,  A. Behn,  
 Y. A. Bernard,  E. J. Berquist,  H. Burton,  A. Carreras,  K. Carter-Fenk,  
 R. Chakraborty,  A. D. Chien,  K. D. Closser,  V. Cofer-Shabica,  
 S. Dasgupta,  Jia Deng,  M. de Wergifosse,  M. Diedenhofen,  Hainam Do,  
 S. Ehlert,  Po-Tung Fang,  S. Fatehi,  Qingguo Feng,  J. Gayvert,  
 Qinghui Ge,  G. Gidofalvi,  M. Goldey,  J. Gomes,  C. Gonzalez-Espinoza,  
 S. Gulania,  A. Gunina,  M. W. D. Hanson-Heine,  P. H. P. Harbach,  
 A. W. Hauser,  M. F. Herbst,  M. Hernandez Vera,  M. Hodecker,  
 Z. C. Holden,  S. Houck,  Xunkun Huang,  Kerwin Hui,  B. C. Huynh,  
 M. Ivanov,  Hyunjun Ji,  Hanjie Jiang,  B. Kaduk,  S. Kaehler,  
 K. Khistyaev,  Jaehoon Kim,  P. Klunzinger,  Z. Koczor-Benda,  
 Joong Hoon Koh,  D. Kosenkov,  L. Koulias,  T. Kowalczyk,  C. M. Krauter,  
 K. Kue,  A. Kunitsa,  T. Kus,  A. Landau,  K. V. Lawler,  D. Lefrancois,  
 S. Lehtola,  Rain Li,  Yi-Pei Li,  Jiashu Liang,  M. Liebenthal,  
 Hung-Hsuan Lin,  You-Sheng Lin,  Fenglai Liu,  Kuan-Yu Liu,  
 M. Loipersberger,  A. Luenser,  A. Manjanath,  P. Manohar,  E. Mansoor,  
 S. F. Manzer,  Shan-Ping Mao,  A. V. Marenich,  T. Markovich,  S. Mason,  
 S. A. Maurer,  P. F. McLaughlin,  M. F. S. J. Menger,  J.-M. Mewes,  
 S. A. Mewes,  P. Morgante,  J. W. Mullinax,  T. S. Nguyen-Beck,  
 K. J. Oosterbaan,  G. Paran,  Alexander C. Paul,  Suranjan K. Paul,  
 F. Pavosevic,  Zheng Pei,  S. Prager,  E. I. Proynov,  E. Ramos,  B. Rana,  
 A. E. Rask,  A. Rettig,  R. M. Richard,  F. Rob,  E. Rossomme,  T. Scheele,  
 M. Scheurer,  M. Schneider,  N. Sergueev,  S. M. Sharada,  W. Skomorowski,  
 D. W. Small,  C. J. Stein,  Yu-Chuan Su,  E. J. Sundstrom,  Zhen Tao,  
 J. Thirman,  T. Tsuchimochi,  N. M. Tubman,  S. P. Veccham,  O. Vydrov,  
 J. Wenzel,  J. Witte,  A. Yamada,  Kun Yao,  S. Yeganeh,  S. R. Yost,  
 A. Zech,  Igor Ying Zhang,  Xing Zhang,  Yu Zhang,  D. Zuev,  
 A. Aspuru-Guzik,  A. T. Bell,  N. A. Besley,  K. B. Bravaya,  B. R. Brooks,  
 D. Casanova,  Jeng-Da Chai,  S. Coriani,  C. J. Cramer,  
 A. E. DePrince, III,  R. A. DiStasio Jr.,  A. Dreuw,  B. D. Dunietz,  
 T. R. Furlani,  W. A. Goddard III,  S. Grimme,  S. Hammes-Schiffer,  
 T. Head-Gordon,  W. J. Hehre,  Chao-Ping Hsu,  T.-C. Jagau,  Yousung Jung,  
 A. Klamt,  Jing Kong,  D. S. Lambrecht,  WanZhen Liang,  N. J. Mayhall,  
 C. W. McCurdy,  J. B. Neaton,  C. Ochsenfeld,  J. A. Parkhill,  R. Peverati,  
 V. A. Rassolov,  Yihan Shao,  L. V. Slipchenko,  T. Stauch,  R. P. Steele,  
 J. E. Subotnik,  A. J. W. Thom,  A. Tkatchenko,  D. G. Truhlar,  
 T. Van Voorhis,  T. A. Wesolowski,  K. B. Whaley,  H. L. Woodcock III,  
 P. M. Zimmerman,  S. Faraji,  P. M. W. Gill,  M. Head-Gordon,  
 J. M. Herbert,  A. I. Krylov

 Contributors to earlier versions of Q-Chem not listed above: 
 R. D. Adamson,  B. Austin,  R. Baer,  J. Baker,  G. J. O. Beran,  
 K. Brandhorst,  S. T. Brown,  E. F. C. Byrd,  A. K. Chakraborty,  
 G. K. L. Chan,  Chun-Min Chang,  Yunqing Chen,  C.-L. Cheng,  
 Siu Hung Chien,  D. M. Chipman,  D. L. Crittenden,  H. Dachsel,  
 R. J. Doerksen,  A. D. Dutoi,  R. G. Edgar,  J. Fosso-Tande,  
 L. Fusti-Molnar,  D. Ghosh,  A. Ghysels,  A. Golubeva-Zadorozhnaya,  
 J. Gonthier,  M. S. Gordon,  S. R. Gwaltney,  G. Hawkins,  J. E. Herr,  
 A. Heyden,  S. Hirata,  E. G. Hohenstein,  G. Kedziora,  F. J. Keil,  
 C. Kelley,  Jihan Kim,  R. A. King,  R. Z. Khaliullin,  P. P. Korambath,  
 W. Kurlancheek,  A. Laurent,  A. M. Lee,  M. S. Lee,  S. V. Levchenko,  
 Ching Yeh Lin,  D. Liotard,  E. Livshits,  R. C. Lochan,  I. Lotan,  
 L. A. Martinez-Martinez,  P. E. Maslen,  N. Nair,  D. P. O'Neill,  
 D. Neuhauser,  E. Neuscamman,  C. M. Oana,  R. Olivares-Amaya,  R. Olson,  
 T. M. Perrine,  B. Peters,  P. A. Pieniazek,  A. Prociuk,  Y. M. Rhee,  
 J. Ritchie,  M. A. Rohrdanz,  E. Rosta,  N. J. Russ,  H. F. Schaefer III,  
 M. W. Schmidt,  N. E. Schultz,  S. Sharma,  N. Shenvi,  C. D. Sherrill,  
 A. C. Simmonett,  A. Sodt,  T. Stein,  D. Stuck,  K. S. Thanthiriwatte,  
 V. Vanovschi,  L. Vogt,  Tao Wang,  A. Warshel,  M. A. Watson,  
 C. F. Williams,  Q. Wu,  X. Xu,  Jun Yang,  W. Zhang,  Yan Zhao

 Please cite Q-Chem as follows:
 Y. Shao et al., Mol. Phys. 113, 184-215 (2015)
 DOI: 10.1080/00268976.2014.952696

 Q-Chem 5.4.0 for Intel X86 EM64T Linux

 Parts of Q-Chem use Armadillo 9.800.1 (Horizon Scraper).
 http://arma.sourceforge.net/

 Q-Chem begins on Sun Jul 10 02:53:33 2022  

 Host: 
0

     Scratch files written to ./qchem903313//
 May1621 |scratch|qcdevops|jenkins|workspace|build_RNUM    
 Processing $rem in /cm/shared/apps/spack/cpu/opt/spack/linux-centos8-zen2/gcc-10.2.0/qchem-5.4-akfmr7b3t57bfs6qan3padb2wnb2i7cl/config/preferences:
 Processing $rem in /home/theleonzhang/.qchemrc:
 Symmetry turned off for PCM/SM12/SMD calculation
 Core orbitals will be frozen

 Checking the input file for inconsistencies... 	...done.

--------------------------------------------------------------
User input:
--------------------------------------------------------------
$molecule
0 1
C	-0.133897	-3.866725	-0.763475
C	0.106669	-3.703963	0.603206
C	0.185154	-2.357056	1.050446
H	0.226709	-4.561092	1.283024
C	0.000000	-1.440664	0.000000
S	-0.268206	-2.286957	-1.521018
C	0.437628	-1.978743	2.483610
H	0.549717	-2.878678	3.118875
H	-0.394664	-1.376015	2.903464
H	1.363110	-1.375728	2.593726
C	0.000000	0.000000	0.000000
C	0.295399	0.811508	1.099446
C	0.768742	2.111949	0.776721
H	0.169256	0.464952	2.136088
C	0.844232	2.319291	-0.612546
S	0.322342	0.885558	-1.486809
C	1.140796	3.134091	1.814609
H	0.995218	2.734123	2.836676
H	0.526006	4.054142	1.726239
H	2.203157	3.443680	1.726228
H	1.168902	3.211257	-1.161575
H	-1.077442	-4.392713	-0.946698
H	0.690363	-4.392347	-1.258274
H	-1.063612	-1.440937	0.187427
$end

$rem
JOBTYPE		SP
EXCHANGE	HF
CORRELATION	pRIMP2
BASIS		cc-pvtz
METHOD		rimp2
AUX_BASIS	rimp2-cc-pvtz
SOLVENT_METHOD	PCM
PURECART	11111
SYMMETRY	false
MEM_TOTAL	110000
SCF_CONVERGENCE = 6
THRESH=10
$end



$solvent
dielectric 4.90
$end
--------------------------------------------------------------
 ----------------------------------------------------------------
             Standard Nuclear Orientation (Angstroms)
    I     Atom           X                Y                Z
 ----------------------------------------------------------------
    1      C      -0.1338970000    -3.8667250000    -0.7634750000
    2      C       0.1066690000    -3.7039630000     0.6032060000
    3      C       0.1851540000    -2.3570560000     1.0504460000
    4      H       0.2267090000    -4.5610920000     1.2830240000
    5      C       0.0000000000    -1.4406640000     0.0000000000
    6      S      -0.2682060000    -2.2869570000    -1.5210180000
    7      C       0.4376280000    -1.9787430000     2.4836100000
    8      H       0.5497170000    -2.8786780000     3.1188750000
    9      H      -0.3946640000    -1.3760150000     2.9034640000
   10      H       1.3631100000    -1.3757280000     2.5937260000
   11      C       0.0000000000     0.0000000000     0.0000000000
   12      C       0.2953990000     0.8115080000     1.0994460000
   13      C       0.7687420000     2.1119490000     0.7767210000
   14      H       0.1692560000     0.4649520000     2.1360880000
   15      C       0.8442320000     2.3192910000    -0.6125460000
   16      S       0.3223420000     0.8855580000    -1.4868090000
   17      C       1.1407960000     3.1340910000     1.8146090000
   18      H       0.9952180000     2.7341230000     2.8366760000
   19      H       0.5260060000     4.0541420000     1.7262390000
   20      H       2.2031570000     3.4436800000     1.7262280000
   21      H       1.1689020000     3.2112570000    -1.1615750000
   22      H      -1.0774420000    -4.3927130000    -0.9466980000
   23      H       0.6903630000    -4.3923470000    -1.2582740000
   24      H      -1.0636120000    -1.4409370000     0.1874270000
 ----------------------------------------------------------------
 Nuclear Repulsion Energy =         878.63435741 hartrees
 There are       52 alpha and       52 beta electrons

 Q-Chem warning in module forms1/BasisType.C, line 2236:

 You are not using the predefined 5D/6D in this basis set.

 Requested basis set is cc-pVTZ
 There are 196 shells and 536 basis functions

 Total QAlloc Memory Limit 110000 MB
 Mega-Array Size       188 MB
 MEM_STATIC part       192 MB
 Discretize the solute cavity surface with Lebedev spheres
	Using 110 Lebedev grid points for each H atom
	Using 194 Lebedev grid points for other atoms
	Atomic van der Waals radii will be scaled by 1.20
 Remove points where switching function is < 1.0e-08
 Keep 1586 surface tesserae and discard 2062 interior tesserae
 Molecular Surface Area = 230.155 Angst**2
 Requested basis set is rimp2-cc-pVTZ
 There are 414 shells and 1414 basis functions
 A cutoff of  1.0D-10 yielded  14128 shell pairs
 There are    102268 function pairs (    131018 Cartesian)
 Smallest overlap matrix eigenvalue = 5.19E-05

 Scale SEOQF with 1.000000e-01/1.000000e-01/1.000000e-01

 Standard Electronic Orientation quadrupole field applied
 Nucleus-field energy     =     0.0000000208 hartrees
 Guess from superposition of atomic densities
 Warning:  Energy on first SCF cycle will be non-variational
 SAD guess density has 104.000000 electrons

 -----------------------------------------------------------------------
  General SCF calculation program by
  Eric Jon Sundstrom, Paul Horn, Yuezhi Mao, Dmitri Zuev, Alec White,
  David Stuck, Shaama M.S., Shane Yost, Joonho Lee, David Small,
  Daniel Levine, Susi Lehtola, Hugh Burton, Evgeny Epifanovsky,
  Bang C. Huynh
 -----------------------------------------------------------------------
 Hartree-Fock
 A restricted SCF calculation will be
 performed using DIIS
 SCF converges when DIIS error is below 1.0e-06
 ---------------------------------------
  Cycle       Energy         DIIS error
 ---------------------------------------
    1   -1186.0680903821      2.39e-02  
    2   -1180.5963948099      1.58e-03  
    3   -1180.7230409691      6.54e-04  
    4   -1180.7390634028      3.46e-04  
    5   -1180.7446718444      6.07e-05  
    6   -1180.7449298181      2.51e-05  
    7   -1180.7449910352      9.03e-06  
    8   -1180.7450042528      4.28e-06  
    9   -1180.7450072577      1.49e-06  
   10   -1180.7450077212      5.19e-07  Convergence criterion met
 ---------------------------------------
 SCF time:   CPU 590.53s  wall 592.00s 

************** Final PCM Free Energy Summary **************
 G_electrostatic  =      -0.00967554 hartree =      -6.07149262 kcal/mol
 G_cavitation     =       0.00000000 hartree =       0.00000000 kcal/mol
 G_dispersion     =       0.00000000 hartree =       0.00000000 kcal/mol
 G_repulsion      =       0.00000000 hartree =       0.00000000 kcal/mol
 --------------------------------------------------
 Non-electrostatic Free Energy =       0.00000000 hartree =       0.00000000 kcal/mol
 Total                         =      -0.00967554 hartree =      -6.07149262 kcal/mol
 --------------------------------------------------
 SCF Energy (H0 + V/2)                       =   -1180.74500772 
 Solute Internal Energy (H0)                 =   -1180.73533218 
 Total Free Energy (H0 + V/2 + non-elec)     =   -1180.74500772 hartree
                                             = -740928.67518102 kcal/mol
***********************************************************

 SCF   energy in the final basis set =    -1180.7450077212
 Total energy in the final basis set =    -1180.7450077212


 --------------------------------------------------------------
  Generalized many-body perturbation theory program
  by Joonho Lee, Fazle Rob, Xintian Feng, Evgeny Epifanovsky

 No regularization used 
 (reg. param. = 0.0000e+00)
  (P|Q)^-1/2 Time:  CPU 1.89 s  wall 1.90 s

 In RI-MP2 calculation: 
 # of frozen core orbitals: 20

 Components of the RIMP2 correlation energy:
        aaaa    correlation energy =        -0.2521940512 a.u.
        abab    correlation energy =        -1.5051627002 a.u.
        bbbb    correlation energy =        -0.2521940512 a.u.
        non-Brillouin singles      =        -0.0000000000 a.u.
        total same-spin energy     =        -0.5043881024 a.u.
        total opposite-spin energy =        -1.5051627002 a.u.

 Total  RIMP2   correlation energy =        -2.0095508027 a.u.
        RIMP2         total energy =     -1182.7545585239 a.u.

 RI-MP2 Energy Time:  CPU 79.93 s  wall 80.15 s
 
 --------------------------------------------------------------
 
                    Orbital Energies (a.u.)
 --------------------------------------------------------------
 
 Alpha MOs
 -- Occupied --
-91.9827 -91.9456 -11.2861 -11.2664 -11.2594 -11.2560 -11.2499 -11.2441
-11.2340 -11.2312 -11.2282 -11.2223  -8.9825  -8.9503  -6.6634  -6.6628
 -6.6622  -6.6317  -6.6307  -6.6294  -1.2020  -1.1523  -1.0599  -1.0320
 -1.0010  -0.9620  -0.9161  -0.8996  -0.8178  -0.7628  -0.7272  -0.7078
 -0.6563  -0.6481  -0.6101  -0.5942  -0.5871  -0.5690  -0.5603  -0.5511
 -0.5444  -0.5359  -0.5240  -0.5029  -0.4834  -0.4782  -0.4691  -0.4427
 -0.3609  -0.3432  -0.3233  -0.2626
 -- Virtual --
  0.1004   0.1299   0.1412   0.1476   0.1567   0.1718   0.1730   0.1861
  0.1870   0.2050   0.2076   0.2133   0.2190   0.2327   0.2364   0.2426
  0.2577   0.2736   0.2914   0.3086   0.3144   0.3249   0.3542   0.3566
  0.3706   0.3742   0.3836   0.3947   0.4061   0.4089   0.4173   0.4258
  0.4373   0.4519   0.4615   0.4706   0.4758   0.4789   0.4820   0.4955
  0.5090   0.5208   0.5237   0.5296   0.5405   0.5454   0.5504   0.5576
  0.5651   0.5813   0.5920   0.5946   0.6015   0.6113   0.6177   0.6222
  0.6259   0.6286   0.6327   0.6388   0.6408   0.6477   0.6537   0.6624
  0.6715   0.6756   0.6796   0.6878   0.6952   0.7187   0.7242   0.7309
  0.7409   0.7569   0.7643   0.7738   0.7802   0.7970   0.8039   0.8115
  0.8368   0.8483   0.8567   0.8582   0.8841   0.9019   0.9123   0.9215
  0.9307   0.9500   0.9519   0.9541   0.9664   0.9922   0.9996   1.0136
  1.0205   1.0320   1.0360   1.0485   1.0575   1.0629   1.0720   1.0844
  1.0909   1.0979   1.1064   1.1276   1.1414   1.1485   1.1628   1.1650
  1.1838   1.1895   1.1979   1.2099   1.2119   1.2223   1.2329   1.2393
  1.2477   1.2575   1.2655   1.2772   1.2788   1.2918   1.3075   1.3172
  1.3259   1.3314   1.3345   1.3614   1.3707   1.3793   1.4098   1.4130
  1.4234   1.4380   1.4447   1.4683   1.4787   1.4859   1.4896   1.5007
  1.5107   1.5233   1.5238   1.5288   1.5361   1.5425   1.5472   1.5645
  1.5811   1.5844   1.5961   1.6054   1.6146   1.6217   1.6312   1.6440
  1.6541   1.6574   1.6837   1.6992   1.7155   1.7229   1.7250   1.7296
  1.7678   1.7703   1.7808   1.7971   1.8209   1.8303   1.8544   1.8686
  1.8871   1.8931   1.9037   1.9278   1.9569   1.9788   1.9857   1.9995
  2.0240   2.0366   2.0561   2.0713   2.1017   2.1059   2.1565   2.1596
  2.1879   2.1919   2.2077   2.2206   2.2366   2.2416   2.2648   2.2769
  2.2845   2.3020   2.3089   2.3816   2.4169   2.4356   2.4555   2.4748
  2.5039   2.5167   2.5363   2.5507   2.5754   2.5887   2.5917   2.6292
  2.6346   2.6431   2.6488   2.6591   2.6752   2.6996   2.7107   2.7350
  2.7511   2.7553   2.7659   2.7713   2.7857   2.7964   2.8083   2.8212
  2.8302   2.8479   2.8510   2.8694   2.8907   2.9047   2.9186   2.9405
  2.9521   2.9633   2.9798   2.9863   3.0124   3.0180   3.0326   3.0408
  3.0765   3.0907   3.0951   3.1076   3.1100   3.1192   3.1280   3.1441
  3.1564   3.1604   3.1699   3.1761   3.1909   3.1950   3.2029   3.2091
  3.2231   3.2352   3.2508   3.2637   3.2674   3.2823   3.2974   3.3041
  3.3090   3.3276   3.3346   3.3401   3.3445   3.3539   3.3642   3.3713
  3.3785   3.3893   3.3948   3.4020   3.4056   3.4138   3.4210   3.4293
  3.4352   3.4507   3.4542   3.4702   3.4765   3.4903   3.5035   3.5097
  3.5121   3.5263   3.5294   3.5379   3.5400   3.5627   3.5728   3.5769
  3.5883   3.5948   3.6145   3.6250   3.6285   3.6432   3.6537   3.6548
  3.6688   3.6858   3.6943   3.6976   3.7108   3.7307   3.7374   3.7435
  3.7470   3.7602   3.7733   3.7750   3.7925   3.7972   3.8018   3.8156
  3.8312   3.8393   3.8537   3.8680   3.8765   3.8885   3.9078   3.9181
  3.9329   3.9384   3.9585   3.9622   3.9842   3.9953   4.0055   4.0265
  4.0328   4.0522   4.0559   4.0605   4.0776   4.0820   4.0919   4.1165
  4.1273   4.1443   4.1503   4.1514   4.1652   4.1735   4.1830   4.1996
  4.2229   4.2281   4.2331   4.2431   4.2500   4.2615   4.2665   4.2947
  4.2999   4.3037   4.3202   4.3406   4.3416   4.3518   4.3636   4.3726
  4.3774   4.4024   4.4038   4.4184   4.4257   4.4372   4.4441   4.4518
  4.4637   4.4695   4.4900   4.5017   4.5100   4.5413   4.5661   4.5799
  4.5974   4.6031   4.6170   4.6226   4.6508   4.6550   4.6656   4.6879
  4.6899   4.7355   4.7591   4.7788   4.7972   4.8035   4.8253   4.8501
  4.8688   4.8713   4.8903   4.9237   4.9454   4.9635   4.9770   4.9969
  5.0535   5.0746   5.0993   5.1154   5.1209   5.1261   5.1574   5.1887
  5.2128   5.2226   5.2496   5.2610   5.2842   5.2982   5.3105   5.3285
  5.3525   5.3698   5.3771   5.4037   5.4110   5.4249   5.4392   5.4417
  5.4704   5.5209   5.5307   5.5435   5.5534   5.5684   5.5750   5.6080
  5.6175   5.6234   5.6312   5.6605   5.6783   5.7068   5.7090   5.7489
  5.7702   5.8014   5.8357   5.9634   6.0287   6.0786   6.1360   6.1773
  6.2256   6.2284   6.2341   6.2619   6.2757   6.2927   6.2961   6.3303
  6.4256   6.5433   9.5525  10.8041  12.1069  12.9433  13.1602  13.9009
 14.1259  14.2119  14.4072  15.0485
 --------------------------------------------------------------
 
          Ground-State Mulliken Net Atomic Charges

     Atom                 Charge (a.u.)
  ----------------------------------------
      1 C                    -0.075177
      2 C                    -0.316910
      3 C                    -0.060215
      4 H                     0.179213
      5 C                     0.132265
      6 S                    -0.180453
      7 C                    -0.302016
      8 H                     0.122264
      9 H                     0.102028
     10 H                     0.114512
     11 C                    -0.037695
     12 C                    -0.307654
     13 C                     0.055752
     14 H                     0.189769
     15 C                    -0.281153
     16 S                     0.014817
     17 C                    -0.271588
     18 H                     0.100645
     19 H                     0.108466
     20 H                     0.108343
     21 H                     0.195850
     22 H                     0.112207
     23 H                     0.113576
     24 H                     0.183155
  ----------------------------------------
  Sum of atomic charges =     0.000000

 -----------------------------------------------------------------
                    Cartesian Multipole Moments
 -----------------------------------------------------------------
    Charge (ESU x 10^10)
                -0.0000
    Dipole Moment (Debye)
         X       0.0736      Y      -0.3558      Z       3.9202
       Tot       3.9370
    Quadrupole Moments (Debye-Ang)
        XX     -90.4807     XY       4.0635     YY     -74.2967
        XZ       0.7215     YZ      -2.5879     ZZ     -85.7535
    Octopole Moments (Debye-Ang^2)
       XXX     -74.1786    XXY      52.5067    XYY     -14.9520
       YYY     121.8247    XXZ      -2.9016    XYZ      -2.2677
       YYZ      -4.2123    XZZ     -19.5461    YZZ      53.0188
       ZZZ       8.0557
    Hexadecapole Moments (Debye-Ang^3)
      XXXX    -271.9258   XXXY    -159.7618   XXYY    -542.3690
      XYYY    -125.0997   YYYY   -2677.1536   XXXZ     -81.8666
      XXYZ     -28.9813   XYYZ     -24.2831   YYYZ     -96.5881
      XXZZ    -234.5570   XYZZ     -51.3897   YYZZ    -641.5903
      XZZZ     -77.2822   YZZZ    -125.2541   ZZZZ   -1083.2540
 -----------------------------------------------------------------
 Total job time:  675.89s(wall), 671.46s(cpu) 
 Sun Jul 10 03:04:49 2022

        *************************************************************
        *                                                           *
        *  Thank you very much for using Q-Chem.  Have a nice day.  *
        *                                                           *
        *************************************************************


remove work dirs ./qchem903313.0 -- ./qchem903313.-1
rm -rf ./qchem903313
