You are running Q-Chem version: 5.4.0

#
# job setting
#
local host:  exp-2-06
current dir: /expanse/lustre/scratch/theleonzhang/temp_project/Hydrogenated_Rotation_Test
input file:  Methylthiophene_Phi_50_Theta_180_Methylthiophene_Hydrogenated.qcin
output file: 
nprocs     : 0
nthreads   : 1
#
# qchem installation setting
#
QC:          /cm/shared/apps/spack/cpu/opt/spack/linux-centos8-zen2/gcc-10.2.0/qchem-5.4-akfmr7b3t57bfs6qan3padb2wnb2i7cl
QCAUX:       /cm/shared/apps/spack/cpu/opt/spack/linux-centos8-zen2/gcc-10.2.0/qchem-5.4-akfmr7b3t57bfs6qan3padb2wnb2i7cl/qcaux
QCPROG:      /cm/shared/apps/spack/cpu/opt/spack/linux-centos8-zen2/gcc-10.2.0/qchem-5.4-akfmr7b3t57bfs6qan3padb2wnb2i7cl/exe/qcprog.exe_s
QCPROG_S:    /cm/shared/apps/spack/cpu/opt/spack/linux-centos8-zen2/gcc-10.2.0/qchem-5.4-akfmr7b3t57bfs6qan3padb2wnb2i7cl/exe/qcprog.exe_s
PARALLEL:    -DSERIAL
QCMPI:       mpich
#
# qchem directory setting
#
qcrun:       qchem1852738
QCSCRATCH:   .
QCLOCALSCR:  
QCTMPDIR:    .
QCFILEPREF:  ./qchem1852738
QCSAVEDIR:   
workdirs:    ./qchem1852738
workdir0:    ./qchem1852738
partmpdirs =  
#
# parallel setting
#
QCRSH:           ssh
QCMPI:           mpich
QCMPIRUN:        /cm/shared/apps/spack/cpu/opt/spack/linux-centos8-zen2/gcc-10.2.0/qchem-5.4-akfmr7b3t57bfs6qan3padb2wnb2i7cl/bin/mpi/mpirun_qchem
QCMACHINEFILE:   ./qchem1852738/hostfile

#
# env setting
#
exported envs:   QC QCAUX QCSCRATCH QCRUNNAME QCFILEPREF QCPROG QCPROG_S GUIFILE

Running Job 1 of 1 Methylthiophene_Phi_50_Theta_180_Methylthiophene_Hydrogenated.qcin
qchem Methylthiophene_Phi_50_Theta_180_Methylthiophene_Hydrogenated.qcin_1852738.0 ./qchem1852738/ 0
/cm/shared/apps/spack/cpu/opt/spack/linux-centos8-zen2/gcc-10.2.0/qchem-5.4-akfmr7b3t57bfs6qan3padb2wnb2i7cl/exe/qcprog.exe_s Methylthiophene_Phi_50_Theta_180_Methylthiophene_Hydrogenated.qcin_1852738.0 ./qchem1852738/
                  Welcome to Q-Chem
     A Quantum Leap Into The Future Of Chemistry


 Q-Chem 5.4, Q-Chem, Inc., Pleasanton, CA (2021)

 License issued to: University of California, San Diego (site)

 E. Epifanovsky,  A. T. B. Gilbert,  Xintian Feng,  Joonho Lee,  Yuezhi Mao,  
 N. Mardirossian,  P. Pokhilko,  A. White,  M. Wormit,  M. P. Coons,  
 A. L. Dempwolff,  Zhengting Gan,  D. Hait,  P. R. Horn,  L. D. Jacobson,  
 I. Kaliman,  J. Kussmann,  A. W. Lange,  Ka Un Lao,  D. S. Levine,  Jie Liu,  
 S. C. McKenzie,  A. F. Morrison,  K. Nanda,  F. Plasser,  D. R. Rehn,  
 M. L. Vidal,  Zhi-Qiang You,  Ying Zhu,  B. Alam,  B. Albrecht,  
 A. Aldossary,  E. Alguire,  J. H. Andersen,  D. Barton,  K. Begam,  A. Behn,  
 Y. A. Bernard,  E. J. Berquist,  H. Burton,  A. Carreras,  K. Carter-Fenk,  
 R. Chakraborty,  A. D. Chien,  K. D. Closser,  V. Cofer-Shabica,  
 S. Dasgupta,  Jia Deng,  M. de Wergifosse,  M. Diedenhofen,  Hainam Do,  
 S. Ehlert,  Po-Tung Fang,  S. Fatehi,  Qingguo Feng,  J. Gayvert,  
 Qinghui Ge,  G. Gidofalvi,  M. Goldey,  J. Gomes,  C. Gonzalez-Espinoza,  
 S. Gulania,  A. Gunina,  M. W. D. Hanson-Heine,  P. H. P. Harbach,  
 A. W. Hauser,  M. F. Herbst,  M. Hernandez Vera,  M. Hodecker,  
 Z. C. Holden,  S. Houck,  Xunkun Huang,  Kerwin Hui,  B. C. Huynh,  
 M. Ivanov,  Hyunjun Ji,  Hanjie Jiang,  B. Kaduk,  S. Kaehler,  
 K. Khistyaev,  Jaehoon Kim,  P. Klunzinger,  Z. Koczor-Benda,  
 Joong Hoon Koh,  D. Kosenkov,  L. Koulias,  T. Kowalczyk,  C. M. Krauter,  
 K. Kue,  A. Kunitsa,  T. Kus,  A. Landau,  K. V. Lawler,  D. Lefrancois,  
 S. Lehtola,  Rain Li,  Yi-Pei Li,  Jiashu Liang,  M. Liebenthal,  
 Hung-Hsuan Lin,  You-Sheng Lin,  Fenglai Liu,  Kuan-Yu Liu,  
 M. Loipersberger,  A. Luenser,  A. Manjanath,  P. Manohar,  E. Mansoor,  
 S. F. Manzer,  Shan-Ping Mao,  A. V. Marenich,  T. Markovich,  S. Mason,  
 S. A. Maurer,  P. F. McLaughlin,  M. F. S. J. Menger,  J.-M. Mewes,  
 S. A. Mewes,  P. Morgante,  J. W. Mullinax,  T. S. Nguyen-Beck,  
 K. J. Oosterbaan,  G. Paran,  Alexander C. Paul,  Suranjan K. Paul,  
 F. Pavosevic,  Zheng Pei,  S. Prager,  E. I. Proynov,  E. Ramos,  B. Rana,  
 A. E. Rask,  A. Rettig,  R. M. Richard,  F. Rob,  E. Rossomme,  T. Scheele,  
 M. Scheurer,  M. Schneider,  N. Sergueev,  S. M. Sharada,  W. Skomorowski,  
 D. W. Small,  C. J. Stein,  Yu-Chuan Su,  E. J. Sundstrom,  Zhen Tao,  
 J. Thirman,  T. Tsuchimochi,  N. M. Tubman,  S. P. Veccham,  O. Vydrov,  
 J. Wenzel,  J. Witte,  A. Yamada,  Kun Yao,  S. Yeganeh,  S. R. Yost,  
 A. Zech,  Igor Ying Zhang,  Xing Zhang,  Yu Zhang,  D. Zuev,  
 A. Aspuru-Guzik,  A. T. Bell,  N. A. Besley,  K. B. Bravaya,  B. R. Brooks,  
 D. Casanova,  Jeng-Da Chai,  S. Coriani,  C. J. Cramer,  
 A. E. DePrince, III,  R. A. DiStasio Jr.,  A. Dreuw,  B. D. Dunietz,  
 T. R. Furlani,  W. A. Goddard III,  S. Grimme,  S. Hammes-Schiffer,  
 T. Head-Gordon,  W. J. Hehre,  Chao-Ping Hsu,  T.-C. Jagau,  Yousung Jung,  
 A. Klamt,  Jing Kong,  D. S. Lambrecht,  WanZhen Liang,  N. J. Mayhall,  
 C. W. McCurdy,  J. B. Neaton,  C. Ochsenfeld,  J. A. Parkhill,  R. Peverati,  
 V. A. Rassolov,  Yihan Shao,  L. V. Slipchenko,  T. Stauch,  R. P. Steele,  
 J. E. Subotnik,  A. J. W. Thom,  A. Tkatchenko,  D. G. Truhlar,  
 T. Van Voorhis,  T. A. Wesolowski,  K. B. Whaley,  H. L. Woodcock III,  
 P. M. Zimmerman,  S. Faraji,  P. M. W. Gill,  M. Head-Gordon,  
 J. M. Herbert,  A. I. Krylov

 Contributors to earlier versions of Q-Chem not listed above: 
 R. D. Adamson,  B. Austin,  R. Baer,  J. Baker,  G. J. O. Beran,  
 K. Brandhorst,  S. T. Brown,  E. F. C. Byrd,  A. K. Chakraborty,  
 G. K. L. Chan,  Chun-Min Chang,  Yunqing Chen,  C.-L. Cheng,  
 Siu Hung Chien,  D. M. Chipman,  D. L. Crittenden,  H. Dachsel,  
 R. J. Doerksen,  A. D. Dutoi,  R. G. Edgar,  J. Fosso-Tande,  
 L. Fusti-Molnar,  D. Ghosh,  A. Ghysels,  A. Golubeva-Zadorozhnaya,  
 J. Gonthier,  M. S. Gordon,  S. R. Gwaltney,  G. Hawkins,  J. E. Herr,  
 A. Heyden,  S. Hirata,  E. G. Hohenstein,  G. Kedziora,  F. J. Keil,  
 C. Kelley,  Jihan Kim,  R. A. King,  R. Z. Khaliullin,  P. P. Korambath,  
 W. Kurlancheek,  A. Laurent,  A. M. Lee,  M. S. Lee,  S. V. Levchenko,  
 Ching Yeh Lin,  D. Liotard,  E. Livshits,  R. C. Lochan,  I. Lotan,  
 L. A. Martinez-Martinez,  P. E. Maslen,  N. Nair,  D. P. O'Neill,  
 D. Neuhauser,  E. Neuscamman,  C. M. Oana,  R. Olivares-Amaya,  R. Olson,  
 T. M. Perrine,  B. Peters,  P. A. Pieniazek,  A. Prociuk,  Y. M. Rhee,  
 J. Ritchie,  M. A. Rohrdanz,  E. Rosta,  N. J. Russ,  H. F. Schaefer III,  
 M. W. Schmidt,  N. E. Schultz,  S. Sharma,  N. Shenvi,  C. D. Sherrill,  
 A. C. Simmonett,  A. Sodt,  T. Stein,  D. Stuck,  K. S. Thanthiriwatte,  
 V. Vanovschi,  L. Vogt,  Tao Wang,  A. Warshel,  M. A. Watson,  
 C. F. Williams,  Q. Wu,  X. Xu,  Jun Yang,  W. Zhang,  Yan Zhao

 Please cite Q-Chem as follows:
 Y. Shao et al., Mol. Phys. 113, 184-215 (2015)
 DOI: 10.1080/00268976.2014.952696

 Q-Chem 5.4.0 for Intel X86 EM64T Linux

 Parts of Q-Chem use Armadillo 9.800.1 (Horizon Scraper).
 http://arma.sourceforge.net/

 Q-Chem begins on Sun Jul 10 02:52:24 2022  

 Host: 
0

     Scratch files written to ./qchem1852738//
 May1621 |scratch|qcdevops|jenkins|workspace|build_RNUM    
 Processing $rem in /cm/shared/apps/spack/cpu/opt/spack/linux-centos8-zen2/gcc-10.2.0/qchem-5.4-akfmr7b3t57bfs6qan3padb2wnb2i7cl/config/preferences:
 Processing $rem in /home/theleonzhang/.qchemrc:
 Symmetry turned off for PCM/SM12/SMD calculation
 Core orbitals will be frozen

 Checking the input file for inconsistencies... 	...done.

--------------------------------------------------------------
User input:
--------------------------------------------------------------
$molecule
0 1
C	0.000713	-3.866725	-0.775127
C	0.000302	-3.703963	0.612565
C	-0.000067	-2.357056	1.066639
H	0.000470	-4.561092	1.302900
C	0.000000	-1.440664	0.000000
S	-0.000009	-2.286957	-1.544483
C	-0.000295	-1.978743	2.521872
H	-0.000221	-2.878678	3.166949
H	-0.892850	-1.376015	2.790821
H	0.892005	-1.375728	2.791023
C	0.000000	0.000000	0.000000
C	0.661577	0.555087	1.099446
C	1.721724	1.444630	0.776721
H	0.379056	0.318032	2.136088
C	1.890772	1.586449	-0.612546
S	0.721935	0.605744	-1.486809
C	2.555004	2.143805	1.814609
H	2.228946	1.870211	2.836676
H	2.482605	3.247987	1.726239
H	3.629830	1.880735	1.726228
H	2.617927	2.196579	-1.161575
H	-0.896681	-4.392713	-1.119411
H	0.898372	-4.392347	-1.119277
H	-1.080000	-1.440937	-0.000115
$end

$rem
JOBTYPE		SP
EXCHANGE	HF
CORRELATION	pRIMP2
BASIS		cc-pvtz
METHOD		rimp2
AUX_BASIS	rimp2-cc-pvtz
SOLVENT_METHOD	PCM
PURECART	11111
SYMMETRY	false
MEM_TOTAL	110000
SCF_CONVERGENCE = 6
THRESH=10
$end



$solvent
dielectric 4.90
$end
--------------------------------------------------------------
 ----------------------------------------------------------------
             Standard Nuclear Orientation (Angstroms)
    I     Atom           X                Y                Z
 ----------------------------------------------------------------
    1      C       0.0007130000    -3.8667250000    -0.7751270000
    2      C       0.0003020000    -3.7039630000     0.6125650000
    3      C      -0.0000670000    -2.3570560000     1.0666390000
    4      H       0.0004700000    -4.5610920000     1.3029000000
    5      C       0.0000000000    -1.4406640000     0.0000000000
    6      S      -0.0000090000    -2.2869570000    -1.5444830000
    7      C      -0.0002950000    -1.9787430000     2.5218720000
    8      H      -0.0002210000    -2.8786780000     3.1669490000
    9      H      -0.8928500000    -1.3760150000     2.7908210000
   10      H       0.8920050000    -1.3757280000     2.7910230000
   11      C       0.0000000000     0.0000000000     0.0000000000
   12      C       0.6615770000     0.5550870000     1.0994460000
   13      C       1.7217240000     1.4446300000     0.7767210000
   14      H       0.3790560000     0.3180320000     2.1360880000
   15      C       1.8907720000     1.5864490000    -0.6125460000
   16      S       0.7219350000     0.6057440000    -1.4868090000
   17      C       2.5550040000     2.1438050000     1.8146090000
   18      H       2.2289460000     1.8702110000     2.8366760000
   19      H       2.4826050000     3.2479870000     1.7262390000
   20      H       3.6298300000     1.8807350000     1.7262280000
   21      H       2.6179270000     2.1965790000    -1.1615750000
   22      H      -0.8966810000    -4.3927130000    -1.1194110000
   23      H       0.8983720000    -4.3923470000    -1.1192770000
   24      H      -1.0800000000    -1.4409370000    -0.0001150000
 ----------------------------------------------------------------
 Nuclear Repulsion Energy =         895.22497737 hartrees
 There are       52 alpha and       52 beta electrons

 Q-Chem warning in module forms1/BasisType.C, line 2236:

 You are not using the predefined 5D/6D in this basis set.

 Requested basis set is cc-pVTZ
 There are 196 shells and 536 basis functions

 Total QAlloc Memory Limit 110000 MB
 Mega-Array Size       188 MB
 MEM_STATIC part       192 MB
 Discretize the solute cavity surface with Lebedev spheres
	Using 110 Lebedev grid points for each H atom
	Using 194 Lebedev grid points for other atoms
	Atomic van der Waals radii will be scaled by 1.20
 Remove points where switching function is < 1.0e-08
 Keep 1549 surface tesserae and discard 2099 interior tesserae
 Molecular Surface Area = 227.239 Angst**2
 Requested basis set is rimp2-cc-pVTZ
 There are 414 shells and 1414 basis functions
 A cutoff of  1.0D-10 yielded  14498 shell pairs
 There are    105168 function pairs (    134757 Cartesian)
 Smallest overlap matrix eigenvalue = 6.45E-05

 Scale SEOQF with 1.000000e-01/1.000000e-01/1.000000e-01

 Standard Electronic Orientation quadrupole field applied
 Nucleus-field energy     =     0.0000000169 hartrees
 Guess from superposition of atomic densities
 Warning:  Energy on first SCF cycle will be non-variational
 SAD guess density has 104.000000 electrons

 -----------------------------------------------------------------------
  General SCF calculation program by
  Eric Jon Sundstrom, Paul Horn, Yuezhi Mao, Dmitri Zuev, Alec White,
  David Stuck, Shaama M.S., Shane Yost, Joonho Lee, David Small,
  Daniel Levine, Susi Lehtola, Hugh Burton, Evgeny Epifanovsky,
  Bang C. Huynh
 -----------------------------------------------------------------------
 Hartree-Fock
 A restricted SCF calculation will be
 performed using DIIS
 SCF converges when DIIS error is below 1.0e-06
 ---------------------------------------
  Cycle       Energy         DIIS error
 ---------------------------------------
    1   -1186.1648680704      2.40e-02  
    2   -1180.5403646953      1.55e-03  
    3   -1180.6676829595      5.80e-04  
    4   -1180.6819244723      3.13e-04  
    5   -1180.6866326203      6.61e-05  
    6   -1180.6869589338      2.80e-05  
    7   -1180.6870591280      1.33e-05  
    8   -1180.6870912302      6.50e-06  
    9   -1180.6871013775      2.89e-06  
   10   -1180.6871032333      1.12e-06  
   11   -1180.6871035379      5.27e-07  Convergence criterion met
 ---------------------------------------
 SCF time:   CPU 663.09s  wall 666.00s 

************** Final PCM Free Energy Summary **************
 G_electrostatic  =      -0.01000159 hartree =      -6.27608934 kcal/mol
 G_cavitation     =       0.00000000 hartree =       0.00000000 kcal/mol
 G_dispersion     =       0.00000000 hartree =       0.00000000 kcal/mol
 G_repulsion      =       0.00000000 hartree =       0.00000000 kcal/mol
 --------------------------------------------------
 Non-electrostatic Free Energy =       0.00000000 hartree =       0.00000000 kcal/mol
 Total                         =      -0.01000159 hartree =      -6.27608934 kcal/mol
 --------------------------------------------------
 SCF Energy (H0 + V/2)                       =   -1180.68710354 
 Solute Internal Energy (H0)                 =   -1180.67710195 
 Total Free Energy (H0 + V/2 + non-elec)     =   -1180.68710354 hartree
                                             = -740892.33975761 kcal/mol
***********************************************************

 SCF   energy in the final basis set =    -1180.6871035379
 Total energy in the final basis set =    -1180.6871035379


 --------------------------------------------------------------
  Generalized many-body perturbation theory program
  by Joonho Lee, Fazle Rob, Xintian Feng, Evgeny Epifanovsky

 No regularization used 
 (reg. param. = 0.0000e+00)
  (P|Q)^-1/2 Time:  CPU 1.91 s  wall 1.92 s

 In RI-MP2 calculation: 
 # of frozen core orbitals: 20

 Components of the RIMP2 correlation energy:
        aaaa    correlation energy =        -0.2549943264 a.u.
        abab    correlation energy =        -1.5143922809 a.u.
        bbbb    correlation energy =        -0.2549943264 a.u.
        non-Brillouin singles      =        -0.0000000000 a.u.
        total same-spin energy     =        -0.5099886528 a.u.
        total opposite-spin energy =        -1.5143922809 a.u.

 Total  RIMP2   correlation energy =        -2.0243809337 a.u.
        RIMP2         total energy =     -1182.7114844716 a.u.

 RI-MP2 Energy Time:  CPU 80.94 s  wall 81.26 s
 
 --------------------------------------------------------------
 
                    Orbital Energies (a.u.)
 --------------------------------------------------------------
 
 Alpha MOs
 -- Occupied --
-91.9788 -91.9405 -11.2731 -11.2637 -11.2624 -11.2504 -11.2495 -11.2450
-11.2389 -11.2327 -11.2293 -11.2148  -8.9795  -8.9452  -6.6603  -6.6595
 -6.6591  -6.6265  -6.6255  -6.6242  -1.2022  -1.1526  -1.0578  -1.0324
 -0.9976  -0.9646  -0.9136  -0.9004  -0.8138  -0.7598  -0.7316  -0.7103
 -0.6502  -0.6432  -0.6102  -0.5954  -0.5883  -0.5685  -0.5636  -0.5466
 -0.5459  -0.5349  -0.5230  -0.5047  -0.4793  -0.4747  -0.4537  -0.4356
 -0.3618  -0.3391  -0.3211  -0.2536
 -- Virtual --
  0.0696   0.1309   0.1419   0.1489   0.1590   0.1710   0.1777   0.1825
  0.1861   0.2054   0.2093   0.2164   0.2238   0.2286   0.2380   0.2432
  0.2500   0.2672   0.2858   0.3108   0.3144   0.3213   0.3333   0.3629
  0.3690   0.3695   0.3835   0.3927   0.4045   0.4124   0.4212   0.4276
  0.4338   0.4407   0.4605   0.4675   0.4762   0.4794   0.4899   0.4937
  0.5089   0.5125   0.5181   0.5253   0.5397   0.5463   0.5543   0.5558
  0.5733   0.5800   0.5928   0.5957   0.6060   0.6126   0.6159   0.6172
  0.6253   0.6294   0.6333   0.6348   0.6423   0.6520   0.6548   0.6600
  0.6733   0.6760   0.6847   0.6870   0.7033   0.7103   0.7181   0.7304
  0.7382   0.7510   0.7606   0.7742   0.7834   0.7907   0.8032   0.8188
  0.8397   0.8525   0.8584   0.8737   0.8742   0.8919   0.8992   0.9073
  0.9259   0.9446   0.9531   0.9668   0.9695   0.9772   0.9996   1.0100
  1.0243   1.0344   1.0397   1.0491   1.0578   1.0746   1.0804   1.0898
  1.0944   1.1031   1.1122   1.1336   1.1442   1.1479   1.1619   1.1768
  1.1801   1.1921   1.1986   1.2181   1.2227   1.2277   1.2397   1.2449
  1.2584   1.2624   1.2668   1.2799   1.2819   1.3085   1.3095   1.3203
  1.3273   1.3416   1.3431   1.3636   1.3859   1.3943   1.4072   1.4154
  1.4191   1.4339   1.4426   1.4522   1.4713   1.4765   1.4949   1.5057
  1.5067   1.5181   1.5327   1.5401   1.5451   1.5506   1.5564   1.5623
  1.5726   1.5873   1.5944   1.6111   1.6154   1.6313   1.6453   1.6522
  1.6554   1.6665   1.6798   1.7000   1.7075   1.7168   1.7269   1.7335
  1.7555   1.7682   1.7984   1.8069   1.8145   1.8309   1.8382   1.8663
  1.8850   1.8962   1.9133   1.9351   1.9621   1.9858   1.9975   2.0148
  2.0162   2.0402   2.0574   2.0865   2.0900   2.1126   2.1336   2.1503
  2.1818   2.1991   2.2119   2.2231   2.2341   2.2395   2.2572   2.2874
  2.3036   2.3073   2.3438   2.3896   2.4178   2.4454   2.4560   2.4584
  2.4878   2.5064   2.5374   2.5548   2.5791   2.5976   2.6136   2.6268
  2.6409   2.6503   2.6667   2.6715   2.6827   2.6955   2.7169   2.7280
  2.7578   2.7660   2.7692   2.7722   2.7873   2.7967   2.8199   2.8229
  2.8372   2.8509   2.8723   2.8775   2.8886   2.9194   2.9319   2.9411
  2.9593   2.9694   2.9881   2.9932   3.0134   3.0219   3.0338   3.0383
  3.0517   3.0722   3.0933   3.1111   3.1122   3.1183   3.1348   3.1453
  3.1514   3.1626   3.1673   3.1826   3.1884   3.1976   3.2044   3.2182
  3.2325   3.2411   3.2584   3.2641   3.2789   3.2826   3.2975   3.3120
  3.3167   3.3234   3.3290   3.3325   3.3539   3.3557   3.3597   3.3653
  3.3726   3.3799   3.4026   3.4088   3.4145   3.4219   3.4331   3.4457
  3.4499   3.4571   3.4594   3.4697   3.4763   3.5012   3.5099   3.5115
  3.5237   3.5304   3.5336   3.5436   3.5537   3.5580   3.5619   3.5798
  3.5887   3.6037   3.6157   3.6327   3.6375   3.6546   3.6607   3.6735
  3.6821   3.6871   3.7101   3.7142   3.7300   3.7317   3.7355   3.7418
  3.7605   3.7792   3.7823   3.7943   3.8011   3.8046   3.8100   3.8224
  3.8503   3.8561   3.8674   3.8787   3.8936   3.9008   3.9138   3.9256
  3.9450   3.9609   3.9693   3.9781   4.0039   4.0088   4.0267   4.0310
  4.0355   4.0524   4.0660   4.0769   4.0845   4.0977   4.1073   4.1342
  4.1371   4.1464   4.1533   4.1649   4.1764   4.1807   4.1977   4.2100
  4.2162   4.2267   4.2403   4.2450   4.2605   4.2666   4.2820   4.2877
  4.3078   4.3172   4.3303   4.3378   4.3489   4.3588   4.3711   4.3829
  4.4024   4.4073   4.4170   4.4220   4.4342   4.4394   4.4542   4.4595
  4.4659   4.4836   4.4864   4.4999   4.5195   4.5563   4.5657   4.5882
  4.6024   4.6130   4.6296   4.6384   4.6452   4.6654   4.6692   4.7084
  4.7213   4.7261   4.7636   4.7880   4.8099   4.8210   4.8421   4.8621
  4.8851   4.8949   4.9205   4.9326   4.9453   4.9531   4.9730   4.9914
  5.0601   5.0697   5.0883   5.0926   5.1154   5.1294   5.1372   5.1834
  5.2007   5.2163   5.2320   5.2656   5.2815   5.2977   5.3157   5.3246
  5.3462   5.3667   5.3856   5.4117   5.4159   5.4329   5.4447   5.4510
  5.4826   5.5093   5.5374   5.5471   5.5533   5.5651   5.5854   5.6024
  5.6148   5.6261   5.6402   5.6683   5.6940   5.7092   5.7141   5.7203
  5.7751   5.8029   5.8273   5.9757   6.0323   6.0452   6.1110   6.1565
  6.2191   6.2298   6.2362   6.2462   6.2632   6.2762   6.3027   6.3172
  6.4111   6.4342   9.5182  10.4888  12.3970  12.8402  13.1779  13.9481
 14.1479  14.2235  14.3246  14.7891
 --------------------------------------------------------------
 
          Ground-State Mulliken Net Atomic Charges

     Atom                 Charge (a.u.)
  ----------------------------------------
      1 C                    -0.077799
      2 C                    -0.337619
      3 C                    -0.030683
      4 H                     0.175506
      5 C                     0.082199
      6 S                    -0.187632
      7 C                    -0.294194
      8 H                     0.120362
      9 H                     0.106092
     10 H                     0.104546
     11 C                    -0.101675
     12 C                    -0.220038
     13 C                     0.017488
     14 H                     0.197233
     15 C                    -0.221163
     16 S                     0.023143
     17 C                    -0.270854
     18 H                     0.100710
     19 H                     0.109333
     20 H                     0.106446
     21 H                     0.198668
     22 H                     0.109234
     23 H                     0.110888
     24 H                     0.179809
  ----------------------------------------
  Sum of atomic charges =     0.000000

 -----------------------------------------------------------------
                    Cartesian Multipole Moments
 -----------------------------------------------------------------
    Charge (ESU x 10^10)
                -0.0000
    Dipole Moment (Debye)
         X       1.0489      Y       0.3463      Z       3.8858
       Tot       4.0398
    Quadrupole Moments (Debye-Ang)
        XX     -85.0950     XY       6.8186     YY     -81.1904
        XZ       0.7555     YZ      -2.7307     ZZ     -85.2245
    Octopole Moments (Debye-Ang^2)
       XXX    -146.3714    XXY      87.7368    XYY     -43.7853
       YYY     179.5418    XXZ      -5.3325    XYZ      -2.3027
       YYZ      -4.5099    XZZ     -47.3594    YZZ      72.8752
       ZZZ       9.2292
    Hexadecapole Moments (Debye-Ang^3)
      XXXX    -686.7505   XXXY    -212.5096   XXYY    -524.2210
      XYYY    -223.5175   YYYY   -2323.5966   XXXZ     -80.3834
      XXYZ     -25.4399   XYYZ     -29.1548   YYYZ     -60.0134
      XXZZ    -300.8309   XYZZ     -68.7476   YYZZ    -582.9912
      XZZZ     -73.7655   YZZZ     -95.9309   ZZZZ   -1096.7677
 -----------------------------------------------------------------
 Total job time:  748.41s(wall), 744.93s(cpu) 
 Sun Jul 10 03:04:52 2022

        *************************************************************
        *                                                           *
        *  Thank you very much for using Q-Chem.  Have a nice day.  *
        *                                                           *
        *************************************************************


remove work dirs ./qchem1852738.0 -- ./qchem1852738.-1
rm -rf ./qchem1852738
