You are running Q-Chem version: 5.4.0

#
# job setting
#
local host:  exp-2-06
current dir: /expanse/lustre/scratch/theleonzhang/temp_project/Hydrogenated_Rotation_Test
input file:  Methylthiophene_Phi_50_Theta_320_Methylthiophene_Hydrogenated.qcin
output file: 
nprocs     : 0
nthreads   : 1
#
# qchem installation setting
#
QC:          /cm/shared/apps/spack/cpu/opt/spack/linux-centos8-zen2/gcc-10.2.0/qchem-5.4-akfmr7b3t57bfs6qan3padb2wnb2i7cl
QCAUX:       /cm/shared/apps/spack/cpu/opt/spack/linux-centos8-zen2/gcc-10.2.0/qchem-5.4-akfmr7b3t57bfs6qan3padb2wnb2i7cl/qcaux
QCPROG:      /cm/shared/apps/spack/cpu/opt/spack/linux-centos8-zen2/gcc-10.2.0/qchem-5.4-akfmr7b3t57bfs6qan3padb2wnb2i7cl/exe/qcprog.exe_s
QCPROG_S:    /cm/shared/apps/spack/cpu/opt/spack/linux-centos8-zen2/gcc-10.2.0/qchem-5.4-akfmr7b3t57bfs6qan3padb2wnb2i7cl/exe/qcprog.exe_s
PARALLEL:    -DSERIAL
QCMPI:       mpich
#
# qchem directory setting
#
qcrun:       qchem1925091
QCSCRATCH:   .
QCLOCALSCR:  
QCTMPDIR:    .
QCFILEPREF:  ./qchem1925091
QCSAVEDIR:   
workdirs:    ./qchem1925091
workdir0:    ./qchem1925091
partmpdirs =  
#
# parallel setting
#
QCRSH:           ssh
QCMPI:           mpich
QCMPIRUN:        /cm/shared/apps/spack/cpu/opt/spack/linux-centos8-zen2/gcc-10.2.0/qchem-5.4-akfmr7b3t57bfs6qan3padb2wnb2i7cl/bin/mpi/mpirun_qchem
QCMACHINEFILE:   ./qchem1925091/hostfile

#
# env setting
#
exported envs:   QC QCAUX QCSCRATCH QCRUNNAME QCFILEPREF QCPROG QCPROG_S GUIFILE

Running Job 1 of 1 Methylthiophene_Phi_50_Theta_320_Methylthiophene_Hydrogenated.qcin
qchem Methylthiophene_Phi_50_Theta_320_Methylthiophene_Hydrogenated.qcin_1925091.0 ./qchem1925091/ 0
/cm/shared/apps/spack/cpu/opt/spack/linux-centos8-zen2/gcc-10.2.0/qchem-5.4-akfmr7b3t57bfs6qan3padb2wnb2i7cl/exe/qcprog.exe_s Methylthiophene_Phi_50_Theta_320_Methylthiophene_Hydrogenated.qcin_1925091.0 ./qchem1925091/
                  Welcome to Q-Chem
     A Quantum Leap Into The Future Of Chemistry


 Q-Chem 5.4, Q-Chem, Inc., Pleasanton, CA (2021)

 License issued to: University of California, San Diego (site)

 E. Epifanovsky,  A. T. B. Gilbert,  Xintian Feng,  Joonho Lee,  Yuezhi Mao,  
 N. Mardirossian,  P. Pokhilko,  A. White,  M. Wormit,  M. P. Coons,  
 A. L. Dempwolff,  Zhengting Gan,  D. Hait,  P. R. Horn,  L. D. Jacobson,  
 I. Kaliman,  J. Kussmann,  A. W. Lange,  Ka Un Lao,  D. S. Levine,  Jie Liu,  
 S. C. McKenzie,  A. F. Morrison,  K. Nanda,  F. Plasser,  D. R. Rehn,  
 M. L. Vidal,  Zhi-Qiang You,  Ying Zhu,  B. Alam,  B. Albrecht,  
 A. Aldossary,  E. Alguire,  J. H. Andersen,  D. Barton,  K. Begam,  A. Behn,  
 Y. A. Bernard,  E. J. Berquist,  H. Burton,  A. Carreras,  K. Carter-Fenk,  
 R. Chakraborty,  A. D. Chien,  K. D. Closser,  V. Cofer-Shabica,  
 S. Dasgupta,  Jia Deng,  M. de Wergifosse,  M. Diedenhofen,  Hainam Do,  
 S. Ehlert,  Po-Tung Fang,  S. Fatehi,  Qingguo Feng,  J. Gayvert,  
 Qinghui Ge,  G. Gidofalvi,  M. Goldey,  J. Gomes,  C. Gonzalez-Espinoza,  
 S. Gulania,  A. Gunina,  M. W. D. Hanson-Heine,  P. H. P. Harbach,  
 A. W. Hauser,  M. F. Herbst,  M. Hernandez Vera,  M. Hodecker,  
 Z. C. Holden,  S. Houck,  Xunkun Huang,  Kerwin Hui,  B. C. Huynh,  
 M. Ivanov,  Hyunjun Ji,  Hanjie Jiang,  B. Kaduk,  S. Kaehler,  
 K. Khistyaev,  Jaehoon Kim,  P. Klunzinger,  Z. Koczor-Benda,  
 Joong Hoon Koh,  D. Kosenkov,  L. Koulias,  T. Kowalczyk,  C. M. Krauter,  
 K. Kue,  A. Kunitsa,  T. Kus,  A. Landau,  K. V. Lawler,  D. Lefrancois,  
 S. Lehtola,  Rain Li,  Yi-Pei Li,  Jiashu Liang,  M. Liebenthal,  
 Hung-Hsuan Lin,  You-Sheng Lin,  Fenglai Liu,  Kuan-Yu Liu,  
 M. Loipersberger,  A. Luenser,  A. Manjanath,  P. Manohar,  E. Mansoor,  
 S. F. Manzer,  Shan-Ping Mao,  A. V. Marenich,  T. Markovich,  S. Mason,  
 S. A. Maurer,  P. F. McLaughlin,  M. F. S. J. Menger,  J.-M. Mewes,  
 S. A. Mewes,  P. Morgante,  J. W. Mullinax,  T. S. Nguyen-Beck,  
 K. J. Oosterbaan,  G. Paran,  Alexander C. Paul,  Suranjan K. Paul,  
 F. Pavosevic,  Zheng Pei,  S. Prager,  E. I. Proynov,  E. Ramos,  B. Rana,  
 A. E. Rask,  A. Rettig,  R. M. Richard,  F. Rob,  E. Rossomme,  T. Scheele,  
 M. Scheurer,  M. Schneider,  N. Sergueev,  S. M. Sharada,  W. Skomorowski,  
 D. W. Small,  C. J. Stein,  Yu-Chuan Su,  E. J. Sundstrom,  Zhen Tao,  
 J. Thirman,  T. Tsuchimochi,  N. M. Tubman,  S. P. Veccham,  O. Vydrov,  
 J. Wenzel,  J. Witte,  A. Yamada,  Kun Yao,  S. Yeganeh,  S. R. Yost,  
 A. Zech,  Igor Ying Zhang,  Xing Zhang,  Yu Zhang,  D. Zuev,  
 A. Aspuru-Guzik,  A. T. Bell,  N. A. Besley,  K. B. Bravaya,  B. R. Brooks,  
 D. Casanova,  Jeng-Da Chai,  S. Coriani,  C. J. Cramer,  
 A. E. DePrince, III,  R. A. DiStasio Jr.,  A. Dreuw,  B. D. Dunietz,  
 T. R. Furlani,  W. A. Goddard III,  S. Grimme,  S. Hammes-Schiffer,  
 T. Head-Gordon,  W. J. Hehre,  Chao-Ping Hsu,  T.-C. Jagau,  Yousung Jung,  
 A. Klamt,  Jing Kong,  D. S. Lambrecht,  WanZhen Liang,  N. J. Mayhall,  
 C. W. McCurdy,  J. B. Neaton,  C. Ochsenfeld,  J. A. Parkhill,  R. Peverati,  
 V. A. Rassolov,  Yihan Shao,  L. V. Slipchenko,  T. Stauch,  R. P. Steele,  
 J. E. Subotnik,  A. J. W. Thom,  A. Tkatchenko,  D. G. Truhlar,  
 T. Van Voorhis,  T. A. Wesolowski,  K. B. Whaley,  H. L. Woodcock III,  
 P. M. Zimmerman,  S. Faraji,  P. M. W. Gill,  M. Head-Gordon,  
 J. M. Herbert,  A. I. Krylov

 Contributors to earlier versions of Q-Chem not listed above: 
 R. D. Adamson,  B. Austin,  R. Baer,  J. Baker,  G. J. O. Beran,  
 K. Brandhorst,  S. T. Brown,  E. F. C. Byrd,  A. K. Chakraborty,  
 G. K. L. Chan,  Chun-Min Chang,  Yunqing Chen,  C.-L. Cheng,  
 Siu Hung Chien,  D. M. Chipman,  D. L. Crittenden,  H. Dachsel,  
 R. J. Doerksen,  A. D. Dutoi,  R. G. Edgar,  J. Fosso-Tande,  
 L. Fusti-Molnar,  D. Ghosh,  A. Ghysels,  A. Golubeva-Zadorozhnaya,  
 J. Gonthier,  M. S. Gordon,  S. R. Gwaltney,  G. Hawkins,  J. E. Herr,  
 A. Heyden,  S. Hirata,  E. G. Hohenstein,  G. Kedziora,  F. J. Keil,  
 C. Kelley,  Jihan Kim,  R. A. King,  R. Z. Khaliullin,  P. P. Korambath,  
 W. Kurlancheek,  A. Laurent,  A. M. Lee,  M. S. Lee,  S. V. Levchenko,  
 Ching Yeh Lin,  D. Liotard,  E. Livshits,  R. C. Lochan,  I. Lotan,  
 L. A. Martinez-Martinez,  P. E. Maslen,  N. Nair,  D. P. O'Neill,  
 D. Neuhauser,  E. Neuscamman,  C. M. Oana,  R. Olivares-Amaya,  R. Olson,  
 T. M. Perrine,  B. Peters,  P. A. Pieniazek,  A. Prociuk,  Y. M. Rhee,  
 J. Ritchie,  M. A. Rohrdanz,  E. Rosta,  N. J. Russ,  H. F. Schaefer III,  
 M. W. Schmidt,  N. E. Schultz,  S. Sharma,  N. Shenvi,  C. D. Sherrill,  
 A. C. Simmonett,  A. Sodt,  T. Stein,  D. Stuck,  K. S. Thanthiriwatte,  
 V. Vanovschi,  L. Vogt,  Tao Wang,  A. Warshel,  M. A. Watson,  
 C. F. Williams,  Q. Wu,  X. Xu,  Jun Yang,  W. Zhang,  Yan Zhao

 Please cite Q-Chem as follows:
 Y. Shao et al., Mol. Phys. 113, 184-215 (2015)
 DOI: 10.1080/00268976.2014.952696

 Q-Chem 5.4.0 for Intel X86 EM64T Linux

 Parts of Q-Chem use Armadillo 9.800.1 (Horizon Scraper).
 http://arma.sourceforge.net/

 Q-Chem begins on Sun Jul 10 05:31:45 2022  

 Host: 
0

     Scratch files written to ./qchem1925091//
 May1621 |scratch|qcdevops|jenkins|workspace|build_RNUM    
 Processing $rem in /cm/shared/apps/spack/cpu/opt/spack/linux-centos8-zen2/gcc-10.2.0/qchem-5.4-akfmr7b3t57bfs6qan3padb2wnb2i7cl/config/preferences:
 Processing $rem in /home/theleonzhang/.qchemrc:
 Symmetry turned off for PCM/SM12/SMD calculation
 Core orbitals will be frozen

 Checking the input file for inconsistencies... 	...done.

--------------------------------------------------------------
User input:
--------------------------------------------------------------
$molecule
0 1
C	0.497696	-3.866725	0.594240
C	-0.393981	-3.703963	-0.469057
C	-0.685571	-2.357056	-0.817136
H	-0.837848	-4.561092	-0.997777
C	0.000000	-1.440664	0.000000
S	0.992782	-2.286957	1.183137
C	-1.620802	-1.978743	-1.932056
H	-2.035506	-2.878678	-2.426166
H	-1.109943	-1.376015	-2.711806
H	-2.477350	-1.375728	-1.564678
C	0.000000	0.000000	0.000000
C	0.661577	0.555087	1.099446
C	1.721724	1.444630	0.776721
H	0.379056	0.318032	2.136088
C	1.890772	1.586449	-0.612546
S	0.721935	0.605744	-1.486809
C	2.555004	2.143805	1.814609
H	2.228946	1.870211	2.836676
H	2.482605	3.247987	1.726239
H	3.629830	1.880735	1.726228
H	2.617927	2.196579	-1.161575
H	1.406441	-4.392713	0.281143
H	0.031265	-4.392347	1.434879
H	-0.827402	-1.440391	0.694122
$end

$rem
JOBTYPE		SP
EXCHANGE	HF
CORRELATION	pRIMP2
BASIS		cc-pvtz
METHOD		rimp2
AUX_BASIS	rimp2-cc-pvtz
SOLVENT_METHOD	PCM
PURECART	11111
SYMMETRY	false
MEM_TOTAL	110000
SCF_CONVERGENCE = 6
THRESH=10
$end



$solvent
dielectric 4.90
$end
--------------------------------------------------------------
 ----------------------------------------------------------------
             Standard Nuclear Orientation (Angstroms)
    I     Atom           X                Y                Z
 ----------------------------------------------------------------
    1      C       0.4976960000    -3.8667250000     0.5942400000
    2      C      -0.3939810000    -3.7039630000    -0.4690570000
    3      C      -0.6855710000    -2.3570560000    -0.8171360000
    4      H      -0.8378480000    -4.5610920000    -0.9977770000
    5      C       0.0000000000    -1.4406640000     0.0000000000
    6      S       0.9927820000    -2.2869570000     1.1831370000
    7      C      -1.6208020000    -1.9787430000    -1.9320560000
    8      H      -2.0355060000    -2.8786780000    -2.4261660000
    9      H      -1.1099430000    -1.3760150000    -2.7118060000
   10      H      -2.4773500000    -1.3757280000    -1.5646780000
   11      C       0.0000000000     0.0000000000     0.0000000000
   12      C       0.6615770000     0.5550870000     1.0994460000
   13      C       1.7217240000     1.4446300000     0.7767210000
   14      H       0.3790560000     0.3180320000     2.1360880000
   15      C       1.8907720000     1.5864490000    -0.6125460000
   16      S       0.7219350000     0.6057440000    -1.4868090000
   17      C       2.5550040000     2.1438050000     1.8146090000
   18      H       2.2289460000     1.8702110000     2.8366760000
   19      H       2.4826050000     3.2479870000     1.7262390000
   20      H       3.6298300000     1.8807350000     1.7262280000
   21      H       2.6179270000     2.1965790000    -1.1615750000
   22      H       1.4064410000    -4.3927130000     0.2811430000
   23      H       0.0312650000    -4.3923470000     1.4348790000
   24      H      -0.8274020000    -1.4403910000     0.6941220000
 ----------------------------------------------------------------
 Nuclear Repulsion Energy =         892.92877029 hartrees
 There are       52 alpha and       52 beta electrons

 Q-Chem warning in module forms1/BasisType.C, line 2236:

 You are not using the predefined 5D/6D in this basis set.

 Requested basis set is cc-pVTZ
 There are 196 shells and 536 basis functions

 Total QAlloc Memory Limit 110000 MB
 Mega-Array Size       188 MB
 MEM_STATIC part       192 MB
 Discretize the solute cavity surface with Lebedev spheres
	Using 110 Lebedev grid points for each H atom
	Using 194 Lebedev grid points for other atoms
	Atomic van der Waals radii will be scaled by 1.20
 Remove points where switching function is < 1.0e-08
 Keep 1583 surface tesserae and discard 2065 interior tesserae
 Molecular Surface Area = 231.164 Angst**2
 Requested basis set is rimp2-cc-pVTZ
 There are 414 shells and 1414 basis functions
 A cutoff of  1.0D-10 yielded  14240 shell pairs
 There are    103290 function pairs (    132502 Cartesian)
 Smallest overlap matrix eigenvalue = 6.89E-05

 Scale SEOQF with 1.000000e-01/1.000000e-01/1.000000e-01

 Standard Electronic Orientation quadrupole field applied
 Nucleus-field energy     =     0.0000000236 hartrees
 Guess from superposition of atomic densities
 Warning:  Energy on first SCF cycle will be non-variational
 SAD guess density has 104.000000 electrons

 -----------------------------------------------------------------------
  General SCF calculation program by
  Eric Jon Sundstrom, Paul Horn, Yuezhi Mao, Dmitri Zuev, Alec White,
  David Stuck, Shaama M.S., Shane Yost, Joonho Lee, David Small,
  Daniel Levine, Susi Lehtola, Hugh Burton, Evgeny Epifanovsky,
  Bang C. Huynh
 -----------------------------------------------------------------------
 Hartree-Fock
 A restricted SCF calculation will be
 performed using DIIS
 SCF converges when DIIS error is below 1.0e-06
 ---------------------------------------
  Cycle       Energy         DIIS error
 ---------------------------------------
    1   -1186.1082049654      2.40e-02  
    2   -1180.5663109714      1.52e-03  
    3   -1180.6910208484      5.30e-04  
    4   -1180.7038345154      2.86e-04  
    5   -1180.7075811584      5.84e-05  
    6   -1180.7078283462      2.46e-05  
    7   -1180.7078954050      1.09e-05  
    8   -1180.7079146997      5.10e-06  
    9   -1180.7079202859      2.23e-06  
   10   -1180.7079213574      8.42e-07  Convergence criterion met
 ---------------------------------------
 SCF time:   CPU 581.26s  wall 583.00s 

************** Final PCM Free Energy Summary **************
 G_electrostatic  =      -0.00869636 hartree =      -5.45704865 kcal/mol
 G_cavitation     =       0.00000000 hartree =       0.00000000 kcal/mol
 G_dispersion     =       0.00000000 hartree =       0.00000000 kcal/mol
 G_repulsion      =       0.00000000 hartree =       0.00000000 kcal/mol
 --------------------------------------------------
 Non-electrostatic Free Energy =       0.00000000 hartree =       0.00000000 kcal/mol
 Total                         =      -0.00869636 hartree =      -5.45704865 kcal/mol
 --------------------------------------------------
 SCF Energy (H0 + V/2)                       =   -1180.70792136 
 Solute Internal Energy (H0)                 =   -1180.69922500 
 Total Free Energy (H0 + V/2 + non-elec)     =   -1180.70792136 hartree
                                             = -740905.40313649 kcal/mol
***********************************************************

 SCF   energy in the final basis set =    -1180.7079213574
 Total energy in the final basis set =    -1180.7079213574


 --------------------------------------------------------------
  Generalized many-body perturbation theory program
  by Joonho Lee, Fazle Rob, Xintian Feng, Evgeny Epifanovsky

 No regularization used 
 (reg. param. = 0.0000e+00)
  (P|Q)^-1/2 Time:  CPU 1.89 s  wall 1.90 s

 In RI-MP2 calculation: 
 # of frozen core orbitals: 20

 Components of the RIMP2 correlation energy:
        aaaa    correlation energy =        -0.2539617972 a.u.
        abab    correlation energy =        -1.5112933034 a.u.
        bbbb    correlation energy =        -0.2539617972 a.u.
        non-Brillouin singles      =        -0.0000000000 a.u.
        total same-spin energy     =        -0.5079235945 a.u.
        total opposite-spin energy =        -1.5112933034 a.u.

 Total  RIMP2   correlation energy =        -2.0192168979 a.u.
        RIMP2         total energy =     -1182.7271382553 a.u.

 RI-MP2 Energy Time:  CPU 79.72 s  wall 79.99 s
 
 --------------------------------------------------------------
 
                    Orbital Energies (a.u.)
 --------------------------------------------------------------
 
 Alpha MOs
 -- Occupied --
-91.9773 -91.9385 -11.2778 -11.2630 -11.2589 -11.2540 -11.2529 -11.2499
-11.2374 -11.2310 -11.2298 -11.2154  -8.9782  -8.9434  -6.6590  -6.6581
 -6.6578  -6.6247  -6.6236  -6.6223  -1.2019  -1.1540  -1.0580  -1.0257
 -1.0080  -0.9565  -0.9126  -0.9022  -0.8117  -0.7688  -0.7306  -0.6970
 -0.6565  -0.6398  -0.6128  -0.5887  -0.5815  -0.5777  -0.5662  -0.5514
 -0.5392  -0.5357  -0.5157  -0.5081  -0.4882  -0.4635  -0.4553  -0.4441
 -0.3531  -0.3413  -0.3237  -0.2621
 -- Virtual --
  0.0641   0.1340   0.1413   0.1497   0.1595   0.1708   0.1781   0.1830
  0.1919   0.2017   0.2068   0.2102   0.2246   0.2337   0.2396   0.2413
  0.2565   0.2579   0.2736   0.2964   0.3106   0.3258   0.3439   0.3609
  0.3626   0.3756   0.3834   0.3844   0.4018   0.4143   0.4180   0.4237
  0.4323   0.4375   0.4475   0.4625   0.4728   0.4745   0.4828   0.4916
  0.5003   0.5033   0.5203   0.5264   0.5379   0.5426   0.5521   0.5631
  0.5679   0.5775   0.5900   0.5905   0.5994   0.6112   0.6147   0.6176
  0.6241   0.6263   0.6343   0.6364   0.6400   0.6469   0.6504   0.6568
  0.6583   0.6743   0.6848   0.6908   0.7058   0.7064   0.7163   0.7303
  0.7390   0.7502   0.7604   0.7686   0.7793   0.7985   0.8107   0.8245
  0.8284   0.8399   0.8440   0.8622   0.8787   0.8869   0.9096   0.9134
  0.9188   0.9416   0.9575   0.9657   0.9808   0.9873   1.0105   1.0112
  1.0314   1.0378   1.0451   1.0512   1.0556   1.0594   1.0711   1.0803
  1.0998   1.1051   1.1169   1.1225   1.1412   1.1559   1.1636   1.1717
  1.1782   1.1923   1.2061   1.2176   1.2205   1.2231   1.2312   1.2530
  1.2567   1.2631   1.2699   1.2759   1.2835   1.2885   1.3023   1.3154
  1.3229   1.3283   1.3556   1.3649   1.3812   1.3887   1.3947   1.4180
  1.4246   1.4312   1.4412   1.4619   1.4719   1.4720   1.4859   1.4961
  1.5041   1.5112   1.5189   1.5268   1.5337   1.5456   1.5508   1.5572
  1.5678   1.5808   1.5874   1.5957   1.6032   1.6215   1.6319   1.6416
  1.6518   1.6630   1.6709   1.6736   1.7052   1.7257   1.7268   1.7446
  1.7564   1.7592   1.7735   1.7857   1.8089   1.8263   1.8470   1.8577
  1.8755   1.9094   1.9356   1.9400   1.9676   1.9821   1.9907   1.9959
  2.0214   2.0383   2.0535   2.0655   2.1014   2.1097   2.1360   2.1665
  2.1706   2.2000   2.2027   2.2134   2.2303   2.2482   2.2570   2.2761
  2.2935   2.3131   2.3315   2.3786   2.4091   2.4312   2.4487   2.4580
  2.4779   2.5065   2.5267   2.5474   2.5525   2.5847   2.5998   2.6229
  2.6411   2.6604   2.6647   2.6723   2.6830   2.7058   2.7131   2.7204
  2.7400   2.7500   2.7657   2.7786   2.7916   2.8001   2.8087   2.8276
  2.8409   2.8498   2.8753   2.8840   2.9008   2.9044   2.9292   2.9384
  2.9426   2.9558   2.9724   2.9864   2.9999   3.0186   3.0274   3.0343
  3.0432   3.0727   3.0971   3.1101   3.1141   3.1295   3.1357   3.1401
  3.1594   3.1600   3.1706   3.1757   3.1907   3.1982   3.2061   3.2153
  3.2173   3.2309   3.2396   3.2588   3.2634   3.2789   3.2888   3.2948
  3.3138   3.3298   3.3322   3.3341   3.3461   3.3542   3.3602   3.3702
  3.3797   3.3887   3.3908   3.3975   3.4075   3.4112   3.4188   3.4261
  3.4345   3.4503   3.4675   3.4740   3.4836   3.4930   3.5046   3.5178
  3.5202   3.5309   3.5412   3.5561   3.5583   3.5669   3.5777   3.5920
  3.5975   3.6101   3.6239   3.6252   3.6364   3.6415   3.6478   3.6723
  3.6898   3.7004   3.7039   3.7122   3.7229   3.7312   3.7406   3.7515
  3.7573   3.7693   3.7766   3.7894   3.8023   3.8144   3.8197   3.8246
  3.8338   3.8418   3.8593   3.8650   3.8817   3.8860   3.9036   3.9219
  3.9314   3.9441   3.9658   3.9701   3.9794   3.9989   4.0102   4.0191
  4.0242   4.0415   4.0537   4.0717   4.0802   4.0875   4.0940   4.1289
  4.1364   4.1413   4.1485   4.1624   4.1695   4.1863   4.1961   4.2013
  4.2105   4.2274   4.2303   4.2486   4.2576   4.2655   4.2767   4.2842
  4.2917   4.3056   4.3266   4.3437   4.3457   4.3544   4.3572   4.3687
  4.3713   4.3987   4.4032   4.4080   4.4205   4.4271   4.4455   4.4476
  4.4593   4.4725   4.4791   4.4821   4.5117   4.5268   4.5532   4.5742
  4.5839   4.5915   4.6142   4.6288   4.6423   4.6535   4.6663   4.6698
  4.6931   4.7230   4.7288   4.7622   4.7736   4.8022   4.8279   4.8426
  4.8670   4.8822   4.8961   4.9101   4.9273   4.9402   4.9460   4.9903
  5.0333   5.0469   5.0768   5.1040   5.1232   5.1307   5.1456   5.1679
  5.1787   5.2193   5.2312   5.2729   5.2800   5.2995   5.3075   5.3126
  5.3371   5.3687   5.3835   5.3941   5.4095   5.4132   5.4420   5.4525
  5.4722   5.5097   5.5247   5.5388   5.5525   5.5661   5.5714   5.6021
  5.6275   5.6343   5.6379   5.6619   5.6723   5.6929   5.7132   5.7317
  5.7703   5.7944   5.8180   5.9652   6.0294   6.0550   6.1006   6.1261
  6.2072   6.2148   6.2269   6.2320   6.2468   6.2751   6.2896   6.3152
  6.3907   6.4116   9.5115  10.5391  12.5051  12.8560  13.1919  13.8491
 14.1193  14.2461  14.2723  14.7069
 --------------------------------------------------------------
 
          Ground-State Mulliken Net Atomic Charges

     Atom                 Charge (a.u.)
  ----------------------------------------
      1 C                    -0.084855
      2 C                    -0.326660
      3 C                    -0.058105
      4 H                     0.174988
      5 C                     0.092785
      6 S                    -0.187402
      7 C                    -0.284242
      8 H                     0.115943
      9 H                     0.108791
     10 H                     0.105638
     11 C                    -0.101796
     12 C                    -0.225704
     13 C                     0.026378
     14 H                     0.196386
     15 C                    -0.205941
     16 S                     0.011172
     17 C                    -0.267497
     18 H                     0.103398
     19 H                     0.108640
     20 H                     0.108213
     21 H                     0.198153
     22 H                     0.109242
     23 H                     0.106861
     24 H                     0.175618
  ----------------------------------------
  Sum of atomic charges =     0.000000

 -----------------------------------------------------------------
                    Cartesian Multipole Moments
 -----------------------------------------------------------------
    Charge (ESU x 10^10)
                -0.0000
    Dipole Moment (Debye)
         X      -0.1902      Y       0.6725      Z       0.4360
       Tot       0.8237
    Quadrupole Moments (Debye-Ang)
        XX     -85.0029     XY       9.3859     YY     -80.9201
        XZ       0.9067     YZ       2.6075     ZZ     -85.2661
    Octopole Moments (Debye-Ang^2)
       XXX    -144.5241    XXY      87.5610    XYY     -42.7897
       YYY     181.2541    XXZ      -5.1622    XYZ      -3.9048
       YYZ      -0.4524    XZZ     -50.7265    YZZ      74.9548
       ZZZ       4.5515
    Hexadecapole Moments (Debye-Ang^3)
      XXXX    -926.5251   XXXY    -201.3806   XXYY    -551.1513
      XYYY    -219.9742   YYYY   -2323.9563   XXXZ    -221.0768
      XXYZ     -14.9864   XYYZ     -61.8889   YYYZ     -66.4638
      XXZZ    -292.5512   XYZZ     -53.1759   YYZZ    -554.2684
      XZZZ    -210.2995   YZZZ     -46.4168   ZZZZ    -871.3123
 -----------------------------------------------------------------
 Total job time:  664.48s(wall), 661.87s(cpu) 
 Sun Jul 10 05:42:49 2022

        *************************************************************
        *                                                           *
        *  Thank you very much for using Q-Chem.  Have a nice day.  *
        *                                                           *
        *************************************************************


remove work dirs ./qchem1925091.0 -- ./qchem1925091.-1
rm -rf ./qchem1925091
