You are running Q-Chem version: 5.4.0

#
# job setting
#
local host:  exp-1-41
current dir: /expanse/lustre/scratch/theleonzhang/temp_project/Hydrogenated_Rotation_Test
input file:  Methylthiophene_Phi_40_Theta_190_Methylthiophene_Hydrogenated.qcin
output file: 
nprocs     : 0
nthreads   : 1
#
# qchem installation setting
#
QC:          /cm/shared/apps/spack/cpu/opt/spack/linux-centos8-zen2/gcc-10.2.0/qchem-5.4-akfmr7b3t57bfs6qan3padb2wnb2i7cl
QCAUX:       /cm/shared/apps/spack/cpu/opt/spack/linux-centos8-zen2/gcc-10.2.0/qchem-5.4-akfmr7b3t57bfs6qan3padb2wnb2i7cl/qcaux
QCPROG:      /cm/shared/apps/spack/cpu/opt/spack/linux-centos8-zen2/gcc-10.2.0/qchem-5.4-akfmr7b3t57bfs6qan3padb2wnb2i7cl/exe/qcprog.exe_s
QCPROG_S:    /cm/shared/apps/spack/cpu/opt/spack/linux-centos8-zen2/gcc-10.2.0/qchem-5.4-akfmr7b3t57bfs6qan3padb2wnb2i7cl/exe/qcprog.exe_s
PARALLEL:    -DSERIAL
QCMPI:       mpich
#
# qchem directory setting
#
qcrun:       qchem1119949
QCSCRATCH:   .
QCLOCALSCR:  
QCTMPDIR:    .
QCFILEPREF:  ./qchem1119949
QCSAVEDIR:   
workdirs:    ./qchem1119949
workdir0:    ./qchem1119949
partmpdirs =  
#
# parallel setting
#
QCRSH:           ssh
QCMPI:           mpich
QCMPIRUN:        /cm/shared/apps/spack/cpu/opt/spack/linux-centos8-zen2/gcc-10.2.0/qchem-5.4-akfmr7b3t57bfs6qan3padb2wnb2i7cl/bin/mpi/mpirun_qchem
QCMACHINEFILE:   ./qchem1119949/hostfile

#
# env setting
#
exported envs:   QC QCAUX QCSCRATCH QCRUNNAME QCFILEPREF QCPROG QCPROG_S GUIFILE

Running Job 1 of 1 Methylthiophene_Phi_40_Theta_190_Methylthiophene_Hydrogenated.qcin
qchem Methylthiophene_Phi_40_Theta_190_Methylthiophene_Hydrogenated.qcin_1119949.0 ./qchem1119949/ 0
/cm/shared/apps/spack/cpu/opt/spack/linux-centos8-zen2/gcc-10.2.0/qchem-5.4-akfmr7b3t57bfs6qan3padb2wnb2i7cl/exe/qcprog.exe_s Methylthiophene_Phi_40_Theta_190_Methylthiophene_Hydrogenated.qcin_1119949.0 ./qchem1119949/
                  Welcome to Q-Chem
     A Quantum Leap Into The Future Of Chemistry


 Q-Chem 5.4, Q-Chem, Inc., Pleasanton, CA (2021)

 License issued to: University of California, San Diego (site)

 E. Epifanovsky,  A. T. B. Gilbert,  Xintian Feng,  Joonho Lee,  Yuezhi Mao,  
 N. Mardirossian,  P. Pokhilko,  A. White,  M. Wormit,  M. P. Coons,  
 A. L. Dempwolff,  Zhengting Gan,  D. Hait,  P. R. Horn,  L. D. Jacobson,  
 I. Kaliman,  J. Kussmann,  A. W. Lange,  Ka Un Lao,  D. S. Levine,  Jie Liu,  
 S. C. McKenzie,  A. F. Morrison,  K. Nanda,  F. Plasser,  D. R. Rehn,  
 M. L. Vidal,  Zhi-Qiang You,  Ying Zhu,  B. Alam,  B. Albrecht,  
 A. Aldossary,  E. Alguire,  J. H. Andersen,  D. Barton,  K. Begam,  A. Behn,  
 Y. A. Bernard,  E. J. Berquist,  H. Burton,  A. Carreras,  K. Carter-Fenk,  
 R. Chakraborty,  A. D. Chien,  K. D. Closser,  V. Cofer-Shabica,  
 S. Dasgupta,  Jia Deng,  M. de Wergifosse,  M. Diedenhofen,  Hainam Do,  
 S. Ehlert,  Po-Tung Fang,  S. Fatehi,  Qingguo Feng,  J. Gayvert,  
 Qinghui Ge,  G. Gidofalvi,  M. Goldey,  J. Gomes,  C. Gonzalez-Espinoza,  
 S. Gulania,  A. Gunina,  M. W. D. Hanson-Heine,  P. H. P. Harbach,  
 A. W. Hauser,  M. F. Herbst,  M. Hernandez Vera,  M. Hodecker,  
 Z. C. Holden,  S. Houck,  Xunkun Huang,  Kerwin Hui,  B. C. Huynh,  
 M. Ivanov,  Hyunjun Ji,  Hanjie Jiang,  B. Kaduk,  S. Kaehler,  
 K. Khistyaev,  Jaehoon Kim,  P. Klunzinger,  Z. Koczor-Benda,  
 Joong Hoon Koh,  D. Kosenkov,  L. Koulias,  T. Kowalczyk,  C. M. Krauter,  
 K. Kue,  A. Kunitsa,  T. Kus,  A. Landau,  K. V. Lawler,  D. Lefrancois,  
 S. Lehtola,  Rain Li,  Yi-Pei Li,  Jiashu Liang,  M. Liebenthal,  
 Hung-Hsuan Lin,  You-Sheng Lin,  Fenglai Liu,  Kuan-Yu Liu,  
 M. Loipersberger,  A. Luenser,  A. Manjanath,  P. Manohar,  E. Mansoor,  
 S. F. Manzer,  Shan-Ping Mao,  A. V. Marenich,  T. Markovich,  S. Mason,  
 S. A. Maurer,  P. F. McLaughlin,  M. F. S. J. Menger,  J.-M. Mewes,  
 S. A. Mewes,  P. Morgante,  J. W. Mullinax,  T. S. Nguyen-Beck,  
 K. J. Oosterbaan,  G. Paran,  Alexander C. Paul,  Suranjan K. Paul,  
 F. Pavosevic,  Zheng Pei,  S. Prager,  E. I. Proynov,  E. Ramos,  B. Rana,  
 A. E. Rask,  A. Rettig,  R. M. Richard,  F. Rob,  E. Rossomme,  T. Scheele,  
 M. Scheurer,  M. Schneider,  N. Sergueev,  S. M. Sharada,  W. Skomorowski,  
 D. W. Small,  C. J. Stein,  Yu-Chuan Su,  E. J. Sundstrom,  Zhen Tao,  
 J. Thirman,  T. Tsuchimochi,  N. M. Tubman,  S. P. Veccham,  O. Vydrov,  
 J. Wenzel,  J. Witte,  A. Yamada,  Kun Yao,  S. Yeganeh,  S. R. Yost,  
 A. Zech,  Igor Ying Zhang,  Xing Zhang,  Yu Zhang,  D. Zuev,  
 A. Aspuru-Guzik,  A. T. Bell,  N. A. Besley,  K. B. Bravaya,  B. R. Brooks,  
 D. Casanova,  Jeng-Da Chai,  S. Coriani,  C. J. Cramer,  
 A. E. DePrince, III,  R. A. DiStasio Jr.,  A. Dreuw,  B. D. Dunietz,  
 T. R. Furlani,  W. A. Goddard III,  S. Grimme,  S. Hammes-Schiffer,  
 T. Head-Gordon,  W. J. Hehre,  Chao-Ping Hsu,  T.-C. Jagau,  Yousung Jung,  
 A. Klamt,  Jing Kong,  D. S. Lambrecht,  WanZhen Liang,  N. J. Mayhall,  
 C. W. McCurdy,  J. B. Neaton,  C. Ochsenfeld,  J. A. Parkhill,  R. Peverati,  
 V. A. Rassolov,  Yihan Shao,  L. V. Slipchenko,  T. Stauch,  R. P. Steele,  
 J. E. Subotnik,  A. J. W. Thom,  A. Tkatchenko,  D. G. Truhlar,  
 T. Van Voorhis,  T. A. Wesolowski,  K. B. Whaley,  H. L. Woodcock III,  
 P. M. Zimmerman,  S. Faraji,  P. M. W. Gill,  M. Head-Gordon,  
 J. M. Herbert,  A. I. Krylov

 Contributors to earlier versions of Q-Chem not listed above: 
 R. D. Adamson,  B. Austin,  R. Baer,  J. Baker,  G. J. O. Beran,  
 K. Brandhorst,  S. T. Brown,  E. F. C. Byrd,  A. K. Chakraborty,  
 G. K. L. Chan,  Chun-Min Chang,  Yunqing Chen,  C.-L. Cheng,  
 Siu Hung Chien,  D. M. Chipman,  D. L. Crittenden,  H. Dachsel,  
 R. J. Doerksen,  A. D. Dutoi,  R. G. Edgar,  J. Fosso-Tande,  
 L. Fusti-Molnar,  D. Ghosh,  A. Ghysels,  A. Golubeva-Zadorozhnaya,  
 J. Gonthier,  M. S. Gordon,  S. R. Gwaltney,  G. Hawkins,  J. E. Herr,  
 A. Heyden,  S. Hirata,  E. G. Hohenstein,  G. Kedziora,  F. J. Keil,  
 C. Kelley,  Jihan Kim,  R. A. King,  R. Z. Khaliullin,  P. P. Korambath,  
 W. Kurlancheek,  A. Laurent,  A. M. Lee,  M. S. Lee,  S. V. Levchenko,  
 Ching Yeh Lin,  D. Liotard,  E. Livshits,  R. C. Lochan,  I. Lotan,  
 L. A. Martinez-Martinez,  P. E. Maslen,  N. Nair,  D. P. O'Neill,  
 D. Neuhauser,  E. Neuscamman,  C. M. Oana,  R. Olivares-Amaya,  R. Olson,  
 T. M. Perrine,  B. Peters,  P. A. Pieniazek,  A. Prociuk,  Y. M. Rhee,  
 J. Ritchie,  M. A. Rohrdanz,  E. Rosta,  N. J. Russ,  H. F. Schaefer III,  
 M. W. Schmidt,  N. E. Schultz,  S. Sharma,  N. Shenvi,  C. D. Sherrill,  
 A. C. Simmonett,  A. Sodt,  T. Stein,  D. Stuck,  K. S. Thanthiriwatte,  
 V. Vanovschi,  L. Vogt,  Tao Wang,  A. Warshel,  M. A. Watson,  
 C. F. Williams,  Q. Wu,  X. Xu,  Jun Yang,  W. Zhang,  Yan Zhao

 Please cite Q-Chem as follows:
 Y. Shao et al., Mol. Phys. 113, 184-215 (2015)
 DOI: 10.1080/00268976.2014.952696

 Q-Chem 5.4.0 for Intel X86 EM64T Linux

 Parts of Q-Chem use Armadillo 9.800.1 (Horizon Scraper).
 http://arma.sourceforge.net/

 Q-Chem begins on Sun Jul 10 02:49:25 2022  

 Host: 
0

     Scratch files written to ./qchem1119949//
 May1621 |scratch|qcdevops|jenkins|workspace|build_RNUM    
 Processing $rem in /cm/shared/apps/spack/cpu/opt/spack/linux-centos8-zen2/gcc-10.2.0/qchem-5.4-akfmr7b3t57bfs6qan3padb2wnb2i7cl/config/preferences:
 Processing $rem in /home/theleonzhang/.qchemrc:
 Symmetry turned off for PCM/SM12/SMD calculation
 Core orbitals will be frozen

 Checking the input file for inconsistencies... 	...done.

--------------------------------------------------------------
User input:
--------------------------------------------------------------
$molecule
0 1
C	0.135301	-3.866725	-0.763228
C	-0.106073	-3.703963	0.603311
C	-0.185286	-2.357056	1.050423
H	-0.225783	-4.561092	1.283188
C	-0.000000	-1.440664	-0.000000
S	0.268187	-2.286957	-1.521021
C	-0.438209	-1.978743	2.483507
H	-0.550153	-2.878678	3.118798
H	-1.363906	-1.376015	2.593381
H	0.393798	-1.375728	2.903516
C	0.000000	0.000000	0.000000
C	0.555137	0.661535	1.099446
C	1.444710	1.721658	0.776721
H	0.318072	0.379023	2.136088
C	1.586563	1.890676	-0.612546
S	0.605781	0.721904	-1.486809
C	2.143920	2.554907	1.814609
H	1.870325	2.228851	2.836676
H	1.880882	3.629742	1.726239
H	3.248098	2.482476	1.726228
H	2.196723	2.617806	-1.161575
H	-0.688674	-4.392713	-1.258111
H	1.079084	-4.392347	-0.946272
H	-1.063572	-1.440937	-0.187654
$end

$rem
JOBTYPE		SP
EXCHANGE	HF
CORRELATION	pRIMP2
BASIS		cc-pvtz
METHOD		rimp2
AUX_BASIS	rimp2-cc-pvtz
SOLVENT_METHOD	PCM
PURECART	11111
SYMMETRY	false
MEM_TOTAL	110000
SCF_CONVERGENCE = 6
THRESH=10
$end



$solvent
dielectric 4.90
$end
--------------------------------------------------------------
 ----------------------------------------------------------------
             Standard Nuclear Orientation (Angstroms)
    I     Atom           X                Y                Z
 ----------------------------------------------------------------
    1      C       0.1353010000    -3.8667250000    -0.7632280000
    2      C      -0.1060730000    -3.7039630000     0.6033110000
    3      C      -0.1852860000    -2.3570560000     1.0504230000
    4      H      -0.2257830000    -4.5610920000     1.2831880000
    5      C       0.0000000000    -1.4406640000     0.0000000000
    6      S       0.2681870000    -2.2869570000    -1.5210210000
    7      C      -0.4382090000    -1.9787430000     2.4835070000
    8      H      -0.5501530000    -2.8786780000     3.1187980000
    9      H      -1.3639060000    -1.3760150000     2.5933810000
   10      H       0.3937980000    -1.3757280000     2.9035160000
   11      C       0.0000000000     0.0000000000     0.0000000000
   12      C       0.5551370000     0.6615350000     1.0994460000
   13      C       1.4447100000     1.7216580000     0.7767210000
   14      H       0.3180720000     0.3790230000     2.1360880000
   15      C       1.5865630000     1.8906760000    -0.6125460000
   16      S       0.6057810000     0.7219040000    -1.4868090000
   17      C       2.1439200000     2.5549070000     1.8146090000
   18      H       1.8703250000     2.2288510000     2.8366760000
   19      H       1.8808820000     3.6297420000     1.7262390000
   20      H       3.2480980000     2.4824760000     1.7262280000
   21      H       2.1967230000     2.6178060000    -1.1615750000
   22      H      -0.6886740000    -4.3927130000    -1.2581110000
   23      H       1.0790840000    -4.3923470000    -0.9462720000
   24      H      -1.0635720000    -1.4409370000    -0.1876540000
 ----------------------------------------------------------------
 Nuclear Repulsion Energy =         887.92652458 hartrees
 There are       52 alpha and       52 beta electrons

 Q-Chem warning in module forms1/BasisType.C, line 2236:

 You are not using the predefined 5D/6D in this basis set.

 Requested basis set is cc-pVTZ
 There are 196 shells and 536 basis functions

 Total QAlloc Memory Limit 110000 MB
 Mega-Array Size       188 MB
 MEM_STATIC part       192 MB
 Discretize the solute cavity surface with Lebedev spheres
	Using 110 Lebedev grid points for each H atom
	Using 194 Lebedev grid points for other atoms
	Atomic van der Waals radii will be scaled by 1.20
 Remove points where switching function is < 1.0e-08
 Keep 1575 surface tesserae and discard 2073 interior tesserae
 Molecular Surface Area = 228.760 Angst**2
 Requested basis set is rimp2-cc-pVTZ
 There are 414 shells and 1414 basis functions
 A cutoff of  1.0D-10 yielded  14279 shell pairs
 There are    103469 function pairs (    132576 Cartesian)
 Smallest overlap matrix eigenvalue = 6.84E-05

 Scale SEOQF with 1.000000e-01/1.000000e-01/1.000000e-01

 Standard Electronic Orientation quadrupole field applied
 Nucleus-field energy     =     0.0000000186 hartrees
 Guess from superposition of atomic densities
 Warning:  Energy on first SCF cycle will be non-variational
 SAD guess density has 104.000000 electrons

 -----------------------------------------------------------------------
  General SCF calculation program by
  Eric Jon Sundstrom, Paul Horn, Yuezhi Mao, Dmitri Zuev, Alec White,
  David Stuck, Shaama M.S., Shane Yost, Joonho Lee, David Small,
  Daniel Levine, Susi Lehtola, Hugh Burton, Evgeny Epifanovsky,
  Bang C. Huynh
 -----------------------------------------------------------------------
 Hartree-Fock
 A restricted SCF calculation will be
 performed using DIIS
 SCF converges when DIIS error is below 1.0e-06
 ---------------------------------------
  Cycle       Energy         DIIS error
 ---------------------------------------
    1   -1186.1133766232      2.40e-02  
    2   -1180.5650624248      1.56e-03  
    3   -1180.6921232963      6.10e-04  
    4   -1180.7069230613      3.30e-04  
    5   -1180.7120777993      6.43e-05  
    6   -1180.7123759110      2.68e-05  
    7   -1180.7124570241      1.12e-05  
    8   -1180.7124789815      5.38e-06  
    9   -1180.7124849463      2.15e-06  
   10   -1180.7124859379      7.85e-07  Convergence criterion met
 ---------------------------------------
 SCF time:   CPU 594.09s  wall 595.00s 

************** Final PCM Free Energy Summary **************
 G_electrostatic  =      -0.00964108 hartree =      -6.04986922 kcal/mol
 G_cavitation     =       0.00000000 hartree =       0.00000000 kcal/mol
 G_dispersion     =       0.00000000 hartree =       0.00000000 kcal/mol
 G_repulsion      =       0.00000000 hartree =       0.00000000 kcal/mol
 --------------------------------------------------
 Non-electrostatic Free Energy =       0.00000000 hartree =       0.00000000 kcal/mol
 Total                         =      -0.00964108 hartree =      -6.04986922 kcal/mol
 --------------------------------------------------
 SCF Energy (H0 + V/2)                       =   -1180.71248594 
 Solute Internal Energy (H0)                 =   -1180.70284486 
 Total Free Energy (H0 + V/2 + non-elec)     =   -1180.71248594 hartree
                                             = -740908.26745397 kcal/mol
***********************************************************

 SCF   energy in the final basis set =    -1180.7124859379
 Total energy in the final basis set =    -1180.7124859379


 --------------------------------------------------------------
  Generalized many-body perturbation theory program
  by Joonho Lee, Fazle Rob, Xintian Feng, Evgeny Epifanovsky

 No regularization used 
 (reg. param. = 0.0000e+00)
  (P|Q)^-1/2 Time:  CPU 1.91 s  wall 1.91 s

 In RI-MP2 calculation: 
 # of frozen core orbitals: 20

 Components of the RIMP2 correlation energy:
        aaaa    correlation energy =        -0.2536766902 a.u.
        abab    correlation energy =        -1.5104292403 a.u.
        bbbb    correlation energy =        -0.2536766902 a.u.
        non-Brillouin singles      =        -0.0000000000 a.u.
        total same-spin energy     =        -0.5073533804 a.u.
        total opposite-spin energy =        -1.5104292403 a.u.

 Total  RIMP2   correlation energy =        -2.0177826207 a.u.
        RIMP2         total energy =     -1182.7302685586 a.u.

 RI-MP2 Energy Time:  CPU 80.28 s  wall 80.53 s
 
 --------------------------------------------------------------
 
                    Orbital Energies (a.u.)
 --------------------------------------------------------------
 
 Alpha MOs
 -- Occupied --
-91.9814 -91.9429 -11.2738 -11.2657 -11.2636 -11.2528 -11.2503 -11.2403
-11.2389 -11.2332 -11.2287 -11.2178  -8.9816  -8.9475  -6.6625  -6.6618
 -6.6613  -6.6288  -6.6278  -6.6265  -1.2014  -1.1527  -1.0583  -1.0319
 -0.9986  -0.9640  -0.9140  -0.9000  -0.8156  -0.7601  -0.7324  -0.7075
 -0.6522  -0.6430  -0.6096  -0.5941  -0.5866  -0.5681  -0.5650  -0.5485
 -0.5456  -0.5347  -0.5216  -0.5044  -0.4822  -0.4756  -0.4628  -0.4380
 -0.3607  -0.3410  -0.3225  -0.2571
 -- Virtual --
  0.0795   0.1327   0.1405   0.1491   0.1585   0.1707   0.1780   0.1819
  0.1865   0.2036   0.2098   0.2172   0.2233   0.2303   0.2381   0.2424
  0.2562   0.2694   0.2812   0.3092   0.3134   0.3190   0.3420   0.3615
  0.3699   0.3719   0.3852   0.3972   0.4040   0.4076   0.4212   0.4255
  0.4296   0.4422   0.4632   0.4685   0.4735   0.4796   0.4865   0.4922
  0.5002   0.5145   0.5233   0.5316   0.5403   0.5442   0.5573   0.5600
  0.5712   0.5816   0.5918   0.5962   0.6028   0.6101   0.6150   0.6176
  0.6219   0.6290   0.6307   0.6360   0.6418   0.6513   0.6585   0.6627
  0.6695   0.6775   0.6818   0.6843   0.6998   0.7066   0.7217   0.7285
  0.7351   0.7470   0.7549   0.7763   0.7864   0.7938   0.8032   0.8151
  0.8325   0.8554   0.8573   0.8635   0.8771   0.8936   0.9057   0.9100
  0.9278   0.9421   0.9494   0.9604   0.9717   0.9770   1.0004   1.0186
  1.0220   1.0260   1.0357   1.0520   1.0573   1.0641   1.0723   1.0817
  1.0833   1.0975   1.1062   1.1243   1.1456   1.1524   1.1602   1.1751
  1.1826   1.1885   1.2047   1.2112   1.2162   1.2204   1.2301   1.2442
  1.2527   1.2595   1.2599   1.2761   1.2820   1.2914   1.3075   1.3147
  1.3205   1.3341   1.3439   1.3639   1.3730   1.3912   1.4074   1.4149
  1.4210   1.4278   1.4382   1.4532   1.4770   1.4821   1.4964   1.4972
  1.5081   1.5152   1.5312   1.5339   1.5423   1.5484   1.5515   1.5607
  1.5665   1.5751   1.6001   1.6108   1.6252   1.6293   1.6442   1.6456
  1.6588   1.6625   1.6726   1.6930   1.6971   1.7064   1.7223   1.7410
  1.7482   1.7637   1.7865   1.8043   1.8131   1.8287   1.8351   1.8702
  1.8778   1.8956   1.9102   1.9380   1.9579   1.9827   2.0014   2.0045
  2.0198   2.0432   2.0592   2.0764   2.0933   2.1194   2.1357   2.1605
  2.1782   2.2022   2.2152   2.2283   2.2396   2.2473   2.2667   2.2718
  2.2825   2.3037   2.3437   2.4008   2.4202   2.4344   2.4475   2.4660
  2.4815   2.5125   2.5369   2.5492   2.5705   2.5802   2.5999   2.6174
  2.6310   2.6563   2.6599   2.6654   2.6820   2.6881   2.7210   2.7267
  2.7438   2.7540   2.7618   2.7662   2.7853   2.7931   2.8185   2.8220
  2.8297   2.8421   2.8598   2.8785   2.8899   2.9176   2.9321   2.9415
  2.9588   2.9683   2.9803   2.9869   3.0171   3.0240   3.0374   3.0390
  3.0633   3.0665   3.0910   3.1050   3.1133   3.1269   3.1377   3.1474
  3.1508   3.1579   3.1677   3.1816   3.1885   3.2000   3.2059   3.2111
  3.2337   3.2402   3.2550   3.2644   3.2726   3.2813   3.2909   3.2974
  3.3229   3.3249   3.3301   3.3423   3.3455   3.3520   3.3563   3.3605
  3.3750   3.3796   3.3937   3.4025   3.4050   3.4203   3.4276   3.4363
  3.4417   3.4462   3.4648   3.4745   3.4777   3.4937   3.4972   3.5147
  3.5181   3.5250   3.5329   3.5445   3.5519   3.5563   3.5695   3.5810
  3.5984   3.6059   3.6131   3.6235   3.6328   3.6445   3.6493   3.6663
  3.6707   3.6945   3.7029   3.7102   3.7220   3.7326   3.7387   3.7455
  3.7608   3.7722   3.7792   3.7833   3.7978   3.8047   3.8153   3.8204
  3.8401   3.8462   3.8550   3.8665   3.8729   3.8899   3.9031   3.9207
  3.9473   3.9609   3.9690   3.9753   3.9923   4.0057   4.0090   4.0293
  4.0377   4.0475   4.0618   4.0682   4.0781   4.0991   4.1058   4.1117
  4.1183   4.1325   4.1532   4.1572   4.1689   4.1795   4.1976   4.1997
  4.2111   4.2259   4.2358   4.2415   4.2559   4.2604   4.2849   4.2975
  4.3003   4.3078   4.3242   4.3430   4.3532   4.3549   4.3686   4.3741
  4.3996   4.4028   4.4147   4.4223   4.4252   4.4374   4.4489   4.4552
  4.4698   4.4720   4.4793   4.4937   4.4963   4.5144   4.5501   4.5812
  4.5969   4.6117   4.6192   4.6297   4.6415   4.6597   4.6721   4.6950
  4.7185   4.7252   4.7554   4.7741   4.8071   4.8148   4.8374   4.8612
  4.8803   4.8836   4.9000   4.9190   4.9324   4.9583   4.9674   4.9963
  5.0355   5.0636   5.0935   5.1037   5.1164   5.1342   5.1379   5.1952
  5.2017   5.2104   5.2352   5.2732   5.2832   5.2949   5.3146   5.3198
  5.3450   5.3709   5.3801   5.4102   5.4124   5.4328   5.4412   5.4456
  5.4867   5.5124   5.5370   5.5450   5.5480   5.5700   5.5807   5.5965
  5.6183   5.6226   5.6372   5.6676   5.6852   5.6993   5.7131   5.7219
  5.7750   5.8146   5.8372   5.9852   6.0228   6.0599   6.1287   6.1525
  6.2168   6.2276   6.2343   6.2417   6.2673   6.2786   6.2990   6.3157
  6.4103   6.4410   9.5104  10.5409  12.2367  12.8763  13.1691  13.9125
 14.1219  14.2182  14.3081  14.7334
 --------------------------------------------------------------
 
          Ground-State Mulliken Net Atomic Charges

     Atom                 Charge (a.u.)
  ----------------------------------------
      1 C                    -0.078713
      2 C                    -0.328102
      3 C                    -0.035451
      4 H                     0.176411
      5 C                     0.092547
      6 S                    -0.180757
      7 C                    -0.297973
      8 H                     0.120628
      9 H                     0.110310
     10 H                     0.102393
     11 C                    -0.075622
     12 C                    -0.244606
     13 C                     0.028866
     14 H                     0.193800
     15 C                    -0.242221
     16 S                     0.014054
     17 C                    -0.270064
     18 H                     0.100568
     19 H                     0.108428
     20 H                     0.106968
     21 H                     0.198685
     22 H                     0.109926
     23 H                     0.112210
     24 H                     0.177716
  ----------------------------------------
  Sum of atomic charges =     0.000000

 -----------------------------------------------------------------
                    Cartesian Multipole Moments
 -----------------------------------------------------------------
    Charge (ESU x 10^10)
                -0.0000
    Dipole Moment (Debye)
         X       0.0752      Y       0.1665      Z       3.6105
       Tot       3.6151
    Quadrupole Moments (Debye-Ang)
        XX     -87.3704     XY       7.2217     YY     -78.4768
        XZ       0.6715     YZ      -2.3601     ZZ     -85.3353
    Octopole Moments (Debye-Ang^2)
       XXX    -127.5710    XXY      75.4976    XYY     -32.5845
       YYY     154.3263    XXZ      -4.0666    XYZ      -1.0871
       YYZ      -4.8832    XZZ     -41.4484    YZZ      64.5190
       ZZZ       8.2440
    Hexadecapole Moments (Debye-Ang^3)
      XXXX    -554.1102   XXXY    -226.1195   XXYY    -525.8375
      XYYY    -213.1424   YYYY   -2459.4129   XXXZ     -12.9683
      XXYZ     -28.7013   XYYZ     -15.1872   YYYZ     -75.1121
      XXZZ    -276.3115   XYZZ     -61.6256   YYZZ    -602.1333
      XZZZ     -16.7776   YZZZ    -107.0955   ZZZZ   -1079.9378
 -----------------------------------------------------------------
 Total job time:  678.54s(wall), 675.29s(cpu) 
 Sun Jul 10 03:00:43 2022

        *************************************************************
        *                                                           *
        *  Thank you very much for using Q-Chem.  Have a nice day.  *
        *                                                           *
        *************************************************************


remove work dirs ./qchem1119949.0 -- ./qchem1119949.-1
rm -rf ./qchem1119949
