You are running Q-Chem version: 5.4.0

#
# job setting
#
local host:  exp-1-41
current dir: /expanse/lustre/scratch/theleonzhang/temp_project/Hydrogenated_Rotation_Test
input file:  Methylthiophene_Phi_40_Theta_200_Methylthiophene_Hydrogenated.qcin
output file: 
nprocs     : 0
nthreads   : 1
#
# qchem installation setting
#
QC:          /cm/shared/apps/spack/cpu/opt/spack/linux-centos8-zen2/gcc-10.2.0/qchem-5.4-akfmr7b3t57bfs6qan3padb2wnb2i7cl
QCAUX:       /cm/shared/apps/spack/cpu/opt/spack/linux-centos8-zen2/gcc-10.2.0/qchem-5.4-akfmr7b3t57bfs6qan3padb2wnb2i7cl/qcaux
QCPROG:      /cm/shared/apps/spack/cpu/opt/spack/linux-centos8-zen2/gcc-10.2.0/qchem-5.4-akfmr7b3t57bfs6qan3padb2wnb2i7cl/exe/qcprog.exe_s
QCPROG_S:    /cm/shared/apps/spack/cpu/opt/spack/linux-centos8-zen2/gcc-10.2.0/qchem-5.4-akfmr7b3t57bfs6qan3padb2wnb2i7cl/exe/qcprog.exe_s
PARALLEL:    -DSERIAL
QCMPI:       mpich
#
# qchem directory setting
#
qcrun:       qchem1129345
QCSCRATCH:   .
QCLOCALSCR:  
QCTMPDIR:    .
QCFILEPREF:  ./qchem1129345
QCSAVEDIR:   
workdirs:    ./qchem1129345
workdir0:    ./qchem1129345
partmpdirs =  
#
# parallel setting
#
QCRSH:           ssh
QCMPI:           mpich
QCMPIRUN:        /cm/shared/apps/spack/cpu/opt/spack/linux-centos8-zen2/gcc-10.2.0/qchem-5.4-akfmr7b3t57bfs6qan3padb2wnb2i7cl/bin/mpi/mpirun_qchem
QCMACHINEFILE:   ./qchem1129345/hostfile

#
# env setting
#
exported envs:   QC QCAUX QCSCRATCH QCRUNNAME QCFILEPREF QCPROG QCPROG_S GUIFILE

Running Job 1 of 1 Methylthiophene_Phi_40_Theta_200_Methylthiophene_Hydrogenated.qcin
qchem Methylthiophene_Phi_40_Theta_200_Methylthiophene_Hydrogenated.qcin_1129345.0 ./qchem1129345/ 0
/cm/shared/apps/spack/cpu/opt/spack/linux-centos8-zen2/gcc-10.2.0/qchem-5.4-akfmr7b3t57bfs6qan3padb2wnb2i7cl/exe/qcprog.exe_s Methylthiophene_Phi_40_Theta_200_Methylthiophene_Hydrogenated.qcin_1129345.0 ./qchem1129345/
                  Welcome to Q-Chem
     A Quantum Leap Into The Future Of Chemistry


 Q-Chem 5.4, Q-Chem, Inc., Pleasanton, CA (2021)

 License issued to: University of California, San Diego (site)

 E. Epifanovsky,  A. T. B. Gilbert,  Xintian Feng,  Joonho Lee,  Yuezhi Mao,  
 N. Mardirossian,  P. Pokhilko,  A. White,  M. Wormit,  M. P. Coons,  
 A. L. Dempwolff,  Zhengting Gan,  D. Hait,  P. R. Horn,  L. D. Jacobson,  
 I. Kaliman,  J. Kussmann,  A. W. Lange,  Ka Un Lao,  D. S. Levine,  Jie Liu,  
 S. C. McKenzie,  A. F. Morrison,  K. Nanda,  F. Plasser,  D. R. Rehn,  
 M. L. Vidal,  Zhi-Qiang You,  Ying Zhu,  B. Alam,  B. Albrecht,  
 A. Aldossary,  E. Alguire,  J. H. Andersen,  D. Barton,  K. Begam,  A. Behn,  
 Y. A. Bernard,  E. J. Berquist,  H. Burton,  A. Carreras,  K. Carter-Fenk,  
 R. Chakraborty,  A. D. Chien,  K. D. Closser,  V. Cofer-Shabica,  
 S. Dasgupta,  Jia Deng,  M. de Wergifosse,  M. Diedenhofen,  Hainam Do,  
 S. Ehlert,  Po-Tung Fang,  S. Fatehi,  Qingguo Feng,  J. Gayvert,  
 Qinghui Ge,  G. Gidofalvi,  M. Goldey,  J. Gomes,  C. Gonzalez-Espinoza,  
 S. Gulania,  A. Gunina,  M. W. D. Hanson-Heine,  P. H. P. Harbach,  
 A. W. Hauser,  M. F. Herbst,  M. Hernandez Vera,  M. Hodecker,  
 Z. C. Holden,  S. Houck,  Xunkun Huang,  Kerwin Hui,  B. C. Huynh,  
 M. Ivanov,  Hyunjun Ji,  Hanjie Jiang,  B. Kaduk,  S. Kaehler,  
 K. Khistyaev,  Jaehoon Kim,  P. Klunzinger,  Z. Koczor-Benda,  
 Joong Hoon Koh,  D. Kosenkov,  L. Koulias,  T. Kowalczyk,  C. M. Krauter,  
 K. Kue,  A. Kunitsa,  T. Kus,  A. Landau,  K. V. Lawler,  D. Lefrancois,  
 S. Lehtola,  Rain Li,  Yi-Pei Li,  Jiashu Liang,  M. Liebenthal,  
 Hung-Hsuan Lin,  You-Sheng Lin,  Fenglai Liu,  Kuan-Yu Liu,  
 M. Loipersberger,  A. Luenser,  A. Manjanath,  P. Manohar,  E. Mansoor,  
 S. F. Manzer,  Shan-Ping Mao,  A. V. Marenich,  T. Markovich,  S. Mason,  
 S. A. Maurer,  P. F. McLaughlin,  M. F. S. J. Menger,  J.-M. Mewes,  
 S. A. Mewes,  P. Morgante,  J. W. Mullinax,  T. S. Nguyen-Beck,  
 K. J. Oosterbaan,  G. Paran,  Alexander C. Paul,  Suranjan K. Paul,  
 F. Pavosevic,  Zheng Pei,  S. Prager,  E. I. Proynov,  E. Ramos,  B. Rana,  
 A. E. Rask,  A. Rettig,  R. M. Richard,  F. Rob,  E. Rossomme,  T. Scheele,  
 M. Scheurer,  M. Schneider,  N. Sergueev,  S. M. Sharada,  W. Skomorowski,  
 D. W. Small,  C. J. Stein,  Yu-Chuan Su,  E. J. Sundstrom,  Zhen Tao,  
 J. Thirman,  T. Tsuchimochi,  N. M. Tubman,  S. P. Veccham,  O. Vydrov,  
 J. Wenzel,  J. Witte,  A. Yamada,  Kun Yao,  S. Yeganeh,  S. R. Yost,  
 A. Zech,  Igor Ying Zhang,  Xing Zhang,  Yu Zhang,  D. Zuev,  
 A. Aspuru-Guzik,  A. T. Bell,  N. A. Besley,  K. B. Bravaya,  B. R. Brooks,  
 D. Casanova,  Jeng-Da Chai,  S. Coriani,  C. J. Cramer,  
 A. E. DePrince, III,  R. A. DiStasio Jr.,  A. Dreuw,  B. D. Dunietz,  
 T. R. Furlani,  W. A. Goddard III,  S. Grimme,  S. Hammes-Schiffer,  
 T. Head-Gordon,  W. J. Hehre,  Chao-Ping Hsu,  T.-C. Jagau,  Yousung Jung,  
 A. Klamt,  Jing Kong,  D. S. Lambrecht,  WanZhen Liang,  N. J. Mayhall,  
 C. W. McCurdy,  J. B. Neaton,  C. Ochsenfeld,  J. A. Parkhill,  R. Peverati,  
 V. A. Rassolov,  Yihan Shao,  L. V. Slipchenko,  T. Stauch,  R. P. Steele,  
 J. E. Subotnik,  A. J. W. Thom,  A. Tkatchenko,  D. G. Truhlar,  
 T. Van Voorhis,  T. A. Wesolowski,  K. B. Whaley,  H. L. Woodcock III,  
 P. M. Zimmerman,  S. Faraji,  P. M. W. Gill,  M. Head-Gordon,  
 J. M. Herbert,  A. I. Krylov

 Contributors to earlier versions of Q-Chem not listed above: 
 R. D. Adamson,  B. Austin,  R. Baer,  J. Baker,  G. J. O. Beran,  
 K. Brandhorst,  S. T. Brown,  E. F. C. Byrd,  A. K. Chakraborty,  
 G. K. L. Chan,  Chun-Min Chang,  Yunqing Chen,  C.-L. Cheng,  
 Siu Hung Chien,  D. M. Chipman,  D. L. Crittenden,  H. Dachsel,  
 R. J. Doerksen,  A. D. Dutoi,  R. G. Edgar,  J. Fosso-Tande,  
 L. Fusti-Molnar,  D. Ghosh,  A. Ghysels,  A. Golubeva-Zadorozhnaya,  
 J. Gonthier,  M. S. Gordon,  S. R. Gwaltney,  G. Hawkins,  J. E. Herr,  
 A. Heyden,  S. Hirata,  E. G. Hohenstein,  G. Kedziora,  F. J. Keil,  
 C. Kelley,  Jihan Kim,  R. A. King,  R. Z. Khaliullin,  P. P. Korambath,  
 W. Kurlancheek,  A. Laurent,  A. M. Lee,  M. S. Lee,  S. V. Levchenko,  
 Ching Yeh Lin,  D. Liotard,  E. Livshits,  R. C. Lochan,  I. Lotan,  
 L. A. Martinez-Martinez,  P. E. Maslen,  N. Nair,  D. P. O'Neill,  
 D. Neuhauser,  E. Neuscamman,  C. M. Oana,  R. Olivares-Amaya,  R. Olson,  
 T. M. Perrine,  B. Peters,  P. A. Pieniazek,  A. Prociuk,  Y. M. Rhee,  
 J. Ritchie,  M. A. Rohrdanz,  E. Rosta,  N. J. Russ,  H. F. Schaefer III,  
 M. W. Schmidt,  N. E. Schultz,  S. Sharma,  N. Shenvi,  C. D. Sherrill,  
 A. C. Simmonett,  A. Sodt,  T. Stein,  D. Stuck,  K. S. Thanthiriwatte,  
 V. Vanovschi,  L. Vogt,  Tao Wang,  A. Warshel,  M. A. Watson,  
 C. F. Williams,  Q. Wu,  X. Xu,  Jun Yang,  W. Zhang,  Yan Zhao

 Please cite Q-Chem as follows:
 Y. Shao et al., Mol. Phys. 113, 184-215 (2015)
 DOI: 10.1080/00268976.2014.952696

 Q-Chem 5.4.0 for Intel X86 EM64T Linux

 Parts of Q-Chem use Armadillo 9.800.1 (Horizon Scraper).
 http://arma.sourceforge.net/

 Q-Chem begins on Sun Jul 10 03:00:44 2022  

 Host: 
0

     Scratch files written to ./qchem1129345//
 May1621 |scratch|qcdevops|jenkins|workspace|build_RNUM    
 Processing $rem in /cm/shared/apps/spack/cpu/opt/spack/linux-centos8-zen2/gcc-10.2.0/qchem-5.4-akfmr7b3t57bfs6qan3padb2wnb2i7cl/config/preferences:
 Processing $rem in /home/theleonzhang/.qchemrc:
 Symmetry turned off for PCM/SM12/SMD calculation
 Core orbitals will be frozen

 Checking the input file for inconsistencies... 	...done.

--------------------------------------------------------------
User input:
--------------------------------------------------------------
$molecule
0 1
C	0.265779	-3.866725	-0.728138
C	-0.209225	-3.703963	0.575726
C	-0.364875	-2.357056	1.002290
H	-0.445176	-4.561092	1.224486
C	-0.000000	-1.440664	-0.000000
S	0.528236	-2.286957	-1.451343
C	-0.862808	-1.978743	2.369683
H	-1.083368	-2.878678	2.975883
H	-1.793522	-1.376015	2.317142
H	-0.116375	-1.375728	2.927787
C	0.000000	0.000000	0.000000
C	0.555137	0.661535	1.099446
C	1.444710	1.721658	0.776721
H	0.318072	0.379023	2.136088
C	1.586563	1.890676	-0.612546
S	0.605781	0.721904	-1.486809
C	2.143920	2.554907	1.814609
H	1.870325	2.228851	2.836676
H	1.880882	3.629742	1.726239
H	3.248098	2.482476	1.726228
H	2.196723	2.617806	-1.161575
H	-0.459743	-4.392713	-1.358585
H	1.227009	-4.392347	-0.744515
H	-1.014829	-1.440937	-0.369490
$end

$rem
JOBTYPE		SP
EXCHANGE	HF
CORRELATION	pRIMP2
BASIS		cc-pvtz
METHOD		rimp2
AUX_BASIS	rimp2-cc-pvtz
SOLVENT_METHOD	PCM
PURECART	11111
SYMMETRY	false
MEM_TOTAL	110000
SCF_CONVERGENCE = 6
THRESH=10
$end



$solvent
dielectric 4.90
$end
--------------------------------------------------------------
 ----------------------------------------------------------------
             Standard Nuclear Orientation (Angstroms)
    I     Atom           X                Y                Z
 ----------------------------------------------------------------
    1      C       0.2657790000    -3.8667250000    -0.7281380000
    2      C      -0.2092250000    -3.7039630000     0.5757260000
    3      C      -0.3648750000    -2.3570560000     1.0022900000
    4      H      -0.4451760000    -4.5610920000     1.2244860000
    5      C       0.0000000000    -1.4406640000     0.0000000000
    6      S       0.5282360000    -2.2869570000    -1.4513430000
    7      C      -0.8628080000    -1.9787430000     2.3696830000
    8      H      -1.0833680000    -2.8786780000     2.9758830000
    9      H      -1.7935220000    -1.3760150000     2.3171420000
   10      H      -0.1163750000    -1.3757280000     2.9277870000
   11      C       0.0000000000     0.0000000000     0.0000000000
   12      C       0.5551370000     0.6615350000     1.0994460000
   13      C       1.4447100000     1.7216580000     0.7767210000
   14      H       0.3180720000     0.3790230000     2.1360880000
   15      C       1.5865630000     1.8906760000    -0.6125460000
   16      S       0.6057810000     0.7219040000    -1.4868090000
   17      C       2.1439200000     2.5549070000     1.8146090000
   18      H       1.8703250000     2.2288510000     2.8366760000
   19      H       1.8808820000     3.6297420000     1.7262390000
   20      H       3.2480980000     2.4824760000     1.7262280000
   21      H       2.1967230000     2.6178060000    -1.1615750000
   22      H      -0.4597430000    -4.3927130000    -1.3585850000
   23      H       1.2270090000    -4.3923470000    -0.7445150000
   24      H      -1.0148290000    -1.4409370000    -0.3694900000
 ----------------------------------------------------------------
 Nuclear Repulsion Energy =         887.68977570 hartrees
 There are       52 alpha and       52 beta electrons

 Q-Chem warning in module forms1/BasisType.C, line 2236:

 You are not using the predefined 5D/6D in this basis set.

 Requested basis set is cc-pVTZ
 There are 196 shells and 536 basis functions

 Total QAlloc Memory Limit 110000 MB
 Mega-Array Size       188 MB
 MEM_STATIC part       192 MB
 Discretize the solute cavity surface with Lebedev spheres
	Using 110 Lebedev grid points for each H atom
	Using 194 Lebedev grid points for other atoms
	Atomic van der Waals radii will be scaled by 1.20
 Remove points where switching function is < 1.0e-08
 Keep 1579 surface tesserae and discard 2069 interior tesserae
 Molecular Surface Area = 229.694 Angst**2
 Requested basis set is rimp2-cc-pVTZ
 There are 414 shells and 1414 basis functions
 A cutoff of  1.0D-10 yielded  14231 shell pairs
 There are    103141 function pairs (    132193 Cartesian)
 Smallest overlap matrix eigenvalue = 7.21E-05

 Scale SEOQF with 1.000000e-01/1.000000e-01/1.000000e-01

 Standard Electronic Orientation quadrupole field applied
 Nucleus-field energy     =     0.0000000200 hartrees
 Guess from superposition of atomic densities
 Warning:  Energy on first SCF cycle will be non-variational
 SAD guess density has 104.000000 electrons

 -----------------------------------------------------------------------
  General SCF calculation program by
  Eric Jon Sundstrom, Paul Horn, Yuezhi Mao, Dmitri Zuev, Alec White,
  David Stuck, Shaama M.S., Shane Yost, Joonho Lee, David Small,
  Daniel Levine, Susi Lehtola, Hugh Burton, Evgeny Epifanovsky,
  Bang C. Huynh
 -----------------------------------------------------------------------
 Hartree-Fock
 A restricted SCF calculation will be
 performed using DIIS
 SCF converges when DIIS error is below 1.0e-06
 ---------------------------------------
  Cycle       Energy         DIIS error
 ---------------------------------------
    1   -1186.1033823599      2.40e-02  
    2   -1180.5679032413      1.56e-03  
    3   -1180.6947071200      6.01e-04  
    4   -1180.7092299267      3.26e-04  
    5   -1180.7142482433      6.38e-05  
    6   -1180.7145408363      2.65e-05  
    7   -1180.7146204561      1.12e-05  
    8   -1180.7146421100      5.34e-06  
    9   -1180.7146479060      2.10e-06  
   10   -1180.7146488474      7.49e-07  Convergence criterion met
 ---------------------------------------
 SCF time:   CPU 587.66s  wall 589.00s 

************** Final PCM Free Energy Summary **************
 G_electrostatic  =      -0.00955131 hartree =      -5.99354012 kcal/mol
 G_cavitation     =       0.00000000 hartree =       0.00000000 kcal/mol
 G_dispersion     =       0.00000000 hartree =       0.00000000 kcal/mol
 G_repulsion      =       0.00000000 hartree =       0.00000000 kcal/mol
 --------------------------------------------------
 Non-electrostatic Free Energy =       0.00000000 hartree =       0.00000000 kcal/mol
 Total                         =      -0.00955131 hartree =      -5.99354012 kcal/mol
 --------------------------------------------------
 SCF Energy (H0 + V/2)                       =   -1180.71464885 
 Solute Internal Energy (H0)                 =   -1180.70509753 
 Total Free Energy (H0 + V/2 + non-elec)     =   -1180.71464885 hartree
                                             = -740909.62470016 kcal/mol
***********************************************************

 SCF   energy in the final basis set =    -1180.7146488474
 Total energy in the final basis set =    -1180.7146488474


 --------------------------------------------------------------
  Generalized many-body perturbation theory program
  by Joonho Lee, Fazle Rob, Xintian Feng, Evgeny Epifanovsky

 No regularization used 
 (reg. param. = 0.0000e+00)
  (P|Q)^-1/2 Time:  CPU 1.89 s  wall 1.90 s

 In RI-MP2 calculation: 
 # of frozen core orbitals: 20

 Components of the RIMP2 correlation energy:
        aaaa    correlation energy =        -0.2534191193 a.u.
        abab    correlation energy =        -1.5098971252 a.u.
        bbbb    correlation energy =        -0.2534191193 a.u.
        non-Brillouin singles      =        -0.0000000000 a.u.
        total same-spin energy     =        -0.5068382387 a.u.
        total opposite-spin energy =        -1.5098971252 a.u.

 Total  RIMP2   correlation energy =        -2.0167353639 a.u.
        RIMP2         total energy =     -1182.7313842112 a.u.

 RI-MP2 Energy Time:  CPU 80.24 s  wall 80.46 s
 
 --------------------------------------------------------------
 
                    Orbital Energies (a.u.)
 --------------------------------------------------------------
 
 Alpha MOs
 -- Occupied --
-91.9821 -91.9423 -11.2728 -11.2672 -11.2630 -11.2521 -11.2507 -11.2404
-11.2393 -11.2330 -11.2288 -11.2174  -8.9824  -8.9469  -6.6633  -6.6626
 -6.6621  -6.6282  -6.6272  -6.6259  -1.2010  -1.1530  -1.0580  -1.0313
 -0.9986  -0.9645  -0.9130  -0.9002  -0.8155  -0.7593  -0.7353  -0.7061
 -0.6522  -0.6404  -0.6099  -0.5930  -0.5854  -0.5679  -0.5662  -0.5502
 -0.5448  -0.5343  -0.5193  -0.5053  -0.4837  -0.4761  -0.4632  -0.4387
 -0.3583  -0.3413  -0.3231  -0.2581
 -- Virtual --
  0.0778   0.1336   0.1398   0.1503   0.1590   0.1699   0.1779   0.1854
  0.1863   0.2027   0.2095   0.2185   0.2234   0.2343   0.2383   0.2422
  0.2550   0.2725   0.2757   0.3036   0.3118   0.3206   0.3444   0.3608
  0.3689   0.3722   0.3852   0.3949   0.4020   0.4110   0.4180   0.4211
  0.4321   0.4436   0.4626   0.4666   0.4739   0.4806   0.4859   0.4877
  0.5002   0.5140   0.5242   0.5320   0.5343   0.5508   0.5582   0.5638
  0.5706   0.5799   0.5873   0.5903   0.6010   0.6102   0.6122   0.6168
  0.6189   0.6272   0.6309   0.6337   0.6413   0.6486   0.6530   0.6618
  0.6713   0.6774   0.6805   0.6909   0.7020   0.7093   0.7180   0.7272
  0.7392   0.7479   0.7511   0.7760   0.7886   0.7967   0.7992   0.8220
  0.8348   0.8395   0.8554   0.8670   0.8779   0.8995   0.9039   0.9123
  0.9297   0.9387   0.9477   0.9615   0.9701   0.9836   1.0008   1.0181
  1.0192   1.0295   1.0386   1.0477   1.0559   1.0628   1.0687   1.0789
  1.0850   1.0984   1.1051   1.1289   1.1449   1.1538   1.1619   1.1754
  1.1805   1.1847   1.1987   1.2108   1.2193   1.2214   1.2326   1.2438
  1.2480   1.2584   1.2652   1.2678   1.2775   1.2942   1.2962   1.3160
  1.3233   1.3310   1.3447   1.3627   1.3672   1.3928   1.4090   1.4114
  1.4226   1.4258   1.4381   1.4513   1.4776   1.4866   1.4916   1.4958
  1.5119   1.5123   1.5249   1.5309   1.5394   1.5470   1.5542   1.5543
  1.5649   1.5733   1.5993   1.6057   1.6249   1.6329   1.6382   1.6451
  1.6569   1.6605   1.6671   1.6868   1.6943   1.7080   1.7273   1.7395
  1.7442   1.7668   1.7836   1.8017   1.8079   1.8241   1.8340   1.8606
  1.8838   1.8959   1.9094   1.9415   1.9538   1.9827   1.9987   2.0091
  2.0249   2.0396   2.0621   2.0698   2.1004   2.1240   2.1292   2.1646
  2.1772   2.2002   2.2155   2.2315   2.2331   2.2461   2.2649   2.2715
  2.2857   2.3029   2.3534   2.4029   2.4147   2.4346   2.4408   2.4738
  2.4834   2.5121   2.5393   2.5424   2.5650   2.5790   2.5995   2.6095
  2.6273   2.6519   2.6616   2.6642   2.6826   2.6863   2.7227   2.7357
  2.7390   2.7509   2.7607   2.7678   2.7872   2.7920   2.8153   2.8260
  2.8326   2.8406   2.8448   2.8875   2.8944   2.9201   2.9247   2.9377
  2.9454   2.9680   2.9785   2.9896   3.0143   3.0246   3.0355   3.0399
  3.0566   3.0696   3.0952   3.1094   3.1135   3.1285   3.1389   3.1459
  3.1538   3.1581   3.1632   3.1795   3.1856   3.2024   3.2091   3.2212
  3.2326   3.2400   3.2530   3.2594   3.2695   3.2829   3.2895   3.3035
  3.3248   3.3276   3.3300   3.3369   3.3458   3.3515   3.3544   3.3591
  3.3749   3.3817   3.3864   3.3961   3.4056   3.4130   3.4254   3.4322
  3.4409   3.4455   3.4659   3.4727   3.4792   3.4932   3.4959   3.5137
  3.5203   3.5317   3.5353   3.5416   3.5555   3.5586   3.5725   3.5828
  3.5947   3.6000   3.6193   3.6261   3.6307   3.6403   3.6491   3.6641
  3.6687   3.6977   3.7033   3.7105   3.7199   3.7306   3.7401   3.7460
  3.7594   3.7635   3.7789   3.7826   3.8014   3.8048   3.8144   3.8257
  3.8263   3.8493   3.8559   3.8631   3.8748   3.8899   3.8988   3.9217
  3.9474   3.9596   3.9656   3.9707   3.9912   4.0020   4.0087   4.0299
  4.0345   4.0403   4.0606   4.0609   4.0749   4.0835   4.1017   4.1070
  4.1215   4.1317   4.1535   4.1540   4.1662   4.1793   4.1925   4.2034
  4.2077   4.2260   4.2419   4.2478   4.2545   4.2608   4.2816   4.2967
  4.3060   4.3096   4.3142   4.3430   4.3478   4.3634   4.3639   4.3752
  4.3933   4.3997   4.4044   4.4158   4.4251   4.4351   4.4535   4.4554
  4.4649   4.4691   4.4730   4.4848   4.4975   4.5034   4.5432   4.5791
  4.5885   4.6055   4.6113   4.6256   4.6342   4.6558   4.6708   4.6969
  4.7068   4.7169   4.7427   4.7735   4.7987   4.8268   4.8393   4.8655
  4.8733   4.8878   4.9017   4.9169   4.9310   4.9552   4.9741   5.0006
  5.0269   5.0555   5.0924   5.1071   5.1143   5.1291   5.1499   5.1817
  5.1912   5.2007   5.2394   5.2648   5.2863   5.2990   5.3164   5.3195
  5.3428   5.3695   5.3771   5.4082   5.4102   5.4267   5.4392   5.4430
  5.4893   5.5118   5.5387   5.5405   5.5488   5.5712   5.5776   5.5956
  5.6184   5.6238   5.6394   5.6640   5.6802   5.6961   5.7160   5.7219
  5.7769   5.8179   5.8293   5.9887   6.0251   6.0629   6.1269   6.1552
  6.2127   6.2247   6.2384   6.2468   6.2586   6.2930   6.3016   6.3058
  6.3941   6.4393   9.4995  10.5292  12.2690  12.8828  13.1678  13.9438
 14.1002  14.2182  14.3051  14.6769
 --------------------------------------------------------------
 
          Ground-State Mulliken Net Atomic Charges

     Atom                 Charge (a.u.)
  ----------------------------------------
      1 C                    -0.080513
      2 C                    -0.328012
      3 C                    -0.040466
      4 H                     0.175667
      5 C                     0.089835
      6 S                    -0.176646
      7 C                    -0.295683
      8 H                     0.119477
      9 H                     0.111614
     10 H                     0.101159
     11 C                    -0.087751
     12 C                    -0.225530
     13 C                     0.020678
     14 H                     0.194762
     15 C                    -0.232165
     16 S                     0.009905
     17 C                    -0.270402
     18 H                     0.100602
     19 H                     0.108222
     20 H                     0.107066
     21 H                     0.199357
     22 H                     0.108946
     23 H                     0.111850
     24 H                     0.178029
  ----------------------------------------
  Sum of atomic charges =     0.000000

 -----------------------------------------------------------------
                    Cartesian Multipole Moments
 -----------------------------------------------------------------
    Charge (ESU x 10^10)
                -0.0000
    Dipole Moment (Debye)
         X      -0.2180      Y       0.3290      Z       3.3422
       Tot       3.3654
    Quadrupole Moments (Debye-Ang)
        XX     -87.3619     XY       7.8535     YY     -78.6042
        XZ       0.5427     YZ      -2.0290     ZZ     -85.2827
    Octopole Moments (Debye-Ang^2)
       XXX    -126.6763    XXY      75.5629    XYY     -32.1364
       YYY     156.0450    XXZ      -3.0760    XYZ      -0.2425
       YYZ      -4.9971    XZZ     -42.5938    YZZ      65.1160
       ZZZ       6.9255
    Hexadecapole Moments (Debye-Ang^3)
      XXXX    -605.5255   XXXY    -225.1185   XXYY    -531.6488
      XYYY    -212.4960   YYYY   -2463.8385   XXXZ      30.8949
      XXYZ     -32.6485   XYYZ      -6.1006   YYYZ     -75.9045
      XXZZ    -273.9028   XYZZ     -56.1724   YYZZ    -596.4312
      XZZZ      23.4876   YZZZ    -101.9652   ZZZZ   -1032.8841
 -----------------------------------------------------------------
 Total job time:  672.46s(wall), 668.81s(cpu) 
 Sun Jul 10 03:11:56 2022

        *************************************************************
        *                                                           *
        *  Thank you very much for using Q-Chem.  Have a nice day.  *
        *                                                           *
        *************************************************************


remove work dirs ./qchem1129345.0 -- ./qchem1129345.-1
rm -rf ./qchem1129345
