You are running Q-Chem version: 5.4.0

#
# job setting
#
local host:  exp-1-46
current dir: /expanse/lustre/scratch/theleonzhang/temp_project/Hydrogenated_Rotation_Test
input file:  Methylthiophene_Phi_20_Theta_250_Methylthiophene_Hydrogenated.qcin
output file: 
nprocs     : 0
nthreads   : 1
#
# qchem installation setting
#
QC:          /cm/shared/apps/spack/cpu/opt/spack/linux-centos8-zen2/gcc-10.2.0/qchem-5.4-akfmr7b3t57bfs6qan3padb2wnb2i7cl
QCAUX:       /cm/shared/apps/spack/cpu/opt/spack/linux-centos8-zen2/gcc-10.2.0/qchem-5.4-akfmr7b3t57bfs6qan3padb2wnb2i7cl/qcaux
QCPROG:      /cm/shared/apps/spack/cpu/opt/spack/linux-centos8-zen2/gcc-10.2.0/qchem-5.4-akfmr7b3t57bfs6qan3padb2wnb2i7cl/exe/qcprog.exe_s
QCPROG_S:    /cm/shared/apps/spack/cpu/opt/spack/linux-centos8-zen2/gcc-10.2.0/qchem-5.4-akfmr7b3t57bfs6qan3padb2wnb2i7cl/exe/qcprog.exe_s
PARALLEL:    -DSERIAL
QCMPI:       mpich
#
# qchem directory setting
#
qcrun:       qchem4038622
QCSCRATCH:   .
QCLOCALSCR:  
QCTMPDIR:    .
QCFILEPREF:  ./qchem4038622
QCSAVEDIR:   
workdirs:    ./qchem4038622
workdir0:    ./qchem4038622
partmpdirs =  
#
# parallel setting
#
QCRSH:           ssh
QCMPI:           mpich
QCMPIRUN:        /cm/shared/apps/spack/cpu/opt/spack/linux-centos8-zen2/gcc-10.2.0/qchem-5.4-akfmr7b3t57bfs6qan3padb2wnb2i7cl/bin/mpi/mpirun_qchem
QCMACHINEFILE:   ./qchem4038622/hostfile

#
# env setting
#
exported envs:   QC QCAUX QCSCRATCH QCRUNNAME QCFILEPREF QCPROG QCPROG_S GUIFILE

Running Job 1 of 1 Methylthiophene_Phi_20_Theta_250_Methylthiophene_Hydrogenated.qcin
qchem Methylthiophene_Phi_20_Theta_250_Methylthiophene_Hydrogenated.qcin_4038622.0 ./qchem4038622/ 0
/cm/shared/apps/spack/cpu/opt/spack/linux-centos8-zen2/gcc-10.2.0/qchem-5.4-akfmr7b3t57bfs6qan3padb2wnb2i7cl/exe/qcprog.exe_s Methylthiophene_Phi_20_Theta_250_Methylthiophene_Hydrogenated.qcin_4038622.0 ./qchem4038622/
                  Welcome to Q-Chem
     A Quantum Leap Into The Future Of Chemistry


 Q-Chem 5.4, Q-Chem, Inc., Pleasanton, CA (2021)

 License issued to: University of California, San Diego (site)

 E. Epifanovsky,  A. T. B. Gilbert,  Xintian Feng,  Joonho Lee,  Yuezhi Mao,  
 N. Mardirossian,  P. Pokhilko,  A. White,  M. Wormit,  M. P. Coons,  
 A. L. Dempwolff,  Zhengting Gan,  D. Hait,  P. R. Horn,  L. D. Jacobson,  
 I. Kaliman,  J. Kussmann,  A. W. Lange,  Ka Un Lao,  D. S. Levine,  Jie Liu,  
 S. C. McKenzie,  A. F. Morrison,  K. Nanda,  F. Plasser,  D. R. Rehn,  
 M. L. Vidal,  Zhi-Qiang You,  Ying Zhu,  B. Alam,  B. Albrecht,  
 A. Aldossary,  E. Alguire,  J. H. Andersen,  D. Barton,  K. Begam,  A. Behn,  
 Y. A. Bernard,  E. J. Berquist,  H. Burton,  A. Carreras,  K. Carter-Fenk,  
 R. Chakraborty,  A. D. Chien,  K. D. Closser,  V. Cofer-Shabica,  
 S. Dasgupta,  Jia Deng,  M. de Wergifosse,  M. Diedenhofen,  Hainam Do,  
 S. Ehlert,  Po-Tung Fang,  S. Fatehi,  Qingguo Feng,  J. Gayvert,  
 Qinghui Ge,  G. Gidofalvi,  M. Goldey,  J. Gomes,  C. Gonzalez-Espinoza,  
 S. Gulania,  A. Gunina,  M. W. D. Hanson-Heine,  P. H. P. Harbach,  
 A. W. Hauser,  M. F. Herbst,  M. Hernandez Vera,  M. Hodecker,  
 Z. C. Holden,  S. Houck,  Xunkun Huang,  Kerwin Hui,  B. C. Huynh,  
 M. Ivanov,  Hyunjun Ji,  Hanjie Jiang,  B. Kaduk,  S. Kaehler,  
 K. Khistyaev,  Jaehoon Kim,  P. Klunzinger,  Z. Koczor-Benda,  
 Joong Hoon Koh,  D. Kosenkov,  L. Koulias,  T. Kowalczyk,  C. M. Krauter,  
 K. Kue,  A. Kunitsa,  T. Kus,  A. Landau,  K. V. Lawler,  D. Lefrancois,  
 S. Lehtola,  Rain Li,  Yi-Pei Li,  Jiashu Liang,  M. Liebenthal,  
 Hung-Hsuan Lin,  You-Sheng Lin,  Fenglai Liu,  Kuan-Yu Liu,  
 M. Loipersberger,  A. Luenser,  A. Manjanath,  P. Manohar,  E. Mansoor,  
 S. F. Manzer,  Shan-Ping Mao,  A. V. Marenich,  T. Markovich,  S. Mason,  
 S. A. Maurer,  P. F. McLaughlin,  M. F. S. J. Menger,  J.-M. Mewes,  
 S. A. Mewes,  P. Morgante,  J. W. Mullinax,  T. S. Nguyen-Beck,  
 K. J. Oosterbaan,  G. Paran,  Alexander C. Paul,  Suranjan K. Paul,  
 F. Pavosevic,  Zheng Pei,  S. Prager,  E. I. Proynov,  E. Ramos,  B. Rana,  
 A. E. Rask,  A. Rettig,  R. M. Richard,  F. Rob,  E. Rossomme,  T. Scheele,  
 M. Scheurer,  M. Schneider,  N. Sergueev,  S. M. Sharada,  W. Skomorowski,  
 D. W. Small,  C. J. Stein,  Yu-Chuan Su,  E. J. Sundstrom,  Zhen Tao,  
 J. Thirman,  T. Tsuchimochi,  N. M. Tubman,  S. P. Veccham,  O. Vydrov,  
 J. Wenzel,  J. Witte,  A. Yamada,  Kun Yao,  S. Yeganeh,  S. R. Yost,  
 A. Zech,  Igor Ying Zhang,  Xing Zhang,  Yu Zhang,  D. Zuev,  
 A. Aspuru-Guzik,  A. T. Bell,  N. A. Besley,  K. B. Bravaya,  B. R. Brooks,  
 D. Casanova,  Jeng-Da Chai,  S. Coriani,  C. J. Cramer,  
 A. E. DePrince, III,  R. A. DiStasio Jr.,  A. Dreuw,  B. D. Dunietz,  
 T. R. Furlani,  W. A. Goddard III,  S. Grimme,  S. Hammes-Schiffer,  
 T. Head-Gordon,  W. J. Hehre,  Chao-Ping Hsu,  T.-C. Jagau,  Yousung Jung,  
 A. Klamt,  Jing Kong,  D. S. Lambrecht,  WanZhen Liang,  N. J. Mayhall,  
 C. W. McCurdy,  J. B. Neaton,  C. Ochsenfeld,  J. A. Parkhill,  R. Peverati,  
 V. A. Rassolov,  Yihan Shao,  L. V. Slipchenko,  T. Stauch,  R. P. Steele,  
 J. E. Subotnik,  A. J. W. Thom,  A. Tkatchenko,  D. G. Truhlar,  
 T. Van Voorhis,  T. A. Wesolowski,  K. B. Whaley,  H. L. Woodcock III,  
 P. M. Zimmerman,  S. Faraji,  P. M. W. Gill,  M. Head-Gordon,  
 J. M. Herbert,  A. I. Krylov

 Contributors to earlier versions of Q-Chem not listed above: 
 R. D. Adamson,  B. Austin,  R. Baer,  J. Baker,  G. J. O. Beran,  
 K. Brandhorst,  S. T. Brown,  E. F. C. Byrd,  A. K. Chakraborty,  
 G. K. L. Chan,  Chun-Min Chang,  Yunqing Chen,  C.-L. Cheng,  
 Siu Hung Chien,  D. M. Chipman,  D. L. Crittenden,  H. Dachsel,  
 R. J. Doerksen,  A. D. Dutoi,  R. G. Edgar,  J. Fosso-Tande,  
 L. Fusti-Molnar,  D. Ghosh,  A. Ghysels,  A. Golubeva-Zadorozhnaya,  
 J. Gonthier,  M. S. Gordon,  S. R. Gwaltney,  G. Hawkins,  J. E. Herr,  
 A. Heyden,  S. Hirata,  E. G. Hohenstein,  G. Kedziora,  F. J. Keil,  
 C. Kelley,  Jihan Kim,  R. A. King,  R. Z. Khaliullin,  P. P. Korambath,  
 W. Kurlancheek,  A. Laurent,  A. M. Lee,  M. S. Lee,  S. V. Levchenko,  
 Ching Yeh Lin,  D. Liotard,  E. Livshits,  R. C. Lochan,  I. Lotan,  
 L. A. Martinez-Martinez,  P. E. Maslen,  N. Nair,  D. P. O'Neill,  
 D. Neuhauser,  E. Neuscamman,  C. M. Oana,  R. Olivares-Amaya,  R. Olson,  
 T. M. Perrine,  B. Peters,  P. A. Pieniazek,  A. Prociuk,  Y. M. Rhee,  
 J. Ritchie,  M. A. Rohrdanz,  E. Rosta,  N. J. Russ,  H. F. Schaefer III,  
 M. W. Schmidt,  N. E. Schultz,  S. Sharma,  N. Shenvi,  C. D. Sherrill,  
 A. C. Simmonett,  A. Sodt,  T. Stein,  D. Stuck,  K. S. Thanthiriwatte,  
 V. Vanovschi,  L. Vogt,  Tao Wang,  A. Warshel,  M. A. Watson,  
 C. F. Williams,  Q. Wu,  X. Xu,  Jun Yang,  W. Zhang,  Yan Zhao

 Please cite Q-Chem as follows:
 Y. Shao et al., Mol. Phys. 113, 184-215 (2015)
 DOI: 10.1080/00268976.2014.952696

 Q-Chem 5.4.0 for Intel X86 EM64T Linux

 Parts of Q-Chem use Armadillo 9.800.1 (Horizon Scraper).
 http://arma.sourceforge.net/

 Q-Chem begins on Sun Jul 10 03:55:20 2022  

 Host: 
0

     Scratch files written to ./qchem4038622//
 May1621 |scratch|qcdevops|jenkins|workspace|build_RNUM    
 Processing $rem in /cm/shared/apps/spack/cpu/opt/spack/linux-centos8-zen2/gcc-10.2.0/qchem-5.4-akfmr7b3t57bfs6qan3padb2wnb2i7cl/config/preferences:
 Processing $rem in /home/theleonzhang/.qchemrc:
 Symmetry turned off for PCM/SM12/SMD calculation
 Core orbitals will be frozen

 Checking the input file for inconsistencies... 	...done.

--------------------------------------------------------------
User input:
--------------------------------------------------------------
$molecule
0 1
C	0.728625	-3.866725	-0.264439
C	-0.575519	-3.703963	0.209794
C	-1.002336	-2.357056	0.364749
H	-1.224165	-4.561092	0.446060
C	0.000000	-1.440664	0.000000
S	1.451336	-2.286957	-0.528253
C	-2.369885	-1.978743	0.862253
H	-2.976034	-2.878678	1.082953
H	-2.927887	-1.376015	0.115513
H	-2.317620	-1.375728	1.792797
C	0.000000	0.000000	0.000000
C	0.295399	0.811508	1.099446
C	0.768742	2.111949	0.776721
H	0.169256	0.464952	2.136088
C	0.844232	2.319291	-0.612546
S	0.322342	0.885558	-1.486809
C	1.140796	3.134091	1.814609
H	0.995218	2.734123	2.836676
H	0.526006	4.054142	1.726239
H	2.203157	3.443680	1.726228
H	1.168902	3.211257	-1.161575
H	0.745219	-4.392713	-1.225465
H	1.359038	-4.392347	0.461378
H	0.369273	-1.440391	1.014907
$end

$rem
JOBTYPE		SP
EXCHANGE	HF
CORRELATION	pRIMP2
BASIS		cc-pvtz
METHOD		rimp2
AUX_BASIS	rimp2-cc-pvtz
SOLVENT_METHOD	PCM
PURECART	11111
SYMMETRY	false
MEM_TOTAL	110000
SCF_CONVERGENCE = 6
THRESH=10
$end



$solvent
dielectric 4.90
$end
--------------------------------------------------------------
 ----------------------------------------------------------------
             Standard Nuclear Orientation (Angstroms)
    I     Atom           X                Y                Z
 ----------------------------------------------------------------
    1      C       0.7286250000    -3.8667250000    -0.2644390000
    2      C      -0.5755190000    -3.7039630000     0.2097940000
    3      C      -1.0023360000    -2.3570560000     0.3647490000
    4      H      -1.2241650000    -4.5610920000     0.4460600000
    5      C       0.0000000000    -1.4406640000     0.0000000000
    6      S       1.4513360000    -2.2869570000    -0.5282530000
    7      C      -2.3698850000    -1.9787430000     0.8622530000
    8      H      -2.9760340000    -2.8786780000     1.0829530000
    9      H      -2.9278870000    -1.3760150000     0.1155130000
   10      H      -2.3176200000    -1.3757280000     1.7927970000
   11      C       0.0000000000     0.0000000000     0.0000000000
   12      C       0.2953990000     0.8115080000     1.0994460000
   13      C       0.7687420000     2.1119490000     0.7767210000
   14      H       0.1692560000     0.4649520000     2.1360880000
   15      C       0.8442320000     2.3192910000    -0.6125460000
   16      S       0.3223420000     0.8855580000    -1.4868090000
   17      C       1.1407960000     3.1340910000     1.8146090000
   18      H       0.9952180000     2.7341230000     2.8366760000
   19      H       0.5260060000     4.0541420000     1.7262390000
   20      H       2.2031570000     3.4436800000     1.7262280000
   21      H       1.1689020000     3.2112570000    -1.1615750000
   22      H       0.7452190000    -4.3927130000    -1.2254650000
   23      H       1.3590380000    -4.3923470000     0.4613780000
   24      H       0.3692730000    -1.4403910000     1.0149070000
 ----------------------------------------------------------------
 Nuclear Repulsion Energy =         874.93718385 hartrees
 There are       52 alpha and       52 beta electrons

 Q-Chem warning in module forms1/BasisType.C, line 2236:

 You are not using the predefined 5D/6D in this basis set.

 Requested basis set is cc-pVTZ
 There are 196 shells and 536 basis functions

 Total QAlloc Memory Limit 110000 MB
 Mega-Array Size       188 MB
 MEM_STATIC part       192 MB
 Discretize the solute cavity surface with Lebedev spheres
	Using 110 Lebedev grid points for each H atom
	Using 194 Lebedev grid points for other atoms
	Atomic van der Waals radii will be scaled by 1.20
 Remove points where switching function is < 1.0e-08
 Keep 1629 surface tesserae and discard 2019 interior tesserae
 Molecular Surface Area = 237.717 Angst**2
 Requested basis set is rimp2-cc-pVTZ
 There are 414 shells and 1414 basis functions
 A cutoff of  1.0D-10 yielded  13935 shell pairs
 There are    100923 function pairs (    129390 Cartesian)
 Smallest overlap matrix eigenvalue = 7.04E-05

 Scale SEOQF with 1.000000e-01/1.000000e-01/1.000000e-01

 Standard Electronic Orientation quadrupole field applied
 Nucleus-field energy     =     0.0000000347 hartrees
 Guess from superposition of atomic densities
 Warning:  Energy on first SCF cycle will be non-variational
 SAD guess density has 104.000000 electrons

 -----------------------------------------------------------------------
  General SCF calculation program by
  Eric Jon Sundstrom, Paul Horn, Yuezhi Mao, Dmitri Zuev, Alec White,
  David Stuck, Shaama M.S., Shane Yost, Joonho Lee, David Small,
  Daniel Levine, Susi Lehtola, Hugh Burton, Evgeny Epifanovsky,
  Bang C. Huynh
 -----------------------------------------------------------------------
 Hartree-Fock
 A restricted SCF calculation will be
 performed using DIIS
 SCF converges when DIIS error is below 1.0e-06
 ---------------------------------------
  Cycle       Energy         DIIS error
 ---------------------------------------
    1   -1186.0326490060      2.39e-02  
    2   -1180.6125392036      1.55e-03  
    3   -1180.7364928765      5.83e-04  
    4   -1180.7499797338      3.27e-04  
    5   -1180.7547850682      5.90e-05  
    6   -1180.7550255822      2.40e-05  
    7   -1180.7550832347      8.94e-06  
    8   -1180.7550968602      4.33e-06  
    9   -1180.7551000223      1.53e-06  
   10   -1180.7551005350      5.19e-07  Convergence criterion met
 ---------------------------------------
 SCF time:   CPU 561.23s  wall 563.00s 

************** Final PCM Free Energy Summary **************
 G_electrostatic  =      -0.00959038 hartree =      -6.01805242 kcal/mol
 G_cavitation     =       0.00000000 hartree =       0.00000000 kcal/mol
 G_dispersion     =       0.00000000 hartree =       0.00000000 kcal/mol
 G_repulsion      =       0.00000000 hartree =       0.00000000 kcal/mol
 --------------------------------------------------
 Non-electrostatic Free Energy =       0.00000000 hartree =       0.00000000 kcal/mol
 Total                         =      -0.00959038 hartree =      -6.01805242 kcal/mol
 --------------------------------------------------
 SCF Energy (H0 + V/2)                       =   -1180.75510053 
 Solute Internal Energy (H0)                 =   -1180.74551016 
 Total Free Energy (H0 + V/2 + non-elec)     =   -1180.75510053 hartree
                                             = -740935.00851725 kcal/mol
***********************************************************

 SCF   energy in the final basis set =    -1180.7551005350
 Total energy in the final basis set =    -1180.7551005350


 --------------------------------------------------------------
  Generalized many-body perturbation theory program
  by Joonho Lee, Fazle Rob, Xintian Feng, Evgeny Epifanovsky

 No regularization used 
 (reg. param. = 0.0000e+00)
  (P|Q)^-1/2 Time:  CPU 2.32 s  wall 2.33 s

 In RI-MP2 calculation: 
 # of frozen core orbitals: 20

 Components of the RIMP2 correlation energy:
        aaaa    correlation energy =        -0.2514015363 a.u.
        abab    correlation energy =        -1.5034963231 a.u.
        bbbb    correlation energy =        -0.2514015363 a.u.
        non-Brillouin singles      =        -0.0000000000 a.u.
        total same-spin energy     =        -0.5028030727 a.u.
        total opposite-spin energy =        -1.5034963231 a.u.

 Total  RIMP2   correlation energy =        -2.0062993958 a.u.
        RIMP2         total energy =     -1182.7613999307 a.u.

 RI-MP2 Energy Time:  CPU 117.68 s  wall 118.05 s
 
 --------------------------------------------------------------
 
                    Orbital Energies (a.u.)
 --------------------------------------------------------------
 
 Alpha MOs
 -- Occupied --
-91.9807 -91.9422 -11.2800 -11.2649 -11.2613 -11.2543 -11.2506 -11.2431
-11.2405 -11.2317 -11.2292 -11.2175  -8.9806  -8.9468  -6.6615  -6.6610
 -6.6604  -6.6281  -6.6271  -6.6258  -1.1987  -1.1533  -1.0579  -1.0270
 -1.0042  -0.9601  -0.9114  -0.9010  -0.8155  -0.7591  -0.7354  -0.7019
 -0.6610  -0.6413  -0.6101  -0.5888  -0.5819  -0.5705  -0.5645  -0.5510
 -0.5414  -0.5304  -0.5116  -0.5065  -0.4922  -0.4790  -0.4616  -0.4474
 -0.3566  -0.3399  -0.3149  -0.2773
 -- Virtual --
  0.0894   0.1329   0.1423   0.1533   0.1589   0.1719   0.1728   0.1821
  0.1912   0.1963   0.2049   0.2175   0.2241   0.2280   0.2350   0.2433
  0.2498   0.2559   0.2719   0.2960   0.3123   0.3363   0.3449   0.3517
  0.3706   0.3775   0.3792   0.3834   0.3941   0.4004   0.4109   0.4184
  0.4342   0.4400   0.4448   0.4626   0.4686   0.4729   0.4854   0.4883
  0.5012   0.5154   0.5177   0.5209   0.5277   0.5370   0.5415   0.5490
  0.5732   0.5797   0.5863   0.5946   0.5999   0.6051   0.6139   0.6195
  0.6274   0.6298   0.6329   0.6370   0.6446   0.6447   0.6503   0.6564
  0.6590   0.6623   0.6802   0.6870   0.6918   0.6979   0.7124   0.7195
  0.7353   0.7438   0.7521   0.7759   0.7904   0.7984   0.8143   0.8231
  0.8259   0.8404   0.8484   0.8510   0.8753   0.8895   0.8980   0.9110
  0.9307   0.9408   0.9518   0.9574   0.9807   0.9872   1.0010   1.0078
  1.0183   1.0276   1.0302   1.0361   1.0489   1.0642   1.0657   1.0805
  1.0855   1.1003   1.1097   1.1180   1.1266   1.1522   1.1610   1.1764
  1.1782   1.1871   1.1916   1.1994   1.2147   1.2244   1.2325   1.2486
  1.2526   1.2599   1.2624   1.2705   1.2756   1.2883   1.3093   1.3221
  1.3306   1.3316   1.3550   1.3653   1.3817   1.3931   1.3963   1.4044
  1.4247   1.4326   1.4500   1.4571   1.4712   1.4733   1.4777   1.4957
  1.5042   1.5148   1.5232   1.5282   1.5384   1.5453   1.5476   1.5531
  1.5629   1.5697   1.5776   1.5910   1.6078   1.6183   1.6262   1.6413
  1.6473   1.6649   1.6833   1.6973   1.7025   1.7096   1.7260   1.7317
  1.7528   1.7597   1.7681   1.7873   1.7965   1.8138   1.8276   1.8585
  1.8698   1.9254   1.9312   1.9440   1.9496   1.9652   1.9788   1.9963
  2.0179   2.0313   2.0459   2.0535   2.0819   2.1321   2.1366   2.1391
  2.1873   2.1932   2.2020   2.2179   2.2298   2.2551   2.2666   2.2731
  2.2794   2.3210   2.3530   2.3719   2.4090   2.4500   2.4581   2.4729
  2.4961   2.5037   2.5206   2.5479   2.5723   2.5877   2.6026   2.6075
  2.6167   2.6339   2.6607   2.6667   2.6701   2.6894   2.7039   2.7314
  2.7475   2.7544   2.7599   2.7718   2.7733   2.7890   2.8060   2.8361
  2.8444   2.8543   2.8587   2.8796   2.8988   2.9078   2.9146   2.9195
  2.9427   2.9484   2.9540   2.9688   2.9993   3.0161   3.0240   3.0366
  3.0422   3.0744   3.0887   3.1087   3.1121   3.1189   3.1343   3.1429
  3.1515   3.1597   3.1620   3.1732   3.1823   3.1924   3.1982   3.2187
  3.2272   3.2424   3.2448   3.2669   3.2720   3.2806   3.3015   3.3065
  3.3185   3.3274   3.3333   3.3372   3.3420   3.3611   3.3637   3.3672
  3.3801   3.3882   3.3933   3.4027   3.4050   3.4173   3.4192   3.4295
  3.4355   3.4435   3.4541   3.4608   3.4784   3.4888   3.5013   3.5073
  3.5199   3.5314   3.5355   3.5441   3.5458   3.5577   3.5775   3.5877
  3.5938   3.6041   3.6144   3.6211   3.6338   3.6391   3.6410   3.6504
  3.6655   3.6792   3.6861   3.6885   3.7171   3.7266   3.7302   3.7396
  3.7472   3.7550   3.7679   3.7750   3.7863   3.7943   3.8015   3.8233
  3.8305   3.8399   3.8468   3.8609   3.8795   3.8877   3.8988   3.9161
  3.9318   3.9439   3.9487   3.9591   3.9674   3.9890   3.9995   4.0045
  4.0223   4.0350   4.0419   4.0546   4.0770   4.0884   4.0980   4.1069
  4.1235   4.1256   4.1441   4.1533   4.1598   4.1679   4.1887   4.1961
  4.2064   4.2180   4.2287   4.2452   4.2530   4.2603   4.2625   4.2905
  4.3003   4.3043   4.3161   4.3244   4.3418   4.3444   4.3582   4.3671
  4.3750   4.3827   4.3962   4.4016   4.4053   4.4229   4.4321   4.4521
  4.4585   4.4735   4.4866   4.4932   4.5019   4.5173   4.5348   4.5507
  4.5808   4.5912   4.6014   4.6258   4.6449   4.6485   4.6561   4.6755
  4.6889   4.7190   4.7296   4.7585   4.7604   4.8161   4.8267   4.8535
  4.8559   4.8610   4.8999   4.9060   4.9265   4.9725   4.9810   4.9899
  5.0244   5.0475   5.0942   5.1049   5.1126   5.1253   5.1546   5.1706
  5.1830   5.1945   5.2295   5.2617   5.2809   5.2921   5.3087   5.3276
  5.3380   5.3682   5.3716   5.3915   5.4033   5.4269   5.4411   5.4468
  5.4917   5.5112   5.5281   5.5454   5.5474   5.5611   5.5706   5.5789
  5.6222   5.6300   5.6536   5.6642   5.6829   5.6989   5.7081   5.7333
  5.7786   5.7913   5.8316   5.9578   6.0019   6.0654   6.1305   6.1386
  6.2052   6.2195   6.2265   6.2448   6.2537   6.2731   6.2888   6.3216
  6.3779   6.4585   9.4089  10.6363  12.1108  12.9408  13.1956  13.9006
 14.1003  14.1946  14.3471  14.6201
 --------------------------------------------------------------
 
          Ground-State Mulliken Net Atomic Charges

     Atom                 Charge (a.u.)
  ----------------------------------------
      1 C                    -0.073604
      2 C                    -0.329126
      3 C                    -0.033455
      4 H                     0.175185
      5 C                     0.065471
      6 S                    -0.168153
      7 C                    -0.269500
      8 H                     0.113433
      9 H                     0.108221
     10 H                     0.099414
     11 C                    -0.063570
     12 C                    -0.243949
     13 C                     0.024438
     14 H                     0.181336
     15 C                    -0.235988
     16 S                     0.008298
     17 C                    -0.271638
     18 H                     0.101687
     19 H                     0.107844
     20 H                     0.108611
     21 H                     0.196393
     22 H                     0.110654
     23 H                     0.110224
     24 H                     0.177772
  ----------------------------------------
  Sum of atomic charges =     0.000000

 -----------------------------------------------------------------
                    Cartesian Multipole Moments
 -----------------------------------------------------------------
    Charge (ESU x 10^10)
                -0.0000
    Dipole Moment (Debye)
         X      -1.3239      Y       0.5285      Z       3.0273
       Tot       3.3462
    Quadrupole Moments (Debye-Ang)
        XX     -90.2096     XY       6.1762     YY     -75.2793
        XZ       0.5642     YZ      -1.4418     ZZ     -86.1237
    Octopole Moments (Debye-Ang^2)
       XXX     -77.3122    XXY      49.0712    XYY     -10.0504
       YYY     133.2362    XXZ       1.1310    XYZ       0.2050
       YYZ      -1.8280    XZZ     -20.7767    YZZ      59.1529
       ZZZ       1.5448
    Hexadecapole Moments (Debye-Ang^3)
      XXXX    -754.2384   XXXY    -131.6916   XXYY    -596.2815
      XYYY    -130.2939   YYYY   -2704.9389   XXXZ      55.8981
      XXYZ     -42.9536   XYYZ       6.2048   YYYZ    -103.3015
      XXZZ    -233.5874   XYZZ     -42.1237   YYZZ    -591.7528
      XZZZ      62.7718   YZZZ     -89.5403   ZZZZ    -607.5036
 -----------------------------------------------------------------
 Total job time:  683.89s(wall), 679.95s(cpu) 
 Sun Jul 10 04:06:44 2022

        *************************************************************
        *                                                           *
        *  Thank you very much for using Q-Chem.  Have a nice day.  *
        *                                                           *
        *************************************************************


remove work dirs ./qchem4038622.0 -- ./qchem4038622.-1
rm -rf ./qchem4038622
You are running Q-Chem version: 5.4.0

#
# job setting
#
local host:  exp-3-09
current dir: /expanse/lustre/scratch/theleonzhang/temp_project/Hydrogenated_Rotation_Test
input file:  Methylthiophene_Phi_20_Theta_250_Methylthiophene_Hydrogenated.qcin
output file: 
nprocs     : 0
nthreads   : 1
#
# qchem installation setting
#
QC:          /cm/shared/apps/spack/cpu/opt/spack/linux-centos8-zen2/gcc-10.2.0/qchem-5.4-akfmr7b3t57bfs6qan3padb2wnb2i7cl
QCAUX:       /cm/shared/apps/spack/cpu/opt/spack/linux-centos8-zen2/gcc-10.2.0/qchem-5.4-akfmr7b3t57bfs6qan3padb2wnb2i7cl/qcaux
QCPROG:      /cm/shared/apps/spack/cpu/opt/spack/linux-centos8-zen2/gcc-10.2.0/qchem-5.4-akfmr7b3t57bfs6qan3padb2wnb2i7cl/exe/qcprog.exe_s
QCPROG_S:    /cm/shared/apps/spack/cpu/opt/spack/linux-centos8-zen2/gcc-10.2.0/qchem-5.4-akfmr7b3t57bfs6qan3padb2wnb2i7cl/exe/qcprog.exe_s
PARALLEL:    -DSERIAL
QCMPI:       mpich
#
# qchem directory setting
#
qcrun:       qchem940478
QCSCRATCH:   .
QCLOCALSCR:  
QCTMPDIR:    .
QCFILEPREF:  ./qchem940478
QCSAVEDIR:   
workdirs:    ./qchem940478
workdir0:    ./qchem940478
partmpdirs =  
#
# parallel setting
#
QCRSH:           ssh
QCMPI:           mpich
QCMPIRUN:        /cm/shared/apps/spack/cpu/opt/spack/linux-centos8-zen2/gcc-10.2.0/qchem-5.4-akfmr7b3t57bfs6qan3padb2wnb2i7cl/bin/mpi/mpirun_qchem
QCMACHINEFILE:   ./qchem940478/hostfile

#
# env setting
#
exported envs:   QC QCAUX QCSCRATCH QCRUNNAME QCFILEPREF QCPROG QCPROG_S GUIFILE

Running Job 1 of 1 Methylthiophene_Phi_20_Theta_250_Methylthiophene_Hydrogenated.qcin
qchem Methylthiophene_Phi_20_Theta_250_Methylthiophene_Hydrogenated.qcin_940478.0 ./qchem940478/ 0
/cm/shared/apps/spack/cpu/opt/spack/linux-centos8-zen2/gcc-10.2.0/qchem-5.4-akfmr7b3t57bfs6qan3padb2wnb2i7cl/exe/qcprog.exe_s Methylthiophene_Phi_20_Theta_250_Methylthiophene_Hydrogenated.qcin_940478.0 ./qchem940478/
                  Welcome to Q-Chem
     A Quantum Leap Into The Future Of Chemistry


 Q-Chem 5.4, Q-Chem, Inc., Pleasanton, CA (2021)

 License issued to: University of California, San Diego (site)

 E. Epifanovsky,  A. T. B. Gilbert,  Xintian Feng,  Joonho Lee,  Yuezhi Mao,  
 N. Mardirossian,  P. Pokhilko,  A. White,  M. Wormit,  M. P. Coons,  
 A. L. Dempwolff,  Zhengting Gan,  D. Hait,  P. R. Horn,  L. D. Jacobson,  
 I. Kaliman,  J. Kussmann,  A. W. Lange,  Ka Un Lao,  D. S. Levine,  Jie Liu,  
 S. C. McKenzie,  A. F. Morrison,  K. Nanda,  F. Plasser,  D. R. Rehn,  
 M. L. Vidal,  Zhi-Qiang You,  Ying Zhu,  B. Alam,  B. Albrecht,  
 A. Aldossary,  E. Alguire,  J. H. Andersen,  D. Barton,  K. Begam,  A. Behn,  
 Y. A. Bernard,  E. J. Berquist,  H. Burton,  A. Carreras,  K. Carter-Fenk,  
 R. Chakraborty,  A. D. Chien,  K. D. Closser,  V. Cofer-Shabica,  
 S. Dasgupta,  Jia Deng,  M. de Wergifosse,  M. Diedenhofen,  Hainam Do,  
 S. Ehlert,  Po-Tung Fang,  S. Fatehi,  Qingguo Feng,  J. Gayvert,  
 Qinghui Ge,  G. Gidofalvi,  M. Goldey,  J. Gomes,  C. Gonzalez-Espinoza,  
 S. Gulania,  A. Gunina,  M. W. D. Hanson-Heine,  P. H. P. Harbach,  
 A. W. Hauser,  M. F. Herbst,  M. Hernandez Vera,  M. Hodecker,  
 Z. C. Holden,  S. Houck,  Xunkun Huang,  Kerwin Hui,  B. C. Huynh,  
 M. Ivanov,  Hyunjun Ji,  Hanjie Jiang,  B. Kaduk,  S. Kaehler,  
 K. Khistyaev,  Jaehoon Kim,  P. Klunzinger,  Z. Koczor-Benda,  
 Joong Hoon Koh,  D. Kosenkov,  L. Koulias,  T. Kowalczyk,  C. M. Krauter,  
 K. Kue,  A. Kunitsa,  T. Kus,  A. Landau,  K. V. Lawler,  D. Lefrancois,  
 S. Lehtola,  Rain Li,  Yi-Pei Li,  Jiashu Liang,  M. Liebenthal,  
 Hung-Hsuan Lin,  You-Sheng Lin,  Fenglai Liu,  Kuan-Yu Liu,  
 M. Loipersberger,  A. Luenser,  A. Manjanath,  P. Manohar,  E. Mansoor,  
 S. F. Manzer,  Shan-Ping Mao,  A. V. Marenich,  T. Markovich,  S. Mason,  
 S. A. Maurer,  P. F. McLaughlin,  M. F. S. J. Menger,  J.-M. Mewes,  
 S. A. Mewes,  P. Morgante,  J. W. Mullinax,  T. S. Nguyen-Beck,  
 K. J. Oosterbaan,  G. Paran,  Alexander C. Paul,  Suranjan K. Paul,  
 F. Pavosevic,  Zheng Pei,  S. Prager,  E. I. Proynov,  E. Ramos,  B. Rana,  
 A. E. Rask,  A. Rettig,  R. M. Richard,  F. Rob,  E. Rossomme,  T. Scheele,  
 M. Scheurer,  M. Schneider,  N. Sergueev,  S. M. Sharada,  W. Skomorowski,  
 D. W. Small,  C. J. Stein,  Yu-Chuan Su,  E. J. Sundstrom,  Zhen Tao,  
 J. Thirman,  T. Tsuchimochi,  N. M. Tubman,  S. P. Veccham,  O. Vydrov,  
 J. Wenzel,  J. Witte,  A. Yamada,  Kun Yao,  S. Yeganeh,  S. R. Yost,  
 A. Zech,  Igor Ying Zhang,  Xing Zhang,  Yu Zhang,  D. Zuev,  
 A. Aspuru-Guzik,  A. T. Bell,  N. A. Besley,  K. B. Bravaya,  B. R. Brooks,  
 D. Casanova,  Jeng-Da Chai,  S. Coriani,  C. J. Cramer,  
 A. E. DePrince, III,  R. A. DiStasio Jr.,  A. Dreuw,  B. D. Dunietz,  
 T. R. Furlani,  W. A. Goddard III,  S. Grimme,  S. Hammes-Schiffer,  
 T. Head-Gordon,  W. J. Hehre,  Chao-Ping Hsu,  T.-C. Jagau,  Yousung Jung,  
 A. Klamt,  Jing Kong,  D. S. Lambrecht,  WanZhen Liang,  N. J. Mayhall,  
 C. W. McCurdy,  J. B. Neaton,  C. Ochsenfeld,  J. A. Parkhill,  R. Peverati,  
 V. A. Rassolov,  Yihan Shao,  L. V. Slipchenko,  T. Stauch,  R. P. Steele,  
 J. E. Subotnik,  A. J. W. Thom,  A. Tkatchenko,  D. G. Truhlar,  
 T. Van Voorhis,  T. A. Wesolowski,  K. B. Whaley,  H. L. Woodcock III,  
 P. M. Zimmerman,  S. Faraji,  P. M. W. Gill,  M. Head-Gordon,  
 J. M. Herbert,  A. I. Krylov

 Contributors to earlier versions of Q-Chem not listed above: 
 R. D. Adamson,  B. Austin,  R. Baer,  J. Baker,  G. J. O. Beran,  
 K. Brandhorst,  S. T. Brown,  E. F. C. Byrd,  A. K. Chakraborty,  
 G. K. L. Chan,  Chun-Min Chang,  Yunqing Chen,  C.-L. Cheng,  
 Siu Hung Chien,  D. M. Chipman,  D. L. Crittenden,  H. Dachsel,  
 R. J. Doerksen,  A. D. Dutoi,  R. G. Edgar,  J. Fosso-Tande,  
 L. Fusti-Molnar,  D. Ghosh,  A. Ghysels,  A. Golubeva-Zadorozhnaya,  
 J. Gonthier,  M. S. Gordon,  S. R. Gwaltney,  G. Hawkins,  J. E. Herr,  
 A. Heyden,  S. Hirata,  E. G. Hohenstein,  G. Kedziora,  F. J. Keil,  
 C. Kelley,  Jihan Kim,  R. A. King,  R. Z. Khaliullin,  P. P. Korambath,  
 W. Kurlancheek,  A. Laurent,  A. M. Lee,  M. S. Lee,  S. V. Levchenko,  
 Ching Yeh Lin,  D. Liotard,  E. Livshits,  R. C. Lochan,  I. Lotan,  
 L. A. Martinez-Martinez,  P. E. Maslen,  N. Nair,  D. P. O'Neill,  
 D. Neuhauser,  E. Neuscamman,  C. M. Oana,  R. Olivares-Amaya,  R. Olson,  
 T. M. Perrine,  B. Peters,  P. A. Pieniazek,  A. Prociuk,  Y. M. Rhee,  
 J. Ritchie,  M. A. Rohrdanz,  E. Rosta,  N. J. Russ,  H. F. Schaefer III,  
 M. W. Schmidt,  N. E. Schultz,  S. Sharma,  N. Shenvi,  C. D. Sherrill,  
 A. C. Simmonett,  A. Sodt,  T. Stein,  D. Stuck,  K. S. Thanthiriwatte,  
 V. Vanovschi,  L. Vogt,  Tao Wang,  A. Warshel,  M. A. Watson,  
 C. F. Williams,  Q. Wu,  X. Xu,  Jun Yang,  W. Zhang,  Yan Zhao

 Please cite Q-Chem as follows:
 Y. Shao et al., Mol. Phys. 113, 184-215 (2015)
 DOI: 10.1080/00268976.2014.952696

 Q-Chem 5.4.0 for Intel X86 EM64T Linux

 Parts of Q-Chem use Armadillo 9.800.1 (Horizon Scraper).
 http://arma.sourceforge.net/

 Q-Chem begins on Sun Jul 10 04:21:02 2022  

 Host: 
0

     Scratch files written to ./qchem940478//
 May1621 |scratch|qcdevops|jenkins|workspace|build_RNUM    
 Processing $rem in /cm/shared/apps/spack/cpu/opt/spack/linux-centos8-zen2/gcc-10.2.0/qchem-5.4-akfmr7b3t57bfs6qan3padb2wnb2i7cl/config/preferences:
 Processing $rem in /home/theleonzhang/.qchemrc:
 Symmetry turned off for PCM/SM12/SMD calculation
 Core orbitals will be frozen

 Checking the input file for inconsistencies... 	...done.

--------------------------------------------------------------
User input:
--------------------------------------------------------------
$molecule
0 1
C	0.728625	-3.866725	-0.264439
C	-0.575519	-3.703963	0.209794
C	-1.002336	-2.357056	0.364749
H	-1.224165	-4.561092	0.446060
C	0.000000	-1.440664	0.000000
S	1.451336	-2.286957	-0.528253
C	-2.369885	-1.978743	0.862253
H	-2.976034	-2.878678	1.082953
H	-2.927887	-1.376015	0.115513
H	-2.317620	-1.375728	1.792797
C	0.000000	0.000000	0.000000
C	0.295399	0.811508	1.099446
C	0.768742	2.111949	0.776721
H	0.169256	0.464952	2.136088
C	0.844232	2.319291	-0.612546
S	0.322342	0.885558	-1.486809
C	1.140796	3.134091	1.814609
H	0.995218	2.734123	2.836676
H	0.526006	4.054142	1.726239
H	2.203157	3.443680	1.726228
H	1.168902	3.211257	-1.161575
H	0.745219	-4.392713	-1.225465
H	1.359038	-4.392347	0.461378
H	0.369273	-1.440391	1.014907
$end

$rem
JOBTYPE		SP
EXCHANGE	HF
CORRELATION	pRIMP2
BASIS		cc-pvtz
METHOD		rimp2
AUX_BASIS	rimp2-cc-pvtz
SOLVENT_METHOD	PCM
PURECART	11111
SYMMETRY	false
MEM_TOTAL	110000
SCF_CONVERGENCE = 6
THRESH=10
$end



$solvent
dielectric 4.90
$end
--------------------------------------------------------------
 ----------------------------------------------------------------
             Standard Nuclear Orientation (Angstroms)
    I     Atom           X                Y                Z
 ----------------------------------------------------------------
    1      C       0.7286250000    -3.8667250000    -0.2644390000
    2      C      -0.5755190000    -3.7039630000     0.2097940000
    3      C      -1.0023360000    -2.3570560000     0.3647490000
    4      H      -1.2241650000    -4.5610920000     0.4460600000
    5      C       0.0000000000    -1.4406640000     0.0000000000
    6      S       1.4513360000    -2.2869570000    -0.5282530000
    7      C      -2.3698850000    -1.9787430000     0.8622530000
    8      H      -2.9760340000    -2.8786780000     1.0829530000
    9      H      -2.9278870000    -1.3760150000     0.1155130000
   10      H      -2.3176200000    -1.3757280000     1.7927970000
   11      C       0.0000000000     0.0000000000     0.0000000000
   12      C       0.2953990000     0.8115080000     1.0994460000
   13      C       0.7687420000     2.1119490000     0.7767210000
   14      H       0.1692560000     0.4649520000     2.1360880000
   15      C       0.8442320000     2.3192910000    -0.6125460000
   16      S       0.3223420000     0.8855580000    -1.4868090000
   17      C       1.1407960000     3.1340910000     1.8146090000
   18      H       0.9952180000     2.7341230000     2.8366760000
   19      H       0.5260060000     4.0541420000     1.7262390000
   20      H       2.2031570000     3.4436800000     1.7262280000
   21      H       1.1689020000     3.2112570000    -1.1615750000
   22      H       0.7452190000    -4.3927130000    -1.2254650000
   23      H       1.3590380000    -4.3923470000     0.4613780000
   24      H       0.3692730000    -1.4403910000     1.0149070000
 ----------------------------------------------------------------
 Nuclear Repulsion Energy =         874.93718385 hartrees
 There are       52 alpha and       52 beta electrons

 Q-Chem warning in module forms1/BasisType.C, line 2236:

 You are not using the predefined 5D/6D in this basis set.

 Requested basis set is cc-pVTZ
 There are 196 shells and 536 basis functions

 Total QAlloc Memory Limit 110000 MB
 Mega-Array Size       188 MB
 MEM_STATIC part       192 MB
 Discretize the solute cavity surface with Lebedev spheres
	Using 110 Lebedev grid points for each H atom
	Using 194 Lebedev grid points for other atoms
	Atomic van der Waals radii will be scaled by 1.20
 Remove points where switching function is < 1.0e-08
 Keep 1629 surface tesserae and discard 2019 interior tesserae
 Molecular Surface Area = 237.717 Angst**2
 Requested basis set is rimp2-cc-pVTZ
 There are 414 shells and 1414 basis functions
 A cutoff of  1.0D-10 yielded  13935 shell pairs
 There are    100923 function pairs (    129390 Cartesian)
 Smallest overlap matrix eigenvalue = 7.04E-05

 Scale SEOQF with 1.000000e-01/1.000000e-01/1.000000e-01

 Standard Electronic Orientation quadrupole field applied
 Nucleus-field energy     =     0.0000000347 hartrees
 Guess from superposition of atomic densities
 Warning:  Energy on first SCF cycle will be non-variational
 SAD guess density has 104.000000 electrons

 -----------------------------------------------------------------------
  General SCF calculation program by
  Eric Jon Sundstrom, Paul Horn, Yuezhi Mao, Dmitri Zuev, Alec White,
  David Stuck, Shaama M.S., Shane Yost, Joonho Lee, David Small,
  Daniel Levine, Susi Lehtola, Hugh Burton, Evgeny Epifanovsky,
  Bang C. Huynh
 -----------------------------------------------------------------------
 Hartree-Fock
 A restricted SCF calculation will be
 performed using DIIS
 SCF converges when DIIS error is below 1.0e-06
 ---------------------------------------
  Cycle       Energy         DIIS error
 ---------------------------------------
    1   -1186.0326490060      2.39e-02  
    2   -1180.6125392036      1.55e-03  
    3   -1180.7364928765      5.83e-04  
    4   -1180.7499797338      3.27e-04  
    5   -1180.7547850682      5.90e-05  
    6   -1180.7550255822      2.40e-05  
    7   -1180.7550832347      8.94e-06  
    8   -1180.7550968602      4.33e-06  
    9   -1180.7551000223      1.53e-06  
   10   -1180.7551005350      5.19e-07  Convergence criterion met
 ---------------------------------------
 SCF time:   CPU 560.81s  wall 563.00s 

************** Final PCM Free Energy Summary **************
 G_electrostatic  =      -0.00959038 hartree =      -6.01805242 kcal/mol
 G_cavitation     =       0.00000000 hartree =       0.00000000 kcal/mol
 G_dispersion     =       0.00000000 hartree =       0.00000000 kcal/mol
 G_repulsion      =       0.00000000 hartree =       0.00000000 kcal/mol
 --------------------------------------------------
 Non-electrostatic Free Energy =       0.00000000 hartree =       0.00000000 kcal/mol
 Total                         =      -0.00959038 hartree =      -6.01805242 kcal/mol
 --------------------------------------------------
 SCF Energy (H0 + V/2)                       =   -1180.75510053 
 Solute Internal Energy (H0)                 =   -1180.74551016 
 Total Free Energy (H0 + V/2 + non-elec)     =   -1180.75510053 hartree
                                             = -740935.00851725 kcal/mol
***********************************************************

 SCF   energy in the final basis set =    -1180.7551005350
 Total energy in the final basis set =    -1180.7551005350


 --------------------------------------------------------------
  Generalized many-body perturbation theory program
  by Joonho Lee, Fazle Rob, Xintian Feng, Evgeny Epifanovsky

 No regularization used 
 (reg. param. = 0.0000e+00)
  (P|Q)^-1/2 Time:  CPU 1.91 s  wall 1.91 s

 In RI-MP2 calculation: 
 # of frozen core orbitals: 20

 Components of the RIMP2 correlation energy:
        aaaa    correlation energy =        -0.2514015363 a.u.
        abab    correlation energy =        -1.5034963231 a.u.
        bbbb    correlation energy =        -0.2514015363 a.u.
        non-Brillouin singles      =        -0.0000000000 a.u.
        total same-spin energy     =        -0.5028030727 a.u.
        total opposite-spin energy =        -1.5034963231 a.u.

 Total  RIMP2   correlation energy =        -2.0062993958 a.u.
        RIMP2         total energy =     -1182.7613999307 a.u.

 RI-MP2 Energy Time:  CPU 79.36 s  wall 79.63 s
 
 --------------------------------------------------------------
 
                    Orbital Energies (a.u.)
 --------------------------------------------------------------
 
 Alpha MOs
 -- Occupied --
-91.9807 -91.9422 -11.2800 -11.2649 -11.2613 -11.2543 -11.2506 -11.2431
-11.2405 -11.2317 -11.2292 -11.2175  -8.9806  -8.9468  -6.6615  -6.6610
 -6.6604  -6.6281  -6.6271  -6.6258  -1.1987  -1.1533  -1.0579  -1.0270
 -1.0042  -0.9601  -0.9114  -0.9010  -0.8155  -0.7591  -0.7354  -0.7019
 -0.6610  -0.6413  -0.6101  -0.5888  -0.5819  -0.5705  -0.5645  -0.5510
 -0.5414  -0.5304  -0.5116  -0.5065  -0.4922  -0.4790  -0.4616  -0.4474
 -0.3566  -0.3399  -0.3149  -0.2773
 -- Virtual --
  0.0894   0.1329   0.1423   0.1533   0.1589   0.1719   0.1728   0.1821
  0.1912   0.1963   0.2049   0.2175   0.2241   0.2280   0.2350   0.2433
  0.2498   0.2559   0.2719   0.2960   0.3123   0.3363   0.3449   0.3517
  0.3706   0.3775   0.3792   0.3834   0.3941   0.4004   0.4109   0.4184
  0.4342   0.4400   0.4448   0.4626   0.4686   0.4729   0.4854   0.4883
  0.5012   0.5154   0.5177   0.5209   0.5277   0.5370   0.5415   0.5490
  0.5732   0.5797   0.5863   0.5946   0.5999   0.6051   0.6139   0.6195
  0.6274   0.6298   0.6329   0.6370   0.6446   0.6447   0.6503   0.6564
  0.6590   0.6623   0.6802   0.6870   0.6918   0.6979   0.7124   0.7195
  0.7353   0.7438   0.7521   0.7759   0.7904   0.7984   0.8143   0.8231
  0.8259   0.8404   0.8484   0.8510   0.8753   0.8895   0.8980   0.9110
  0.9307   0.9408   0.9518   0.9574   0.9807   0.9872   1.0010   1.0078
  1.0183   1.0276   1.0302   1.0361   1.0489   1.0642   1.0657   1.0805
  1.0855   1.1003   1.1097   1.1180   1.1266   1.1522   1.1610   1.1764
  1.1782   1.1871   1.1916   1.1994   1.2147   1.2244   1.2325   1.2486
  1.2526   1.2599   1.2624   1.2705   1.2756   1.2883   1.3093   1.3221
  1.3306   1.3316   1.3550   1.3653   1.3817   1.3931   1.3963   1.4044
  1.4247   1.4326   1.4500   1.4571   1.4712   1.4733   1.4777   1.4957
  1.5042   1.5148   1.5232   1.5282   1.5384   1.5453   1.5476   1.5531
  1.5629   1.5697   1.5776   1.5910   1.6078   1.6183   1.6262   1.6413
  1.6473   1.6649   1.6833   1.6973   1.7025   1.7096   1.7260   1.7317
  1.7528   1.7597   1.7681   1.7873   1.7965   1.8138   1.8276   1.8585
  1.8698   1.9254   1.9312   1.9440   1.9496   1.9652   1.9788   1.9963
  2.0179   2.0313   2.0459   2.0535   2.0819   2.1321   2.1366   2.1391
  2.1873   2.1932   2.2020   2.2179   2.2298   2.2551   2.2666   2.2731
  2.2794   2.3210   2.3530   2.3719   2.4090   2.4500   2.4581   2.4729
  2.4961   2.5037   2.5206   2.5479   2.5723   2.5877   2.6026   2.6075
  2.6167   2.6339   2.6607   2.6667   2.6701   2.6894   2.7039   2.7314
  2.7475   2.7544   2.7599   2.7718   2.7733   2.7890   2.8060   2.8361
  2.8444   2.8543   2.8587   2.8796   2.8988   2.9078   2.9146   2.9195
  2.9427   2.9484   2.9540   2.9688   2.9993   3.0161   3.0240   3.0366
  3.0422   3.0744   3.0887   3.1087   3.1121   3.1189   3.1343   3.1429
  3.1515   3.1597   3.1620   3.1732   3.1823   3.1924   3.1982   3.2187
  3.2272   3.2424   3.2448   3.2669   3.2720   3.2806   3.3015   3.3065
  3.3185   3.3274   3.3333   3.3372   3.3420   3.3611   3.3637   3.3672
  3.3801   3.3882   3.3933   3.4027   3.4050   3.4173   3.4192   3.4295
  3.4355   3.4435   3.4541   3.4608   3.4784   3.4888   3.5013   3.5073
  3.5199   3.5314   3.5355   3.5441   3.5458   3.5577   3.5775   3.5877
  3.5938   3.6041   3.6144   3.6211   3.6338   3.6391   3.6410   3.6504
  3.6655   3.6792   3.6861   3.6885   3.7171   3.7266   3.7302   3.7396
  3.7472   3.7550   3.7679   3.7750   3.7863   3.7943   3.8015   3.8233
  3.8305   3.8399   3.8468   3.8609   3.8795   3.8877   3.8988   3.9161
  3.9318   3.9439   3.9487   3.9591   3.9674   3.9890   3.9995   4.0045
  4.0223   4.0350   4.0419   4.0546   4.0770   4.0884   4.0980   4.1069
  4.1235   4.1256   4.1441   4.1533   4.1598   4.1679   4.1887   4.1961
  4.2064   4.2180   4.2287   4.2452   4.2530   4.2603   4.2625   4.2905
  4.3003   4.3043   4.3161   4.3244   4.3418   4.3444   4.3582   4.3671
  4.3750   4.3827   4.3962   4.4016   4.4053   4.4229   4.4321   4.4521
  4.4585   4.4735   4.4866   4.4932   4.5019   4.5173   4.5348   4.5507
  4.5808   4.5912   4.6014   4.6258   4.6449   4.6485   4.6561   4.6755
  4.6889   4.7190   4.7296   4.7585   4.7604   4.8161   4.8267   4.8535
  4.8559   4.8610   4.8999   4.9060   4.9265   4.9725   4.9810   4.9899
  5.0244   5.0475   5.0942   5.1049   5.1126   5.1253   5.1546   5.1706
  5.1830   5.1945   5.2295   5.2617   5.2809   5.2921   5.3087   5.3276
  5.3380   5.3682   5.3716   5.3915   5.4033   5.4269   5.4411   5.4468
  5.4917   5.5112   5.5281   5.5454   5.5474   5.5611   5.5706   5.5789
  5.6222   5.6300   5.6536   5.6642   5.6829   5.6989   5.7081   5.7333
  5.7786   5.7913   5.8316   5.9578   6.0019   6.0654   6.1305   6.1386
  6.2052   6.2195   6.2265   6.2448   6.2537   6.2731   6.2888   6.3216
  6.3779   6.4585   9.4089  10.6363  12.1108  12.9408  13.1956  13.9006
 14.1003  14.1946  14.3471  14.6201
 --------------------------------------------------------------
 
          Ground-State Mulliken Net Atomic Charges

     Atom                 Charge (a.u.)
  ----------------------------------------
      1 C                    -0.073604
      2 C                    -0.329126
      3 C                    -0.033455
      4 H                     0.175185
      5 C                     0.065471
      6 S                    -0.168153
      7 C                    -0.269500
      8 H                     0.113433
      9 H                     0.108221
     10 H                     0.099414
     11 C                    -0.063570
     12 C                    -0.243949
     13 C                     0.024438
     14 H                     0.181336
     15 C                    -0.235988
     16 S                     0.008298
     17 C                    -0.271638
     18 H                     0.101687
     19 H                     0.107844
     20 H                     0.108611
     21 H                     0.196393
     22 H                     0.110654
     23 H                     0.110224
     24 H                     0.177772
  ----------------------------------------
  Sum of atomic charges =     0.000000

 -----------------------------------------------------------------
                    Cartesian Multipole Moments
 -----------------------------------------------------------------
    Charge (ESU x 10^10)
                -0.0000
    Dipole Moment (Debye)
         X      -1.3239      Y       0.5285      Z       3.0273
       Tot       3.3462
    Quadrupole Moments (Debye-Ang)
        XX     -90.2096     XY       6.1762     YY     -75.2793
        XZ       0.5642     YZ      -1.4418     ZZ     -86.1237
    Octopole Moments (Debye-Ang^2)
       XXX     -77.3122    XXY      49.0712    XYY     -10.0504
       YYY     133.2362    XXZ       1.1310    XYZ       0.2050
       YYZ      -1.8280    XZZ     -20.7767    YZZ      59.1529
       ZZZ       1.5448
    Hexadecapole Moments (Debye-Ang^3)
      XXXX    -754.2384   XXXY    -131.6916   XXYY    -596.2815
      XYYY    -130.2939   YYYY   -2704.9389   XXXZ      55.8981
      XXYZ     -42.9536   XYYZ       6.2048   YYYZ    -103.3015
      XXZZ    -233.5874   XYZZ     -42.1237   YYZZ    -591.7528
      XZZZ      62.7718   YZZZ     -89.5403   ZZZZ    -607.5036
 -----------------------------------------------------------------
 Total job time:  644.24s(wall), 641.07s(cpu) 
 Sun Jul 10 04:31:46 2022

        *************************************************************
        *                                                           *
        *  Thank you very much for using Q-Chem.  Have a nice day.  *
        *                                                           *
        *************************************************************


remove work dirs ./qchem940478.0 -- ./qchem940478.-1
rm -rf ./qchem940478
