You are running Q-Chem version: 5.4.0

#
# job setting
#
local host:  exp-1-44
current dir: /expanse/lustre/scratch/theleonzhang/temp_project/Hydrogenated_Rotation_Test
input file:  Methylthiophene_Phi_10_Theta_220_Methylthiophene_Hydrogenated.qcin
output file: 
nprocs     : 0
nthreads   : 1
#
# qchem installation setting
#
QC:          /cm/shared/apps/spack/cpu/opt/spack/linux-centos8-zen2/gcc-10.2.0/qchem-5.4-akfmr7b3t57bfs6qan3padb2wnb2i7cl
QCAUX:       /cm/shared/apps/spack/cpu/opt/spack/linux-centos8-zen2/gcc-10.2.0/qchem-5.4-akfmr7b3t57bfs6qan3padb2wnb2i7cl/qcaux
QCPROG:      /cm/shared/apps/spack/cpu/opt/spack/linux-centos8-zen2/gcc-10.2.0/qchem-5.4-akfmr7b3t57bfs6qan3padb2wnb2i7cl/exe/qcprog.exe_s
QCPROG_S:    /cm/shared/apps/spack/cpu/opt/spack/linux-centos8-zen2/gcc-10.2.0/qchem-5.4-akfmr7b3t57bfs6qan3padb2wnb2i7cl/exe/qcprog.exe_s
PARALLEL:    -DSERIAL
QCMPI:       mpich
#
# qchem directory setting
#
qcrun:       qchem1709869
QCSCRATCH:   .
QCLOCALSCR:  
QCTMPDIR:    .
QCFILEPREF:  ./qchem1709869
QCSAVEDIR:   
workdirs:    ./qchem1709869
workdir0:    ./qchem1709869
partmpdirs =  
#
# parallel setting
#
QCRSH:           ssh
QCMPI:           mpich
QCMPIRUN:        /cm/shared/apps/spack/cpu/opt/spack/linux-centos8-zen2/gcc-10.2.0/qchem-5.4-akfmr7b3t57bfs6qan3padb2wnb2i7cl/bin/mpi/mpirun_qchem
QCMACHINEFILE:   ./qchem1709869/hostfile

#
# env setting
#
exported envs:   QC QCAUX QCSCRATCH QCRUNNAME QCFILEPREF QCPROG QCPROG_S GUIFILE

Running Job 1 of 1 Methylthiophene_Phi_10_Theta_220_Methylthiophene_Hydrogenated.qcin
qchem Methylthiophene_Phi_10_Theta_220_Methylthiophene_Hydrogenated.qcin_1709869.0 ./qchem1709869/ 0
/cm/shared/apps/spack/cpu/opt/spack/linux-centos8-zen2/gcc-10.2.0/qchem-5.4-akfmr7b3t57bfs6qan3padb2wnb2i7cl/exe/qcprog.exe_s Methylthiophene_Phi_10_Theta_220_Methylthiophene_Hydrogenated.qcin_1709869.0 ./qchem1709869/
                  Welcome to Q-Chem
     A Quantum Leap Into The Future Of Chemistry


 Q-Chem 5.4, Q-Chem, Inc., Pleasanton, CA (2021)

 License issued to: University of California, San Diego (site)

 E. Epifanovsky,  A. T. B. Gilbert,  Xintian Feng,  Joonho Lee,  Yuezhi Mao,  
 N. Mardirossian,  P. Pokhilko,  A. White,  M. Wormit,  M. P. Coons,  
 A. L. Dempwolff,  Zhengting Gan,  D. Hait,  P. R. Horn,  L. D. Jacobson,  
 I. Kaliman,  J. Kussmann,  A. W. Lange,  Ka Un Lao,  D. S. Levine,  Jie Liu,  
 S. C. McKenzie,  A. F. Morrison,  K. Nanda,  F. Plasser,  D. R. Rehn,  
 M. L. Vidal,  Zhi-Qiang You,  Ying Zhu,  B. Alam,  B. Albrecht,  
 A. Aldossary,  E. Alguire,  J. H. Andersen,  D. Barton,  K. Begam,  A. Behn,  
 Y. A. Bernard,  E. J. Berquist,  H. Burton,  A. Carreras,  K. Carter-Fenk,  
 R. Chakraborty,  A. D. Chien,  K. D. Closser,  V. Cofer-Shabica,  
 S. Dasgupta,  Jia Deng,  M. de Wergifosse,  M. Diedenhofen,  Hainam Do,  
 S. Ehlert,  Po-Tung Fang,  S. Fatehi,  Qingguo Feng,  J. Gayvert,  
 Qinghui Ge,  G. Gidofalvi,  M. Goldey,  J. Gomes,  C. Gonzalez-Espinoza,  
 S. Gulania,  A. Gunina,  M. W. D. Hanson-Heine,  P. H. P. Harbach,  
 A. W. Hauser,  M. F. Herbst,  M. Hernandez Vera,  M. Hodecker,  
 Z. C. Holden,  S. Houck,  Xunkun Huang,  Kerwin Hui,  B. C. Huynh,  
 M. Ivanov,  Hyunjun Ji,  Hanjie Jiang,  B. Kaduk,  S. Kaehler,  
 K. Khistyaev,  Jaehoon Kim,  P. Klunzinger,  Z. Koczor-Benda,  
 Joong Hoon Koh,  D. Kosenkov,  L. Koulias,  T. Kowalczyk,  C. M. Krauter,  
 K. Kue,  A. Kunitsa,  T. Kus,  A. Landau,  K. V. Lawler,  D. Lefrancois,  
 S. Lehtola,  Rain Li,  Yi-Pei Li,  Jiashu Liang,  M. Liebenthal,  
 Hung-Hsuan Lin,  You-Sheng Lin,  Fenglai Liu,  Kuan-Yu Liu,  
 M. Loipersberger,  A. Luenser,  A. Manjanath,  P. Manohar,  E. Mansoor,  
 S. F. Manzer,  Shan-Ping Mao,  A. V. Marenich,  T. Markovich,  S. Mason,  
 S. A. Maurer,  P. F. McLaughlin,  M. F. S. J. Menger,  J.-M. Mewes,  
 S. A. Mewes,  P. Morgante,  J. W. Mullinax,  T. S. Nguyen-Beck,  
 K. J. Oosterbaan,  G. Paran,  Alexander C. Paul,  Suranjan K. Paul,  
 F. Pavosevic,  Zheng Pei,  S. Prager,  E. I. Proynov,  E. Ramos,  B. Rana,  
 A. E. Rask,  A. Rettig,  R. M. Richard,  F. Rob,  E. Rossomme,  T. Scheele,  
 M. Scheurer,  M. Schneider,  N. Sergueev,  S. M. Sharada,  W. Skomorowski,  
 D. W. Small,  C. J. Stein,  Yu-Chuan Su,  E. J. Sundstrom,  Zhen Tao,  
 J. Thirman,  T. Tsuchimochi,  N. M. Tubman,  S. P. Veccham,  O. Vydrov,  
 J. Wenzel,  J. Witte,  A. Yamada,  Kun Yao,  S. Yeganeh,  S. R. Yost,  
 A. Zech,  Igor Ying Zhang,  Xing Zhang,  Yu Zhang,  D. Zuev,  
 A. Aspuru-Guzik,  A. T. Bell,  N. A. Besley,  K. B. Bravaya,  B. R. Brooks,  
 D. Casanova,  Jeng-Da Chai,  S. Coriani,  C. J. Cramer,  
 A. E. DePrince, III,  R. A. DiStasio Jr.,  A. Dreuw,  B. D. Dunietz,  
 T. R. Furlani,  W. A. Goddard III,  S. Grimme,  S. Hammes-Schiffer,  
 T. Head-Gordon,  W. J. Hehre,  Chao-Ping Hsu,  T.-C. Jagau,  Yousung Jung,  
 A. Klamt,  Jing Kong,  D. S. Lambrecht,  WanZhen Liang,  N. J. Mayhall,  
 C. W. McCurdy,  J. B. Neaton,  C. Ochsenfeld,  J. A. Parkhill,  R. Peverati,  
 V. A. Rassolov,  Yihan Shao,  L. V. Slipchenko,  T. Stauch,  R. P. Steele,  
 J. E. Subotnik,  A. J. W. Thom,  A. Tkatchenko,  D. G. Truhlar,  
 T. Van Voorhis,  T. A. Wesolowski,  K. B. Whaley,  H. L. Woodcock III,  
 P. M. Zimmerman,  S. Faraji,  P. M. W. Gill,  M. Head-Gordon,  
 J. M. Herbert,  A. I. Krylov

 Contributors to earlier versions of Q-Chem not listed above: 
 R. D. Adamson,  B. Austin,  R. Baer,  J. Baker,  G. J. O. Beran,  
 K. Brandhorst,  S. T. Brown,  E. F. C. Byrd,  A. K. Chakraborty,  
 G. K. L. Chan,  Chun-Min Chang,  Yunqing Chen,  C.-L. Cheng,  
 Siu Hung Chien,  D. M. Chipman,  D. L. Crittenden,  H. Dachsel,  
 R. J. Doerksen,  A. D. Dutoi,  R. G. Edgar,  J. Fosso-Tande,  
 L. Fusti-Molnar,  D. Ghosh,  A. Ghysels,  A. Golubeva-Zadorozhnaya,  
 J. Gonthier,  M. S. Gordon,  S. R. Gwaltney,  G. Hawkins,  J. E. Herr,  
 A. Heyden,  S. Hirata,  E. G. Hohenstein,  G. Kedziora,  F. J. Keil,  
 C. Kelley,  Jihan Kim,  R. A. King,  R. Z. Khaliullin,  P. P. Korambath,  
 W. Kurlancheek,  A. Laurent,  A. M. Lee,  M. S. Lee,  S. V. Levchenko,  
 Ching Yeh Lin,  D. Liotard,  E. Livshits,  R. C. Lochan,  I. Lotan,  
 L. A. Martinez-Martinez,  P. E. Maslen,  N. Nair,  D. P. O'Neill,  
 D. Neuhauser,  E. Neuscamman,  C. M. Oana,  R. Olivares-Amaya,  R. Olson,  
 T. M. Perrine,  B. Peters,  P. A. Pieniazek,  A. Prociuk,  Y. M. Rhee,  
 J. Ritchie,  M. A. Rohrdanz,  E. Rosta,  N. J. Russ,  H. F. Schaefer III,  
 M. W. Schmidt,  N. E. Schultz,  S. Sharma,  N. Shenvi,  C. D. Sherrill,  
 A. C. Simmonett,  A. Sodt,  T. Stein,  D. Stuck,  K. S. Thanthiriwatte,  
 V. Vanovschi,  L. Vogt,  Tao Wang,  A. Warshel,  M. A. Watson,  
 C. F. Williams,  Q. Wu,  X. Xu,  Jun Yang,  W. Zhang,  Yan Zhao

 Please cite Q-Chem as follows:
 Y. Shao et al., Mol. Phys. 113, 184-215 (2015)
 DOI: 10.1080/00268976.2014.952696

 Q-Chem 5.4.0 for Intel X86 EM64T Linux

 Parts of Q-Chem use Armadillo 9.800.1 (Horizon Scraper).
 http://arma.sourceforge.net/

 Q-Chem begins on Sun Jul 10 03:00:56 2022  

 Host: 
0

     Scratch files written to ./qchem1709869//
 May1621 |scratch|qcdevops|jenkins|workspace|build_RNUM    
 Processing $rem in /cm/shared/apps/spack/cpu/opt/spack/linux-centos8-zen2/gcc-10.2.0/qchem-5.4-akfmr7b3t57bfs6qan3padb2wnb2i7cl/config/preferences:
 Processing $rem in /home/theleonzhang/.qchemrc:
 Symmetry turned off for PCM/SM12/SMD calculation
 Core orbitals will be frozen

 Checking the input file for inconsistencies... 	...done.

--------------------------------------------------------------
User input:
--------------------------------------------------------------
$molecule
0 1
C	0.498788	-3.866725	-0.593324
C	-0.393517	-3.703963	0.469446
C	-0.685674	-2.357056	0.817050
H	-0.837128	-4.561092	0.998381
C	-0.000000	-1.440664	-0.000000
S	0.992768	-2.286957	-1.183149
C	-1.621254	-1.978743	1.931676
H	-2.035845	-2.878678	2.425882
H	-2.477868	-1.376015	1.563980
H	-1.110719	-1.375728	2.711417
C	0.000000	0.000000	0.000000
C	0.149995	0.850475	1.099446
C	0.390327	2.213354	0.776721
H	0.085947	0.487279	2.136088
C	0.428665	2.430655	-0.612546
S	0.163670	0.928078	-1.486809
C	0.579235	3.284574	1.814609
H	0.505323	2.865404	2.836676
H	-0.185980	4.083890	1.726239
H	1.571698	3.773937	1.726228
H	0.593515	3.365448	-1.161575
H	0.032646	-4.392713	-1.433894
H	1.407651	-4.392347	-0.279954
H	-0.827254	-1.440937	-0.694299
$end

$rem
JOBTYPE		SP
EXCHANGE	HF
CORRELATION	pRIMP2
BASIS		cc-pvtz
METHOD		rimp2
AUX_BASIS	rimp2-cc-pvtz
SOLVENT_METHOD	PCM
PURECART	11111
SYMMETRY	false
MEM_TOTAL	110000
SCF_CONVERGENCE = 6
THRESH=10
$end



$solvent
dielectric 4.90
$end
--------------------------------------------------------------
 ----------------------------------------------------------------
             Standard Nuclear Orientation (Angstroms)
    I     Atom           X                Y                Z
 ----------------------------------------------------------------
    1      C       0.4987880000    -3.8667250000    -0.5933240000
    2      C      -0.3935170000    -3.7039630000     0.4694460000
    3      C      -0.6856740000    -2.3570560000     0.8170500000
    4      H      -0.8371280000    -4.5610920000     0.9983810000
    5      C       0.0000000000    -1.4406640000     0.0000000000
    6      S       0.9927680000    -2.2869570000    -1.1831490000
    7      C      -1.6212540000    -1.9787430000     1.9316760000
    8      H      -2.0358450000    -2.8786780000     2.4258820000
    9      H      -2.4778680000    -1.3760150000     1.5639800000
   10      H      -1.1107190000    -1.3757280000     2.7114170000
   11      C       0.0000000000     0.0000000000     0.0000000000
   12      C       0.1499950000     0.8504750000     1.0994460000
   13      C       0.3903270000     2.2133540000     0.7767210000
   14      H       0.0859470000     0.4872790000     2.1360880000
   15      C       0.4286650000     2.4306550000    -0.6125460000
   16      S       0.1636700000     0.9280780000    -1.4868090000
   17      C       0.5792350000     3.2845740000     1.8146090000
   18      H       0.5053230000     2.8654040000     2.8366760000
   19      H      -0.1859800000     4.0838900000     1.7262390000
   20      H       1.5716980000     3.7739370000     1.7262280000
   21      H       0.5935150000     3.3654480000    -1.1615750000
   22      H       0.0326460000    -4.3927130000    -1.4338940000
   23      H       1.4076510000    -4.3923470000    -0.2799540000
   24      H      -0.8272540000    -1.4409370000    -0.6942990000
 ----------------------------------------------------------------
 Nuclear Repulsion Energy =         874.76274851 hartrees
 There are       52 alpha and       52 beta electrons

 Q-Chem warning in module forms1/BasisType.C, line 2236:

 You are not using the predefined 5D/6D in this basis set.

 Requested basis set is cc-pVTZ
 There are 196 shells and 536 basis functions

 Total QAlloc Memory Limit 110000 MB
 Mega-Array Size       188 MB
 MEM_STATIC part       192 MB
 Discretize the solute cavity surface with Lebedev spheres
	Using 110 Lebedev grid points for each H atom
	Using 194 Lebedev grid points for other atoms
	Atomic van der Waals radii will be scaled by 1.20
 Remove points where switching function is < 1.0e-08
 Keep 1600 surface tesserae and discard 2048 interior tesserae
 Molecular Surface Area = 234.038 Angst**2
 Requested basis set is rimp2-cc-pVTZ
 There are 414 shells and 1414 basis functions
 A cutoff of  1.0D-10 yielded  13977 shell pairs
 There are    101255 function pairs (    129815 Cartesian)
 Smallest overlap matrix eigenvalue = 6.34E-05

 Scale SEOQF with 1.000000e-01/1.000000e-01/1.000000e-01

 Standard Electronic Orientation quadrupole field applied
 Nucleus-field energy     =     0.0000000276 hartrees
 Guess from superposition of atomic densities
 Warning:  Energy on first SCF cycle will be non-variational
 SAD guess density has 104.000000 electrons

 -----------------------------------------------------------------------
  General SCF calculation program by
  Eric Jon Sundstrom, Paul Horn, Yuezhi Mao, Dmitri Zuev, Alec White,
  David Stuck, Shaama M.S., Shane Yost, Joonho Lee, David Small,
  Daniel Levine, Susi Lehtola, Hugh Burton, Evgeny Epifanovsky,
  Bang C. Huynh
 -----------------------------------------------------------------------
 Hartree-Fock
 A restricted SCF calculation will be
 performed using DIIS
 SCF converges when DIIS error is below 1.0e-06
 ---------------------------------------
  Cycle       Energy         DIIS error
 ---------------------------------------
    1   -1186.0310512229      2.39e-02  
    2   -1180.6107127107      1.57e-03  
    3   -1180.7362601917      6.30e-04  
    4   -1180.7513366086      3.38e-04  
    5   -1180.7566186509      5.99e-05  
    6   -1180.7568705092      2.48e-05  
    7   -1180.7569314851      9.06e-06  
    8   -1180.7569452499      4.42e-06  
    9   -1180.7569483263      1.45e-06  
   10   -1180.7569487862      5.13e-07  Convergence criterion met
 ---------------------------------------
 SCF time:   CPU 566.36s  wall 570.00s 

************** Final PCM Free Energy Summary **************
 G_electrostatic  =      -0.00947260 hartree =      -5.94414404 kcal/mol
 G_cavitation     =       0.00000000 hartree =       0.00000000 kcal/mol
 G_dispersion     =       0.00000000 hartree =       0.00000000 kcal/mol
 G_repulsion      =       0.00000000 hartree =       0.00000000 kcal/mol
 --------------------------------------------------
 Non-electrostatic Free Energy =       0.00000000 hartree =       0.00000000 kcal/mol
 Total                         =      -0.00947260 hartree =      -5.94414404 kcal/mol
 --------------------------------------------------
 SCF Energy (H0 + V/2)                       =   -1180.75694879 
 Solute Internal Energy (H0)                 =   -1180.74747619 
 Total Free Energy (H0 + V/2 + non-elec)     =   -1180.75694879 hartree
                                             = -740936.16831240 kcal/mol
***********************************************************

 SCF   energy in the final basis set =    -1180.7569487862
 Total energy in the final basis set =    -1180.7569487862


 --------------------------------------------------------------
  Generalized many-body perturbation theory program
  by Joonho Lee, Fazle Rob, Xintian Feng, Evgeny Epifanovsky

 No regularization used 
 (reg. param. = 0.0000e+00)
  (P|Q)^-1/2 Time:  CPU 1.90 s  wall 1.90 s

 In RI-MP2 calculation: 
 # of frozen core orbitals: 20

 Components of the RIMP2 correlation energy:
        aaaa    correlation energy =        -0.2511178868 a.u.
        abab    correlation energy =        -1.5027135219 a.u.
        bbbb    correlation energy =        -0.2511178868 a.u.
        non-Brillouin singles      =        -0.0000000000 a.u.
        total same-spin energy     =        -0.5022357736 a.u.
        total opposite-spin energy =        -1.5027135219 a.u.

 Total  RIMP2   correlation energy =        -2.0049492955 a.u.
        RIMP2         total energy =     -1182.7618980818 a.u.

 RI-MP2 Energy Time:  CPU 80.26 s  wall 80.56 s
 
 --------------------------------------------------------------
 
                    Orbital Energies (a.u.)
 --------------------------------------------------------------
 
 Alpha MOs
 -- Occupied --
-91.9843 -91.9441 -11.2844 -11.2648 -11.2599 -11.2578 -11.2503 -11.2425
-11.2344 -11.2330 -11.2284 -11.2214  -8.9841  -8.9487  -6.6650  -6.6645
 -6.6638  -6.6301  -6.6291  -6.6278  -1.2003  -1.1531  -1.0594  -1.0299
 -1.0009  -0.9631  -0.9139  -0.9000  -0.8165  -0.7610  -0.7388  -0.7029
 -0.6547  -0.6403  -0.6103  -0.5912  -0.5815  -0.5686  -0.5661  -0.5539
 -0.5450  -0.5330  -0.5172  -0.5048  -0.4893  -0.4810  -0.4660  -0.4477
 -0.3567  -0.3429  -0.3223  -0.2690
 -- Virtual --
  0.0973   0.1315   0.1407   0.1492   0.1586   0.1694   0.1785   0.1865
  0.1928   0.2030   0.2041   0.2157   0.2264   0.2317   0.2391   0.2416
  0.2522   0.2617   0.2808   0.2985   0.3212   0.3339   0.3487   0.3607
  0.3680   0.3763   0.3779   0.3886   0.4020   0.4101   0.4112   0.4220
  0.4384   0.4447   0.4537   0.4681   0.4757   0.4832   0.4839   0.4894
  0.4983   0.5082   0.5118   0.5268   0.5409   0.5445   0.5489   0.5561
  0.5674   0.5762   0.5866   0.5913   0.6023   0.6061   0.6133   0.6173
  0.6243   0.6294   0.6326   0.6342   0.6406   0.6489   0.6501   0.6601
  0.6648   0.6762   0.6872   0.6898   0.7043   0.7045   0.7152   0.7236
  0.7290   0.7485   0.7701   0.7729   0.7753   0.7903   0.8064   0.8224
  0.8332   0.8533   0.8627   0.8645   0.8873   0.8934   0.9001   0.9075
  0.9337   0.9362   0.9461   0.9632   0.9699   0.9781   1.0063   1.0166
  1.0176   1.0285   1.0365   1.0404   1.0595   1.0663   1.0736   1.0811
  1.0872   1.0998   1.1135   1.1247   1.1354   1.1420   1.1614   1.1710
  1.1791   1.1931   1.2020   1.2055   1.2129   1.2241   1.2322   1.2462
  1.2486   1.2629   1.2642   1.2773   1.2809   1.2936   1.2986   1.3130
  1.3159   1.3277   1.3445   1.3628   1.3789   1.3877   1.4038   1.4166
  1.4223   1.4343   1.4412   1.4566   1.4640   1.4788   1.4896   1.4930
  1.5038   1.5127   1.5237   1.5294   1.5371   1.5421   1.5472   1.5552
  1.5678   1.5813   1.5844   1.5988   1.6250   1.6291   1.6379   1.6415
  1.6473   1.6649   1.6764   1.6891   1.7039   1.7173   1.7282   1.7405
  1.7432   1.7505   1.7633   1.8030   1.8208   1.8294   1.8464   1.8637
  1.8829   1.9044   1.9163   1.9255   1.9278   1.9690   1.9871   2.0031
  2.0199   2.0338   2.0562   2.0619   2.0818   2.1112   2.1355   2.1630
  2.1838   2.1907   2.2111   2.2319   2.2332   2.2425   2.2695   2.2755
  2.2940   2.3220   2.3314   2.3746   2.4149   2.4482   2.4568   2.4726
  2.4927   2.5135   2.5294   2.5427   2.5693   2.5730   2.5925   2.6010
  2.6192   2.6408   2.6582   2.6682   2.6819   2.6886   2.6963   2.7326
  2.7421   2.7564   2.7644   2.7747   2.7807   2.7935   2.8030   2.8147
  2.8418   2.8485   2.8625   2.8669   2.8795   2.9002   2.9093   2.9283
  2.9411   2.9675   2.9715   2.9854   2.9977   3.0217   3.0358   3.0421
  3.0485   3.0717   3.0885   3.1087   3.1155   3.1159   3.1206   3.1353
  3.1402   3.1520   3.1588   3.1736   3.1784   3.1911   3.2025   3.2182
  3.2241   3.2475   3.2534   3.2650   3.2802   3.2884   3.2963   3.3122
  3.3182   3.3221   3.3363   3.3400   3.3434   3.3504   3.3586   3.3657
  3.3697   3.3858   3.3924   3.3971   3.4081   3.4176   3.4268   3.4281
  3.4412   3.4459   3.4543   3.4653   3.4728   3.4786   3.4960   3.5065
  3.5156   3.5195   3.5323   3.5384   3.5520   3.5576   3.5658   3.5855
  3.5907   3.5941   3.6130   3.6216   3.6273   3.6333   3.6481   3.6577
  3.6646   3.6717   3.6871   3.7013   3.7059   3.7162   3.7374   3.7454
  3.7505   3.7520   3.7724   3.7778   3.7814   3.7885   3.7985   3.8066
  3.8340   3.8347   3.8597   3.8645   3.8694   3.8919   3.8989   3.9191
  3.9270   3.9406   3.9584   3.9654   3.9695   3.9813   3.9951   4.0208
  4.0287   4.0368   4.0496   4.0581   4.0640   4.0747   4.0918   4.0979
  4.1198   4.1272   4.1503   4.1514   4.1636   4.1687   4.1822   4.2035
  4.2137   4.2245   4.2296   4.2367   4.2514   4.2552   4.2706   4.2845
  4.2983   4.3039   4.3167   4.3208   4.3439   4.3530   4.3662   4.3682
  4.3814   4.3906   4.4017   4.4055   4.4205   4.4282   4.4393   4.4558
  4.4594   4.4762   4.4857   4.4921   4.4978   4.5050   4.5385   4.5476
  4.5835   4.5905   4.6061   4.6194   4.6244   4.6446   4.6528   4.6779
  4.6990   4.7184   4.7493   4.7632   4.7768   4.8093   4.8171   4.8454
  4.8626   4.8701   4.8969   4.8993   4.9316   4.9683   4.9755   5.0005
  5.0188   5.0372   5.0941   5.1013   5.1183   5.1312   5.1665   5.1773
  5.1973   5.2169   5.2425   5.2631   5.2753   5.2956   5.3052   5.3294
  5.3499   5.3715   5.3778   5.4030   5.4164   5.4185   5.4369   5.4450
  5.4726   5.5188   5.5262   5.5380   5.5504   5.5575   5.5709   5.5971
  5.6102   5.6242   5.6314   5.6716   5.6875   5.6993   5.7071   5.7343
  5.7644   5.7862   5.8331   5.9849   6.0372   6.0778   6.1172   6.1644
  6.2066   6.2272   6.2341   6.2392   6.2635   6.2957   6.2997   6.3552
  6.3981   6.5384   9.4132  10.9054  12.0416  12.9607  13.2220  13.9808
 14.0826  14.1932  14.3476  14.7390
 --------------------------------------------------------------
 
          Ground-State Mulliken Net Atomic Charges

     Atom                 Charge (a.u.)
  ----------------------------------------
      1 C                    -0.076761
      2 C                    -0.324964
      3 C                    -0.032337
      4 H                     0.177502
      5 C                     0.120003
      6 S                    -0.173758
      7 C                    -0.278949
      8 H                     0.116124
      9 H                     0.107829
     10 H                     0.103791
     11 C                    -0.106093
     12 C                    -0.232592
     13 C                     0.016557
     14 H                     0.192281
     15 C                    -0.247593
     16 S                     0.001980
     17 C                    -0.274187
     18 H                     0.101302
     19 H                     0.108036
     20 H                     0.108906
     21 H                     0.197504
     22 H                     0.110911
     23 H                     0.114603
     24 H                     0.169905
  ----------------------------------------
  Sum of atomic charges =     0.000000

 -----------------------------------------------------------------
                    Cartesian Multipole Moments
 -----------------------------------------------------------------
    Charge (ESU x 10^10)
                -0.0000
    Dipole Moment (Debye)
         X      -1.8877      Y       0.1084      Z       2.7125
       Tot       3.3064
    Quadrupole Moments (Debye-Ang)
        XX     -91.6956     XY       5.1058     YY     -73.3811
        XZ       0.0676     YZ      -0.7420     ZZ     -85.6156
    Octopole Moments (Debye-Ang^2)
       XXX     -36.7478    XXY      45.1583    XYY      -6.3423
       YYY     121.1939    XXZ       1.1048    XYZ       2.2293
       YYZ      -5.7914    XZZ     -13.7529    YZZ      52.3540
       ZZZ       3.9609
    Hexadecapole Moments (Debye-Ang^3)
      XXXX    -410.7569   XXXY     -80.7059   XXYY    -578.8833
      XYYY     -64.4808   YYYY   -2749.2849   XXXZ     125.2021
      XXYZ     -42.3280   XYYZ      22.6616   YYYZ    -104.0968
      XXZZ    -216.1797   XYZZ      -9.3787   YYZZ    -627.8037
      XZZZ     119.8109   YZZZ    -109.2521   ZZZZ    -872.7728
 -----------------------------------------------------------------
 Total job time:  653.18s(wall), 647.52s(cpu) 
 Sun Jul 10 03:11:49 2022

        *************************************************************
        *                                                           *
        *  Thank you very much for using Q-Chem.  Have a nice day.  *
        *                                                           *
        *************************************************************


remove work dirs ./qchem1709869.0 -- ./qchem1709869.-1
rm -rf ./qchem1709869
You are running Q-Chem version: 5.4.0

#
# job setting
#
local host:  exp-1-04
current dir: /expanse/lustre/scratch/theleonzhang/temp_project/Hydrogenated_Rotation_Test
input file:  Methylthiophene_Phi_10_Theta_220_Methylthiophene_Hydrogenated.qcin
output file: 
nprocs     : 0
nthreads   : 1
#
# qchem installation setting
#
QC:          /cm/shared/apps/spack/cpu/opt/spack/linux-centos8-zen2/gcc-10.2.0/qchem-5.4-akfmr7b3t57bfs6qan3padb2wnb2i7cl
QCAUX:       /cm/shared/apps/spack/cpu/opt/spack/linux-centos8-zen2/gcc-10.2.0/qchem-5.4-akfmr7b3t57bfs6qan3padb2wnb2i7cl/qcaux
QCPROG:      /cm/shared/apps/spack/cpu/opt/spack/linux-centos8-zen2/gcc-10.2.0/qchem-5.4-akfmr7b3t57bfs6qan3padb2wnb2i7cl/exe/qcprog.exe_s
QCPROG_S:    /cm/shared/apps/spack/cpu/opt/spack/linux-centos8-zen2/gcc-10.2.0/qchem-5.4-akfmr7b3t57bfs6qan3padb2wnb2i7cl/exe/qcprog.exe_s
PARALLEL:    -DSERIAL
QCMPI:       mpich
#
# qchem directory setting
#
qcrun:       qchem1258290
QCSCRATCH:   .
QCLOCALSCR:  
QCTMPDIR:    .
QCFILEPREF:  ./qchem1258290
QCSAVEDIR:   
workdirs:    ./qchem1258290
workdir0:    ./qchem1258290
partmpdirs =  
#
# parallel setting
#
QCRSH:           ssh
QCMPI:           mpich
QCMPIRUN:        /cm/shared/apps/spack/cpu/opt/spack/linux-centos8-zen2/gcc-10.2.0/qchem-5.4-akfmr7b3t57bfs6qan3padb2wnb2i7cl/bin/mpi/mpirun_qchem
QCMACHINEFILE:   ./qchem1258290/hostfile

#
# env setting
#
exported envs:   QC QCAUX QCSCRATCH QCRUNNAME QCFILEPREF QCPROG QCPROG_S GUIFILE

Running Job 1 of 1 Methylthiophene_Phi_10_Theta_220_Methylthiophene_Hydrogenated.qcin
qchem Methylthiophene_Phi_10_Theta_220_Methylthiophene_Hydrogenated.qcin_1258290.0 ./qchem1258290/ 0
/cm/shared/apps/spack/cpu/opt/spack/linux-centos8-zen2/gcc-10.2.0/qchem-5.4-akfmr7b3t57bfs6qan3padb2wnb2i7cl/exe/qcprog.exe_s Methylthiophene_Phi_10_Theta_220_Methylthiophene_Hydrogenated.qcin_1258290.0 ./qchem1258290/
                  Welcome to Q-Chem
     A Quantum Leap Into The Future Of Chemistry


 Q-Chem 5.4, Q-Chem, Inc., Pleasanton, CA (2021)

 License issued to: University of California, San Diego (site)

 E. Epifanovsky,  A. T. B. Gilbert,  Xintian Feng,  Joonho Lee,  Yuezhi Mao,  
 N. Mardirossian,  P. Pokhilko,  A. White,  M. Wormit,  M. P. Coons,  
 A. L. Dempwolff,  Zhengting Gan,  D. Hait,  P. R. Horn,  L. D. Jacobson,  
 I. Kaliman,  J. Kussmann,  A. W. Lange,  Ka Un Lao,  D. S. Levine,  Jie Liu,  
 S. C. McKenzie,  A. F. Morrison,  K. Nanda,  F. Plasser,  D. R. Rehn,  
 M. L. Vidal,  Zhi-Qiang You,  Ying Zhu,  B. Alam,  B. Albrecht,  
 A. Aldossary,  E. Alguire,  J. H. Andersen,  D. Barton,  K. Begam,  A. Behn,  
 Y. A. Bernard,  E. J. Berquist,  H. Burton,  A. Carreras,  K. Carter-Fenk,  
 R. Chakraborty,  A. D. Chien,  K. D. Closser,  V. Cofer-Shabica,  
 S. Dasgupta,  Jia Deng,  M. de Wergifosse,  M. Diedenhofen,  Hainam Do,  
 S. Ehlert,  Po-Tung Fang,  S. Fatehi,  Qingguo Feng,  J. Gayvert,  
 Qinghui Ge,  G. Gidofalvi,  M. Goldey,  J. Gomes,  C. Gonzalez-Espinoza,  
 S. Gulania,  A. Gunina,  M. W. D. Hanson-Heine,  P. H. P. Harbach,  
 A. W. Hauser,  M. F. Herbst,  M. Hernandez Vera,  M. Hodecker,  
 Z. C. Holden,  S. Houck,  Xunkun Huang,  Kerwin Hui,  B. C. Huynh,  
 M. Ivanov,  Hyunjun Ji,  Hanjie Jiang,  B. Kaduk,  S. Kaehler,  
 K. Khistyaev,  Jaehoon Kim,  P. Klunzinger,  Z. Koczor-Benda,  
 Joong Hoon Koh,  D. Kosenkov,  L. Koulias,  T. Kowalczyk,  C. M. Krauter,  
 K. Kue,  A. Kunitsa,  T. Kus,  A. Landau,  K. V. Lawler,  D. Lefrancois,  
 S. Lehtola,  Rain Li,  Yi-Pei Li,  Jiashu Liang,  M. Liebenthal,  
 Hung-Hsuan Lin,  You-Sheng Lin,  Fenglai Liu,  Kuan-Yu Liu,  
 M. Loipersberger,  A. Luenser,  A. Manjanath,  P. Manohar,  E. Mansoor,  
 S. F. Manzer,  Shan-Ping Mao,  A. V. Marenich,  T. Markovich,  S. Mason,  
 S. A. Maurer,  P. F. McLaughlin,  M. F. S. J. Menger,  J.-M. Mewes,  
 S. A. Mewes,  P. Morgante,  J. W. Mullinax,  T. S. Nguyen-Beck,  
 K. J. Oosterbaan,  G. Paran,  Alexander C. Paul,  Suranjan K. Paul,  
 F. Pavosevic,  Zheng Pei,  S. Prager,  E. I. Proynov,  E. Ramos,  B. Rana,  
 A. E. Rask,  A. Rettig,  R. M. Richard,  F. Rob,  E. Rossomme,  T. Scheele,  
 M. Scheurer,  M. Schneider,  N. Sergueev,  S. M. Sharada,  W. Skomorowski,  
 D. W. Small,  C. J. Stein,  Yu-Chuan Su,  E. J. Sundstrom,  Zhen Tao,  
 J. Thirman,  T. Tsuchimochi,  N. M. Tubman,  S. P. Veccham,  O. Vydrov,  
 J. Wenzel,  J. Witte,  A. Yamada,  Kun Yao,  S. Yeganeh,  S. R. Yost,  
 A. Zech,  Igor Ying Zhang,  Xing Zhang,  Yu Zhang,  D. Zuev,  
 A. Aspuru-Guzik,  A. T. Bell,  N. A. Besley,  K. B. Bravaya,  B. R. Brooks,  
 D. Casanova,  Jeng-Da Chai,  S. Coriani,  C. J. Cramer,  
 A. E. DePrince, III,  R. A. DiStasio Jr.,  A. Dreuw,  B. D. Dunietz,  
 T. R. Furlani,  W. A. Goddard III,  S. Grimme,  S. Hammes-Schiffer,  
 T. Head-Gordon,  W. J. Hehre,  Chao-Ping Hsu,  T.-C. Jagau,  Yousung Jung,  
 A. Klamt,  Jing Kong,  D. S. Lambrecht,  WanZhen Liang,  N. J. Mayhall,  
 C. W. McCurdy,  J. B. Neaton,  C. Ochsenfeld,  J. A. Parkhill,  R. Peverati,  
 V. A. Rassolov,  Yihan Shao,  L. V. Slipchenko,  T. Stauch,  R. P. Steele,  
 J. E. Subotnik,  A. J. W. Thom,  A. Tkatchenko,  D. G. Truhlar,  
 T. Van Voorhis,  T. A. Wesolowski,  K. B. Whaley,  H. L. Woodcock III,  
 P. M. Zimmerman,  S. Faraji,  P. M. W. Gill,  M. Head-Gordon,  
 J. M. Herbert,  A. I. Krylov

 Contributors to earlier versions of Q-Chem not listed above: 
 R. D. Adamson,  B. Austin,  R. Baer,  J. Baker,  G. J. O. Beran,  
 K. Brandhorst,  S. T. Brown,  E. F. C. Byrd,  A. K. Chakraborty,  
 G. K. L. Chan,  Chun-Min Chang,  Yunqing Chen,  C.-L. Cheng,  
 Siu Hung Chien,  D. M. Chipman,  D. L. Crittenden,  H. Dachsel,  
 R. J. Doerksen,  A. D. Dutoi,  R. G. Edgar,  J. Fosso-Tande,  
 L. Fusti-Molnar,  D. Ghosh,  A. Ghysels,  A. Golubeva-Zadorozhnaya,  
 J. Gonthier,  M. S. Gordon,  S. R. Gwaltney,  G. Hawkins,  J. E. Herr,  
 A. Heyden,  S. Hirata,  E. G. Hohenstein,  G. Kedziora,  F. J. Keil,  
 C. Kelley,  Jihan Kim,  R. A. King,  R. Z. Khaliullin,  P. P. Korambath,  
 W. Kurlancheek,  A. Laurent,  A. M. Lee,  M. S. Lee,  S. V. Levchenko,  
 Ching Yeh Lin,  D. Liotard,  E. Livshits,  R. C. Lochan,  I. Lotan,  
 L. A. Martinez-Martinez,  P. E. Maslen,  N. Nair,  D. P. O'Neill,  
 D. Neuhauser,  E. Neuscamman,  C. M. Oana,  R. Olivares-Amaya,  R. Olson,  
 T. M. Perrine,  B. Peters,  P. A. Pieniazek,  A. Prociuk,  Y. M. Rhee,  
 J. Ritchie,  M. A. Rohrdanz,  E. Rosta,  N. J. Russ,  H. F. Schaefer III,  
 M. W. Schmidt,  N. E. Schultz,  S. Sharma,  N. Shenvi,  C. D. Sherrill,  
 A. C. Simmonett,  A. Sodt,  T. Stein,  D. Stuck,  K. S. Thanthiriwatte,  
 V. Vanovschi,  L. Vogt,  Tao Wang,  A. Warshel,  M. A. Watson,  
 C. F. Williams,  Q. Wu,  X. Xu,  Jun Yang,  W. Zhang,  Yan Zhao

 Please cite Q-Chem as follows:
 Y. Shao et al., Mol. Phys. 113, 184-215 (2015)
 DOI: 10.1080/00268976.2014.952696

 Q-Chem 5.4.0 for Intel X86 EM64T Linux

 Parts of Q-Chem use Armadillo 9.800.1 (Horizon Scraper).
 http://arma.sourceforge.net/

 Q-Chem begins on Sun Jul 10 03:35:41 2022  

 Host: 
0

     Scratch files written to ./qchem1258290//
 May1621 |scratch|qcdevops|jenkins|workspace|build_RNUM    
 Processing $rem in /cm/shared/apps/spack/cpu/opt/spack/linux-centos8-zen2/gcc-10.2.0/qchem-5.4-akfmr7b3t57bfs6qan3padb2wnb2i7cl/config/preferences:
 Processing $rem in /home/theleonzhang/.qchemrc:
 Symmetry turned off for PCM/SM12/SMD calculation
 Core orbitals will be frozen

 Checking the input file for inconsistencies... 	...done.

--------------------------------------------------------------
User input:
--------------------------------------------------------------
$molecule
0 1
C	0.498788	-3.866725	-0.593324
C	-0.393517	-3.703963	0.469446
C	-0.685674	-2.357056	0.817050
H	-0.837128	-4.561092	0.998381
C	-0.000000	-1.440664	-0.000000
S	0.992768	-2.286957	-1.183149
C	-1.621254	-1.978743	1.931676
H	-2.035845	-2.878678	2.425882
H	-2.477868	-1.376015	1.563980
H	-1.110719	-1.375728	2.711417
C	0.000000	0.000000	0.000000
C	0.149995	0.850475	1.099446
C	0.390327	2.213354	0.776721
H	0.085947	0.487279	2.136088
C	0.428665	2.430655	-0.612546
S	0.163670	0.928078	-1.486809
C	0.579235	3.284574	1.814609
H	0.505323	2.865404	2.836676
H	-0.185980	4.083890	1.726239
H	1.571698	3.773937	1.726228
H	0.593515	3.365448	-1.161575
H	0.032646	-4.392713	-1.433894
H	1.407651	-4.392347	-0.279954
H	-0.827254	-1.440937	-0.694299
$end

$rem
JOBTYPE		SP
EXCHANGE	HF
CORRELATION	pRIMP2
BASIS		cc-pvtz
METHOD		rimp2
AUX_BASIS	rimp2-cc-pvtz
SOLVENT_METHOD	PCM
PURECART	11111
SYMMETRY	false
MEM_TOTAL	110000
SCF_CONVERGENCE = 6
THRESH=10
$end



$solvent
dielectric 4.90
$end
--------------------------------------------------------------
 ----------------------------------------------------------------
             Standard Nuclear Orientation (Angstroms)
    I     Atom           X                Y                Z
 ----------------------------------------------------------------
    1      C       0.4987880000    -3.8667250000    -0.5933240000
    2      C      -0.3935170000    -3.7039630000     0.4694460000
    3      C      -0.6856740000    -2.3570560000     0.8170500000
    4      H      -0.8371280000    -4.5610920000     0.9983810000
    5      C       0.0000000000    -1.4406640000     0.0000000000
    6      S       0.9927680000    -2.2869570000    -1.1831490000
    7      C      -1.6212540000    -1.9787430000     1.9316760000
    8      H      -2.0358450000    -2.8786780000     2.4258820000
    9      H      -2.4778680000    -1.3760150000     1.5639800000
   10      H      -1.1107190000    -1.3757280000     2.7114170000
   11      C       0.0000000000     0.0000000000     0.0000000000
   12      C       0.1499950000     0.8504750000     1.0994460000
   13      C       0.3903270000     2.2133540000     0.7767210000
   14      H       0.0859470000     0.4872790000     2.1360880000
   15      C       0.4286650000     2.4306550000    -0.6125460000
   16      S       0.1636700000     0.9280780000    -1.4868090000
   17      C       0.5792350000     3.2845740000     1.8146090000
   18      H       0.5053230000     2.8654040000     2.8366760000
   19      H      -0.1859800000     4.0838900000     1.7262390000
   20      H       1.5716980000     3.7739370000     1.7262280000
   21      H       0.5935150000     3.3654480000    -1.1615750000
   22      H       0.0326460000    -4.3927130000    -1.4338940000
   23      H       1.4076510000    -4.3923470000    -0.2799540000
   24      H      -0.8272540000    -1.4409370000    -0.6942990000
 ----------------------------------------------------------------
 Nuclear Repulsion Energy =         874.76274851 hartrees
 There are       52 alpha and       52 beta electrons

 Q-Chem warning in module forms1/BasisType.C, line 2236:

 You are not using the predefined 5D/6D in this basis set.

 Requested basis set is cc-pVTZ
 There are 196 shells and 536 basis functions

 Total QAlloc Memory Limit 110000 MB
 Mega-Array Size       188 MB
 MEM_STATIC part       192 MB
 Discretize the solute cavity surface with Lebedev spheres
	Using 110 Lebedev grid points for each H atom
	Using 194 Lebedev grid points for other atoms
	Atomic van der Waals radii will be scaled by 1.20
 Remove points where switching function is < 1.0e-08
 Keep 1600 surface tesserae and discard 2048 interior tesserae
 Molecular Surface Area = 234.038 Angst**2
 Requested basis set is rimp2-cc-pVTZ
 There are 414 shells and 1414 basis functions
 A cutoff of  1.0D-10 yielded  13977 shell pairs
 There are    101255 function pairs (    129815 Cartesian)
 Smallest overlap matrix eigenvalue = 6.34E-05

 Scale SEOQF with 1.000000e-01/1.000000e-01/1.000000e-01

 Standard Electronic Orientation quadrupole field applied
 Nucleus-field energy     =     0.0000000276 hartrees
 Guess from superposition of atomic densities
 Warning:  Energy on first SCF cycle will be non-variational
 SAD guess density has 104.000000 electrons

 -----------------------------------------------------------------------
  General SCF calculation program by
  Eric Jon Sundstrom, Paul Horn, Yuezhi Mao, Dmitri Zuev, Alec White,
  David Stuck, Shaama M.S., Shane Yost, Joonho Lee, David Small,
  Daniel Levine, Susi Lehtola, Hugh Burton, Evgeny Epifanovsky,
  Bang C. Huynh
 -----------------------------------------------------------------------
 Hartree-Fock
 A restricted SCF calculation will be
 performed using DIIS
 SCF converges when DIIS error is below 1.0e-06
 ---------------------------------------
  Cycle       Energy         DIIS error
 ---------------------------------------
    1   -1186.0310512229      2.39e-02  
    2   -1180.6107127107      1.57e-03  
    3   -1180.7362601917      6.30e-04  
    4   -1180.7513366086      3.38e-04  
    5   -1180.7566186509      5.99e-05  
    6   -1180.7568705092      2.48e-05  
    7   -1180.7569314851      9.06e-06  
    8   -1180.7569452499      4.42e-06  
    9   -1180.7569483263      1.45e-06  
   10   -1180.7569487862      5.13e-07  Convergence criterion met
 ---------------------------------------
 SCF time:   CPU 564.48s  wall 567.00s 

************** Final PCM Free Energy Summary **************
 G_electrostatic  =      -0.00947260 hartree =      -5.94414404 kcal/mol
 G_cavitation     =       0.00000000 hartree =       0.00000000 kcal/mol
 G_dispersion     =       0.00000000 hartree =       0.00000000 kcal/mol
 G_repulsion      =       0.00000000 hartree =       0.00000000 kcal/mol
 --------------------------------------------------
 Non-electrostatic Free Energy =       0.00000000 hartree =       0.00000000 kcal/mol
 Total                         =      -0.00947260 hartree =      -5.94414404 kcal/mol
 --------------------------------------------------
 SCF Energy (H0 + V/2)                       =   -1180.75694879 
 Solute Internal Energy (H0)                 =   -1180.74747619 
 Total Free Energy (H0 + V/2 + non-elec)     =   -1180.75694879 hartree
                                             = -740936.16831240 kcal/mol
***********************************************************

 SCF   energy in the final basis set =    -1180.7569487862
 Total energy in the final basis set =    -1180.7569487862


 --------------------------------------------------------------
  Generalized many-body perturbation theory program
  by Joonho Lee, Fazle Rob, Xintian Feng, Evgeny Epifanovsky

 No regularization used 
 (reg. param. = 0.0000e+00)
  (P|Q)^-1/2 Time:  CPU 1.90 s  wall 1.91 s

 In RI-MP2 calculation: 
 # of frozen core orbitals: 20

 Components of the RIMP2 correlation energy:
        aaaa    correlation energy =        -0.2511178868 a.u.
        abab    correlation energy =        -1.5027135219 a.u.
        bbbb    correlation energy =        -0.2511178868 a.u.
        non-Brillouin singles      =        -0.0000000000 a.u.
        total same-spin energy     =        -0.5022357736 a.u.
        total opposite-spin energy =        -1.5027135219 a.u.

 Total  RIMP2   correlation energy =        -2.0049492955 a.u.
        RIMP2         total energy =     -1182.7618980818 a.u.

 RI-MP2 Energy Time:  CPU 79.96 s  wall 80.36 s
 
 --------------------------------------------------------------
 
                    Orbital Energies (a.u.)
 --------------------------------------------------------------
 
 Alpha MOs
 -- Occupied --
-91.9843 -91.9441 -11.2844 -11.2648 -11.2599 -11.2578 -11.2503 -11.2425
-11.2344 -11.2330 -11.2284 -11.2214  -8.9841  -8.9487  -6.6650  -6.6645
 -6.6638  -6.6301  -6.6291  -6.6278  -1.2003  -1.1531  -1.0594  -1.0299
 -1.0009  -0.9631  -0.9139  -0.9000  -0.8165  -0.7610  -0.7388  -0.7029
 -0.6547  -0.6403  -0.6103  -0.5912  -0.5815  -0.5686  -0.5661  -0.5539
 -0.5450  -0.5330  -0.5172  -0.5048  -0.4893  -0.4810  -0.4660  -0.4477
 -0.3567  -0.3429  -0.3223  -0.2690
 -- Virtual --
  0.0973   0.1315   0.1407   0.1492   0.1586   0.1694   0.1785   0.1865
  0.1928   0.2030   0.2041   0.2157   0.2264   0.2317   0.2391   0.2416
  0.2522   0.2617   0.2808   0.2985   0.3212   0.3339   0.3487   0.3607
  0.3680   0.3763   0.3779   0.3886   0.4020   0.4101   0.4112   0.4220
  0.4384   0.4447   0.4537   0.4681   0.4757   0.4832   0.4839   0.4894
  0.4983   0.5082   0.5118   0.5268   0.5409   0.5445   0.5489   0.5561
  0.5674   0.5762   0.5866   0.5913   0.6023   0.6061   0.6133   0.6173
  0.6243   0.6294   0.6326   0.6342   0.6406   0.6489   0.6501   0.6601
  0.6648   0.6762   0.6872   0.6898   0.7043   0.7045   0.7152   0.7236
  0.7290   0.7485   0.7701   0.7729   0.7753   0.7903   0.8064   0.8224
  0.8332   0.8533   0.8627   0.8645   0.8873   0.8934   0.9001   0.9075
  0.9337   0.9362   0.9461   0.9632   0.9699   0.9781   1.0063   1.0166
  1.0176   1.0285   1.0365   1.0404   1.0595   1.0663   1.0736   1.0811
  1.0872   1.0998   1.1135   1.1247   1.1354   1.1420   1.1614   1.1710
  1.1791   1.1931   1.2020   1.2055   1.2129   1.2241   1.2322   1.2462
  1.2486   1.2629   1.2642   1.2773   1.2809   1.2936   1.2986   1.3130
  1.3159   1.3277   1.3445   1.3628   1.3789   1.3877   1.4038   1.4166
  1.4223   1.4343   1.4412   1.4566   1.4640   1.4788   1.4896   1.4930
  1.5038   1.5127   1.5237   1.5294   1.5371   1.5421   1.5472   1.5552
  1.5678   1.5813   1.5844   1.5988   1.6250   1.6291   1.6379   1.6415
  1.6473   1.6649   1.6764   1.6891   1.7039   1.7173   1.7282   1.7405
  1.7432   1.7505   1.7633   1.8030   1.8208   1.8294   1.8464   1.8637
  1.8829   1.9044   1.9163   1.9255   1.9278   1.9690   1.9871   2.0031
  2.0199   2.0338   2.0562   2.0619   2.0818   2.1112   2.1355   2.1630
  2.1838   2.1907   2.2111   2.2319   2.2332   2.2425   2.2695   2.2755
  2.2940   2.3220   2.3314   2.3746   2.4149   2.4482   2.4568   2.4726
  2.4927   2.5135   2.5294   2.5427   2.5693   2.5730   2.5925   2.6010
  2.6192   2.6408   2.6582   2.6682   2.6819   2.6886   2.6963   2.7326
  2.7421   2.7564   2.7644   2.7747   2.7807   2.7935   2.8030   2.8147
  2.8418   2.8485   2.8625   2.8669   2.8795   2.9002   2.9093   2.9283
  2.9411   2.9675   2.9715   2.9854   2.9977   3.0217   3.0358   3.0421
  3.0485   3.0717   3.0885   3.1087   3.1155   3.1159   3.1206   3.1353
  3.1402   3.1520   3.1588   3.1736   3.1784   3.1911   3.2025   3.2182
  3.2241   3.2475   3.2534   3.2650   3.2802   3.2884   3.2963   3.3122
  3.3182   3.3221   3.3363   3.3400   3.3434   3.3504   3.3586   3.3657
  3.3697   3.3858   3.3924   3.3971   3.4081   3.4176   3.4268   3.4281
  3.4412   3.4459   3.4543   3.4653   3.4728   3.4786   3.4960   3.5065
  3.5156   3.5195   3.5323   3.5384   3.5520   3.5576   3.5658   3.5855
  3.5907   3.5941   3.6130   3.6216   3.6273   3.6333   3.6481   3.6577
  3.6646   3.6717   3.6871   3.7013   3.7059   3.7162   3.7374   3.7454
  3.7505   3.7520   3.7724   3.7778   3.7814   3.7885   3.7985   3.8066
  3.8340   3.8347   3.8597   3.8645   3.8694   3.8919   3.8989   3.9191
  3.9270   3.9406   3.9584   3.9654   3.9695   3.9813   3.9951   4.0208
  4.0287   4.0368   4.0496   4.0581   4.0640   4.0747   4.0918   4.0979
  4.1198   4.1272   4.1503   4.1514   4.1636   4.1687   4.1822   4.2035
  4.2137   4.2245   4.2296   4.2367   4.2514   4.2552   4.2706   4.2845
  4.2983   4.3039   4.3167   4.3208   4.3439   4.3530   4.3662   4.3682
  4.3814   4.3906   4.4017   4.4055   4.4205   4.4282   4.4393   4.4558
  4.4594   4.4762   4.4857   4.4921   4.4978   4.5050   4.5385   4.5476
  4.5835   4.5905   4.6061   4.6194   4.6244   4.6446   4.6528   4.6779
  4.6990   4.7184   4.7493   4.7632   4.7768   4.8093   4.8171   4.8454
  4.8626   4.8701   4.8969   4.8993   4.9316   4.9683   4.9755   5.0005
  5.0188   5.0372   5.0941   5.1013   5.1183   5.1312   5.1665   5.1773
  5.1973   5.2169   5.2425   5.2631   5.2753   5.2956   5.3052   5.3294
  5.3499   5.3715   5.3778   5.4030   5.4164   5.4185   5.4369   5.4450
  5.4726   5.5188   5.5262   5.5380   5.5504   5.5575   5.5709   5.5971
  5.6102   5.6242   5.6314   5.6716   5.6875   5.6993   5.7071   5.7343
  5.7644   5.7862   5.8331   5.9849   6.0372   6.0778   6.1172   6.1644
  6.2066   6.2272   6.2341   6.2392   6.2635   6.2957   6.2997   6.3552
  6.3981   6.5384   9.4132  10.9054  12.0416  12.9607  13.2220  13.9808
 14.0826  14.1932  14.3476  14.7390
 --------------------------------------------------------------
 
          Ground-State Mulliken Net Atomic Charges

     Atom                 Charge (a.u.)
  ----------------------------------------
      1 C                    -0.076761
      2 C                    -0.324964
      3 C                    -0.032337
      4 H                     0.177502
      5 C                     0.120003
      6 S                    -0.173758
      7 C                    -0.278949
      8 H                     0.116124
      9 H                     0.107829
     10 H                     0.103791
     11 C                    -0.106093
     12 C                    -0.232592
     13 C                     0.016557
     14 H                     0.192281
     15 C                    -0.247593
     16 S                     0.001980
     17 C                    -0.274187
     18 H                     0.101302
     19 H                     0.108036
     20 H                     0.108906
     21 H                     0.197504
     22 H                     0.110911
     23 H                     0.114603
     24 H                     0.169905
  ----------------------------------------
  Sum of atomic charges =     0.000000

 -----------------------------------------------------------------
                    Cartesian Multipole Moments
 -----------------------------------------------------------------
    Charge (ESU x 10^10)
                -0.0000
    Dipole Moment (Debye)
         X      -1.8877      Y       0.1084      Z       2.7125
       Tot       3.3064
    Quadrupole Moments (Debye-Ang)
        XX     -91.6956     XY       5.1058     YY     -73.3811
        XZ       0.0676     YZ      -0.7420     ZZ     -85.6156
    Octopole Moments (Debye-Ang^2)
       XXX     -36.7478    XXY      45.1583    XYY      -6.3423
       YYY     121.1939    XXZ       1.1048    XYZ       2.2293
       YYZ      -5.7914    XZZ     -13.7529    YZZ      52.3540
       ZZZ       3.9609
    Hexadecapole Moments (Debye-Ang^3)
      XXXX    -410.7569   XXXY     -80.7059   XXYY    -578.8833
      XYYY     -64.4808   YYYY   -2749.2849   XXXZ     125.2021
      XXYZ     -42.3280   XYYZ      22.6616   YYYZ    -104.0968
      XXZZ    -216.1797   XYZZ      -9.3787   YYZZ    -627.8037
      XZZZ     119.8109   YZZZ    -109.2521   ZZZZ    -872.7728
 -----------------------------------------------------------------
 Total job time:  650.47s(wall), 645.37s(cpu) 
 Sun Jul 10 03:46:32 2022

        *************************************************************
        *                                                           *
        *  Thank you very much for using Q-Chem.  Have a nice day.  *
        *                                                           *
        *************************************************************


remove work dirs ./qchem1258290.0 -- ./qchem1258290.-1
rm -rf ./qchem1258290
