You are running Q-Chem version: 5.4.0

#
# job setting
#
local host:  exp-2-06
current dir: /expanse/lustre/scratch/theleonzhang/temp_project/Hydrogenated_Rotation_Test
input file:  Methylthiophene_Phi_50_Theta_200_Methylthiophene_Hydrogenated.qcin
output file: 
nprocs     : 0
nthreads   : 1
#
# qchem installation setting
#
QC:          /cm/shared/apps/spack/cpu/opt/spack/linux-centos8-zen2/gcc-10.2.0/qchem-5.4-akfmr7b3t57bfs6qan3padb2wnb2i7cl
QCAUX:       /cm/shared/apps/spack/cpu/opt/spack/linux-centos8-zen2/gcc-10.2.0/qchem-5.4-akfmr7b3t57bfs6qan3padb2wnb2i7cl/qcaux
QCPROG:      /cm/shared/apps/spack/cpu/opt/spack/linux-centos8-zen2/gcc-10.2.0/qchem-5.4-akfmr7b3t57bfs6qan3padb2wnb2i7cl/exe/qcprog.exe_s
QCPROG_S:    /cm/shared/apps/spack/cpu/opt/spack/linux-centos8-zen2/gcc-10.2.0/qchem-5.4-akfmr7b3t57bfs6qan3padb2wnb2i7cl/exe/qcprog.exe_s
PARALLEL:    -DSERIAL
QCMPI:       mpich
#
# qchem directory setting
#
qcrun:       qchem1865551
QCSCRATCH:   .
QCLOCALSCR:  
QCTMPDIR:    .
QCFILEPREF:  ./qchem1865551
QCSAVEDIR:   
workdirs:    ./qchem1865551
workdir0:    ./qchem1865551
partmpdirs =  
#
# parallel setting
#
QCRSH:           ssh
QCMPI:           mpich
QCMPIRUN:        /cm/shared/apps/spack/cpu/opt/spack/linux-centos8-zen2/gcc-10.2.0/qchem-5.4-akfmr7b3t57bfs6qan3padb2wnb2i7cl/bin/mpi/mpirun_qchem
QCMACHINEFILE:   ./qchem1865551/hostfile

#
# env setting
#
exported envs:   QC QCAUX QCSCRATCH QCRUNNAME QCFILEPREF QCPROG QCPROG_S GUIFILE

Running Job 1 of 1 Methylthiophene_Phi_50_Theta_200_Methylthiophene_Hydrogenated.qcin
qchem Methylthiophene_Phi_50_Theta_200_Methylthiophene_Hydrogenated.qcin_1865551.0 ./qchem1865551/ 0
/cm/shared/apps/spack/cpu/opt/spack/linux-centos8-zen2/gcc-10.2.0/qchem-5.4-akfmr7b3t57bfs6qan3padb2wnb2i7cl/exe/qcprog.exe_s Methylthiophene_Phi_50_Theta_200_Methylthiophene_Hydrogenated.qcin_1865551.0 ./qchem1865551/
                  Welcome to Q-Chem
     A Quantum Leap Into The Future Of Chemistry


 Q-Chem 5.4, Q-Chem, Inc., Pleasanton, CA (2021)

 License issued to: University of California, San Diego (site)

 E. Epifanovsky,  A. T. B. Gilbert,  Xintian Feng,  Joonho Lee,  Yuezhi Mao,  
 N. Mardirossian,  P. Pokhilko,  A. White,  M. Wormit,  M. P. Coons,  
 A. L. Dempwolff,  Zhengting Gan,  D. Hait,  P. R. Horn,  L. D. Jacobson,  
 I. Kaliman,  J. Kussmann,  A. W. Lange,  Ka Un Lao,  D. S. Levine,  Jie Liu,  
 S. C. McKenzie,  A. F. Morrison,  K. Nanda,  F. Plasser,  D. R. Rehn,  
 M. L. Vidal,  Zhi-Qiang You,  Ying Zhu,  B. Alam,  B. Albrecht,  
 A. Aldossary,  E. Alguire,  J. H. Andersen,  D. Barton,  K. Begam,  A. Behn,  
 Y. A. Bernard,  E. J. Berquist,  H. Burton,  A. Carreras,  K. Carter-Fenk,  
 R. Chakraborty,  A. D. Chien,  K. D. Closser,  V. Cofer-Shabica,  
 S. Dasgupta,  Jia Deng,  M. de Wergifosse,  M. Diedenhofen,  Hainam Do,  
 S. Ehlert,  Po-Tung Fang,  S. Fatehi,  Qingguo Feng,  J. Gayvert,  
 Qinghui Ge,  G. Gidofalvi,  M. Goldey,  J. Gomes,  C. Gonzalez-Espinoza,  
 S. Gulania,  A. Gunina,  M. W. D. Hanson-Heine,  P. H. P. Harbach,  
 A. W. Hauser,  M. F. Herbst,  M. Hernandez Vera,  M. Hodecker,  
 Z. C. Holden,  S. Houck,  Xunkun Huang,  Kerwin Hui,  B. C. Huynh,  
 M. Ivanov,  Hyunjun Ji,  Hanjie Jiang,  B. Kaduk,  S. Kaehler,  
 K. Khistyaev,  Jaehoon Kim,  P. Klunzinger,  Z. Koczor-Benda,  
 Joong Hoon Koh,  D. Kosenkov,  L. Koulias,  T. Kowalczyk,  C. M. Krauter,  
 K. Kue,  A. Kunitsa,  T. Kus,  A. Landau,  K. V. Lawler,  D. Lefrancois,  
 S. Lehtola,  Rain Li,  Yi-Pei Li,  Jiashu Liang,  M. Liebenthal,  
 Hung-Hsuan Lin,  You-Sheng Lin,  Fenglai Liu,  Kuan-Yu Liu,  
 M. Loipersberger,  A. Luenser,  A. Manjanath,  P. Manohar,  E. Mansoor,  
 S. F. Manzer,  Shan-Ping Mao,  A. V. Marenich,  T. Markovich,  S. Mason,  
 S. A. Maurer,  P. F. McLaughlin,  M. F. S. J. Menger,  J.-M. Mewes,  
 S. A. Mewes,  P. Morgante,  J. W. Mullinax,  T. S. Nguyen-Beck,  
 K. J. Oosterbaan,  G. Paran,  Alexander C. Paul,  Suranjan K. Paul,  
 F. Pavosevic,  Zheng Pei,  S. Prager,  E. I. Proynov,  E. Ramos,  B. Rana,  
 A. E. Rask,  A. Rettig,  R. M. Richard,  F. Rob,  E. Rossomme,  T. Scheele,  
 M. Scheurer,  M. Schneider,  N. Sergueev,  S. M. Sharada,  W. Skomorowski,  
 D. W. Small,  C. J. Stein,  Yu-Chuan Su,  E. J. Sundstrom,  Zhen Tao,  
 J. Thirman,  T. Tsuchimochi,  N. M. Tubman,  S. P. Veccham,  O. Vydrov,  
 J. Wenzel,  J. Witte,  A. Yamada,  Kun Yao,  S. Yeganeh,  S. R. Yost,  
 A. Zech,  Igor Ying Zhang,  Xing Zhang,  Yu Zhang,  D. Zuev,  
 A. Aspuru-Guzik,  A. T. Bell,  N. A. Besley,  K. B. Bravaya,  B. R. Brooks,  
 D. Casanova,  Jeng-Da Chai,  S. Coriani,  C. J. Cramer,  
 A. E. DePrince, III,  R. A. DiStasio Jr.,  A. Dreuw,  B. D. Dunietz,  
 T. R. Furlani,  W. A. Goddard III,  S. Grimme,  S. Hammes-Schiffer,  
 T. Head-Gordon,  W. J. Hehre,  Chao-Ping Hsu,  T.-C. Jagau,  Yousung Jung,  
 A. Klamt,  Jing Kong,  D. S. Lambrecht,  WanZhen Liang,  N. J. Mayhall,  
 C. W. McCurdy,  J. B. Neaton,  C. Ochsenfeld,  J. A. Parkhill,  R. Peverati,  
 V. A. Rassolov,  Yihan Shao,  L. V. Slipchenko,  T. Stauch,  R. P. Steele,  
 J. E. Subotnik,  A. J. W. Thom,  A. Tkatchenko,  D. G. Truhlar,  
 T. Van Voorhis,  T. A. Wesolowski,  K. B. Whaley,  H. L. Woodcock III,  
 P. M. Zimmerman,  S. Faraji,  P. M. W. Gill,  M. Head-Gordon,  
 J. M. Herbert,  A. I. Krylov

 Contributors to earlier versions of Q-Chem not listed above: 
 R. D. Adamson,  B. Austin,  R. Baer,  J. Baker,  G. J. O. Beran,  
 K. Brandhorst,  S. T. Brown,  E. F. C. Byrd,  A. K. Chakraborty,  
 G. K. L. Chan,  Chun-Min Chang,  Yunqing Chen,  C.-L. Cheng,  
 Siu Hung Chien,  D. M. Chipman,  D. L. Crittenden,  H. Dachsel,  
 R. J. Doerksen,  A. D. Dutoi,  R. G. Edgar,  J. Fosso-Tande,  
 L. Fusti-Molnar,  D. Ghosh,  A. Ghysels,  A. Golubeva-Zadorozhnaya,  
 J. Gonthier,  M. S. Gordon,  S. R. Gwaltney,  G. Hawkins,  J. E. Herr,  
 A. Heyden,  S. Hirata,  E. G. Hohenstein,  G. Kedziora,  F. J. Keil,  
 C. Kelley,  Jihan Kim,  R. A. King,  R. Z. Khaliullin,  P. P. Korambath,  
 W. Kurlancheek,  A. Laurent,  A. M. Lee,  M. S. Lee,  S. V. Levchenko,  
 Ching Yeh Lin,  D. Liotard,  E. Livshits,  R. C. Lochan,  I. Lotan,  
 L. A. Martinez-Martinez,  P. E. Maslen,  N. Nair,  D. P. O'Neill,  
 D. Neuhauser,  E. Neuscamman,  C. M. Oana,  R. Olivares-Amaya,  R. Olson,  
 T. M. Perrine,  B. Peters,  P. A. Pieniazek,  A. Prociuk,  Y. M. Rhee,  
 J. Ritchie,  M. A. Rohrdanz,  E. Rosta,  N. J. Russ,  H. F. Schaefer III,  
 M. W. Schmidt,  N. E. Schultz,  S. Sharma,  N. Shenvi,  C. D. Sherrill,  
 A. C. Simmonett,  A. Sodt,  T. Stein,  D. Stuck,  K. S. Thanthiriwatte,  
 V. Vanovschi,  L. Vogt,  Tao Wang,  A. Warshel,  M. A. Watson,  
 C. F. Williams,  Q. Wu,  X. Xu,  Jun Yang,  W. Zhang,  Yan Zhao

 Please cite Q-Chem as follows:
 Y. Shao et al., Mol. Phys. 113, 184-215 (2015)
 DOI: 10.1080/00268976.2014.952696

 Q-Chem 5.4.0 for Intel X86 EM64T Linux

 Parts of Q-Chem use Armadillo 9.800.1 (Horizon Scraper).
 http://arma.sourceforge.net/

 Q-Chem begins on Sun Jul 10 03:17:15 2022  

 Host: 
0

     Scratch files written to ./qchem1865551//
 May1621 |scratch|qcdevops|jenkins|workspace|build_RNUM    
 Processing $rem in /cm/shared/apps/spack/cpu/opt/spack/linux-centos8-zen2/gcc-10.2.0/qchem-5.4-akfmr7b3t57bfs6qan3padb2wnb2i7cl/config/preferences:
 Processing $rem in /home/theleonzhang/.qchemrc:
 Symmetry turned off for PCM/SM12/SMD calculation
 Core orbitals will be frozen

 Checking the input file for inconsistencies... 	...done.

--------------------------------------------------------------
User input:
--------------------------------------------------------------
$molecule
0 1
C	0.265779	-3.866725	-0.728138
C	-0.209225	-3.703963	0.575726
C	-0.364875	-2.357056	1.002290
H	-0.445176	-4.561092	1.224486
C	0.000000	-1.440664	0.000000
S	0.528236	-2.286957	-1.451343
C	-0.862808	-1.978743	2.369683
H	-1.083368	-2.878678	2.975883
H	-1.793522	-1.376015	2.317142
H	-0.116375	-1.375728	2.927787
C	0.000000	0.000000	0.000000
C	0.661577	0.555087	1.099446
C	1.721724	1.444630	0.776721
H	0.379056	0.318032	2.136088
C	1.890772	1.586449	-0.612546
S	0.721935	0.605744	-1.486809
C	2.555004	2.143805	1.814609
H	2.228946	1.870211	2.836676
H	2.482605	3.247987	1.726239
H	3.629830	1.880735	1.726228
H	2.617927	2.196579	-1.161575
H	-0.459743	-4.392713	-1.358585
H	1.227009	-4.392347	-0.744515
H	-1.014829	-1.440937	-0.369490
$end

$rem
JOBTYPE		SP
EXCHANGE	HF
CORRELATION	pRIMP2
BASIS		cc-pvtz
METHOD		rimp2
AUX_BASIS	rimp2-cc-pvtz
SOLVENT_METHOD	PCM
PURECART	11111
SYMMETRY	false
MEM_TOTAL	110000
SCF_CONVERGENCE = 6
THRESH=10
$end



$solvent
dielectric 4.90
$end
--------------------------------------------------------------
 ----------------------------------------------------------------
             Standard Nuclear Orientation (Angstroms)
    I     Atom           X                Y                Z
 ----------------------------------------------------------------
    1      C       0.2657790000    -3.8667250000    -0.7281380000
    2      C      -0.2092250000    -3.7039630000     0.5757260000
    3      C      -0.3648750000    -2.3570560000     1.0022900000
    4      H      -0.4451760000    -4.5610920000     1.2244860000
    5      C       0.0000000000    -1.4406640000     0.0000000000
    6      S       0.5282360000    -2.2869570000    -1.4513430000
    7      C      -0.8628080000    -1.9787430000     2.3696830000
    8      H      -1.0833680000    -2.8786780000     2.9758830000
    9      H      -1.7935220000    -1.3760150000     2.3171420000
   10      H      -0.1163750000    -1.3757280000     2.9277870000
   11      C       0.0000000000     0.0000000000     0.0000000000
   12      C       0.6615770000     0.5550870000     1.0994460000
   13      C       1.7217240000     1.4446300000     0.7767210000
   14      H       0.3790560000     0.3180320000     2.1360880000
   15      C       1.8907720000     1.5864490000    -0.6125460000
   16      S       0.7219350000     0.6057440000    -1.4868090000
   17      C       2.5550040000     2.1438050000     1.8146090000
   18      H       2.2289460000     1.8702110000     2.8366760000
   19      H       2.4826050000     3.2479870000     1.7262390000
   20      H       3.6298300000     1.8807350000     1.7262280000
   21      H       2.6179270000     2.1965790000    -1.1615750000
   22      H      -0.4597430000    -4.3927130000    -1.3585850000
   23      H       1.2270090000    -4.3923470000    -0.7445150000
   24      H      -1.0148290000    -1.4409370000    -0.3694900000
 ----------------------------------------------------------------
 Nuclear Repulsion Energy =         895.09228257 hartrees
 There are       52 alpha and       52 beta electrons

 Q-Chem warning in module forms1/BasisType.C, line 2236:

 You are not using the predefined 5D/6D in this basis set.

 Requested basis set is cc-pVTZ
 There are 196 shells and 536 basis functions

 Total QAlloc Memory Limit 110000 MB
 Mega-Array Size       188 MB
 MEM_STATIC part       192 MB
 Discretize the solute cavity surface with Lebedev spheres
	Using 110 Lebedev grid points for each H atom
	Using 194 Lebedev grid points for other atoms
	Atomic van der Waals radii will be scaled by 1.20
 Remove points where switching function is < 1.0e-08
 Keep 1572 surface tesserae and discard 2076 interior tesserae
 Molecular Surface Area = 228.085 Angst**2
 Requested basis set is rimp2-cc-pVTZ
 There are 414 shells and 1414 basis functions
 A cutoff of  1.0D-10 yielded  14380 shell pairs
 There are    104168 function pairs (    133500 Cartesian)
 Smallest overlap matrix eigenvalue = 7.08E-05

 Scale SEOQF with 1.000000e-01/1.000000e-01/1.000000e-01

 Standard Electronic Orientation quadrupole field applied
 Nucleus-field energy     =     0.0000000188 hartrees
 Guess from superposition of atomic densities
 Warning:  Energy on first SCF cycle will be non-variational
 SAD guess density has 104.000000 electrons

 -----------------------------------------------------------------------
  General SCF calculation program by
  Eric Jon Sundstrom, Paul Horn, Yuezhi Mao, Dmitri Zuev, Alec White,
  David Stuck, Shaama M.S., Shane Yost, Joonho Lee, David Small,
  Daniel Levine, Susi Lehtola, Hugh Burton, Evgeny Epifanovsky,
  Bang C. Huynh
 -----------------------------------------------------------------------
 Hartree-Fock
 A restricted SCF calculation will be
 performed using DIIS
 SCF converges when DIIS error is below 1.0e-06
 ---------------------------------------
  Cycle       Energy         DIIS error
 ---------------------------------------
    1   -1186.1474039437      2.40e-02  
    2   -1180.5445252024      1.55e-03  
    3   -1180.6717143046      5.72e-04  
    4   -1180.6857247757      3.08e-04  
    5   -1180.6902501152      6.44e-05  
    6   -1180.6905614617      2.74e-05  
    7   -1180.6906564928      1.30e-05  
    8   -1180.6906869590      6.28e-06  
    9   -1180.6906962885      2.70e-06  
   10   -1180.6906979057      1.03e-06  
   11   -1180.6906981464      4.93e-07  Convergence criterion met
 ---------------------------------------
 SCF time:   CPU 647.31s  wall 650.00s 

************** Final PCM Free Energy Summary **************
 G_electrostatic  =      -0.00969010 hartree =      -6.08062806 kcal/mol
 G_cavitation     =       0.00000000 hartree =       0.00000000 kcal/mol
 G_dispersion     =       0.00000000 hartree =       0.00000000 kcal/mol
 G_repulsion      =       0.00000000 hartree =       0.00000000 kcal/mol
 --------------------------------------------------
 Non-electrostatic Free Energy =       0.00000000 hartree =       0.00000000 kcal/mol
 Total                         =      -0.00969010 hartree =      -6.08062806 kcal/mol
 --------------------------------------------------
 SCF Energy (H0 + V/2)                       =   -1180.69069815 
 Solute Internal Energy (H0)                 =   -1180.68100805 
 Total Free Energy (H0 + V/2 + non-elec)     =   -1180.69069815 hartree
                                             = -740894.59540850 kcal/mol
***********************************************************

 SCF   energy in the final basis set =    -1180.6906981464
 Total energy in the final basis set =    -1180.6906981464


 --------------------------------------------------------------
  Generalized many-body perturbation theory program
  by Joonho Lee, Fazle Rob, Xintian Feng, Evgeny Epifanovsky

 No regularization used 
 (reg. param. = 0.0000e+00)
  (P|Q)^-1/2 Time:  CPU 1.89 s  wall 1.89 s

 In RI-MP2 calculation: 
 # of frozen core orbitals: 20

 Components of the RIMP2 correlation energy:
        aaaa    correlation energy =        -0.2545113364 a.u.
        abab    correlation energy =        -1.5133002715 a.u.
        bbbb    correlation energy =        -0.2545113364 a.u.
        non-Brillouin singles      =        -0.0000000000 a.u.
        total same-spin energy     =        -0.5090226728 a.u.
        total opposite-spin energy =        -1.5133002715 a.u.

 Total  RIMP2   correlation energy =        -2.0223229443 a.u.
        RIMP2         total energy =     -1182.7130210907 a.u.

 RI-MP2 Energy Time:  CPU 80.25 s  wall 80.60 s
 
 --------------------------------------------------------------
 
                    Orbital Energies (a.u.)
 --------------------------------------------------------------
 
 Alpha MOs
 -- Occupied --
-91.9811 -91.9398 -11.2749 -11.2627 -11.2610 -11.2514 -11.2483 -11.2471
-11.2363 -11.2323 -11.2294 -11.2142  -8.9817  -8.9444  -6.6625  -6.6618
 -6.6614  -6.6257  -6.6246  -6.6233  -1.2017  -1.1530  -1.0574  -1.0312
 -0.9976  -0.9656  -0.9115  -0.9006  -0.8143  -0.7582  -0.7366  -0.7070
 -0.6505  -0.6382  -0.6108  -0.5937  -0.5855  -0.5678  -0.5667  -0.5498
 -0.5440  -0.5344  -0.5185  -0.5058  -0.4820  -0.4780  -0.4551  -0.4352
 -0.3580  -0.3394  -0.3228  -0.2544
 -- Virtual --
  0.0669   0.1342   0.1392   0.1516   0.1597   0.1699   0.1775   0.1851
  0.1860   0.2030   0.2100   0.2187   0.2239   0.2344   0.2394   0.2435
  0.2551   0.2710   0.2727   0.3033   0.3081   0.3205   0.3397   0.3620
  0.3682   0.3704   0.3856   0.3956   0.3990   0.4117   0.4202   0.4227
  0.4281   0.4426   0.4580   0.4673   0.4740   0.4810   0.4846   0.4924
  0.5016   0.5143   0.5220   0.5292   0.5322   0.5495   0.5598   0.5624
  0.5735   0.5769   0.5880   0.5921   0.6018   0.6050   0.6141   0.6171
  0.6213   0.6265   0.6303   0.6338   0.6409   0.6480   0.6508   0.6642
  0.6714   0.6805   0.6849   0.6924   0.7032   0.7114   0.7167   0.7231
  0.7416   0.7505   0.7527   0.7721   0.7885   0.7971   0.8136   0.8224
  0.8352   0.8435   0.8523   0.8673   0.8784   0.8912   0.9044   0.9146
  0.9263   0.9375   0.9505   0.9667   0.9705   0.9786   0.9999   1.0196
  1.0259   1.0325   1.0421   1.0498   1.0575   1.0654   1.0755   1.0800
  1.0930   1.1023   1.1108   1.1281   1.1462   1.1555   1.1660   1.1761
  1.1821   1.1875   1.2016   1.2132   1.2183   1.2261   1.2369   1.2447
  1.2501   1.2558   1.2685   1.2712   1.2774   1.2929   1.3044   1.3147
  1.3236   1.3330   1.3461   1.3686   1.3741   1.3933   1.4089   1.4123
  1.4243   1.4277   1.4390   1.4500   1.4761   1.4859   1.4917   1.4952
  1.5119   1.5152   1.5259   1.5307   1.5421   1.5458   1.5512   1.5555
  1.5647   1.5762   1.5983   1.6084   1.6238   1.6253   1.6397   1.6459
  1.6610   1.6653   1.6718   1.6904   1.6953   1.7087   1.7249   1.7351
  1.7451   1.7651   1.7900   1.7984   1.8108   1.8163   1.8437   1.8677
  1.8843   1.8850   1.9149   1.9402   1.9547   1.9856   2.0026   2.0091
  2.0258   2.0444   2.0651   2.0763   2.0958   2.1232   2.1408   2.1617
  2.1828   2.1990   2.2165   2.2263   2.2346   2.2402   2.2583   2.2812
  2.2854   2.3067   2.3646   2.4020   2.4251   2.4393   2.4553   2.4706
  2.4989   2.5157   2.5353   2.5441   2.5706   2.5873   2.6084   2.6157
  2.6342   2.6553   2.6633   2.6671   2.6857   2.6888   2.7214   2.7316
  2.7360   2.7569   2.7618   2.7700   2.7866   2.7941   2.8179   2.8296
  2.8361   2.8425   2.8512   2.8834   2.8946   2.9165   2.9235   2.9336
  2.9540   2.9637   2.9742   2.9947   3.0161   3.0223   3.0294   3.0406
  3.0526   3.0799   3.1007   3.1100   3.1175   3.1359   3.1384   3.1465
  3.1545   3.1585   3.1692   3.1795   3.1861   3.2048   3.2116   3.2228
  3.2380   3.2418   3.2485   3.2562   3.2682   3.2816   3.2925   3.3002
  3.3142   3.3264   3.3356   3.3398   3.3417   3.3546   3.3580   3.3624
  3.3730   3.3832   3.3877   3.3974   3.4085   3.4160   3.4266   3.4340
  3.4388   3.4503   3.4657   3.4664   3.4788   3.4950   3.5052   3.5143
  3.5201   3.5286   3.5352   3.5467   3.5561   3.5655   3.5764   3.5781
  3.5951   3.6001   3.6185   3.6302   3.6354   3.6431   3.6531   3.6695
  3.6775   3.6957   3.7024   3.7144   3.7160   3.7336   3.7422   3.7434
  3.7668   3.7760   3.7852   3.7879   3.8012   3.8071   3.8210   3.8313
  3.8372   3.8506   3.8603   3.8766   3.8828   3.8944   3.9011   3.9254
  3.9497   3.9652   3.9674   3.9715   4.0008   4.0113   4.0217   4.0253
  4.0394   4.0446   4.0571   4.0695   4.0781   4.0890   4.0980   4.1133
  4.1310   4.1392   4.1541   4.1609   4.1684   4.1752   4.1951   4.2011
  4.2113   4.2235   4.2441   4.2536   4.2609   4.2630   4.2844   4.2982
  4.3030   4.3125   4.3234   4.3419   4.3528   4.3610   4.3666   4.3816
  4.3999   4.4051   4.4081   4.4201   4.4282   4.4411   4.4560   4.4619
  4.4690   4.4703   4.4769   4.4851   4.5019   4.5106   4.5431   4.5784
  4.5859   4.6052   4.6150   4.6211   4.6385   4.6617   4.6713   4.6981
  4.7145   4.7178   4.7408   4.7693   4.8085   4.8171   4.8435   4.8569
  4.8772   4.8965   4.9182   4.9272   4.9327   4.9527   4.9812   5.0045
  5.0420   5.0572   5.0864   5.1046   5.1120   5.1297   5.1385   5.1679
  5.1888   5.2041   5.2351   5.2643   5.2854   5.3032   5.3159   5.3193
  5.3432   5.3686   5.3796   5.4039   5.4103   5.4362   5.4425   5.4474
  5.4881   5.5092   5.5362   5.5402   5.5485   5.5702   5.5782   5.5955
  5.6171   5.6207   5.6391   5.6613   5.6789   5.6963   5.7171   5.7183
  5.7798   5.8172   5.8249   5.9941   6.0326   6.0589   6.1242   6.1545
  6.2103   6.2247   6.2409   6.2443   6.2583   6.2860   6.3031   6.3138
  6.3804   6.4279   9.5016  10.4603  12.4162  12.8568  13.1731  13.9518
 14.1146  14.2243  14.3049  14.6876
 --------------------------------------------------------------
 
          Ground-State Mulliken Net Atomic Charges

     Atom                 Charge (a.u.)
  ----------------------------------------
      1 C                    -0.081888
      2 C                    -0.334836
      3 C                    -0.040639
      4 H                     0.173944
      5 C                     0.081432
      6 S                    -0.180526
      7 C                    -0.293148
      8 H                     0.118563
      9 H                     0.111099
     10 H                     0.099070
     11 C                    -0.117963
     12 C                    -0.184129
     13 C                     0.001800
     14 H                     0.198145
     15 C                    -0.208324
     16 S                     0.016520
     17 C                    -0.269736
     18 H                     0.100838
     19 H                     0.108067
     20 H                     0.106466
     21 H                     0.200417
     22 H                     0.106997
     23 H                     0.109577
     24 H                     0.178254
  ----------------------------------------
  Sum of atomic charges =     0.000000

 -----------------------------------------------------------------
                    Cartesian Multipole Moments
 -----------------------------------------------------------------
    Charge (ESU x 10^10)
                -0.0000
    Dipole Moment (Debye)
         X       0.4120      Y       0.6271      Z       3.3665
       Tot       3.4491
    Quadrupole Moments (Debye-Ang)
        XX     -85.0641     XY       8.1334     YY     -81.5794
        XZ       0.5028     YZ      -2.1733     ZZ     -85.0579
    Octopole Moments (Debye-Ang^2)
       XXX    -144.0584    XXY      88.1960    XYY     -43.1162
       YYY     182.6273    XXZ      -4.1557    XYZ      -0.6595
       YYZ      -4.5526    XZZ     -49.9651    YZZ      73.6148
       ZZZ       6.9926
    Hexadecapole Moments (Debye-Ang^3)
      XXXX    -755.3897   XXXY    -211.8060   XXYY    -532.6507
      XYYY    -222.4032   YYYY   -2334.2402   XXXZ      14.2403
      XXYZ     -31.0723   XYYZ      -8.8745   YYYZ     -61.8305
      XXZZ    -297.5551   XYZZ     -56.2158   YYZZ    -574.9341
      XZZZ      11.5821   YZZZ     -89.0286   ZZZZ   -1032.1524
 -----------------------------------------------------------------
 Total job time:  732.12s(wall), 728.46s(cpu) 
 Sun Jul 10 03:29:27 2022

        *************************************************************
        *                                                           *
        *  Thank you very much for using Q-Chem.  Have a nice day.  *
        *                                                           *
        *************************************************************


remove work dirs ./qchem1865551.0 -- ./qchem1865551.-1
rm -rf ./qchem1865551
