You are running Q-Chem version: 5.4.0

#
# job setting
#
local host:  exp-2-07
current dir: /expanse/lustre/scratch/theleonzhang/temp_project/Hydrogenated_Rotation_Test
input file:  Methylthiophene_Phi_30_Theta_230_Methylthiophene_Hydrogenated.qcin
output file: 
nprocs     : 0
nthreads   : 1
#
# qchem installation setting
#
QC:          /cm/shared/apps/spack/cpu/opt/spack/linux-centos8-zen2/gcc-10.2.0/qchem-5.4-akfmr7b3t57bfs6qan3padb2wnb2i7cl
QCAUX:       /cm/shared/apps/spack/cpu/opt/spack/linux-centos8-zen2/gcc-10.2.0/qchem-5.4-akfmr7b3t57bfs6qan3padb2wnb2i7cl/qcaux
QCPROG:      /cm/shared/apps/spack/cpu/opt/spack/linux-centos8-zen2/gcc-10.2.0/qchem-5.4-akfmr7b3t57bfs6qan3padb2wnb2i7cl/exe/qcprog.exe_s
QCPROG_S:    /cm/shared/apps/spack/cpu/opt/spack/linux-centos8-zen2/gcc-10.2.0/qchem-5.4-akfmr7b3t57bfs6qan3padb2wnb2i7cl/exe/qcprog.exe_s
PARALLEL:    -DSERIAL
QCMPI:       mpich
#
# qchem directory setting
#
qcrun:       qchem789208
QCSCRATCH:   .
QCLOCALSCR:  
QCTMPDIR:    .
QCFILEPREF:  ./qchem789208
QCSAVEDIR:   
workdirs:    ./qchem789208
workdir0:    ./qchem789208
partmpdirs =  
#
# parallel setting
#
QCRSH:           ssh
QCMPI:           mpich
QCMPIRUN:        /cm/shared/apps/spack/cpu/opt/spack/linux-centos8-zen2/gcc-10.2.0/qchem-5.4-akfmr7b3t57bfs6qan3padb2wnb2i7cl/bin/mpi/mpirun_qchem
QCMACHINEFILE:   ./qchem789208/hostfile

#
# env setting
#
exported envs:   QC QCAUX QCSCRATCH QCRUNNAME QCFILEPREF QCPROG QCPROG_S GUIFILE

Running Job 1 of 1 Methylthiophene_Phi_30_Theta_230_Methylthiophene_Hydrogenated.qcin
qchem Methylthiophene_Phi_30_Theta_230_Methylthiophene_Hydrogenated.qcin_789208.0 ./qchem789208/ 0
/cm/shared/apps/spack/cpu/opt/spack/linux-centos8-zen2/gcc-10.2.0/qchem-5.4-akfmr7b3t57bfs6qan3padb2wnb2i7cl/exe/qcprog.exe_s Methylthiophene_Phi_30_Theta_230_Methylthiophene_Hydrogenated.qcin_789208.0 ./qchem789208/
                  Welcome to Q-Chem
     A Quantum Leap Into The Future Of Chemistry


 Q-Chem 5.4, Q-Chem, Inc., Pleasanton, CA (2021)

 License issued to: University of California, San Diego (site)

 E. Epifanovsky,  A. T. B. Gilbert,  Xintian Feng,  Joonho Lee,  Yuezhi Mao,  
 N. Mardirossian,  P. Pokhilko,  A. White,  M. Wormit,  M. P. Coons,  
 A. L. Dempwolff,  Zhengting Gan,  D. Hait,  P. R. Horn,  L. D. Jacobson,  
 I. Kaliman,  J. Kussmann,  A. W. Lange,  Ka Un Lao,  D. S. Levine,  Jie Liu,  
 S. C. McKenzie,  A. F. Morrison,  K. Nanda,  F. Plasser,  D. R. Rehn,  
 M. L. Vidal,  Zhi-Qiang You,  Ying Zhu,  B. Alam,  B. Albrecht,  
 A. Aldossary,  E. Alguire,  J. H. Andersen,  D. Barton,  K. Begam,  A. Behn,  
 Y. A. Bernard,  E. J. Berquist,  H. Burton,  A. Carreras,  K. Carter-Fenk,  
 R. Chakraborty,  A. D. Chien,  K. D. Closser,  V. Cofer-Shabica,  
 S. Dasgupta,  Jia Deng,  M. de Wergifosse,  M. Diedenhofen,  Hainam Do,  
 S. Ehlert,  Po-Tung Fang,  S. Fatehi,  Qingguo Feng,  J. Gayvert,  
 Qinghui Ge,  G. Gidofalvi,  M. Goldey,  J. Gomes,  C. Gonzalez-Espinoza,  
 S. Gulania,  A. Gunina,  M. W. D. Hanson-Heine,  P. H. P. Harbach,  
 A. W. Hauser,  M. F. Herbst,  M. Hernandez Vera,  M. Hodecker,  
 Z. C. Holden,  S. Houck,  Xunkun Huang,  Kerwin Hui,  B. C. Huynh,  
 M. Ivanov,  Hyunjun Ji,  Hanjie Jiang,  B. Kaduk,  S. Kaehler,  
 K. Khistyaev,  Jaehoon Kim,  P. Klunzinger,  Z. Koczor-Benda,  
 Joong Hoon Koh,  D. Kosenkov,  L. Koulias,  T. Kowalczyk,  C. M. Krauter,  
 K. Kue,  A. Kunitsa,  T. Kus,  A. Landau,  K. V. Lawler,  D. Lefrancois,  
 S. Lehtola,  Rain Li,  Yi-Pei Li,  Jiashu Liang,  M. Liebenthal,  
 Hung-Hsuan Lin,  You-Sheng Lin,  Fenglai Liu,  Kuan-Yu Liu,  
 M. Loipersberger,  A. Luenser,  A. Manjanath,  P. Manohar,  E. Mansoor,  
 S. F. Manzer,  Shan-Ping Mao,  A. V. Marenich,  T. Markovich,  S. Mason,  
 S. A. Maurer,  P. F. McLaughlin,  M. F. S. J. Menger,  J.-M. Mewes,  
 S. A. Mewes,  P. Morgante,  J. W. Mullinax,  T. S. Nguyen-Beck,  
 K. J. Oosterbaan,  G. Paran,  Alexander C. Paul,  Suranjan K. Paul,  
 F. Pavosevic,  Zheng Pei,  S. Prager,  E. I. Proynov,  E. Ramos,  B. Rana,  
 A. E. Rask,  A. Rettig,  R. M. Richard,  F. Rob,  E. Rossomme,  T. Scheele,  
 M. Scheurer,  M. Schneider,  N. Sergueev,  S. M. Sharada,  W. Skomorowski,  
 D. W. Small,  C. J. Stein,  Yu-Chuan Su,  E. J. Sundstrom,  Zhen Tao,  
 J. Thirman,  T. Tsuchimochi,  N. M. Tubman,  S. P. Veccham,  O. Vydrov,  
 J. Wenzel,  J. Witte,  A. Yamada,  Kun Yao,  S. Yeganeh,  S. R. Yost,  
 A. Zech,  Igor Ying Zhang,  Xing Zhang,  Yu Zhang,  D. Zuev,  
 A. Aspuru-Guzik,  A. T. Bell,  N. A. Besley,  K. B. Bravaya,  B. R. Brooks,  
 D. Casanova,  Jeng-Da Chai,  S. Coriani,  C. J. Cramer,  
 A. E. DePrince, III,  R. A. DiStasio Jr.,  A. Dreuw,  B. D. Dunietz,  
 T. R. Furlani,  W. A. Goddard III,  S. Grimme,  S. Hammes-Schiffer,  
 T. Head-Gordon,  W. J. Hehre,  Chao-Ping Hsu,  T.-C. Jagau,  Yousung Jung,  
 A. Klamt,  Jing Kong,  D. S. Lambrecht,  WanZhen Liang,  N. J. Mayhall,  
 C. W. McCurdy,  J. B. Neaton,  C. Ochsenfeld,  J. A. Parkhill,  R. Peverati,  
 V. A. Rassolov,  Yihan Shao,  L. V. Slipchenko,  T. Stauch,  R. P. Steele,  
 J. E. Subotnik,  A. J. W. Thom,  A. Tkatchenko,  D. G. Truhlar,  
 T. Van Voorhis,  T. A. Wesolowski,  K. B. Whaley,  H. L. Woodcock III,  
 P. M. Zimmerman,  S. Faraji,  P. M. W. Gill,  M. Head-Gordon,  
 J. M. Herbert,  A. I. Krylov

 Contributors to earlier versions of Q-Chem not listed above: 
 R. D. Adamson,  B. Austin,  R. Baer,  J. Baker,  G. J. O. Beran,  
 K. Brandhorst,  S. T. Brown,  E. F. C. Byrd,  A. K. Chakraborty,  
 G. K. L. Chan,  Chun-Min Chang,  Yunqing Chen,  C.-L. Cheng,  
 Siu Hung Chien,  D. M. Chipman,  D. L. Crittenden,  H. Dachsel,  
 R. J. Doerksen,  A. D. Dutoi,  R. G. Edgar,  J. Fosso-Tande,  
 L. Fusti-Molnar,  D. Ghosh,  A. Ghysels,  A. Golubeva-Zadorozhnaya,  
 J. Gonthier,  M. S. Gordon,  S. R. Gwaltney,  G. Hawkins,  J. E. Herr,  
 A. Heyden,  S. Hirata,  E. G. Hohenstein,  G. Kedziora,  F. J. Keil,  
 C. Kelley,  Jihan Kim,  R. A. King,  R. Z. Khaliullin,  P. P. Korambath,  
 W. Kurlancheek,  A. Laurent,  A. M. Lee,  M. S. Lee,  S. V. Levchenko,  
 Ching Yeh Lin,  D. Liotard,  E. Livshits,  R. C. Lochan,  I. Lotan,  
 L. A. Martinez-Martinez,  P. E. Maslen,  N. Nair,  D. P. O'Neill,  
 D. Neuhauser,  E. Neuscamman,  C. M. Oana,  R. Olivares-Amaya,  R. Olson,  
 T. M. Perrine,  B. Peters,  P. A. Pieniazek,  A. Prociuk,  Y. M. Rhee,  
 J. Ritchie,  M. A. Rohrdanz,  E. Rosta,  N. J. Russ,  H. F. Schaefer III,  
 M. W. Schmidt,  N. E. Schultz,  S. Sharma,  N. Shenvi,  C. D. Sherrill,  
 A. C. Simmonett,  A. Sodt,  T. Stein,  D. Stuck,  K. S. Thanthiriwatte,  
 V. Vanovschi,  L. Vogt,  Tao Wang,  A. Warshel,  M. A. Watson,  
 C. F. Williams,  Q. Wu,  X. Xu,  Jun Yang,  W. Zhang,  Yan Zhao

 Please cite Q-Chem as follows:
 Y. Shao et al., Mol. Phys. 113, 184-215 (2015)
 DOI: 10.1080/00268976.2014.952696

 Q-Chem 5.4.0 for Intel X86 EM64T Linux

 Parts of Q-Chem use Armadillo 9.800.1 (Horizon Scraper).
 http://arma.sourceforge.net/

 Q-Chem begins on Sun Jul 10 03:23:03 2022  

 Host: 
0

     Scratch files written to ./qchem789208//
 May1621 |scratch|qcdevops|jenkins|workspace|build_RNUM    
 Processing $rem in /cm/shared/apps/spack/cpu/opt/spack/linux-centos8-zen2/gcc-10.2.0/qchem-5.4-akfmr7b3t57bfs6qan3padb2wnb2i7cl/config/preferences:
 Processing $rem in /home/theleonzhang/.qchemrc:
 Symmetry turned off for PCM/SM12/SMD calculation
 Core orbitals will be frozen

 Checking the input file for inconsistencies... 	...done.

--------------------------------------------------------------
User input:
--------------------------------------------------------------
$molecule
0 1
C	0.594240	-3.866725	-0.497696
C	-0.469057	-3.703963	0.393981
C	-0.817136	-2.357056	0.685571
H	-0.997777	-4.561092	0.837848
C	-0.000000	-1.440664	-0.000000
S	1.183137	-2.286957	-0.992782
C	-1.932056	-1.978743	1.620802
H	-2.426166	-2.878678	2.035506
H	-2.711806	-1.376015	1.109943
H	-1.564678	-1.375728	2.477350
C	0.000000	0.000000	0.000000
C	0.431829	0.747884	1.099446
C	1.123799	1.946373	0.776721
H	0.247423	0.428497	2.136088
C	1.234147	2.137457	-0.612546
S	0.471221	0.816130	-1.486809
C	1.667694	2.888380	1.814609
H	1.454874	2.519768	2.836676
H	1.222009	3.901210	1.726239
H	2.767675	3.008788	1.726228
H	1.708773	2.959493	-1.161575
H	0.281143	-4.392713	-1.406441
H	1.434879	-4.392347	-0.031265
H	-0.694122	-1.440937	-0.827402
$end

$rem
JOBTYPE		SP
EXCHANGE	HF
CORRELATION	pRIMP2
BASIS		cc-pvtz
METHOD		rimp2
AUX_BASIS	rimp2-cc-pvtz
SOLVENT_METHOD	PCM
PURECART	11111
SYMMETRY	false
MEM_TOTAL	110000
SCF_CONVERGENCE = 6
THRESH=10
$end



$solvent
dielectric 4.90
$end
--------------------------------------------------------------
 ----------------------------------------------------------------
             Standard Nuclear Orientation (Angstroms)
    I     Atom           X                Y                Z
 ----------------------------------------------------------------
    1      C       0.5942400000    -3.8667250000    -0.4976960000
    2      C      -0.4690570000    -3.7039630000     0.3939810000
    3      C      -0.8171360000    -2.3570560000     0.6855710000
    4      H      -0.9977770000    -4.5610920000     0.8378480000
    5      C       0.0000000000    -1.4406640000     0.0000000000
    6      S       1.1831370000    -2.2869570000    -0.9927820000
    7      C      -1.9320560000    -1.9787430000     1.6208020000
    8      H      -2.4261660000    -2.8786780000     2.0355060000
    9      H      -2.7118060000    -1.3760150000     1.1099430000
   10      H      -1.5646780000    -1.3757280000     2.4773500000
   11      C       0.0000000000     0.0000000000     0.0000000000
   12      C       0.4318290000     0.7478840000     1.0994460000
   13      C       1.1237990000     1.9463730000     0.7767210000
   14      H       0.2474230000     0.4284970000     2.1360880000
   15      C       1.2341470000     2.1374570000    -0.6125460000
   16      S       0.4712210000     0.8161300000    -1.4868090000
   17      C       1.6676940000     2.8883800000     1.8146090000
   18      H       1.4548740000     2.5197680000     2.8366760000
   19      H       1.2220090000     3.9012100000     1.7262390000
   20      H       2.7676750000     3.0087880000     1.7262280000
   21      H       1.7087730000     2.9594930000    -1.1615750000
   22      H       0.2811430000    -4.3927130000    -1.4064410000
   23      H       1.4348790000    -4.3923470000    -0.0312650000
   24      H      -0.6941220000    -1.4409370000    -0.8274020000
 ----------------------------------------------------------------
 Nuclear Repulsion Energy =         880.39636739 hartrees
 There are       52 alpha and       52 beta electrons

 Q-Chem warning in module forms1/BasisType.C, line 2236:

 You are not using the predefined 5D/6D in this basis set.

 Requested basis set is cc-pVTZ
 There are 196 shells and 536 basis functions

 Total QAlloc Memory Limit 110000 MB
 Mega-Array Size       188 MB
 MEM_STATIC part       192 MB
 Discretize the solute cavity surface with Lebedev spheres
	Using 110 Lebedev grid points for each H atom
	Using 194 Lebedev grid points for other atoms
	Atomic van der Waals radii will be scaled by 1.20
 Remove points where switching function is < 1.0e-08
 Keep 1600 surface tesserae and discard 2048 interior tesserae
 Molecular Surface Area = 235.320 Angst**2
 Requested basis set is rimp2-cc-pVTZ
 There are 414 shells and 1414 basis functions
 A cutoff of  1.0D-10 yielded  14027 shell pairs
 There are    101543 function pairs (    130181 Cartesian)
 Smallest overlap matrix eigenvalue = 7.41E-05

 Scale SEOQF with 1.000000e-01/1.000000e-01/1.000000e-01

 Standard Electronic Orientation quadrupole field applied
 Nucleus-field energy     =     0.0000000289 hartrees
 Guess from superposition of atomic densities
 Warning:  Energy on first SCF cycle will be non-variational
 SAD guess density has 104.000000 electrons

 -----------------------------------------------------------------------
  General SCF calculation program by
  Eric Jon Sundstrom, Paul Horn, Yuezhi Mao, Dmitri Zuev, Alec White,
  David Stuck, Shaama M.S., Shane Yost, Joonho Lee, David Small,
  Daniel Levine, Susi Lehtola, Hugh Burton, Evgeny Epifanovsky,
  Bang C. Huynh
 -----------------------------------------------------------------------
 Hartree-Fock
 A restricted SCF calculation will be
 performed using DIIS
 SCF converges when DIIS error is below 1.0e-06
 ---------------------------------------
  Cycle       Energy         DIIS error
 ---------------------------------------
    1   -1186.0474723663      2.39e-02  
    2   -1180.5954588743      1.56e-03  
    3   -1180.7207065423      5.89e-04  
    4   -1180.7346235510      3.19e-04  
    5   -1180.7393100288      6.14e-05  
    6   -1180.7395663618      2.51e-05  
    7   -1180.7396307858      9.76e-06  
    8   -1180.7396465080      4.67e-06  
    9   -1180.7396503016      1.63e-06  
   10   -1180.7396508801      5.47e-07  Convergence criterion met
 ---------------------------------------
 SCF time:   CPU 562.99s  wall 565.00s 

************** Final PCM Free Energy Summary **************
 G_electrostatic  =      -0.00948952 hartree =      -5.95476565 kcal/mol
 G_cavitation     =       0.00000000 hartree =       0.00000000 kcal/mol
 G_dispersion     =       0.00000000 hartree =       0.00000000 kcal/mol
 G_repulsion      =       0.00000000 hartree =       0.00000000 kcal/mol
 --------------------------------------------------
 Non-electrostatic Free Energy =       0.00000000 hartree =       0.00000000 kcal/mol
 Total                         =      -0.00948952 hartree =      -5.95476565 kcal/mol
 --------------------------------------------------
 SCF Energy (H0 + V/2)                       =   -1180.73965088 
 Solute Internal Energy (H0)                 =   -1180.73016136 
 Total Free Energy (H0 + V/2 + non-elec)     =   -1180.73965088 hartree
                                             = -740925.31371250 kcal/mol
***********************************************************

 SCF   energy in the final basis set =    -1180.7396508801
 Total energy in the final basis set =    -1180.7396508801


 --------------------------------------------------------------
  Generalized many-body perturbation theory program
  by Joonho Lee, Fazle Rob, Xintian Feng, Evgeny Epifanovsky

 No regularization used 
 (reg. param. = 0.0000e+00)
  (P|Q)^-1/2 Time:  CPU 1.89 s  wall 1.89 s

 In RI-MP2 calculation: 
 # of frozen core orbitals: 20

 Components of the RIMP2 correlation energy:
        aaaa    correlation energy =        -0.2518879993 a.u.
        abab    correlation energy =        -1.5056096982 a.u.
        bbbb    correlation energy =        -0.2518879993 a.u.
        non-Brillouin singles      =        -0.0000000000 a.u.
        total same-spin energy     =        -0.5037759986 a.u.
        total opposite-spin energy =        -1.5056096982 a.u.

 Total  RIMP2   correlation energy =        -2.0093856968 a.u.
        RIMP2         total energy =     -1182.7490365769 a.u.

 RI-MP2 Energy Time:  CPU 79.56 s  wall 79.77 s
 
 --------------------------------------------------------------
 
                    Orbital Energies (a.u.)
 --------------------------------------------------------------
 
 Alpha MOs
 -- Occupied --
-91.9841 -91.9406 -11.2741 -11.2681 -11.2621 -11.2531 -11.2507 -11.2406
-11.2394 -11.2319 -11.2287 -11.2176  -8.9841  -8.9453  -6.6650  -6.6644
 -6.6639  -6.6266  -6.6256  -6.6243  -1.1989  -1.1534  -1.0578  -1.0284
 -0.9999  -0.9639  -0.9115  -0.9004  -0.8142  -0.7580  -0.7424  -0.7029
 -0.6527  -0.6348  -0.6105  -0.5889  -0.5812  -0.5693  -0.5665  -0.5532
 -0.5432  -0.5319  -0.5131  -0.5064  -0.4892  -0.4755  -0.4651  -0.4466
 -0.3550  -0.3405  -0.3198  -0.2692
 -- Virtual --
  0.0829   0.1298   0.1413   0.1528   0.1602   0.1682   0.1785   0.1844
  0.1899   0.2036   0.2048   0.2182   0.2250   0.2343   0.2371   0.2427
  0.2486   0.2585   0.2784   0.2962   0.3187   0.3368   0.3472   0.3580
  0.3587   0.3725   0.3794   0.3870   0.3971   0.4016   0.4136   0.4242
  0.4373   0.4397   0.4476   0.4625   0.4702   0.4771   0.4835   0.4868
  0.5015   0.5076   0.5149   0.5280   0.5388   0.5422   0.5533   0.5595
  0.5728   0.5791   0.5881   0.5901   0.5948   0.6099   0.6130   0.6192
  0.6225   0.6301   0.6348   0.6372   0.6387   0.6408   0.6493   0.6609
  0.6628   0.6686   0.6892   0.6901   0.7028   0.7080   0.7155   0.7209
  0.7307   0.7457   0.7500   0.7677   0.7899   0.7918   0.8041   0.8165
  0.8273   0.8422   0.8593   0.8631   0.8831   0.8957   0.9041   0.9083
  0.9106   0.9468   0.9484   0.9602   0.9729   0.9895   0.9994   1.0077
  1.0249   1.0280   1.0384   1.0422   1.0484   1.0683   1.0758   1.0833
  1.0895   1.0990   1.1109   1.1247   1.1450   1.1538   1.1694   1.1712
  1.1802   1.1891   1.1911   1.2032   1.2144   1.2253   1.2337   1.2461
  1.2470   1.2620   1.2696   1.2761   1.2790   1.2887   1.2999   1.3155
  1.3232   1.3305   1.3407   1.3521   1.3752   1.3845   1.4049   1.4135
  1.4249   1.4373   1.4439   1.4536   1.4649   1.4794   1.4828   1.4931
  1.5127   1.5151   1.5194   1.5263   1.5341   1.5434   1.5516   1.5559
  1.5674   1.5765   1.5834   1.5883   1.6156   1.6264   1.6311   1.6428
  1.6582   1.6659   1.6737   1.6858   1.6968   1.7150   1.7315   1.7357
  1.7497   1.7568   1.7718   1.7808   1.8064   1.8115   1.8333   1.8579
  1.8763   1.9006   1.9155   1.9373   1.9448   1.9591   1.9891   2.0009
  2.0227   2.0335   2.0526   2.0737   2.1038   2.1068   2.1248   2.1627
  2.1694   2.2036   2.2102   2.2227   2.2338   2.2451   2.2591   2.2819
  2.2910   2.3158   2.3262   2.3741   2.3996   2.4275   2.4528   2.4719
  2.4862   2.5115   2.5338   2.5561   2.5721   2.5798   2.5876   2.6141
  2.6263   2.6304   2.6595   2.6698   2.6775   2.6830   2.7001   2.7342
  2.7445   2.7494   2.7678   2.7713   2.7826   2.7920   2.8153   2.8239
  2.8374   2.8428   2.8657   2.8910   2.8966   2.9070   2.9178   2.9315
  2.9353   2.9574   2.9726   3.0053   3.0108   3.0258   3.0326   3.0374
  3.0603   3.0684   3.0779   3.1078   3.1108   3.1167   3.1245   3.1322
  3.1448   3.1553   3.1590   3.1730   3.1816   3.1894   3.1964   3.2080
  3.2321   3.2453   3.2534   3.2549   3.2698   3.2774   3.2959   3.3066
  3.3212   3.3239   3.3312   3.3414   3.3456   3.3603   3.3625   3.3683
  3.3763   3.3835   3.3966   3.4015   3.4087   3.4143   3.4222   3.4288
  3.4385   3.4528   3.4695   3.4719   3.4789   3.4928   3.5026   3.5121
  3.5174   3.5255   3.5352   3.5383   3.5433   3.5646   3.5707   3.5854
  3.6074   3.6126   3.6216   3.6277   3.6377   3.6471   3.6552   3.6593
  3.6633   3.6772   3.6912   3.7116   3.7183   3.7315   3.7389   3.7419
  3.7499   3.7528   3.7579   3.7740   3.7864   3.7913   3.7950   3.8064
  3.8312   3.8472   3.8607   3.8649   3.8728   3.8809   3.9078   3.9136
  3.9337   3.9426   3.9547   3.9612   3.9836   3.9859   3.9918   4.0185
  4.0253   4.0422   4.0520   4.0562   4.0580   4.0878   4.0932   4.1032
  4.1113   4.1241   4.1495   4.1530   4.1562   4.1658   4.1842   4.1967
  4.2066   4.2201   4.2302   4.2491   4.2580   4.2692   4.2756   4.2850
  4.2943   4.3019   4.3131   4.3285   4.3409   4.3560   4.3666   4.3776
  4.3851   4.3940   4.4012   4.4048   4.4134   4.4217   4.4461   4.4531
  4.4538   4.4672   4.4743   4.4824   4.4940   4.5034   4.5333   4.5571
  4.5692   4.5910   4.5993   4.6122   4.6263   4.6526   4.6588   4.6631
  4.7006   4.7124   4.7264   4.7476   4.7676   4.8129   4.8362   4.8509
  4.8655   4.8787   4.8827   4.9060   4.9123   4.9434   4.9828   4.9917
  5.0183   5.0376   5.0845   5.0932   5.1170   5.1286   5.1631   5.1668
  5.1859   5.1936   5.2362   5.2684   5.2740   5.2995   5.3089   5.3295
  5.3390   5.3647   5.3783   5.3996   5.4114   5.4213   5.4375   5.4456
  5.4836   5.5141   5.5356   5.5365   5.5482   5.5583   5.5721   5.5907
  5.6166   5.6251   5.6287   5.6660   5.6823   5.6956   5.7119   5.7476
  5.7671   5.7846   5.8258   5.9737   6.0049   6.0591   6.1174   6.1505
  6.2148   6.2190   6.2280   6.2414   6.2432   6.2849   6.3044   6.3087
  6.3708   6.4450   9.3661  10.6623  12.2365  12.9150  13.1909  13.9920
 14.0599  14.1988  14.2812  14.5814
 --------------------------------------------------------------
 
          Ground-State Mulliken Net Atomic Charges

     Atom                 Charge (a.u.)
  ----------------------------------------
      1 C                    -0.079347
      2 C                    -0.326523
      3 C                    -0.040206
      4 H                     0.174977
      5 C                     0.076905
      6 S                    -0.169023
      7 C                    -0.275023
      8 H                     0.114244
      9 H                     0.104949
     10 H                     0.103631
     11 C                    -0.106009
     12 C                    -0.202180
     13 C                     0.012400
     14 H                     0.192020
     15 C                    -0.220832
     16 S                     0.005144
     17 C                    -0.271722
     18 H                     0.101674
     19 H                     0.107555
     20 H                     0.107878
     21 H                     0.198685
     22 H                     0.108496
     23 H                     0.112230
     24 H                     0.170075
  ----------------------------------------
  Sum of atomic charges =     0.000000

 -----------------------------------------------------------------
                    Cartesian Multipole Moments
 -----------------------------------------------------------------
    Charge (ESU x 10^10)
                -0.0000
    Dipole Moment (Debye)
         X      -1.2683      Y       0.6484      Z       2.3746
       Tot       2.7691
    Quadrupole Moments (Debye-Ang)
        XX     -89.2529     XY       8.4291     YY     -76.6558
        XZ       0.2401     YZ      -0.4490     ZZ     -85.4209
    Octopole Moments (Debye-Ang^2)
       XXX    -103.9871    XXY      62.2404    XYY     -20.8148
       YYY     143.3381    XXZ       1.2890    XYZ       1.2657
       YYZ      -5.8535    XZZ     -32.8854    YZZ      61.5961
       ZZZ       2.8586
    Hexadecapole Moments (Debye-Ang^3)
      XXXX    -726.5836   XXXY    -192.2430   XXYY    -569.6262
      XYYY    -176.4187   YYYY   -2599.9029   XXXZ      89.7089
      XXYZ     -45.6839   XYYZ       7.9195   YYYZ     -89.5296
      XXZZ    -246.0705   XYZZ     -48.8060   YYZZ    -588.5257
      XZZZ      90.2736   YZZZ     -90.4239   ZZZZ    -774.2549
 -----------------------------------------------------------------
 Total job time:  646.38s(wall), 643.43s(cpu) 
 Sun Jul 10 03:33:50 2022

        *************************************************************
        *                                                           *
        *  Thank you very much for using Q-Chem.  Have a nice day.  *
        *                                                           *
        *************************************************************


remove work dirs ./qchem789208.0 -- ./qchem789208.-1
rm -rf ./qchem789208
You are running Q-Chem version: 5.4.0

#
# job setting
#
local host:  exp-3-21
current dir: /expanse/lustre/scratch/theleonzhang/temp_project/Hydrogenated_Rotation_Test
input file:  Methylthiophene_Phi_30_Theta_230_Methylthiophene_Hydrogenated.qcin
output file: 
nprocs     : 0
nthreads   : 1
#
# qchem installation setting
#
QC:          /cm/shared/apps/spack/cpu/opt/spack/linux-centos8-zen2/gcc-10.2.0/qchem-5.4-akfmr7b3t57bfs6qan3padb2wnb2i7cl
QCAUX:       /cm/shared/apps/spack/cpu/opt/spack/linux-centos8-zen2/gcc-10.2.0/qchem-5.4-akfmr7b3t57bfs6qan3padb2wnb2i7cl/qcaux
QCPROG:      /cm/shared/apps/spack/cpu/opt/spack/linux-centos8-zen2/gcc-10.2.0/qchem-5.4-akfmr7b3t57bfs6qan3padb2wnb2i7cl/exe/qcprog.exe_s
QCPROG_S:    /cm/shared/apps/spack/cpu/opt/spack/linux-centos8-zen2/gcc-10.2.0/qchem-5.4-akfmr7b3t57bfs6qan3padb2wnb2i7cl/exe/qcprog.exe_s
PARALLEL:    -DSERIAL
QCMPI:       mpich
#
# qchem directory setting
#
qcrun:       qchem1279033
QCSCRATCH:   .
QCLOCALSCR:  
QCTMPDIR:    .
QCFILEPREF:  ./qchem1279033
QCSAVEDIR:   
workdirs:    ./qchem1279033
workdir0:    ./qchem1279033
partmpdirs =  
#
# parallel setting
#
QCRSH:           ssh
QCMPI:           mpich
QCMPIRUN:        /cm/shared/apps/spack/cpu/opt/spack/linux-centos8-zen2/gcc-10.2.0/qchem-5.4-akfmr7b3t57bfs6qan3padb2wnb2i7cl/bin/mpi/mpirun_qchem
QCMACHINEFILE:   ./qchem1279033/hostfile

#
# env setting
#
exported envs:   QC QCAUX QCSCRATCH QCRUNNAME QCFILEPREF QCPROG QCPROG_S GUIFILE

Running Job 1 of 1 Methylthiophene_Phi_30_Theta_230_Methylthiophene_Hydrogenated.qcin
qchem Methylthiophene_Phi_30_Theta_230_Methylthiophene_Hydrogenated.qcin_1279033.0 ./qchem1279033/ 0
/cm/shared/apps/spack/cpu/opt/spack/linux-centos8-zen2/gcc-10.2.0/qchem-5.4-akfmr7b3t57bfs6qan3padb2wnb2i7cl/exe/qcprog.exe_s Methylthiophene_Phi_30_Theta_230_Methylthiophene_Hydrogenated.qcin_1279033.0 ./qchem1279033/
                  Welcome to Q-Chem
     A Quantum Leap Into The Future Of Chemistry


 Q-Chem 5.4, Q-Chem, Inc., Pleasanton, CA (2021)

 License issued to: University of California, San Diego (site)

 E. Epifanovsky,  A. T. B. Gilbert,  Xintian Feng,  Joonho Lee,  Yuezhi Mao,  
 N. Mardirossian,  P. Pokhilko,  A. White,  M. Wormit,  M. P. Coons,  
 A. L. Dempwolff,  Zhengting Gan,  D. Hait,  P. R. Horn,  L. D. Jacobson,  
 I. Kaliman,  J. Kussmann,  A. W. Lange,  Ka Un Lao,  D. S. Levine,  Jie Liu,  
 S. C. McKenzie,  A. F. Morrison,  K. Nanda,  F. Plasser,  D. R. Rehn,  
 M. L. Vidal,  Zhi-Qiang You,  Ying Zhu,  B. Alam,  B. Albrecht,  
 A. Aldossary,  E. Alguire,  J. H. Andersen,  D. Barton,  K. Begam,  A. Behn,  
 Y. A. Bernard,  E. J. Berquist,  H. Burton,  A. Carreras,  K. Carter-Fenk,  
 R. Chakraborty,  A. D. Chien,  K. D. Closser,  V. Cofer-Shabica,  
 S. Dasgupta,  Jia Deng,  M. de Wergifosse,  M. Diedenhofen,  Hainam Do,  
 S. Ehlert,  Po-Tung Fang,  S. Fatehi,  Qingguo Feng,  J. Gayvert,  
 Qinghui Ge,  G. Gidofalvi,  M. Goldey,  J. Gomes,  C. Gonzalez-Espinoza,  
 S. Gulania,  A. Gunina,  M. W. D. Hanson-Heine,  P. H. P. Harbach,  
 A. W. Hauser,  M. F. Herbst,  M. Hernandez Vera,  M. Hodecker,  
 Z. C. Holden,  S. Houck,  Xunkun Huang,  Kerwin Hui,  B. C. Huynh,  
 M. Ivanov,  Hyunjun Ji,  Hanjie Jiang,  B. Kaduk,  S. Kaehler,  
 K. Khistyaev,  Jaehoon Kim,  P. Klunzinger,  Z. Koczor-Benda,  
 Joong Hoon Koh,  D. Kosenkov,  L. Koulias,  T. Kowalczyk,  C. M. Krauter,  
 K. Kue,  A. Kunitsa,  T. Kus,  A. Landau,  K. V. Lawler,  D. Lefrancois,  
 S. Lehtola,  Rain Li,  Yi-Pei Li,  Jiashu Liang,  M. Liebenthal,  
 Hung-Hsuan Lin,  You-Sheng Lin,  Fenglai Liu,  Kuan-Yu Liu,  
 M. Loipersberger,  A. Luenser,  A. Manjanath,  P. Manohar,  E. Mansoor,  
 S. F. Manzer,  Shan-Ping Mao,  A. V. Marenich,  T. Markovich,  S. Mason,  
 S. A. Maurer,  P. F. McLaughlin,  M. F. S. J. Menger,  J.-M. Mewes,  
 S. A. Mewes,  P. Morgante,  J. W. Mullinax,  T. S. Nguyen-Beck,  
 K. J. Oosterbaan,  G. Paran,  Alexander C. Paul,  Suranjan K. Paul,  
 F. Pavosevic,  Zheng Pei,  S. Prager,  E. I. Proynov,  E. Ramos,  B. Rana,  
 A. E. Rask,  A. Rettig,  R. M. Richard,  F. Rob,  E. Rossomme,  T. Scheele,  
 M. Scheurer,  M. Schneider,  N. Sergueev,  S. M. Sharada,  W. Skomorowski,  
 D. W. Small,  C. J. Stein,  Yu-Chuan Su,  E. J. Sundstrom,  Zhen Tao,  
 J. Thirman,  T. Tsuchimochi,  N. M. Tubman,  S. P. Veccham,  O. Vydrov,  
 J. Wenzel,  J. Witte,  A. Yamada,  Kun Yao,  S. Yeganeh,  S. R. Yost,  
 A. Zech,  Igor Ying Zhang,  Xing Zhang,  Yu Zhang,  D. Zuev,  
 A. Aspuru-Guzik,  A. T. Bell,  N. A. Besley,  K. B. Bravaya,  B. R. Brooks,  
 D. Casanova,  Jeng-Da Chai,  S. Coriani,  C. J. Cramer,  
 A. E. DePrince, III,  R. A. DiStasio Jr.,  A. Dreuw,  B. D. Dunietz,  
 T. R. Furlani,  W. A. Goddard III,  S. Grimme,  S. Hammes-Schiffer,  
 T. Head-Gordon,  W. J. Hehre,  Chao-Ping Hsu,  T.-C. Jagau,  Yousung Jung,  
 A. Klamt,  Jing Kong,  D. S. Lambrecht,  WanZhen Liang,  N. J. Mayhall,  
 C. W. McCurdy,  J. B. Neaton,  C. Ochsenfeld,  J. A. Parkhill,  R. Peverati,  
 V. A. Rassolov,  Yihan Shao,  L. V. Slipchenko,  T. Stauch,  R. P. Steele,  
 J. E. Subotnik,  A. J. W. Thom,  A. Tkatchenko,  D. G. Truhlar,  
 T. Van Voorhis,  T. A. Wesolowski,  K. B. Whaley,  H. L. Woodcock III,  
 P. M. Zimmerman,  S. Faraji,  P. M. W. Gill,  M. Head-Gordon,  
 J. M. Herbert,  A. I. Krylov

 Contributors to earlier versions of Q-Chem not listed above: 
 R. D. Adamson,  B. Austin,  R. Baer,  J. Baker,  G. J. O. Beran,  
 K. Brandhorst,  S. T. Brown,  E. F. C. Byrd,  A. K. Chakraborty,  
 G. K. L. Chan,  Chun-Min Chang,  Yunqing Chen,  C.-L. Cheng,  
 Siu Hung Chien,  D. M. Chipman,  D. L. Crittenden,  H. Dachsel,  
 R. J. Doerksen,  A. D. Dutoi,  R. G. Edgar,  J. Fosso-Tande,  
 L. Fusti-Molnar,  D. Ghosh,  A. Ghysels,  A. Golubeva-Zadorozhnaya,  
 J. Gonthier,  M. S. Gordon,  S. R. Gwaltney,  G. Hawkins,  J. E. Herr,  
 A. Heyden,  S. Hirata,  E. G. Hohenstein,  G. Kedziora,  F. J. Keil,  
 C. Kelley,  Jihan Kim,  R. A. King,  R. Z. Khaliullin,  P. P. Korambath,  
 W. Kurlancheek,  A. Laurent,  A. M. Lee,  M. S. Lee,  S. V. Levchenko,  
 Ching Yeh Lin,  D. Liotard,  E. Livshits,  R. C. Lochan,  I. Lotan,  
 L. A. Martinez-Martinez,  P. E. Maslen,  N. Nair,  D. P. O'Neill,  
 D. Neuhauser,  E. Neuscamman,  C. M. Oana,  R. Olivares-Amaya,  R. Olson,  
 T. M. Perrine,  B. Peters,  P. A. Pieniazek,  A. Prociuk,  Y. M. Rhee,  
 J. Ritchie,  M. A. Rohrdanz,  E. Rosta,  N. J. Russ,  H. F. Schaefer III,  
 M. W. Schmidt,  N. E. Schultz,  S. Sharma,  N. Shenvi,  C. D. Sherrill,  
 A. C. Simmonett,  A. Sodt,  T. Stein,  D. Stuck,  K. S. Thanthiriwatte,  
 V. Vanovschi,  L. Vogt,  Tao Wang,  A. Warshel,  M. A. Watson,  
 C. F. Williams,  Q. Wu,  X. Xu,  Jun Yang,  W. Zhang,  Yan Zhao

 Please cite Q-Chem as follows:
 Y. Shao et al., Mol. Phys. 113, 184-215 (2015)
 DOI: 10.1080/00268976.2014.952696

 Q-Chem 5.4.0 for Intel X86 EM64T Linux

 Parts of Q-Chem use Armadillo 9.800.1 (Horizon Scraper).
 http://arma.sourceforge.net/

 Q-Chem begins on Sun Jul 10 04:06:12 2022  

 Host: 
0

     Scratch files written to ./qchem1279033//
 May1621 |scratch|qcdevops|jenkins|workspace|build_RNUM    
 Processing $rem in /cm/shared/apps/spack/cpu/opt/spack/linux-centos8-zen2/gcc-10.2.0/qchem-5.4-akfmr7b3t57bfs6qan3padb2wnb2i7cl/config/preferences:
 Processing $rem in /home/theleonzhang/.qchemrc:
 Symmetry turned off for PCM/SM12/SMD calculation
 Core orbitals will be frozen

 Checking the input file for inconsistencies... 	...done.

--------------------------------------------------------------
User input:
--------------------------------------------------------------
$molecule
0 1
C	0.594240	-3.866725	-0.497696
C	-0.469057	-3.703963	0.393981
C	-0.817136	-2.357056	0.685571
H	-0.997777	-4.561092	0.837848
C	-0.000000	-1.440664	-0.000000
S	1.183137	-2.286957	-0.992782
C	-1.932056	-1.978743	1.620802
H	-2.426166	-2.878678	2.035506
H	-2.711806	-1.376015	1.109943
H	-1.564678	-1.375728	2.477350
C	0.000000	0.000000	0.000000
C	0.431829	0.747884	1.099446
C	1.123799	1.946373	0.776721
H	0.247423	0.428497	2.136088
C	1.234147	2.137457	-0.612546
S	0.471221	0.816130	-1.486809
C	1.667694	2.888380	1.814609
H	1.454874	2.519768	2.836676
H	1.222009	3.901210	1.726239
H	2.767675	3.008788	1.726228
H	1.708773	2.959493	-1.161575
H	0.281143	-4.392713	-1.406441
H	1.434879	-4.392347	-0.031265
H	-0.694122	-1.440937	-0.827402
$end

$rem
JOBTYPE		SP
EXCHANGE	HF
CORRELATION	pRIMP2
BASIS		cc-pvtz
METHOD		rimp2
AUX_BASIS	rimp2-cc-pvtz
SOLVENT_METHOD	PCM
PURECART	11111
SYMMETRY	false
MEM_TOTAL	110000
SCF_CONVERGENCE = 6
THRESH=10
$end



$solvent
dielectric 4.90
$end
--------------------------------------------------------------
 ----------------------------------------------------------------
             Standard Nuclear Orientation (Angstroms)
    I     Atom           X                Y                Z
 ----------------------------------------------------------------
    1      C       0.5942400000    -3.8667250000    -0.4976960000
    2      C      -0.4690570000    -3.7039630000     0.3939810000
    3      C      -0.8171360000    -2.3570560000     0.6855710000
    4      H      -0.9977770000    -4.5610920000     0.8378480000
    5      C       0.0000000000    -1.4406640000     0.0000000000
    6      S       1.1831370000    -2.2869570000    -0.9927820000
    7      C      -1.9320560000    -1.9787430000     1.6208020000
    8      H      -2.4261660000    -2.8786780000     2.0355060000
    9      H      -2.7118060000    -1.3760150000     1.1099430000
   10      H      -1.5646780000    -1.3757280000     2.4773500000
   11      C       0.0000000000     0.0000000000     0.0000000000
   12      C       0.4318290000     0.7478840000     1.0994460000
   13      C       1.1237990000     1.9463730000     0.7767210000
   14      H       0.2474230000     0.4284970000     2.1360880000
   15      C       1.2341470000     2.1374570000    -0.6125460000
   16      S       0.4712210000     0.8161300000    -1.4868090000
   17      C       1.6676940000     2.8883800000     1.8146090000
   18      H       1.4548740000     2.5197680000     2.8366760000
   19      H       1.2220090000     3.9012100000     1.7262390000
   20      H       2.7676750000     3.0087880000     1.7262280000
   21      H       1.7087730000     2.9594930000    -1.1615750000
   22      H       0.2811430000    -4.3927130000    -1.4064410000
   23      H       1.4348790000    -4.3923470000    -0.0312650000
   24      H      -0.6941220000    -1.4409370000    -0.8274020000
 ----------------------------------------------------------------
 Nuclear Repulsion Energy =         880.39636739 hartrees
 There are       52 alpha and       52 beta electrons

 Q-Chem warning in module forms1/BasisType.C, line 2236:

 You are not using the predefined 5D/6D in this basis set.

 Requested basis set is cc-pVTZ
 There are 196 shells and 536 basis functions

 Total QAlloc Memory Limit 110000 MB
 Mega-Array Size       188 MB
 MEM_STATIC part       192 MB
 Discretize the solute cavity surface with Lebedev spheres
	Using 110 Lebedev grid points for each H atom
	Using 194 Lebedev grid points for other atoms
	Atomic van der Waals radii will be scaled by 1.20
 Remove points where switching function is < 1.0e-08
 Keep 1600 surface tesserae and discard 2048 interior tesserae
 Molecular Surface Area = 235.320 Angst**2
 Requested basis set is rimp2-cc-pVTZ
 There are 414 shells and 1414 basis functions
 A cutoff of  1.0D-10 yielded  14027 shell pairs
 There are    101543 function pairs (    130181 Cartesian)
 Smallest overlap matrix eigenvalue = 7.41E-05

 Scale SEOQF with 1.000000e-01/1.000000e-01/1.000000e-01

 Standard Electronic Orientation quadrupole field applied
 Nucleus-field energy     =     0.0000000289 hartrees
 Guess from superposition of atomic densities
 Warning:  Energy on first SCF cycle will be non-variational
 SAD guess density has 104.000000 electrons

 -----------------------------------------------------------------------
  General SCF calculation program by
  Eric Jon Sundstrom, Paul Horn, Yuezhi Mao, Dmitri Zuev, Alec White,
  David Stuck, Shaama M.S., Shane Yost, Joonho Lee, David Small,
  Daniel Levine, Susi Lehtola, Hugh Burton, Evgeny Epifanovsky,
  Bang C. Huynh
 -----------------------------------------------------------------------
 Hartree-Fock
 A restricted SCF calculation will be
 performed using DIIS
 SCF converges when DIIS error is below 1.0e-06
 ---------------------------------------
  Cycle       Energy         DIIS error
 ---------------------------------------
    1   -1186.0474723663      2.39e-02  
    2   -1180.5954588743      1.56e-03  
    3   -1180.7207065423      5.89e-04  
    4   -1180.7346235510      3.19e-04  
    5   -1180.7393100288      6.14e-05  
    6   -1180.7395663618      2.51e-05  
    7   -1180.7396307858      9.76e-06  
    8   -1180.7396465080      4.67e-06  
    9   -1180.7396503016      1.63e-06  
   10   -1180.7396508801      5.47e-07  Convergence criterion met
 ---------------------------------------
 SCF time:   CPU 562.98s  wall 565.00s 

************** Final PCM Free Energy Summary **************
 G_electrostatic  =      -0.00948952 hartree =      -5.95476565 kcal/mol
 G_cavitation     =       0.00000000 hartree =       0.00000000 kcal/mol
 G_dispersion     =       0.00000000 hartree =       0.00000000 kcal/mol
 G_repulsion      =       0.00000000 hartree =       0.00000000 kcal/mol
 --------------------------------------------------
 Non-electrostatic Free Energy =       0.00000000 hartree =       0.00000000 kcal/mol
 Total                         =      -0.00948952 hartree =      -5.95476565 kcal/mol
 --------------------------------------------------
 SCF Energy (H0 + V/2)                       =   -1180.73965088 
 Solute Internal Energy (H0)                 =   -1180.73016136 
 Total Free Energy (H0 + V/2 + non-elec)     =   -1180.73965088 hartree
                                             = -740925.31371250 kcal/mol
***********************************************************

 SCF   energy in the final basis set =    -1180.7396508801
 Total energy in the final basis set =    -1180.7396508801


 --------------------------------------------------------------
  Generalized many-body perturbation theory program
  by Joonho Lee, Fazle Rob, Xintian Feng, Evgeny Epifanovsky

 No regularization used 
 (reg. param. = 0.0000e+00)
  (P|Q)^-1/2 Time:  CPU 1.90 s  wall 1.90 s

 In RI-MP2 calculation: 
 # of frozen core orbitals: 20

 Components of the RIMP2 correlation energy:
        aaaa    correlation energy =        -0.2518879993 a.u.
        abab    correlation energy =        -1.5056096982 a.u.
        bbbb    correlation energy =        -0.2518879993 a.u.
        non-Brillouin singles      =        -0.0000000000 a.u.
        total same-spin energy     =        -0.5037759986 a.u.
        total opposite-spin energy =        -1.5056096982 a.u.

 Total  RIMP2   correlation energy =        -2.0093856968 a.u.
        RIMP2         total energy =     -1182.7490365769 a.u.

 RI-MP2 Energy Time:  CPU 79.46 s  wall 79.68 s
 
 --------------------------------------------------------------
 
                    Orbital Energies (a.u.)
 --------------------------------------------------------------
 
 Alpha MOs
 -- Occupied --
-91.9841 -91.9406 -11.2741 -11.2681 -11.2621 -11.2531 -11.2507 -11.2406
-11.2394 -11.2319 -11.2287 -11.2176  -8.9841  -8.9453  -6.6650  -6.6644
 -6.6639  -6.6266  -6.6256  -6.6243  -1.1989  -1.1534  -1.0578  -1.0284
 -0.9999  -0.9639  -0.9115  -0.9004  -0.8142  -0.7580  -0.7424  -0.7029
 -0.6527  -0.6348  -0.6105  -0.5889  -0.5812  -0.5693  -0.5665  -0.5532
 -0.5432  -0.5319  -0.5131  -0.5064  -0.4892  -0.4755  -0.4651  -0.4466
 -0.3550  -0.3405  -0.3198  -0.2692
 -- Virtual --
  0.0829   0.1298   0.1413   0.1528   0.1602   0.1682   0.1785   0.1844
  0.1899   0.2036   0.2048   0.2182   0.2250   0.2343   0.2371   0.2427
  0.2486   0.2585   0.2784   0.2962   0.3187   0.3368   0.3472   0.3580
  0.3587   0.3725   0.3794   0.3870   0.3971   0.4016   0.4136   0.4242
  0.4373   0.4397   0.4476   0.4625   0.4702   0.4771   0.4835   0.4868
  0.5015   0.5076   0.5149   0.5280   0.5388   0.5422   0.5533   0.5595
  0.5728   0.5791   0.5881   0.5901   0.5948   0.6099   0.6130   0.6192
  0.6225   0.6301   0.6348   0.6372   0.6387   0.6408   0.6493   0.6609
  0.6628   0.6686   0.6892   0.6901   0.7028   0.7080   0.7155   0.7209
  0.7307   0.7457   0.7500   0.7677   0.7899   0.7918   0.8041   0.8165
  0.8273   0.8422   0.8593   0.8631   0.8831   0.8957   0.9041   0.9083
  0.9106   0.9468   0.9484   0.9602   0.9729   0.9895   0.9994   1.0077
  1.0249   1.0280   1.0384   1.0422   1.0484   1.0683   1.0758   1.0833
  1.0895   1.0990   1.1109   1.1247   1.1450   1.1538   1.1694   1.1712
  1.1802   1.1891   1.1911   1.2032   1.2144   1.2253   1.2337   1.2461
  1.2470   1.2620   1.2696   1.2761   1.2790   1.2887   1.2999   1.3155
  1.3232   1.3305   1.3407   1.3521   1.3752   1.3845   1.4049   1.4135
  1.4249   1.4373   1.4439   1.4536   1.4649   1.4794   1.4828   1.4931
  1.5127   1.5151   1.5194   1.5263   1.5341   1.5434   1.5516   1.5559
  1.5674   1.5765   1.5834   1.5883   1.6156   1.6264   1.6311   1.6428
  1.6582   1.6659   1.6737   1.6858   1.6968   1.7150   1.7315   1.7357
  1.7497   1.7568   1.7718   1.7808   1.8064   1.8115   1.8333   1.8579
  1.8763   1.9006   1.9155   1.9373   1.9448   1.9591   1.9891   2.0009
  2.0227   2.0335   2.0526   2.0737   2.1038   2.1068   2.1248   2.1627
  2.1694   2.2036   2.2102   2.2227   2.2338   2.2451   2.2591   2.2819
  2.2910   2.3158   2.3262   2.3741   2.3996   2.4275   2.4528   2.4719
  2.4862   2.5115   2.5338   2.5561   2.5721   2.5798   2.5876   2.6141
  2.6263   2.6304   2.6595   2.6698   2.6775   2.6830   2.7001   2.7342
  2.7445   2.7494   2.7678   2.7713   2.7826   2.7920   2.8153   2.8239
  2.8374   2.8428   2.8657   2.8910   2.8966   2.9070   2.9178   2.9315
  2.9353   2.9574   2.9726   3.0053   3.0108   3.0258   3.0326   3.0374
  3.0603   3.0684   3.0779   3.1078   3.1108   3.1167   3.1245   3.1322
  3.1448   3.1553   3.1590   3.1730   3.1816   3.1894   3.1964   3.2080
  3.2321   3.2453   3.2534   3.2549   3.2698   3.2774   3.2959   3.3066
  3.3212   3.3239   3.3312   3.3414   3.3456   3.3603   3.3625   3.3683
  3.3763   3.3835   3.3966   3.4015   3.4087   3.4143   3.4222   3.4288
  3.4385   3.4528   3.4695   3.4719   3.4789   3.4928   3.5026   3.5121
  3.5174   3.5255   3.5352   3.5383   3.5433   3.5646   3.5707   3.5854
  3.6074   3.6126   3.6216   3.6277   3.6377   3.6471   3.6552   3.6593
  3.6633   3.6772   3.6912   3.7116   3.7183   3.7315   3.7389   3.7419
  3.7499   3.7528   3.7579   3.7740   3.7864   3.7913   3.7950   3.8064
  3.8312   3.8472   3.8607   3.8649   3.8728   3.8809   3.9078   3.9136
  3.9337   3.9426   3.9547   3.9612   3.9836   3.9859   3.9918   4.0185
  4.0253   4.0422   4.0520   4.0562   4.0580   4.0878   4.0932   4.1032
  4.1113   4.1241   4.1495   4.1530   4.1562   4.1658   4.1842   4.1967
  4.2066   4.2201   4.2302   4.2491   4.2580   4.2692   4.2756   4.2850
  4.2943   4.3019   4.3131   4.3285   4.3409   4.3560   4.3666   4.3776
  4.3851   4.3940   4.4012   4.4048   4.4134   4.4217   4.4461   4.4531
  4.4538   4.4672   4.4743   4.4824   4.4940   4.5034   4.5333   4.5571
  4.5692   4.5910   4.5993   4.6122   4.6263   4.6526   4.6588   4.6631
  4.7006   4.7124   4.7264   4.7476   4.7676   4.8129   4.8362   4.8509
  4.8655   4.8787   4.8827   4.9060   4.9123   4.9434   4.9828   4.9917
  5.0183   5.0376   5.0845   5.0932   5.1170   5.1286   5.1631   5.1668
  5.1859   5.1936   5.2362   5.2684   5.2740   5.2995   5.3089   5.3295
  5.3390   5.3647   5.3783   5.3996   5.4114   5.4213   5.4375   5.4456
  5.4836   5.5141   5.5356   5.5365   5.5482   5.5583   5.5721   5.5907
  5.6166   5.6251   5.6287   5.6660   5.6823   5.6956   5.7119   5.7476
  5.7671   5.7846   5.8258   5.9737   6.0049   6.0591   6.1174   6.1505
  6.2148   6.2190   6.2280   6.2414   6.2432   6.2849   6.3044   6.3087
  6.3708   6.4450   9.3661  10.6623  12.2365  12.9150  13.1909  13.9920
 14.0599  14.1988  14.2812  14.5814
 --------------------------------------------------------------
 
          Ground-State Mulliken Net Atomic Charges

     Atom                 Charge (a.u.)
  ----------------------------------------
      1 C                    -0.079347
      2 C                    -0.326523
      3 C                    -0.040206
      4 H                     0.174977
      5 C                     0.076905
      6 S                    -0.169023
      7 C                    -0.275023
      8 H                     0.114244
      9 H                     0.104949
     10 H                     0.103631
     11 C                    -0.106009
     12 C                    -0.202180
     13 C                     0.012400
     14 H                     0.192020
     15 C                    -0.220832
     16 S                     0.005144
     17 C                    -0.271722
     18 H                     0.101674
     19 H                     0.107555
     20 H                     0.107878
     21 H                     0.198685
     22 H                     0.108496
     23 H                     0.112230
     24 H                     0.170075
  ----------------------------------------
  Sum of atomic charges =     0.000000

 -----------------------------------------------------------------
                    Cartesian Multipole Moments
 -----------------------------------------------------------------
    Charge (ESU x 10^10)
                -0.0000
    Dipole Moment (Debye)
         X      -1.2683      Y       0.6484      Z       2.3746
       Tot       2.7691
    Quadrupole Moments (Debye-Ang)
        XX     -89.2529     XY       8.4291     YY     -76.6558
        XZ       0.2401     YZ      -0.4490     ZZ     -85.4209
    Octopole Moments (Debye-Ang^2)
       XXX    -103.9871    XXY      62.2404    XYY     -20.8148
       YYY     143.3381    XXZ       1.2890    XYZ       1.2657
       YYZ      -5.8535    XZZ     -32.8854    YZZ      61.5961
       ZZZ       2.8586
    Hexadecapole Moments (Debye-Ang^3)
      XXXX    -726.5836   XXXY    -192.2430   XXYY    -569.6262
      XYYY    -176.4187   YYYY   -2599.9029   XXXZ      89.7089
      XXYZ     -45.6839   XYYZ       7.9195   YYYZ     -89.5296
      XXZZ    -246.0705   XYZZ     -48.8060   YYZZ    -588.5257
      XZZZ      90.2736   YZZZ     -90.4239   ZZZZ    -774.2549
 -----------------------------------------------------------------
 Total job time:  646.60s(wall), 643.32s(cpu) 
 Sun Jul 10 04:16:59 2022

        *************************************************************
        *                                                           *
        *  Thank you very much for using Q-Chem.  Have a nice day.  *
        *                                                           *
        *************************************************************


remove work dirs ./qchem1279033.0 -- ./qchem1279033.-1
rm -rf ./qchem1279033
