You are running Q-Chem version: 5.4.0

#
# job setting
#
local host:  exp-1-44
current dir: /expanse/lustre/scratch/theleonzhang/temp_project/Hydrogenated_Rotation_Test
input file:  Methylthiophene_Phi_10_Theta_200_Methylthiophene_Hydrogenated.qcin
output file: 
nprocs     : 0
nthreads   : 1
#
# qchem installation setting
#
QC:          /cm/shared/apps/spack/cpu/opt/spack/linux-centos8-zen2/gcc-10.2.0/qchem-5.4-akfmr7b3t57bfs6qan3padb2wnb2i7cl
QCAUX:       /cm/shared/apps/spack/cpu/opt/spack/linux-centos8-zen2/gcc-10.2.0/qchem-5.4-akfmr7b3t57bfs6qan3padb2wnb2i7cl/qcaux
QCPROG:      /cm/shared/apps/spack/cpu/opt/spack/linux-centos8-zen2/gcc-10.2.0/qchem-5.4-akfmr7b3t57bfs6qan3padb2wnb2i7cl/exe/qcprog.exe_s
QCPROG_S:    /cm/shared/apps/spack/cpu/opt/spack/linux-centos8-zen2/gcc-10.2.0/qchem-5.4-akfmr7b3t57bfs6qan3padb2wnb2i7cl/exe/qcprog.exe_s
PARALLEL:    -DSERIAL
QCMPI:       mpich
#
# qchem directory setting
#
qcrun:       qchem1698789
QCSCRATCH:   .
QCLOCALSCR:  
QCTMPDIR:    .
QCFILEPREF:  ./qchem1698789
QCSAVEDIR:   
workdirs:    ./qchem1698789
workdir0:    ./qchem1698789
partmpdirs =  
#
# parallel setting
#
QCRSH:           ssh
QCMPI:           mpich
QCMPIRUN:        /cm/shared/apps/spack/cpu/opt/spack/linux-centos8-zen2/gcc-10.2.0/qchem-5.4-akfmr7b3t57bfs6qan3padb2wnb2i7cl/bin/mpi/mpirun_qchem
QCMACHINEFILE:   ./qchem1698789/hostfile

#
# env setting
#
exported envs:   QC QCAUX QCSCRATCH QCRUNNAME QCFILEPREF QCPROG QCPROG_S GUIFILE

Running Job 1 of 1 Methylthiophene_Phi_10_Theta_200_Methylthiophene_Hydrogenated.qcin
qchem Methylthiophene_Phi_10_Theta_200_Methylthiophene_Hydrogenated.qcin_1698789.0 ./qchem1698789/ 0
/cm/shared/apps/spack/cpu/opt/spack/linux-centos8-zen2/gcc-10.2.0/qchem-5.4-akfmr7b3t57bfs6qan3padb2wnb2i7cl/exe/qcprog.exe_s Methylthiophene_Phi_10_Theta_200_Methylthiophene_Hydrogenated.qcin_1698789.0 ./qchem1698789/
                  Welcome to Q-Chem
     A Quantum Leap Into The Future Of Chemistry


 Q-Chem 5.4, Q-Chem, Inc., Pleasanton, CA (2021)

 License issued to: University of California, San Diego (site)

 E. Epifanovsky,  A. T. B. Gilbert,  Xintian Feng,  Joonho Lee,  Yuezhi Mao,  
 N. Mardirossian,  P. Pokhilko,  A. White,  M. Wormit,  M. P. Coons,  
 A. L. Dempwolff,  Zhengting Gan,  D. Hait,  P. R. Horn,  L. D. Jacobson,  
 I. Kaliman,  J. Kussmann,  A. W. Lange,  Ka Un Lao,  D. S. Levine,  Jie Liu,  
 S. C. McKenzie,  A. F. Morrison,  K. Nanda,  F. Plasser,  D. R. Rehn,  
 M. L. Vidal,  Zhi-Qiang You,  Ying Zhu,  B. Alam,  B. Albrecht,  
 A. Aldossary,  E. Alguire,  J. H. Andersen,  D. Barton,  K. Begam,  A. Behn,  
 Y. A. Bernard,  E. J. Berquist,  H. Burton,  A. Carreras,  K. Carter-Fenk,  
 R. Chakraborty,  A. D. Chien,  K. D. Closser,  V. Cofer-Shabica,  
 S. Dasgupta,  Jia Deng,  M. de Wergifosse,  M. Diedenhofen,  Hainam Do,  
 S. Ehlert,  Po-Tung Fang,  S. Fatehi,  Qingguo Feng,  J. Gayvert,  
 Qinghui Ge,  G. Gidofalvi,  M. Goldey,  J. Gomes,  C. Gonzalez-Espinoza,  
 S. Gulania,  A. Gunina,  M. W. D. Hanson-Heine,  P. H. P. Harbach,  
 A. W. Hauser,  M. F. Herbst,  M. Hernandez Vera,  M. Hodecker,  
 Z. C. Holden,  S. Houck,  Xunkun Huang,  Kerwin Hui,  B. C. Huynh,  
 M. Ivanov,  Hyunjun Ji,  Hanjie Jiang,  B. Kaduk,  S. Kaehler,  
 K. Khistyaev,  Jaehoon Kim,  P. Klunzinger,  Z. Koczor-Benda,  
 Joong Hoon Koh,  D. Kosenkov,  L. Koulias,  T. Kowalczyk,  C. M. Krauter,  
 K. Kue,  A. Kunitsa,  T. Kus,  A. Landau,  K. V. Lawler,  D. Lefrancois,  
 S. Lehtola,  Rain Li,  Yi-Pei Li,  Jiashu Liang,  M. Liebenthal,  
 Hung-Hsuan Lin,  You-Sheng Lin,  Fenglai Liu,  Kuan-Yu Liu,  
 M. Loipersberger,  A. Luenser,  A. Manjanath,  P. Manohar,  E. Mansoor,  
 S. F. Manzer,  Shan-Ping Mao,  A. V. Marenich,  T. Markovich,  S. Mason,  
 S. A. Maurer,  P. F. McLaughlin,  M. F. S. J. Menger,  J.-M. Mewes,  
 S. A. Mewes,  P. Morgante,  J. W. Mullinax,  T. S. Nguyen-Beck,  
 K. J. Oosterbaan,  G. Paran,  Alexander C. Paul,  Suranjan K. Paul,  
 F. Pavosevic,  Zheng Pei,  S. Prager,  E. I. Proynov,  E. Ramos,  B. Rana,  
 A. E. Rask,  A. Rettig,  R. M. Richard,  F. Rob,  E. Rossomme,  T. Scheele,  
 M. Scheurer,  M. Schneider,  N. Sergueev,  S. M. Sharada,  W. Skomorowski,  
 D. W. Small,  C. J. Stein,  Yu-Chuan Su,  E. J. Sundstrom,  Zhen Tao,  
 J. Thirman,  T. Tsuchimochi,  N. M. Tubman,  S. P. Veccham,  O. Vydrov,  
 J. Wenzel,  J. Witte,  A. Yamada,  Kun Yao,  S. Yeganeh,  S. R. Yost,  
 A. Zech,  Igor Ying Zhang,  Xing Zhang,  Yu Zhang,  D. Zuev,  
 A. Aspuru-Guzik,  A. T. Bell,  N. A. Besley,  K. B. Bravaya,  B. R. Brooks,  
 D. Casanova,  Jeng-Da Chai,  S. Coriani,  C. J. Cramer,  
 A. E. DePrince, III,  R. A. DiStasio Jr.,  A. Dreuw,  B. D. Dunietz,  
 T. R. Furlani,  W. A. Goddard III,  S. Grimme,  S. Hammes-Schiffer,  
 T. Head-Gordon,  W. J. Hehre,  Chao-Ping Hsu,  T.-C. Jagau,  Yousung Jung,  
 A. Klamt,  Jing Kong,  D. S. Lambrecht,  WanZhen Liang,  N. J. Mayhall,  
 C. W. McCurdy,  J. B. Neaton,  C. Ochsenfeld,  J. A. Parkhill,  R. Peverati,  
 V. A. Rassolov,  Yihan Shao,  L. V. Slipchenko,  T. Stauch,  R. P. Steele,  
 J. E. Subotnik,  A. J. W. Thom,  A. Tkatchenko,  D. G. Truhlar,  
 T. Van Voorhis,  T. A. Wesolowski,  K. B. Whaley,  H. L. Woodcock III,  
 P. M. Zimmerman,  S. Faraji,  P. M. W. Gill,  M. Head-Gordon,  
 J. M. Herbert,  A. I. Krylov

 Contributors to earlier versions of Q-Chem not listed above: 
 R. D. Adamson,  B. Austin,  R. Baer,  J. Baker,  G. J. O. Beran,  
 K. Brandhorst,  S. T. Brown,  E. F. C. Byrd,  A. K. Chakraborty,  
 G. K. L. Chan,  Chun-Min Chang,  Yunqing Chen,  C.-L. Cheng,  
 Siu Hung Chien,  D. M. Chipman,  D. L. Crittenden,  H. Dachsel,  
 R. J. Doerksen,  A. D. Dutoi,  R. G. Edgar,  J. Fosso-Tande,  
 L. Fusti-Molnar,  D. Ghosh,  A. Ghysels,  A. Golubeva-Zadorozhnaya,  
 J. Gonthier,  M. S. Gordon,  S. R. Gwaltney,  G. Hawkins,  J. E. Herr,  
 A. Heyden,  S. Hirata,  E. G. Hohenstein,  G. Kedziora,  F. J. Keil,  
 C. Kelley,  Jihan Kim,  R. A. King,  R. Z. Khaliullin,  P. P. Korambath,  
 W. Kurlancheek,  A. Laurent,  A. M. Lee,  M. S. Lee,  S. V. Levchenko,  
 Ching Yeh Lin,  D. Liotard,  E. Livshits,  R. C. Lochan,  I. Lotan,  
 L. A. Martinez-Martinez,  P. E. Maslen,  N. Nair,  D. P. O'Neill,  
 D. Neuhauser,  E. Neuscamman,  C. M. Oana,  R. Olivares-Amaya,  R. Olson,  
 T. M. Perrine,  B. Peters,  P. A. Pieniazek,  A. Prociuk,  Y. M. Rhee,  
 J. Ritchie,  M. A. Rohrdanz,  E. Rosta,  N. J. Russ,  H. F. Schaefer III,  
 M. W. Schmidt,  N. E. Schultz,  S. Sharma,  N. Shenvi,  C. D. Sherrill,  
 A. C. Simmonett,  A. Sodt,  T. Stein,  D. Stuck,  K. S. Thanthiriwatte,  
 V. Vanovschi,  L. Vogt,  Tao Wang,  A. Warshel,  M. A. Watson,  
 C. F. Williams,  Q. Wu,  X. Xu,  Jun Yang,  W. Zhang,  Yan Zhao

 Please cite Q-Chem as follows:
 Y. Shao et al., Mol. Phys. 113, 184-215 (2015)
 DOI: 10.1080/00268976.2014.952696

 Q-Chem 5.4.0 for Intel X86 EM64T Linux

 Parts of Q-Chem use Armadillo 9.800.1 (Horizon Scraper).
 http://arma.sourceforge.net/

 Q-Chem begins on Sun Jul 10 02:38:50 2022  

 Host: 
0

     Scratch files written to ./qchem1698789//
 May1621 |scratch|qcdevops|jenkins|workspace|build_RNUM    
 Processing $rem in /cm/shared/apps/spack/cpu/opt/spack/linux-centos8-zen2/gcc-10.2.0/qchem-5.4-akfmr7b3t57bfs6qan3padb2wnb2i7cl/config/preferences:
 Processing $rem in /home/theleonzhang/.qchemrc:
 Symmetry turned off for PCM/SM12/SMD calculation
 Core orbitals will be frozen

 Checking the input file for inconsistencies... 	...done.

--------------------------------------------------------------
User input:
--------------------------------------------------------------
$molecule
0 1
C	0.265779	-3.866725	-0.728138
C	-0.209225	-3.703963	0.575726
C	-0.364875	-2.357056	1.002290
H	-0.445176	-4.561092	1.224486
C	-0.000000	-1.440664	-0.000000
S	0.528236	-2.286957	-1.451343
C	-0.862808	-1.978743	2.369683
H	-1.083368	-2.878678	2.975883
H	-1.793522	-1.376015	2.317142
H	-0.116375	-1.375728	2.927787
C	0.000000	0.000000	0.000000
C	0.149995	0.850475	1.099446
C	0.390327	2.213354	0.776721
H	0.085947	0.487279	2.136088
C	0.428665	2.430655	-0.612546
S	0.163670	0.928078	-1.486809
C	0.579235	3.284574	1.814609
H	0.505323	2.865404	2.836676
H	-0.185980	4.083890	1.726239
H	1.571698	3.773937	1.726228
H	0.593515	3.365448	-1.161575
H	-0.459743	-4.392713	-1.358585
H	1.227009	-4.392347	-0.744515
H	-1.014829	-1.440937	-0.369490
$end

$rem
JOBTYPE		SP
EXCHANGE	HF
CORRELATION	pRIMP2
BASIS		cc-pvtz
METHOD		rimp2
AUX_BASIS	rimp2-cc-pvtz
SOLVENT_METHOD	PCM
PURECART	11111
SYMMETRY	false
MEM_TOTAL	110000
SCF_CONVERGENCE = 6
THRESH=10
$end



$solvent
dielectric 4.90
$end
--------------------------------------------------------------
 ----------------------------------------------------------------
             Standard Nuclear Orientation (Angstroms)
    I     Atom           X                Y                Z
 ----------------------------------------------------------------
    1      C       0.2657790000    -3.8667250000    -0.7281380000
    2      C      -0.2092250000    -3.7039630000     0.5757260000
    3      C      -0.3648750000    -2.3570560000     1.0022900000
    4      H      -0.4451760000    -4.5610920000     1.2244860000
    5      C       0.0000000000    -1.4406640000     0.0000000000
    6      S       0.5282360000    -2.2869570000    -1.4513430000
    7      C      -0.8628080000    -1.9787430000     2.3696830000
    8      H      -1.0833680000    -2.8786780000     2.9758830000
    9      H      -1.7935220000    -1.3760150000     2.3171420000
   10      H      -0.1163750000    -1.3757280000     2.9277870000
   11      C       0.0000000000     0.0000000000     0.0000000000
   12      C       0.1499950000     0.8504750000     1.0994460000
   13      C       0.3903270000     2.2133540000     0.7767210000
   14      H       0.0859470000     0.4872790000     2.1360880000
   15      C       0.4286650000     2.4306550000    -0.6125460000
   16      S       0.1636700000     0.9280780000    -1.4868090000
   17      C       0.5792350000     3.2845740000     1.8146090000
   18      H       0.5053230000     2.8654040000     2.8366760000
   19      H      -0.1859800000     4.0838900000     1.7262390000
   20      H       1.5716980000     3.7739370000     1.7262280000
   21      H       0.5935150000     3.3654480000    -1.1615750000
   22      H      -0.4597430000    -4.3927130000    -1.3585850000
   23      H       1.2270090000    -4.3923470000    -0.7445150000
   24      H      -1.0148290000    -1.4409370000    -0.3694900000
 ----------------------------------------------------------------
 Nuclear Repulsion Energy =         876.11452219 hartrees
 There are       52 alpha and       52 beta electrons

 Q-Chem warning in module forms1/BasisType.C, line 2236:

 You are not using the predefined 5D/6D in this basis set.

 Requested basis set is cc-pVTZ
 There are 196 shells and 536 basis functions

 Total QAlloc Memory Limit 110000 MB
 Mega-Array Size       188 MB
 MEM_STATIC part       192 MB
 Discretize the solute cavity surface with Lebedev spheres
	Using 110 Lebedev grid points for each H atom
	Using 194 Lebedev grid points for other atoms
	Atomic van der Waals radii will be scaled by 1.20
 Remove points where switching function is < 1.0e-08
 Keep 1591 surface tesserae and discard 2057 interior tesserae
 Molecular Surface Area = 231.887 Angst**2
 Requested basis set is rimp2-cc-pVTZ
 There are 414 shells and 1414 basis functions
 A cutoff of  1.0D-10 yielded  14013 shell pairs
 There are    101467 function pairs (    130010 Cartesian)
 Smallest overlap matrix eigenvalue = 5.80E-05

 Scale SEOQF with 1.000000e-01/1.000000e-01/1.000000e-01

 Standard Electronic Orientation quadrupole field applied
 Nucleus-field energy     =     0.0000000228 hartrees
 Guess from superposition of atomic densities
 Warning:  Energy on first SCF cycle will be non-variational
 SAD guess density has 104.000000 electrons

 -----------------------------------------------------------------------
  General SCF calculation program by
  Eric Jon Sundstrom, Paul Horn, Yuezhi Mao, Dmitri Zuev, Alec White,
  David Stuck, Shaama M.S., Shane Yost, Joonho Lee, David Small,
  Daniel Levine, Susi Lehtola, Hugh Burton, Evgeny Epifanovsky,
  Bang C. Huynh
 -----------------------------------------------------------------------
 Hartree-Fock
 A restricted SCF calculation will be
 performed using DIIS
 SCF converges when DIIS error is below 1.0e-06
 ---------------------------------------
  Cycle       Energy         DIIS error
 ---------------------------------------
    1   -1186.0497102275      2.39e-02  
    2   -1180.6060664718      1.59e-03  
    3   -1180.7326940823      6.55e-04  
    4   -1180.7487969080      3.45e-04  
    5   -1180.7543602106      5.98e-05  
    6   -1180.7546149732      2.50e-05  
    7   -1180.7546765657      9.01e-06  
    8   -1180.7546901607      4.37e-06  
    9   -1180.7546931679      1.45e-06  
   10   -1180.7546936107      5.12e-07  Convergence criterion met
 ---------------------------------------
 SCF time:   CPU 576.85s  wall 580.00s 

************** Final PCM Free Energy Summary **************
 G_electrostatic  =      -0.00957247 hartree =      -6.00681819 kcal/mol
 G_cavitation     =       0.00000000 hartree =       0.00000000 kcal/mol
 G_dispersion     =       0.00000000 hartree =       0.00000000 kcal/mol
 G_repulsion      =       0.00000000 hartree =       0.00000000 kcal/mol
 --------------------------------------------------
 Non-electrostatic Free Energy =       0.00000000 hartree =       0.00000000 kcal/mol
 Total                         =      -0.00957247 hartree =      -6.00681819 kcal/mol
 --------------------------------------------------
 SCF Energy (H0 + V/2)                       =   -1180.75469361 
 Solute Internal Energy (H0)                 =   -1180.74512114 
 Total Free Energy (H0 + V/2 + non-elec)     =   -1180.75469361 hartree
                                             = -740934.75316843 kcal/mol
***********************************************************

 SCF   energy in the final basis set =    -1180.7546936107
 Total energy in the final basis set =    -1180.7546936107


 --------------------------------------------------------------
  Generalized many-body perturbation theory program
  by Joonho Lee, Fazle Rob, Xintian Feng, Evgeny Epifanovsky

 No regularization used 
 (reg. param. = 0.0000e+00)
  (P|Q)^-1/2 Time:  CPU 1.90 s  wall 1.91 s

 In RI-MP2 calculation: 
 # of frozen core orbitals: 20

 Components of the RIMP2 correlation energy:
        aaaa    correlation energy =        -0.2514088899 a.u.
        abab    correlation energy =        -1.5030517336 a.u.
        bbbb    correlation energy =        -0.2514088899 a.u.
        non-Brillouin singles      =        -0.0000000000 a.u.
        total same-spin energy     =        -0.5028177798 a.u.
        total opposite-spin energy =        -1.5030517336 a.u.

 Total  RIMP2   correlation energy =        -2.0058695134 a.u.
        RIMP2         total energy =     -1182.7605631241 a.u.

 RI-MP2 Energy Time:  CPU 80.27 s  wall 80.56 s
 
 --------------------------------------------------------------
 
                    Orbital Energies (a.u.)
 --------------------------------------------------------------
 
 Alpha MOs
 -- Occupied --
-91.9839 -91.9461 -11.2881 -11.2662 -11.2604 -11.2556 -11.2499 -11.2441
-11.2341 -11.2303 -11.2280 -11.2232  -8.9836  -8.9507  -6.6646  -6.6641
 -6.6634  -6.6321  -6.6311  -6.6298  -1.2020  -1.1526  -1.0602  -1.0319
 -1.0008  -0.9625  -0.9158  -0.8996  -0.8181  -0.7628  -0.7331  -0.7044
 -0.6559  -0.6456  -0.6101  -0.5938  -0.5838  -0.5684  -0.5645  -0.5516
 -0.5464  -0.5349  -0.5215  -0.5025  -0.4875  -0.4810  -0.4691  -0.4446
 -0.3597  -0.3434  -0.3242  -0.2649
 -- Virtual --
  0.1019   0.1325   0.1400   0.1473   0.1573   0.1702   0.1787   0.1861
  0.1893   0.2026   0.2085   0.2176   0.2206   0.2305   0.2379   0.2414
  0.2572   0.2779   0.2802   0.3049   0.3149   0.3245   0.3531   0.3647
  0.3660   0.3811   0.3829   0.3932   0.4018   0.4085   0.4152   0.4195
  0.4368   0.4531   0.4665   0.4704   0.4764   0.4820   0.4867   0.4941
  0.4976   0.5138   0.5236   0.5319   0.5374   0.5469   0.5545   0.5652
  0.5681   0.5843   0.5857   0.5945   0.6009   0.6043   0.6125   0.6216
  0.6236   0.6307   0.6321   0.6332   0.6391   0.6502   0.6533   0.6594
  0.6702   0.6775   0.6808   0.6931   0.7018   0.7155   0.7221   0.7249
  0.7424   0.7490   0.7648   0.7720   0.7828   0.7954   0.8006   0.8294
  0.8346   0.8467   0.8555   0.8736   0.8878   0.8940   0.9004   0.9159
  0.9353   0.9446   0.9490   0.9605   0.9702   0.9904   1.0036   1.0090
  1.0264   1.0311   1.0423   1.0444   1.0491   1.0671   1.0746   1.0767
  1.0875   1.0934   1.1057   1.1343   1.1419   1.1512   1.1665   1.1738
  1.1756   1.1904   1.2019   1.2058   1.2108   1.2208   1.2341   1.2425
  1.2469   1.2577   1.2635   1.2763   1.2812   1.2866   1.2986   1.3090
  1.3227   1.3270   1.3459   1.3663   1.3706   1.3806   1.4092   1.4162
  1.4292   1.4335   1.4384   1.4583   1.4775   1.4815   1.4874   1.4973
  1.5082   1.5176   1.5258   1.5344   1.5388   1.5418   1.5496   1.5582
  1.5659   1.5907   1.5963   1.6007   1.6217   1.6260   1.6353   1.6452
  1.6600   1.6683   1.6746   1.6963   1.7003   1.7214   1.7274   1.7360
  1.7523   1.7569   1.7805   1.7964   1.8188   1.8350   1.8485   1.8578
  1.8938   1.8949   1.9087   1.9274   1.9515   1.9646   1.9856   2.0043
  2.0176   2.0412   2.0581   2.0672   2.0876   2.1161   2.1330   2.1607
  2.1899   2.1994   2.2071   2.2187   2.2313   2.2561   2.2727   2.2793
  2.2916   2.3089   2.3219   2.3885   2.4225   2.4497   2.4628   2.4685
  2.5002   2.5150   2.5259   2.5428   2.5637   2.5760   2.5912   2.5995
  2.6328   2.6533   2.6568   2.6750   2.6808   2.6997   2.7164   2.7343
  2.7474   2.7596   2.7681   2.7810   2.7892   2.7950   2.8045   2.8165
  2.8307   2.8471   2.8522   2.8645   2.8906   2.8976   2.9148   2.9351
  2.9387   2.9599   2.9760   2.9876   3.0026   3.0266   3.0360   3.0492
  3.0647   3.0743   3.0864   3.1049   3.1104   3.1150   3.1276   3.1351
  3.1455   3.1531   3.1625   3.1697   3.1802   3.1867   3.2017   3.2202
  3.2290   3.2410   3.2468   3.2520   3.2793   3.2830   3.2981   3.3114
  3.3191   3.3297   3.3329   3.3406   3.3548   3.3588   3.3636   3.3679
  3.3742   3.3802   3.3898   3.3985   3.4064   3.4137   3.4249   3.4349
  3.4386   3.4441   3.4594   3.4693   3.4767   3.4809   3.4954   3.5065
  3.5105   3.5239   3.5330   3.5434   3.5474   3.5595   3.5684   3.5885
  3.5955   3.6028   3.6076   3.6163   3.6305   3.6317   3.6490   3.6632
  3.6696   3.6770   3.6911   3.6956   3.7095   3.7251   3.7331   3.7410
  3.7487   3.7614   3.7647   3.7744   3.7873   3.7907   3.7967   3.8160
  3.8240   3.8459   3.8574   3.8687   3.8751   3.8804   3.8948   3.9165
  3.9259   3.9411   3.9583   3.9702   3.9837   3.9870   4.0157   4.0271
  4.0318   4.0454   4.0544   4.0602   4.0666   4.0759   4.0950   4.1015
  4.1256   4.1376   4.1489   4.1571   4.1644   4.1727   4.1859   4.2056
  4.2149   4.2192   4.2262   4.2437   4.2464   4.2672   4.2696   4.2927
  4.3010   4.3160   4.3213   4.3298   4.3480   4.3577   4.3651   4.3731
  4.3823   4.3877   4.4016   4.4115   4.4197   4.4380   4.4494   4.4582
  4.4664   4.4694   4.4810   4.4927   4.5027   4.5097   4.5355   4.5865
  4.5953   4.6048   4.6146   4.6222   4.6405   4.6489   4.6549   4.6874
  4.7046   4.7366   4.7744   4.7764   4.7888   4.8013   4.8259   4.8459
  4.8636   4.8701   4.8854   4.9165   4.9417   4.9544   4.9952   5.0064
  5.0318   5.0573   5.0940   5.1087   5.1170   5.1255   5.1644   5.1963
  5.2074   5.2379   5.2476   5.2655   5.2928   5.2983   5.3112   5.3256
  5.3525   5.3708   5.3785   5.4037   5.4108   5.4172   5.4358   5.4428
  5.4770   5.5204   5.5287   5.5376   5.5526   5.5679   5.5756   5.5984
  5.6159   5.6244   5.6277   5.6600   5.6950   5.7040   5.7094   5.7323
  5.7705   5.8115   5.8384   5.9849   6.0351   6.0894   6.1335   6.1738
  6.2081   6.2280   6.2388   6.2577   6.2703   6.2934   6.3210   6.4110
  6.4359   6.5696   9.5416  11.0178  12.0491  12.9648  13.1974  13.9710
 14.0972  14.2066  14.3771  14.9718
 --------------------------------------------------------------
 
          Ground-State Mulliken Net Atomic Charges

     Atom                 Charge (a.u.)
  ----------------------------------------
      1 C                    -0.074335
      2 C                    -0.320426
      3 C                    -0.034203
      4 H                     0.178673
      5 C                     0.127626
      6 S                    -0.176059
      7 C                    -0.299551
      8 H                     0.120691
      9 H                     0.113422
     10 H                     0.104849
     11 C                    -0.081923
     12 C                    -0.253519
     13 C                     0.026764
     14 H                     0.191688
     15 C                    -0.267924
     16 S                    -0.000894
     17 C                    -0.273532
     18 H                     0.100542
     19 H                     0.108353
     20 H                     0.108766
     21 H                     0.197379
     22 H                     0.111185
     23 H                     0.114877
     24 H                     0.177549
  ----------------------------------------
  Sum of atomic charges =     0.000000

 -----------------------------------------------------------------
                    Cartesian Multipole Moments
 -----------------------------------------------------------------
    Charge (ESU x 10^10)
                -0.0000
    Dipole Moment (Debye)
         X      -1.3868      Y      -0.3338      Z       3.3147
       Tot       3.6086
    Quadrupole Moments (Debye-Ang)
        XX     -91.6460     XY       4.2480     YY     -73.0357
        XZ       0.2256     YZ      -1.6628     ZZ     -85.5835
    Octopole Moments (Debye-Ang^2)
       XXX     -36.0056    XXY      45.9415    XYY      -7.1257
       YYY     116.1248    XXZ      -1.7343    XYZ       1.0731
       YYZ      -5.2613    XZZ     -13.5752    YZZ      50.0965
       ZZZ       6.9011
    Hexadecapole Moments (Debye-Ang^3)
      XXXX    -237.2638   XXXY     -88.7357   XXYY    -559.2179
      XYYY     -64.2452   YYYY   -2738.7107   XXXZ      79.5764
      XXYZ     -32.8258   XYYZ      12.8029   YYYZ    -102.6184
      XXZZ    -221.1635   XYZZ     -11.4343   YYZZ    -645.4139
      XZZZ      69.7909   YZZZ    -124.5047   ZZZZ   -1033.8087
 -----------------------------------------------------------------
 Total job time:  665.35s(wall), 658.02s(cpu) 
 Sun Jul 10 02:49:55 2022

        *************************************************************
        *                                                           *
        *  Thank you very much for using Q-Chem.  Have a nice day.  *
        *                                                           *
        *************************************************************


remove work dirs ./qchem1698789.0 -- ./qchem1698789.-1
rm -rf ./qchem1698789
You are running Q-Chem version: 5.4.0

#
# job setting
#
local host:  exp-1-04
current dir: /expanse/lustre/scratch/theleonzhang/temp_project/Hydrogenated_Rotation_Test
input file:  Methylthiophene_Phi_10_Theta_200_Methylthiophene_Hydrogenated.qcin
output file: 
nprocs     : 0
nthreads   : 1
#
# qchem installation setting
#
QC:          /cm/shared/apps/spack/cpu/opt/spack/linux-centos8-zen2/gcc-10.2.0/qchem-5.4-akfmr7b3t57bfs6qan3padb2wnb2i7cl
QCAUX:       /cm/shared/apps/spack/cpu/opt/spack/linux-centos8-zen2/gcc-10.2.0/qchem-5.4-akfmr7b3t57bfs6qan3padb2wnb2i7cl/qcaux
QCPROG:      /cm/shared/apps/spack/cpu/opt/spack/linux-centos8-zen2/gcc-10.2.0/qchem-5.4-akfmr7b3t57bfs6qan3padb2wnb2i7cl/exe/qcprog.exe_s
QCPROG_S:    /cm/shared/apps/spack/cpu/opt/spack/linux-centos8-zen2/gcc-10.2.0/qchem-5.4-akfmr7b3t57bfs6qan3padb2wnb2i7cl/exe/qcprog.exe_s
PARALLEL:    -DSERIAL
QCMPI:       mpich
#
# qchem directory setting
#
qcrun:       qchem1236580
QCSCRATCH:   .
QCLOCALSCR:  
QCTMPDIR:    .
QCFILEPREF:  ./qchem1236580
QCSAVEDIR:   
workdirs:    ./qchem1236580
workdir0:    ./qchem1236580
partmpdirs =  
#
# parallel setting
#
QCRSH:           ssh
QCMPI:           mpich
QCMPIRUN:        /cm/shared/apps/spack/cpu/opt/spack/linux-centos8-zen2/gcc-10.2.0/qchem-5.4-akfmr7b3t57bfs6qan3padb2wnb2i7cl/bin/mpi/mpirun_qchem
QCMACHINEFILE:   ./qchem1236580/hostfile

#
# env setting
#
exported envs:   QC QCAUX QCSCRATCH QCRUNNAME QCFILEPREF QCPROG QCPROG_S GUIFILE

Running Job 1 of 1 Methylthiophene_Phi_10_Theta_200_Methylthiophene_Hydrogenated.qcin
qchem Methylthiophene_Phi_10_Theta_200_Methylthiophene_Hydrogenated.qcin_1236580.0 ./qchem1236580/ 0
/cm/shared/apps/spack/cpu/opt/spack/linux-centos8-zen2/gcc-10.2.0/qchem-5.4-akfmr7b3t57bfs6qan3padb2wnb2i7cl/exe/qcprog.exe_s Methylthiophene_Phi_10_Theta_200_Methylthiophene_Hydrogenated.qcin_1236580.0 ./qchem1236580/
                  Welcome to Q-Chem
     A Quantum Leap Into The Future Of Chemistry


 Q-Chem 5.4, Q-Chem, Inc., Pleasanton, CA (2021)

 License issued to: University of California, San Diego (site)

 E. Epifanovsky,  A. T. B. Gilbert,  Xintian Feng,  Joonho Lee,  Yuezhi Mao,  
 N. Mardirossian,  P. Pokhilko,  A. White,  M. Wormit,  M. P. Coons,  
 A. L. Dempwolff,  Zhengting Gan,  D. Hait,  P. R. Horn,  L. D. Jacobson,  
 I. Kaliman,  J. Kussmann,  A. W. Lange,  Ka Un Lao,  D. S. Levine,  Jie Liu,  
 S. C. McKenzie,  A. F. Morrison,  K. Nanda,  F. Plasser,  D. R. Rehn,  
 M. L. Vidal,  Zhi-Qiang You,  Ying Zhu,  B. Alam,  B. Albrecht,  
 A. Aldossary,  E. Alguire,  J. H. Andersen,  D. Barton,  K. Begam,  A. Behn,  
 Y. A. Bernard,  E. J. Berquist,  H. Burton,  A. Carreras,  K. Carter-Fenk,  
 R. Chakraborty,  A. D. Chien,  K. D. Closser,  V. Cofer-Shabica,  
 S. Dasgupta,  Jia Deng,  M. de Wergifosse,  M. Diedenhofen,  Hainam Do,  
 S. Ehlert,  Po-Tung Fang,  S. Fatehi,  Qingguo Feng,  J. Gayvert,  
 Qinghui Ge,  G. Gidofalvi,  M. Goldey,  J. Gomes,  C. Gonzalez-Espinoza,  
 S. Gulania,  A. Gunina,  M. W. D. Hanson-Heine,  P. H. P. Harbach,  
 A. W. Hauser,  M. F. Herbst,  M. Hernandez Vera,  M. Hodecker,  
 Z. C. Holden,  S. Houck,  Xunkun Huang,  Kerwin Hui,  B. C. Huynh,  
 M. Ivanov,  Hyunjun Ji,  Hanjie Jiang,  B. Kaduk,  S. Kaehler,  
 K. Khistyaev,  Jaehoon Kim,  P. Klunzinger,  Z. Koczor-Benda,  
 Joong Hoon Koh,  D. Kosenkov,  L. Koulias,  T. Kowalczyk,  C. M. Krauter,  
 K. Kue,  A. Kunitsa,  T. Kus,  A. Landau,  K. V. Lawler,  D. Lefrancois,  
 S. Lehtola,  Rain Li,  Yi-Pei Li,  Jiashu Liang,  M. Liebenthal,  
 Hung-Hsuan Lin,  You-Sheng Lin,  Fenglai Liu,  Kuan-Yu Liu,  
 M. Loipersberger,  A. Luenser,  A. Manjanath,  P. Manohar,  E. Mansoor,  
 S. F. Manzer,  Shan-Ping Mao,  A. V. Marenich,  T. Markovich,  S. Mason,  
 S. A. Maurer,  P. F. McLaughlin,  M. F. S. J. Menger,  J.-M. Mewes,  
 S. A. Mewes,  P. Morgante,  J. W. Mullinax,  T. S. Nguyen-Beck,  
 K. J. Oosterbaan,  G. Paran,  Alexander C. Paul,  Suranjan K. Paul,  
 F. Pavosevic,  Zheng Pei,  S. Prager,  E. I. Proynov,  E. Ramos,  B. Rana,  
 A. E. Rask,  A. Rettig,  R. M. Richard,  F. Rob,  E. Rossomme,  T. Scheele,  
 M. Scheurer,  M. Schneider,  N. Sergueev,  S. M. Sharada,  W. Skomorowski,  
 D. W. Small,  C. J. Stein,  Yu-Chuan Su,  E. J. Sundstrom,  Zhen Tao,  
 J. Thirman,  T. Tsuchimochi,  N. M. Tubman,  S. P. Veccham,  O. Vydrov,  
 J. Wenzel,  J. Witte,  A. Yamada,  Kun Yao,  S. Yeganeh,  S. R. Yost,  
 A. Zech,  Igor Ying Zhang,  Xing Zhang,  Yu Zhang,  D. Zuev,  
 A. Aspuru-Guzik,  A. T. Bell,  N. A. Besley,  K. B. Bravaya,  B. R. Brooks,  
 D. Casanova,  Jeng-Da Chai,  S. Coriani,  C. J. Cramer,  
 A. E. DePrince, III,  R. A. DiStasio Jr.,  A. Dreuw,  B. D. Dunietz,  
 T. R. Furlani,  W. A. Goddard III,  S. Grimme,  S. Hammes-Schiffer,  
 T. Head-Gordon,  W. J. Hehre,  Chao-Ping Hsu,  T.-C. Jagau,  Yousung Jung,  
 A. Klamt,  Jing Kong,  D. S. Lambrecht,  WanZhen Liang,  N. J. Mayhall,  
 C. W. McCurdy,  J. B. Neaton,  C. Ochsenfeld,  J. A. Parkhill,  R. Peverati,  
 V. A. Rassolov,  Yihan Shao,  L. V. Slipchenko,  T. Stauch,  R. P. Steele,  
 J. E. Subotnik,  A. J. W. Thom,  A. Tkatchenko,  D. G. Truhlar,  
 T. Van Voorhis,  T. A. Wesolowski,  K. B. Whaley,  H. L. Woodcock III,  
 P. M. Zimmerman,  S. Faraji,  P. M. W. Gill,  M. Head-Gordon,  
 J. M. Herbert,  A. I. Krylov

 Contributors to earlier versions of Q-Chem not listed above: 
 R. D. Adamson,  B. Austin,  R. Baer,  J. Baker,  G. J. O. Beran,  
 K. Brandhorst,  S. T. Brown,  E. F. C. Byrd,  A. K. Chakraborty,  
 G. K. L. Chan,  Chun-Min Chang,  Yunqing Chen,  C.-L. Cheng,  
 Siu Hung Chien,  D. M. Chipman,  D. L. Crittenden,  H. Dachsel,  
 R. J. Doerksen,  A. D. Dutoi,  R. G. Edgar,  J. Fosso-Tande,  
 L. Fusti-Molnar,  D. Ghosh,  A. Ghysels,  A. Golubeva-Zadorozhnaya,  
 J. Gonthier,  M. S. Gordon,  S. R. Gwaltney,  G. Hawkins,  J. E. Herr,  
 A. Heyden,  S. Hirata,  E. G. Hohenstein,  G. Kedziora,  F. J. Keil,  
 C. Kelley,  Jihan Kim,  R. A. King,  R. Z. Khaliullin,  P. P. Korambath,  
 W. Kurlancheek,  A. Laurent,  A. M. Lee,  M. S. Lee,  S. V. Levchenko,  
 Ching Yeh Lin,  D. Liotard,  E. Livshits,  R. C. Lochan,  I. Lotan,  
 L. A. Martinez-Martinez,  P. E. Maslen,  N. Nair,  D. P. O'Neill,  
 D. Neuhauser,  E. Neuscamman,  C. M. Oana,  R. Olivares-Amaya,  R. Olson,  
 T. M. Perrine,  B. Peters,  P. A. Pieniazek,  A. Prociuk,  Y. M. Rhee,  
 J. Ritchie,  M. A. Rohrdanz,  E. Rosta,  N. J. Russ,  H. F. Schaefer III,  
 M. W. Schmidt,  N. E. Schultz,  S. Sharma,  N. Shenvi,  C. D. Sherrill,  
 A. C. Simmonett,  A. Sodt,  T. Stein,  D. Stuck,  K. S. Thanthiriwatte,  
 V. Vanovschi,  L. Vogt,  Tao Wang,  A. Warshel,  M. A. Watson,  
 C. F. Williams,  Q. Wu,  X. Xu,  Jun Yang,  W. Zhang,  Yan Zhao

 Please cite Q-Chem as follows:
 Y. Shao et al., Mol. Phys. 113, 184-215 (2015)
 DOI: 10.1080/00268976.2014.952696

 Q-Chem 5.4.0 for Intel X86 EM64T Linux

 Parts of Q-Chem use Armadillo 9.800.1 (Horizon Scraper).
 http://arma.sourceforge.net/

 Q-Chem begins on Sun Jul 10 03:13:46 2022  

 Host: 
0

     Scratch files written to ./qchem1236580//
 May1621 |scratch|qcdevops|jenkins|workspace|build_RNUM    
 Processing $rem in /cm/shared/apps/spack/cpu/opt/spack/linux-centos8-zen2/gcc-10.2.0/qchem-5.4-akfmr7b3t57bfs6qan3padb2wnb2i7cl/config/preferences:
 Processing $rem in /home/theleonzhang/.qchemrc:
 Symmetry turned off for PCM/SM12/SMD calculation
 Core orbitals will be frozen

 Checking the input file for inconsistencies... 	...done.

--------------------------------------------------------------
User input:
--------------------------------------------------------------
$molecule
0 1
C	0.265779	-3.866725	-0.728138
C	-0.209225	-3.703963	0.575726
C	-0.364875	-2.357056	1.002290
H	-0.445176	-4.561092	1.224486
C	-0.000000	-1.440664	-0.000000
S	0.528236	-2.286957	-1.451343
C	-0.862808	-1.978743	2.369683
H	-1.083368	-2.878678	2.975883
H	-1.793522	-1.376015	2.317142
H	-0.116375	-1.375728	2.927787
C	0.000000	0.000000	0.000000
C	0.149995	0.850475	1.099446
C	0.390327	2.213354	0.776721
H	0.085947	0.487279	2.136088
C	0.428665	2.430655	-0.612546
S	0.163670	0.928078	-1.486809
C	0.579235	3.284574	1.814609
H	0.505323	2.865404	2.836676
H	-0.185980	4.083890	1.726239
H	1.571698	3.773937	1.726228
H	0.593515	3.365448	-1.161575
H	-0.459743	-4.392713	-1.358585
H	1.227009	-4.392347	-0.744515
H	-1.014829	-1.440937	-0.369490
$end

$rem
JOBTYPE		SP
EXCHANGE	HF
CORRELATION	pRIMP2
BASIS		cc-pvtz
METHOD		rimp2
AUX_BASIS	rimp2-cc-pvtz
SOLVENT_METHOD	PCM
PURECART	11111
SYMMETRY	false
MEM_TOTAL	110000
SCF_CONVERGENCE = 6
THRESH=10
$end



$solvent
dielectric 4.90
$end
--------------------------------------------------------------
 ----------------------------------------------------------------
             Standard Nuclear Orientation (Angstroms)
    I     Atom           X                Y                Z
 ----------------------------------------------------------------
    1      C       0.2657790000    -3.8667250000    -0.7281380000
    2      C      -0.2092250000    -3.7039630000     0.5757260000
    3      C      -0.3648750000    -2.3570560000     1.0022900000
    4      H      -0.4451760000    -4.5610920000     1.2244860000
    5      C       0.0000000000    -1.4406640000     0.0000000000
    6      S       0.5282360000    -2.2869570000    -1.4513430000
    7      C      -0.8628080000    -1.9787430000     2.3696830000
    8      H      -1.0833680000    -2.8786780000     2.9758830000
    9      H      -1.7935220000    -1.3760150000     2.3171420000
   10      H      -0.1163750000    -1.3757280000     2.9277870000
   11      C       0.0000000000     0.0000000000     0.0000000000
   12      C       0.1499950000     0.8504750000     1.0994460000
   13      C       0.3903270000     2.2133540000     0.7767210000
   14      H       0.0859470000     0.4872790000     2.1360880000
   15      C       0.4286650000     2.4306550000    -0.6125460000
   16      S       0.1636700000     0.9280780000    -1.4868090000
   17      C       0.5792350000     3.2845740000     1.8146090000
   18      H       0.5053230000     2.8654040000     2.8366760000
   19      H      -0.1859800000     4.0838900000     1.7262390000
   20      H       1.5716980000     3.7739370000     1.7262280000
   21      H       0.5935150000     3.3654480000    -1.1615750000
   22      H      -0.4597430000    -4.3927130000    -1.3585850000
   23      H       1.2270090000    -4.3923470000    -0.7445150000
   24      H      -1.0148290000    -1.4409370000    -0.3694900000
 ----------------------------------------------------------------
 Nuclear Repulsion Energy =         876.11452219 hartrees
 There are       52 alpha and       52 beta electrons

 Q-Chem warning in module forms1/BasisType.C, line 2236:

 You are not using the predefined 5D/6D in this basis set.

 Requested basis set is cc-pVTZ
 There are 196 shells and 536 basis functions

 Total QAlloc Memory Limit 110000 MB
 Mega-Array Size       188 MB
 MEM_STATIC part       192 MB
 Discretize the solute cavity surface with Lebedev spheres
	Using 110 Lebedev grid points for each H atom
	Using 194 Lebedev grid points for other atoms
	Atomic van der Waals radii will be scaled by 1.20
 Remove points where switching function is < 1.0e-08
 Keep 1591 surface tesserae and discard 2057 interior tesserae
 Molecular Surface Area = 231.887 Angst**2
 Requested basis set is rimp2-cc-pVTZ
 There are 414 shells and 1414 basis functions
 A cutoff of  1.0D-10 yielded  14013 shell pairs
 There are    101467 function pairs (    130010 Cartesian)
 Smallest overlap matrix eigenvalue = 5.80E-05

 Scale SEOQF with 1.000000e-01/1.000000e-01/1.000000e-01

 Standard Electronic Orientation quadrupole field applied
 Nucleus-field energy     =     0.0000000228 hartrees
 Guess from superposition of atomic densities
 Warning:  Energy on first SCF cycle will be non-variational
 SAD guess density has 104.000000 electrons

 -----------------------------------------------------------------------
  General SCF calculation program by
  Eric Jon Sundstrom, Paul Horn, Yuezhi Mao, Dmitri Zuev, Alec White,
  David Stuck, Shaama M.S., Shane Yost, Joonho Lee, David Small,
  Daniel Levine, Susi Lehtola, Hugh Burton, Evgeny Epifanovsky,
  Bang C. Huynh
 -----------------------------------------------------------------------
 Hartree-Fock
 A restricted SCF calculation will be
 performed using DIIS
 SCF converges when DIIS error is below 1.0e-06
 ---------------------------------------
  Cycle       Energy         DIIS error
 ---------------------------------------
    1   -1186.0497102275      2.39e-02  
    2   -1180.6060664718      1.59e-03  
    3   -1180.7326940823      6.55e-04  
    4   -1180.7487969080      3.45e-04  
    5   -1180.7543602106      5.98e-05  
    6   -1180.7546149732      2.50e-05  
    7   -1180.7546765657      9.01e-06  
    8   -1180.7546901607      4.37e-06  
    9   -1180.7546931679      1.45e-06  
   10   -1180.7546936107      5.12e-07  Convergence criterion met
 ---------------------------------------
 SCF time:   CPU 574.34s  wall 578.00s 

************** Final PCM Free Energy Summary **************
 G_electrostatic  =      -0.00957247 hartree =      -6.00681819 kcal/mol
 G_cavitation     =       0.00000000 hartree =       0.00000000 kcal/mol
 G_dispersion     =       0.00000000 hartree =       0.00000000 kcal/mol
 G_repulsion      =       0.00000000 hartree =       0.00000000 kcal/mol
 --------------------------------------------------
 Non-electrostatic Free Energy =       0.00000000 hartree =       0.00000000 kcal/mol
 Total                         =      -0.00957247 hartree =      -6.00681819 kcal/mol
 --------------------------------------------------
 SCF Energy (H0 + V/2)                       =   -1180.75469361 
 Solute Internal Energy (H0)                 =   -1180.74512114 
 Total Free Energy (H0 + V/2 + non-elec)     =   -1180.75469361 hartree
                                             = -740934.75316843 kcal/mol
***********************************************************

 SCF   energy in the final basis set =    -1180.7546936107
 Total energy in the final basis set =    -1180.7546936107


 --------------------------------------------------------------
  Generalized many-body perturbation theory program
  by Joonho Lee, Fazle Rob, Xintian Feng, Evgeny Epifanovsky

 No regularization used 
 (reg. param. = 0.0000e+00)
  (P|Q)^-1/2 Time:  CPU 1.91 s  wall 1.91 s

 In RI-MP2 calculation: 
 # of frozen core orbitals: 20

 Components of the RIMP2 correlation energy:
        aaaa    correlation energy =        -0.2514088899 a.u.
        abab    correlation energy =        -1.5030517336 a.u.
        bbbb    correlation energy =        -0.2514088899 a.u.
        non-Brillouin singles      =        -0.0000000000 a.u.
        total same-spin energy     =        -0.5028177798 a.u.
        total opposite-spin energy =        -1.5030517336 a.u.

 Total  RIMP2   correlation energy =        -2.0058695134 a.u.
        RIMP2         total energy =     -1182.7605631241 a.u.

 RI-MP2 Energy Time:  CPU 80.00 s  wall 80.39 s
 
 --------------------------------------------------------------
 
                    Orbital Energies (a.u.)
 --------------------------------------------------------------
 
 Alpha MOs
 -- Occupied --
-91.9839 -91.9461 -11.2881 -11.2662 -11.2604 -11.2556 -11.2499 -11.2441
-11.2341 -11.2303 -11.2280 -11.2232  -8.9836  -8.9507  -6.6646  -6.6641
 -6.6634  -6.6321  -6.6311  -6.6298  -1.2020  -1.1526  -1.0602  -1.0319
 -1.0008  -0.9625  -0.9158  -0.8996  -0.8181  -0.7628  -0.7331  -0.7044
 -0.6559  -0.6456  -0.6101  -0.5938  -0.5838  -0.5684  -0.5645  -0.5516
 -0.5464  -0.5349  -0.5215  -0.5025  -0.4875  -0.4810  -0.4691  -0.4446
 -0.3597  -0.3434  -0.3242  -0.2649
 -- Virtual --
  0.1019   0.1325   0.1400   0.1473   0.1573   0.1702   0.1787   0.1861
  0.1893   0.2026   0.2085   0.2176   0.2206   0.2305   0.2379   0.2414
  0.2572   0.2779   0.2802   0.3049   0.3149   0.3245   0.3531   0.3647
  0.3660   0.3811   0.3829   0.3932   0.4018   0.4085   0.4152   0.4195
  0.4368   0.4531   0.4665   0.4704   0.4764   0.4820   0.4867   0.4941
  0.4976   0.5138   0.5236   0.5319   0.5374   0.5469   0.5545   0.5652
  0.5681   0.5843   0.5857   0.5945   0.6009   0.6043   0.6125   0.6216
  0.6236   0.6307   0.6321   0.6332   0.6391   0.6502   0.6533   0.6594
  0.6702   0.6775   0.6808   0.6931   0.7018   0.7155   0.7221   0.7249
  0.7424   0.7490   0.7648   0.7720   0.7828   0.7954   0.8006   0.8294
  0.8346   0.8467   0.8555   0.8736   0.8878   0.8940   0.9004   0.9159
  0.9353   0.9446   0.9490   0.9605   0.9702   0.9904   1.0036   1.0090
  1.0264   1.0311   1.0423   1.0444   1.0491   1.0671   1.0746   1.0767
  1.0875   1.0934   1.1057   1.1343   1.1419   1.1512   1.1665   1.1738
  1.1756   1.1904   1.2019   1.2058   1.2108   1.2208   1.2341   1.2425
  1.2469   1.2577   1.2635   1.2763   1.2812   1.2866   1.2986   1.3090
  1.3227   1.3270   1.3459   1.3663   1.3706   1.3806   1.4092   1.4162
  1.4292   1.4335   1.4384   1.4583   1.4775   1.4815   1.4874   1.4973
  1.5082   1.5176   1.5258   1.5344   1.5388   1.5418   1.5496   1.5582
  1.5659   1.5907   1.5963   1.6007   1.6217   1.6260   1.6353   1.6452
  1.6600   1.6683   1.6746   1.6963   1.7003   1.7214   1.7274   1.7360
  1.7523   1.7569   1.7805   1.7964   1.8188   1.8350   1.8485   1.8578
  1.8938   1.8949   1.9087   1.9274   1.9515   1.9646   1.9856   2.0043
  2.0176   2.0412   2.0581   2.0672   2.0876   2.1161   2.1330   2.1607
  2.1899   2.1994   2.2071   2.2187   2.2313   2.2561   2.2727   2.2793
  2.2916   2.3089   2.3219   2.3885   2.4225   2.4497   2.4628   2.4685
  2.5002   2.5150   2.5259   2.5428   2.5637   2.5760   2.5912   2.5995
  2.6328   2.6533   2.6568   2.6750   2.6808   2.6997   2.7164   2.7343
  2.7474   2.7596   2.7681   2.7810   2.7892   2.7950   2.8045   2.8165
  2.8307   2.8471   2.8522   2.8645   2.8906   2.8976   2.9148   2.9351
  2.9387   2.9599   2.9760   2.9876   3.0026   3.0266   3.0360   3.0492
  3.0647   3.0743   3.0864   3.1049   3.1104   3.1150   3.1276   3.1351
  3.1455   3.1531   3.1625   3.1697   3.1802   3.1867   3.2017   3.2202
  3.2290   3.2410   3.2468   3.2520   3.2793   3.2830   3.2981   3.3114
  3.3191   3.3297   3.3329   3.3406   3.3548   3.3588   3.3636   3.3679
  3.3742   3.3802   3.3898   3.3985   3.4064   3.4137   3.4249   3.4349
  3.4386   3.4441   3.4594   3.4693   3.4767   3.4809   3.4954   3.5065
  3.5105   3.5239   3.5330   3.5434   3.5474   3.5595   3.5684   3.5885
  3.5955   3.6028   3.6076   3.6163   3.6305   3.6317   3.6490   3.6632
  3.6696   3.6770   3.6911   3.6956   3.7095   3.7251   3.7331   3.7410
  3.7487   3.7614   3.7647   3.7744   3.7873   3.7907   3.7967   3.8160
  3.8240   3.8459   3.8574   3.8687   3.8751   3.8804   3.8948   3.9165
  3.9259   3.9411   3.9583   3.9702   3.9837   3.9870   4.0157   4.0271
  4.0318   4.0454   4.0544   4.0602   4.0666   4.0759   4.0950   4.1015
  4.1256   4.1376   4.1489   4.1571   4.1644   4.1727   4.1859   4.2056
  4.2149   4.2192   4.2262   4.2437   4.2464   4.2672   4.2696   4.2927
  4.3010   4.3160   4.3213   4.3298   4.3480   4.3577   4.3651   4.3731
  4.3823   4.3877   4.4016   4.4115   4.4197   4.4380   4.4494   4.4582
  4.4664   4.4694   4.4810   4.4927   4.5027   4.5097   4.5355   4.5865
  4.5953   4.6048   4.6146   4.6222   4.6405   4.6489   4.6549   4.6874
  4.7046   4.7366   4.7744   4.7764   4.7888   4.8013   4.8259   4.8459
  4.8636   4.8701   4.8854   4.9165   4.9417   4.9544   4.9952   5.0064
  5.0318   5.0573   5.0940   5.1087   5.1170   5.1255   5.1644   5.1963
  5.2074   5.2379   5.2476   5.2655   5.2928   5.2983   5.3112   5.3256
  5.3525   5.3708   5.3785   5.4037   5.4108   5.4172   5.4358   5.4428
  5.4770   5.5204   5.5287   5.5376   5.5526   5.5679   5.5756   5.5984
  5.6159   5.6244   5.6277   5.6600   5.6950   5.7040   5.7094   5.7323
  5.7705   5.8115   5.8384   5.9849   6.0351   6.0894   6.1335   6.1738
  6.2081   6.2280   6.2388   6.2577   6.2703   6.2934   6.3210   6.4110
  6.4359   6.5696   9.5416  11.0178  12.0491  12.9648  13.1974  13.9710
 14.0972  14.2066  14.3771  14.9718
 --------------------------------------------------------------
 
          Ground-State Mulliken Net Atomic Charges

     Atom                 Charge (a.u.)
  ----------------------------------------
      1 C                    -0.074335
      2 C                    -0.320426
      3 C                    -0.034203
      4 H                     0.178673
      5 C                     0.127626
      6 S                    -0.176059
      7 C                    -0.299551
      8 H                     0.120691
      9 H                     0.113422
     10 H                     0.104849
     11 C                    -0.081923
     12 C                    -0.253519
     13 C                     0.026764
     14 H                     0.191688
     15 C                    -0.267924
     16 S                    -0.000894
     17 C                    -0.273532
     18 H                     0.100542
     19 H                     0.108353
     20 H                     0.108766
     21 H                     0.197379
     22 H                     0.111185
     23 H                     0.114877
     24 H                     0.177549
  ----------------------------------------
  Sum of atomic charges =     0.000000

 -----------------------------------------------------------------
                    Cartesian Multipole Moments
 -----------------------------------------------------------------
    Charge (ESU x 10^10)
                -0.0000
    Dipole Moment (Debye)
         X      -1.3868      Y      -0.3338      Z       3.3147
       Tot       3.6086
    Quadrupole Moments (Debye-Ang)
        XX     -91.6460     XY       4.2480     YY     -73.0357
        XZ       0.2256     YZ      -1.6628     ZZ     -85.5835
    Octopole Moments (Debye-Ang^2)
       XXX     -36.0056    XXY      45.9415    XYY      -7.1257
       YYY     116.1248    XXZ      -1.7343    XYZ       1.0731
       YYZ      -5.2613    XZZ     -13.5752    YZZ      50.0965
       ZZZ       6.9011
    Hexadecapole Moments (Debye-Ang^3)
      XXXX    -237.2638   XXXY     -88.7357   XXYY    -559.2179
      XYYY     -64.2452   YYYY   -2738.7107   XXXZ      79.5764
      XXYZ     -32.8258   XYYZ      12.8029   YYYZ    -102.6184
      XXZZ    -221.1635   XYZZ     -11.4343   YYZZ    -645.4139
      XZZZ      69.7909   YZZZ    -124.5047   ZZZZ   -1033.8087
 -----------------------------------------------------------------
 Total job time:  660.55s(wall), 655.27s(cpu) 
 Sun Jul 10 03:24:47 2022

        *************************************************************
        *                                                           *
        *  Thank you very much for using Q-Chem.  Have a nice day.  *
        *                                                           *
        *************************************************************


remove work dirs ./qchem1236580.0 -- ./qchem1236580.-1
rm -rf ./qchem1236580
