You are running Q-Chem version: 5.4.0

#
# job setting
#
local host:  exp-1-30
current dir: /expanse/lustre/scratch/theleonzhang/temp_project/Hydrogenated_Rotation_Test
input file:  Methylthiophene_Phi_60_Theta_350_Methylthiophene_Hydrogenated.qcin
output file: 
nprocs     : 0
nthreads   : 1
#
# qchem installation setting
#
QC:          /cm/shared/apps/spack/cpu/opt/spack/linux-centos8-zen2/gcc-10.2.0/qchem-5.4-akfmr7b3t57bfs6qan3padb2wnb2i7cl
QCAUX:       /cm/shared/apps/spack/cpu/opt/spack/linux-centos8-zen2/gcc-10.2.0/qchem-5.4-akfmr7b3t57bfs6qan3padb2wnb2i7cl/qcaux
QCPROG:      /cm/shared/apps/spack/cpu/opt/spack/linux-centos8-zen2/gcc-10.2.0/qchem-5.4-akfmr7b3t57bfs6qan3padb2wnb2i7cl/exe/qcprog.exe_s
QCPROG_S:    /cm/shared/apps/spack/cpu/opt/spack/linux-centos8-zen2/gcc-10.2.0/qchem-5.4-akfmr7b3t57bfs6qan3padb2wnb2i7cl/exe/qcprog.exe_s
PARALLEL:    -DSERIAL
QCMPI:       mpich
#
# qchem directory setting
#
qcrun:       qchem846225
QCSCRATCH:   .
QCLOCALSCR:  
QCTMPDIR:    .
QCFILEPREF:  ./qchem846225
QCSAVEDIR:   
workdirs:    ./qchem846225
workdir0:    ./qchem846225
partmpdirs =  
#
# parallel setting
#
QCRSH:           ssh
QCMPI:           mpich
QCMPIRUN:        /cm/shared/apps/spack/cpu/opt/spack/linux-centos8-zen2/gcc-10.2.0/qchem-5.4-akfmr7b3t57bfs6qan3padb2wnb2i7cl/bin/mpi/mpirun_qchem
QCMACHINEFILE:   ./qchem846225/hostfile

#
# env setting
#
exported envs:   QC QCAUX QCSCRATCH QCRUNNAME QCFILEPREF QCPROG QCPROG_S GUIFILE

Running Job 1 of 1 Methylthiophene_Phi_60_Theta_350_Methylthiophene_Hydrogenated.qcin
qchem Methylthiophene_Phi_60_Theta_350_Methylthiophene_Hydrogenated.qcin_846225.0 ./qchem846225/ 0
/cm/shared/apps/spack/cpu/opt/spack/linux-centos8-zen2/gcc-10.2.0/qchem-5.4-akfmr7b3t57bfs6qan3padb2wnb2i7cl/exe/qcprog.exe_s Methylthiophene_Phi_60_Theta_350_Methylthiophene_Hydrogenated.qcin_846225.0 ./qchem846225/
                  Welcome to Q-Chem
     A Quantum Leap Into The Future Of Chemistry


 Q-Chem 5.4, Q-Chem, Inc., Pleasanton, CA (2021)

 License issued to: University of California, San Diego (site)

 E. Epifanovsky,  A. T. B. Gilbert,  Xintian Feng,  Joonho Lee,  Yuezhi Mao,  
 N. Mardirossian,  P. Pokhilko,  A. White,  M. Wormit,  M. P. Coons,  
 A. L. Dempwolff,  Zhengting Gan,  D. Hait,  P. R. Horn,  L. D. Jacobson,  
 I. Kaliman,  J. Kussmann,  A. W. Lange,  Ka Un Lao,  D. S. Levine,  Jie Liu,  
 S. C. McKenzie,  A. F. Morrison,  K. Nanda,  F. Plasser,  D. R. Rehn,  
 M. L. Vidal,  Zhi-Qiang You,  Ying Zhu,  B. Alam,  B. Albrecht,  
 A. Aldossary,  E. Alguire,  J. H. Andersen,  D. Barton,  K. Begam,  A. Behn,  
 Y. A. Bernard,  E. J. Berquist,  H. Burton,  A. Carreras,  K. Carter-Fenk,  
 R. Chakraborty,  A. D. Chien,  K. D. Closser,  V. Cofer-Shabica,  
 S. Dasgupta,  Jia Deng,  M. de Wergifosse,  M. Diedenhofen,  Hainam Do,  
 S. Ehlert,  Po-Tung Fang,  S. Fatehi,  Qingguo Feng,  J. Gayvert,  
 Qinghui Ge,  G. Gidofalvi,  M. Goldey,  J. Gomes,  C. Gonzalez-Espinoza,  
 S. Gulania,  A. Gunina,  M. W. D. Hanson-Heine,  P. H. P. Harbach,  
 A. W. Hauser,  M. F. Herbst,  M. Hernandez Vera,  M. Hodecker,  
 Z. C. Holden,  S. Houck,  Xunkun Huang,  Kerwin Hui,  B. C. Huynh,  
 M. Ivanov,  Hyunjun Ji,  Hanjie Jiang,  B. Kaduk,  S. Kaehler,  
 K. Khistyaev,  Jaehoon Kim,  P. Klunzinger,  Z. Koczor-Benda,  
 Joong Hoon Koh,  D. Kosenkov,  L. Koulias,  T. Kowalczyk,  C. M. Krauter,  
 K. Kue,  A. Kunitsa,  T. Kus,  A. Landau,  K. V. Lawler,  D. Lefrancois,  
 S. Lehtola,  Rain Li,  Yi-Pei Li,  Jiashu Liang,  M. Liebenthal,  
 Hung-Hsuan Lin,  You-Sheng Lin,  Fenglai Liu,  Kuan-Yu Liu,  
 M. Loipersberger,  A. Luenser,  A. Manjanath,  P. Manohar,  E. Mansoor,  
 S. F. Manzer,  Shan-Ping Mao,  A. V. Marenich,  T. Markovich,  S. Mason,  
 S. A. Maurer,  P. F. McLaughlin,  M. F. S. J. Menger,  J.-M. Mewes,  
 S. A. Mewes,  P. Morgante,  J. W. Mullinax,  T. S. Nguyen-Beck,  
 K. J. Oosterbaan,  G. Paran,  Alexander C. Paul,  Suranjan K. Paul,  
 F. Pavosevic,  Zheng Pei,  S. Prager,  E. I. Proynov,  E. Ramos,  B. Rana,  
 A. E. Rask,  A. Rettig,  R. M. Richard,  F. Rob,  E. Rossomme,  T. Scheele,  
 M. Scheurer,  M. Schneider,  N. Sergueev,  S. M. Sharada,  W. Skomorowski,  
 D. W. Small,  C. J. Stein,  Yu-Chuan Su,  E. J. Sundstrom,  Zhen Tao,  
 J. Thirman,  T. Tsuchimochi,  N. M. Tubman,  S. P. Veccham,  O. Vydrov,  
 J. Wenzel,  J. Witte,  A. Yamada,  Kun Yao,  S. Yeganeh,  S. R. Yost,  
 A. Zech,  Igor Ying Zhang,  Xing Zhang,  Yu Zhang,  D. Zuev,  
 A. Aspuru-Guzik,  A. T. Bell,  N. A. Besley,  K. B. Bravaya,  B. R. Brooks,  
 D. Casanova,  Jeng-Da Chai,  S. Coriani,  C. J. Cramer,  
 A. E. DePrince, III,  R. A. DiStasio Jr.,  A. Dreuw,  B. D. Dunietz,  
 T. R. Furlani,  W. A. Goddard III,  S. Grimme,  S. Hammes-Schiffer,  
 T. Head-Gordon,  W. J. Hehre,  Chao-Ping Hsu,  T.-C. Jagau,  Yousung Jung,  
 A. Klamt,  Jing Kong,  D. S. Lambrecht,  WanZhen Liang,  N. J. Mayhall,  
 C. W. McCurdy,  J. B. Neaton,  C. Ochsenfeld,  J. A. Parkhill,  R. Peverati,  
 V. A. Rassolov,  Yihan Shao,  L. V. Slipchenko,  T. Stauch,  R. P. Steele,  
 J. E. Subotnik,  A. J. W. Thom,  A. Tkatchenko,  D. G. Truhlar,  
 T. Van Voorhis,  T. A. Wesolowski,  K. B. Whaley,  H. L. Woodcock III,  
 P. M. Zimmerman,  S. Faraji,  P. M. W. Gill,  M. Head-Gordon,  
 J. M. Herbert,  A. I. Krylov

 Contributors to earlier versions of Q-Chem not listed above: 
 R. D. Adamson,  B. Austin,  R. Baer,  J. Baker,  G. J. O. Beran,  
 K. Brandhorst,  S. T. Brown,  E. F. C. Byrd,  A. K. Chakraborty,  
 G. K. L. Chan,  Chun-Min Chang,  Yunqing Chen,  C.-L. Cheng,  
 Siu Hung Chien,  D. M. Chipman,  D. L. Crittenden,  H. Dachsel,  
 R. J. Doerksen,  A. D. Dutoi,  R. G. Edgar,  J. Fosso-Tande,  
 L. Fusti-Molnar,  D. Ghosh,  A. Ghysels,  A. Golubeva-Zadorozhnaya,  
 J. Gonthier,  M. S. Gordon,  S. R. Gwaltney,  G. Hawkins,  J. E. Herr,  
 A. Heyden,  S. Hirata,  E. G. Hohenstein,  G. Kedziora,  F. J. Keil,  
 C. Kelley,  Jihan Kim,  R. A. King,  R. Z. Khaliullin,  P. P. Korambath,  
 W. Kurlancheek,  A. Laurent,  A. M. Lee,  M. S. Lee,  S. V. Levchenko,  
 Ching Yeh Lin,  D. Liotard,  E. Livshits,  R. C. Lochan,  I. Lotan,  
 L. A. Martinez-Martinez,  P. E. Maslen,  N. Nair,  D. P. O'Neill,  
 D. Neuhauser,  E. Neuscamman,  C. M. Oana,  R. Olivares-Amaya,  R. Olson,  
 T. M. Perrine,  B. Peters,  P. A. Pieniazek,  A. Prociuk,  Y. M. Rhee,  
 J. Ritchie,  M. A. Rohrdanz,  E. Rosta,  N. J. Russ,  H. F. Schaefer III,  
 M. W. Schmidt,  N. E. Schultz,  S. Sharma,  N. Shenvi,  C. D. Sherrill,  
 A. C. Simmonett,  A. Sodt,  T. Stein,  D. Stuck,  K. S. Thanthiriwatte,  
 V. Vanovschi,  L. Vogt,  Tao Wang,  A. Warshel,  M. A. Watson,  
 C. F. Williams,  Q. Wu,  X. Xu,  Jun Yang,  W. Zhang,  Yan Zhao

 Please cite Q-Chem as follows:
 Y. Shao et al., Mol. Phys. 113, 184-215 (2015)
 DOI: 10.1080/00268976.2014.952696

 Q-Chem 5.4.0 for Intel X86 EM64T Linux

 Parts of Q-Chem use Armadillo 9.800.1 (Horizon Scraper).
 http://arma.sourceforge.net/

 Q-Chem begins on Sun Jul 10 06:42:23 2022  

 Host: 
0

     Scratch files written to ./qchem846225//
 May1621 |scratch|qcdevops|jenkins|workspace|build_RNUM    
 Processing $rem in /cm/shared/apps/spack/cpu/opt/spack/linux-centos8-zen2/gcc-10.2.0/qchem-5.4-akfmr7b3t57bfs6qan3padb2wnb2i7cl/config/preferences:
 Processing $rem in /home/theleonzhang/.qchemrc:
 Symmetry turned off for PCM/SM12/SMD calculation
 Core orbitals will be frozen

 Checking the input file for inconsistencies... 	...done.

--------------------------------------------------------------
User input:
--------------------------------------------------------------
$molecule
0 1
C	0.133897	-3.866725	0.763475
C	-0.106669	-3.703963	-0.603206
C	-0.185154	-2.357056	-1.050446
H	-0.226709	-4.561092	-1.283024
C	0.000000	-1.440664	0.000000
S	0.268206	-2.286957	1.521018
C	-0.437628	-1.978743	-2.483610
H	-0.549717	-2.878678	-3.118875
H	0.394664	-1.376015	-2.903464
H	-1.363110	-1.375728	-2.593726
C	0.000000	0.000000	0.000000
C	0.747916	0.431772	1.099446
C	1.946425	1.123709	0.776721
H	0.428523	0.247378	2.136088
C	2.137531	1.234018	-0.612546
S	0.816154	0.471179	-1.486809
C	2.888455	1.667564	1.814609
H	2.519842	1.454746	2.836676
H	3.008896	2.767543	1.726239
H	3.901271	1.221850	1.726228
H	2.959587	1.708609	-1.161575
H	1.077442	-4.392713	0.946698
H	-0.690363	-4.392347	1.258274
H	-1.063612	-1.440391	0.187427
$end

$rem
JOBTYPE		SP
EXCHANGE	HF
CORRELATION	pRIMP2
BASIS		cc-pvtz
METHOD		rimp2
AUX_BASIS	rimp2-cc-pvtz
SOLVENT_METHOD	PCM
PURECART	11111
SYMMETRY	false
MEM_TOTAL	110000
SCF_CONVERGENCE = 6
THRESH=10
$end



$solvent
dielectric 4.90
$end
--------------------------------------------------------------
 ----------------------------------------------------------------
             Standard Nuclear Orientation (Angstroms)
    I     Atom           X                Y                Z
 ----------------------------------------------------------------
    1      C       0.1338970000    -3.8667250000     0.7634750000
    2      C      -0.1066690000    -3.7039630000    -0.6032060000
    3      C      -0.1851540000    -2.3570560000    -1.0504460000
    4      H      -0.2267090000    -4.5610920000    -1.2830240000
    5      C       0.0000000000    -1.4406640000     0.0000000000
    6      S       0.2682060000    -2.2869570000     1.5210180000
    7      C      -0.4376280000    -1.9787430000    -2.4836100000
    8      H      -0.5497170000    -2.8786780000    -3.1188750000
    9      H       0.3946640000    -1.3760150000    -2.9034640000
   10      H      -1.3631100000    -1.3757280000    -2.5937260000
   11      C       0.0000000000     0.0000000000     0.0000000000
   12      C       0.7479160000     0.4317720000     1.0994460000
   13      C       1.9464250000     1.1237090000     0.7767210000
   14      H       0.4285230000     0.2473780000     2.1360880000
   15      C       2.1375310000     1.2340180000    -0.6125460000
   16      S       0.8161540000     0.4711790000    -1.4868090000
   17      C       2.8884550000     1.6675640000     1.8146090000
   18      H       2.5198420000     1.4547460000     2.8366760000
   19      H       3.0088960000     2.7675430000     1.7262390000
   20      H       3.9012710000     1.2218500000     1.7262280000
   21      H       2.9595870000     1.7086090000    -1.1615750000
   22      H       1.0774420000    -4.3927130000     0.9466980000
   23      H      -0.6903630000    -4.3923470000     1.2582740000
   24      H      -1.0636120000    -1.4403910000     0.1874270000
 ----------------------------------------------------------------
 Nuclear Repulsion Energy =         903.81949333 hartrees
 There are       52 alpha and       52 beta electrons

 Q-Chem warning in module forms1/BasisType.C, line 2236:

 You are not using the predefined 5D/6D in this basis set.

 Requested basis set is cc-pVTZ
 There are 196 shells and 536 basis functions

 Total QAlloc Memory Limit 110000 MB
 Mega-Array Size       188 MB
 MEM_STATIC part       192 MB
 Discretize the solute cavity surface with Lebedev spheres
	Using 110 Lebedev grid points for each H atom
	Using 194 Lebedev grid points for other atoms
	Atomic van der Waals radii will be scaled by 1.20
 Remove points where switching function is < 1.0e-08
 Keep 1551 surface tesserae and discard 2097 interior tesserae
 Molecular Surface Area = 225.649 Angst**2
 Requested basis set is rimp2-cc-pVTZ
 There are 414 shells and 1414 basis functions
 A cutoff of  1.0D-10 yielded  14494 shell pairs
 There are    105026 function pairs (    134621 Cartesian)
 Smallest overlap matrix eigenvalue = 6.42E-05

 Scale SEOQF with 1.000000e-01/1.000000e-01/1.000000e-01

 Standard Electronic Orientation quadrupole field applied
 Nucleus-field energy     =     0.0000000162 hartrees
 Guess from superposition of atomic densities
 Warning:  Energy on first SCF cycle will be non-variational
 SAD guess density has 104.000000 electrons

 -----------------------------------------------------------------------
  General SCF calculation program by
  Eric Jon Sundstrom, Paul Horn, Yuezhi Mao, Dmitri Zuev, Alec White,
  David Stuck, Shaama M.S., Shane Yost, Joonho Lee, David Small,
  Daniel Levine, Susi Lehtola, Hugh Burton, Evgeny Epifanovsky,
  Bang C. Huynh
 -----------------------------------------------------------------------
 Hartree-Fock
 A restricted SCF calculation will be
 performed using DIIS
 SCF converges when DIIS error is below 1.0e-06
 ---------------------------------------
  Cycle       Energy         DIIS error
 ---------------------------------------
    1   -1186.2144565896      2.41e-02  
    2   -1180.5165024494      1.53e-03  
    3   -1180.6437192791      5.44e-04  
    4   -1180.6573548951      2.91e-04  
    5   -1180.6613663666      6.26e-05  
    6   -1180.6616650955      2.64e-05  
    7   -1180.6617555671      1.34e-05  
    8   -1180.6617846579      6.39e-06  
    9   -1180.6617948320      3.31e-06  
   10   -1180.6617972078      1.37e-06  
   11   -1180.6617976642      6.61e-07  Convergence criterion met
 ---------------------------------------
 SCF time:   CPU 666.36s  wall 670.00s 

************** Final PCM Free Energy Summary **************
 G_electrostatic  =      -0.00840877 hartree =      -5.27658384 kcal/mol
 G_cavitation     =       0.00000000 hartree =       0.00000000 kcal/mol
 G_dispersion     =       0.00000000 hartree =       0.00000000 kcal/mol
 G_repulsion      =       0.00000000 hartree =       0.00000000 kcal/mol
 --------------------------------------------------
 Non-electrostatic Free Energy =       0.00000000 hartree =       0.00000000 kcal/mol
 Total                         =      -0.00840877 hartree =      -5.27658384 kcal/mol
 --------------------------------------------------
 SCF Energy (H0 + V/2)                       =   -1180.66179766 
 Solute Internal Energy (H0)                 =   -1180.65338889 
 Total Free Energy (H0 + V/2 + non-elec)     =   -1180.66179766 hartree
                                             = -740876.46008217 kcal/mol
***********************************************************

 SCF   energy in the final basis set =    -1180.6617976642
 Total energy in the final basis set =    -1180.6617976642


 --------------------------------------------------------------
  Generalized many-body perturbation theory program
  by Joonho Lee, Fazle Rob, Xintian Feng, Evgeny Epifanovsky

 No regularization used 
 (reg. param. = 0.0000e+00)
  (P|Q)^-1/2 Time:  CPU 1.91 s  wall 1.92 s

 In RI-MP2 calculation: 
 # of frozen core orbitals: 20

 Components of the RIMP2 correlation energy:
        aaaa    correlation energy =        -0.2560683730 a.u.
        abab    correlation energy =        -1.5171991565 a.u.
        bbbb    correlation energy =        -0.2560683730 a.u.
        non-Brillouin singles      =        -0.0000000000 a.u.
        total same-spin energy     =        -0.5121367460 a.u.
        total opposite-spin energy =        -1.5171991565 a.u.

 Total  RIMP2   correlation energy =        -2.0293359024 a.u.
        RIMP2         total energy =     -1182.6911335666 a.u.

 RI-MP2 Energy Time:  CPU 80.71 s  wall 81.08 s
 
 --------------------------------------------------------------
 
                    Orbital Energies (a.u.)
 --------------------------------------------------------------
 
 Alpha MOs
 -- Occupied --
-91.9742 -91.9386 -11.2826 -11.2605 -11.2583 -11.2521 -11.2518 -11.2466
-11.2371 -11.2293 -11.2271 -11.2114  -8.9760  -8.9435  -6.6567  -6.6557
 -6.6554  -6.6248  -6.6238  -6.6225  -1.2052  -1.1531  -1.0588  -1.0274
 -1.0072  -0.9561  -0.9120  -0.9045  -0.8083  -0.7738  -0.7256  -0.7007
 -0.6523  -0.6423  -0.6145  -0.5905  -0.5875  -0.5753  -0.5669  -0.5516
 -0.5385  -0.5351  -0.5194  -0.5119  -0.4863  -0.4531  -0.4490  -0.4347
 -0.3571  -0.3342  -0.3285  -0.2517
 -- Virtual --
  0.0599   0.1348   0.1434   0.1522   0.1614   0.1690   0.1819   0.1830
  0.1873   0.1949   0.2054   0.2133   0.2203   0.2344   0.2402   0.2448
  0.2582   0.2659   0.2818   0.2928   0.3073   0.3202   0.3429   0.3587
  0.3662   0.3699   0.3889   0.3970   0.4051   0.4088   0.4161   0.4245
  0.4412   0.4452   0.4579   0.4692   0.4743   0.4785   0.4840   0.4949
  0.5133   0.5151   0.5242   0.5265   0.5334   0.5448   0.5571   0.5617
  0.5713   0.5784   0.5860   0.5939   0.6036   0.6121   0.6170   0.6174
  0.6242   0.6267   0.6313   0.6341   0.6394   0.6495   0.6528   0.6587
  0.6639   0.6713   0.6833   0.6941   0.6971   0.7063   0.7241   0.7404
  0.7451   0.7661   0.7690   0.7728   0.7796   0.7966   0.8032   0.8280
  0.8391   0.8565   0.8621   0.8661   0.8713   0.8838   0.8954   0.9237
  0.9324   0.9355   0.9477   0.9659   0.9734   0.9849   0.9990   1.0150
  1.0241   1.0359   1.0407   1.0547   1.0579   1.0697   1.0799   1.0943
  1.0994   1.1140   1.1233   1.1320   1.1455   1.1555   1.1710   1.1764
  1.1829   1.1952   1.2034   1.2140   1.2239   1.2304   1.2312   1.2488
  1.2625   1.2685   1.2765   1.2831   1.2960   1.3047   1.3104   1.3185
  1.3242   1.3372   1.3483   1.3753   1.3811   1.3860   1.3925   1.4036
  1.4206   1.4299   1.4482   1.4591   1.4641   1.4746   1.4875   1.4956
  1.4999   1.5171   1.5247   1.5339   1.5397   1.5425   1.5529   1.5596
  1.5652   1.5687   1.5864   1.5923   1.6153   1.6230   1.6350   1.6451
  1.6635   1.6693   1.6781   1.6830   1.6990   1.7126   1.7309   1.7357
  1.7507   1.7581   1.7822   1.8094   1.8269   1.8304   1.8514   1.8672
  1.8783   1.9137   1.9548   1.9645   1.9792   2.0006   2.0152   2.0286
  2.0358   2.0624   2.0695   2.0849   2.1072   2.1148   2.1301   2.1531
  2.1662   2.1912   2.1923   2.2134   2.2238   2.2360   2.2624   2.2920
  2.3008   2.3216   2.3337   2.3847   2.4134   2.4356   2.4457   2.4885
  2.4981   2.5149   2.5250   2.5477   2.5868   2.5990   2.6129   2.6326
  2.6440   2.6526   2.6767   2.6898   2.6948   2.7040   2.7344   2.7372
  2.7456   2.7497   2.7701   2.7785   2.7970   2.8086   2.8245   2.8328
  2.8475   2.8526   2.8663   2.8838   2.9002   2.9233   2.9323   2.9397
  2.9568   2.9675   2.9819   2.9927   3.0052   3.0251   3.0411   3.0461
  3.0513   3.0563   3.0849   3.1091   3.1184   3.1287   3.1457   3.1514
  3.1590   3.1677   3.1732   3.1835   3.1996   3.2008   3.2087   3.2162
  3.2235   3.2411   3.2509   3.2528   3.2732   3.2815   3.2929   3.3034
  3.3166   3.3266   3.3339   3.3454   3.3518   3.3553   3.3647   3.3737
  3.3785   3.3874   3.3977   3.4034   3.4094   3.4131   3.4296   3.4345
  3.4538   3.4556   3.4624   3.4840   3.4947   3.4976   3.5063   3.5177
  3.5314   3.5414   3.5445   3.5560   3.5608   3.5630   3.5707   3.5802
  3.5891   3.6163   3.6232   3.6289   3.6411   3.6639   3.6786   3.6913
  3.6954   3.7014   3.7113   3.7275   3.7342   3.7392   3.7494   3.7533
  3.7645   3.7804   3.7829   3.7879   3.8001   3.8122   3.8185   3.8359
  3.8436   3.8477   3.8622   3.8725   3.8872   3.8998   3.9098   3.9325
  3.9430   3.9514   3.9655   3.9709   3.9733   4.0050   4.0233   4.0240
  4.0277   4.0532   4.0602   4.0735   4.0818   4.1015   4.1122   4.1218
  4.1291   4.1554   4.1569   4.1780   4.1917   4.1942   4.1965   4.2072
  4.2123   4.2368   4.2407   4.2601   4.2649   4.2731   4.2782   4.2846
  4.2953   4.3156   4.3257   4.3448   4.3478   4.3591   4.3699   4.3812
  4.3972   4.4031   4.4060   4.4090   4.4206   4.4461   4.4549   4.4659
  4.4713   4.4833   4.4861   4.4865   4.5271   4.5304   4.5571   4.5786
  4.5963   4.6027   4.6105   4.6217   4.6445   4.6551   4.6739   4.6851
  4.6920   4.7387   4.7670   4.7790   4.7926   4.8124   4.8322   4.8408
  4.8706   4.8953   4.8964   4.9134   4.9160   4.9401   4.9599   5.0079
  5.0347   5.0621   5.0915   5.0995   5.1208   5.1314   5.1461   5.1562
  5.1976   5.2021   5.2295   5.2739   5.2869   5.2909   5.3022   5.3151
  5.3469   5.3681   5.3806   5.4002   5.4078   5.4239   5.4449   5.4484
  5.4676   5.5102   5.5234   5.5442   5.5534   5.5661   5.5765   5.5885
  5.6120   5.6276   5.6432   5.6582   5.6918   5.7001   5.7144   5.7312
  5.7726   5.8002   5.8172   5.9858   6.0126   6.0787   6.0908   6.1440
  6.2154   6.2167   6.2309   6.2420   6.2573   6.2693   6.2959   6.3186
  6.3791   6.4155   9.4433  10.5765  12.5962  12.8275  13.1987  13.8394
 14.1246  14.2388  14.2985  14.7291
 --------------------------------------------------------------
 
          Ground-State Mulliken Net Atomic Charges

     Atom                 Charge (a.u.)
  ----------------------------------------
      1 C                    -0.080769
      2 C                    -0.349865
      3 C                    -0.047582
      4 H                     0.175077
      5 C                     0.092329
      6 S                    -0.206872
      7 C                    -0.297285
      8 H                     0.114242
      9 H                     0.115423
     10 H                     0.112195
     11 C                    -0.143641
     12 C                    -0.156691
     13 C                    -0.000664
     14 H                     0.193817
     15 C                    -0.190158
     16 S                     0.019282
     17 C                    -0.268378
     18 H                     0.103515
     19 H                     0.108025
     20 H                     0.106350
     21 H                     0.198895
     22 H                     0.108422
     23 H                     0.109542
     24 H                     0.184789
  ----------------------------------------
  Sum of atomic charges =     0.000000

 -----------------------------------------------------------------
                    Cartesian Multipole Moments
 -----------------------------------------------------------------
    Charge (ESU x 10^10)
                -0.0000
    Dipole Moment (Debye)
         X       1.3395      Y       0.5793      Z      -0.6181
       Tot       1.5849
    Quadrupole Moments (Debye-Ang)
        XX     -82.8301     XY       7.0999     YY     -83.9564
        XZ       0.2876     YZ       3.8286     ZZ     -84.8729
    Octopole Moments (Debye-Ang^2)
       XXX    -155.9578    XXY      99.3666    XYY     -54.3283
       YYY     211.2356    XXZ      -2.6129    XYZ      -1.4968
       YYZ      -0.1123    XZZ     -54.7268    YZZ      82.9190
       ZZZ      -1.6824
    Hexadecapole Moments (Debye-Ang^3)
      XXXX    -834.9479   XXXY    -176.4810   XXYY    -534.7434
      XYYY    -204.0260   YYYY   -2191.8905   XXXZ    -147.7118
      XXYZ     -25.0340   XYYZ     -45.4454   YYYZ     -53.5232
      XXZZ    -322.6125   XYZZ     -54.1011   YYZZ    -561.3514
      XZZZ    -132.9307   YZZZ     -11.5883   ZZZZ   -1077.1452
 -----------------------------------------------------------------
 Total job time:  752.82s(wall), 747.99s(cpu) 
 Sun Jul 10 06:54:56 2022

        *************************************************************
        *                                                           *
        *  Thank you very much for using Q-Chem.  Have a nice day.  *
        *                                                           *
        *************************************************************


remove work dirs ./qchem846225.0 -- ./qchem846225.-1
rm -rf ./qchem846225
