You are running Q-Chem version: 5.4.0

#
# job setting
#
local host:  exp-1-44
current dir: /expanse/lustre/scratch/theleonzhang/temp_project/Hydrogenated_Rotation_Test
input file:  Methylthiophene_Phi_10_Theta_350_Methylthiophene_Hydrogenated.qcin
output file: 
nprocs     : 0
nthreads   : 1
#
# qchem installation setting
#
QC:          /cm/shared/apps/spack/cpu/opt/spack/linux-centos8-zen2/gcc-10.2.0/qchem-5.4-akfmr7b3t57bfs6qan3padb2wnb2i7cl
QCAUX:       /cm/shared/apps/spack/cpu/opt/spack/linux-centos8-zen2/gcc-10.2.0/qchem-5.4-akfmr7b3t57bfs6qan3padb2wnb2i7cl/qcaux
QCPROG:      /cm/shared/apps/spack/cpu/opt/spack/linux-centos8-zen2/gcc-10.2.0/qchem-5.4-akfmr7b3t57bfs6qan3padb2wnb2i7cl/exe/qcprog.exe_s
QCPROG_S:    /cm/shared/apps/spack/cpu/opt/spack/linux-centos8-zen2/gcc-10.2.0/qchem-5.4-akfmr7b3t57bfs6qan3padb2wnb2i7cl/exe/qcprog.exe_s
PARALLEL:    -DSERIAL
QCMPI:       mpich
#
# qchem directory setting
#
qcrun:       qchem1763542
QCSCRATCH:   .
QCLOCALSCR:  
QCTMPDIR:    .
QCFILEPREF:  ./qchem1763542
QCSAVEDIR:   
workdirs:    ./qchem1763542
workdir0:    ./qchem1763542
partmpdirs =  
#
# parallel setting
#
QCRSH:           ssh
QCMPI:           mpich
QCMPIRUN:        /cm/shared/apps/spack/cpu/opt/spack/linux-centos8-zen2/gcc-10.2.0/qchem-5.4-akfmr7b3t57bfs6qan3padb2wnb2i7cl/bin/mpi/mpirun_qchem
QCMACHINEFILE:   ./qchem1763542/hostfile

#
# env setting
#
exported envs:   QC QCAUX QCSCRATCH QCRUNNAME QCFILEPREF QCPROG QCPROG_S GUIFILE

Running Job 1 of 1 Methylthiophene_Phi_10_Theta_350_Methylthiophene_Hydrogenated.qcin
qchem Methylthiophene_Phi_10_Theta_350_Methylthiophene_Hydrogenated.qcin_1763542.0 ./qchem1763542/ 0
/cm/shared/apps/spack/cpu/opt/spack/linux-centos8-zen2/gcc-10.2.0/qchem-5.4-akfmr7b3t57bfs6qan3padb2wnb2i7cl/exe/qcprog.exe_s Methylthiophene_Phi_10_Theta_350_Methylthiophene_Hydrogenated.qcin_1763542.0 ./qchem1763542/
                  Welcome to Q-Chem
     A Quantum Leap Into The Future Of Chemistry


 Q-Chem 5.4, Q-Chem, Inc., Pleasanton, CA (2021)

 License issued to: University of California, San Diego (site)

 E. Epifanovsky,  A. T. B. Gilbert,  Xintian Feng,  Joonho Lee,  Yuezhi Mao,  
 N. Mardirossian,  P. Pokhilko,  A. White,  M. Wormit,  M. P. Coons,  
 A. L. Dempwolff,  Zhengting Gan,  D. Hait,  P. R. Horn,  L. D. Jacobson,  
 I. Kaliman,  J. Kussmann,  A. W. Lange,  Ka Un Lao,  D. S. Levine,  Jie Liu,  
 S. C. McKenzie,  A. F. Morrison,  K. Nanda,  F. Plasser,  D. R. Rehn,  
 M. L. Vidal,  Zhi-Qiang You,  Ying Zhu,  B. Alam,  B. Albrecht,  
 A. Aldossary,  E. Alguire,  J. H. Andersen,  D. Barton,  K. Begam,  A. Behn,  
 Y. A. Bernard,  E. J. Berquist,  H. Burton,  A. Carreras,  K. Carter-Fenk,  
 R. Chakraborty,  A. D. Chien,  K. D. Closser,  V. Cofer-Shabica,  
 S. Dasgupta,  Jia Deng,  M. de Wergifosse,  M. Diedenhofen,  Hainam Do,  
 S. Ehlert,  Po-Tung Fang,  S. Fatehi,  Qingguo Feng,  J. Gayvert,  
 Qinghui Ge,  G. Gidofalvi,  M. Goldey,  J. Gomes,  C. Gonzalez-Espinoza,  
 S. Gulania,  A. Gunina,  M. W. D. Hanson-Heine,  P. H. P. Harbach,  
 A. W. Hauser,  M. F. Herbst,  M. Hernandez Vera,  M. Hodecker,  
 Z. C. Holden,  S. Houck,  Xunkun Huang,  Kerwin Hui,  B. C. Huynh,  
 M. Ivanov,  Hyunjun Ji,  Hanjie Jiang,  B. Kaduk,  S. Kaehler,  
 K. Khistyaev,  Jaehoon Kim,  P. Klunzinger,  Z. Koczor-Benda,  
 Joong Hoon Koh,  D. Kosenkov,  L. Koulias,  T. Kowalczyk,  C. M. Krauter,  
 K. Kue,  A. Kunitsa,  T. Kus,  A. Landau,  K. V. Lawler,  D. Lefrancois,  
 S. Lehtola,  Rain Li,  Yi-Pei Li,  Jiashu Liang,  M. Liebenthal,  
 Hung-Hsuan Lin,  You-Sheng Lin,  Fenglai Liu,  Kuan-Yu Liu,  
 M. Loipersberger,  A. Luenser,  A. Manjanath,  P. Manohar,  E. Mansoor,  
 S. F. Manzer,  Shan-Ping Mao,  A. V. Marenich,  T. Markovich,  S. Mason,  
 S. A. Maurer,  P. F. McLaughlin,  M. F. S. J. Menger,  J.-M. Mewes,  
 S. A. Mewes,  P. Morgante,  J. W. Mullinax,  T. S. Nguyen-Beck,  
 K. J. Oosterbaan,  G. Paran,  Alexander C. Paul,  Suranjan K. Paul,  
 F. Pavosevic,  Zheng Pei,  S. Prager,  E. I. Proynov,  E. Ramos,  B. Rana,  
 A. E. Rask,  A. Rettig,  R. M. Richard,  F. Rob,  E. Rossomme,  T. Scheele,  
 M. Scheurer,  M. Schneider,  N. Sergueev,  S. M. Sharada,  W. Skomorowski,  
 D. W. Small,  C. J. Stein,  Yu-Chuan Su,  E. J. Sundstrom,  Zhen Tao,  
 J. Thirman,  T. Tsuchimochi,  N. M. Tubman,  S. P. Veccham,  O. Vydrov,  
 J. Wenzel,  J. Witte,  A. Yamada,  Kun Yao,  S. Yeganeh,  S. R. Yost,  
 A. Zech,  Igor Ying Zhang,  Xing Zhang,  Yu Zhang,  D. Zuev,  
 A. Aspuru-Guzik,  A. T. Bell,  N. A. Besley,  K. B. Bravaya,  B. R. Brooks,  
 D. Casanova,  Jeng-Da Chai,  S. Coriani,  C. J. Cramer,  
 A. E. DePrince, III,  R. A. DiStasio Jr.,  A. Dreuw,  B. D. Dunietz,  
 T. R. Furlani,  W. A. Goddard III,  S. Grimme,  S. Hammes-Schiffer,  
 T. Head-Gordon,  W. J. Hehre,  Chao-Ping Hsu,  T.-C. Jagau,  Yousung Jung,  
 A. Klamt,  Jing Kong,  D. S. Lambrecht,  WanZhen Liang,  N. J. Mayhall,  
 C. W. McCurdy,  J. B. Neaton,  C. Ochsenfeld,  J. A. Parkhill,  R. Peverati,  
 V. A. Rassolov,  Yihan Shao,  L. V. Slipchenko,  T. Stauch,  R. P. Steele,  
 J. E. Subotnik,  A. J. W. Thom,  A. Tkatchenko,  D. G. Truhlar,  
 T. Van Voorhis,  T. A. Wesolowski,  K. B. Whaley,  H. L. Woodcock III,  
 P. M. Zimmerman,  S. Faraji,  P. M. W. Gill,  M. Head-Gordon,  
 J. M. Herbert,  A. I. Krylov

 Contributors to earlier versions of Q-Chem not listed above: 
 R. D. Adamson,  B. Austin,  R. Baer,  J. Baker,  G. J. O. Beran,  
 K. Brandhorst,  S. T. Brown,  E. F. C. Byrd,  A. K. Chakraborty,  
 G. K. L. Chan,  Chun-Min Chang,  Yunqing Chen,  C.-L. Cheng,  
 Siu Hung Chien,  D. M. Chipman,  D. L. Crittenden,  H. Dachsel,  
 R. J. Doerksen,  A. D. Dutoi,  R. G. Edgar,  J. Fosso-Tande,  
 L. Fusti-Molnar,  D. Ghosh,  A. Ghysels,  A. Golubeva-Zadorozhnaya,  
 J. Gonthier,  M. S. Gordon,  S. R. Gwaltney,  G. Hawkins,  J. E. Herr,  
 A. Heyden,  S. Hirata,  E. G. Hohenstein,  G. Kedziora,  F. J. Keil,  
 C. Kelley,  Jihan Kim,  R. A. King,  R. Z. Khaliullin,  P. P. Korambath,  
 W. Kurlancheek,  A. Laurent,  A. M. Lee,  M. S. Lee,  S. V. Levchenko,  
 Ching Yeh Lin,  D. Liotard,  E. Livshits,  R. C. Lochan,  I. Lotan,  
 L. A. Martinez-Martinez,  P. E. Maslen,  N. Nair,  D. P. O'Neill,  
 D. Neuhauser,  E. Neuscamman,  C. M. Oana,  R. Olivares-Amaya,  R. Olson,  
 T. M. Perrine,  B. Peters,  P. A. Pieniazek,  A. Prociuk,  Y. M. Rhee,  
 J. Ritchie,  M. A. Rohrdanz,  E. Rosta,  N. J. Russ,  H. F. Schaefer III,  
 M. W. Schmidt,  N. E. Schultz,  S. Sharma,  N. Shenvi,  C. D. Sherrill,  
 A. C. Simmonett,  A. Sodt,  T. Stein,  D. Stuck,  K. S. Thanthiriwatte,  
 V. Vanovschi,  L. Vogt,  Tao Wang,  A. Warshel,  M. A. Watson,  
 C. F. Williams,  Q. Wu,  X. Xu,  Jun Yang,  W. Zhang,  Yan Zhao

 Please cite Q-Chem as follows:
 Y. Shao et al., Mol. Phys. 113, 184-215 (2015)
 DOI: 10.1080/00268976.2014.952696

 Q-Chem 5.4.0 for Intel X86 EM64T Linux

 Parts of Q-Chem use Armadillo 9.800.1 (Horizon Scraper).
 http://arma.sourceforge.net/

 Q-Chem begins on Sun Jul 10 05:22:04 2022  

 Host: 
0

     Scratch files written to ./qchem1763542//
 May1621 |scratch|qcdevops|jenkins|workspace|build_RNUM    
 Processing $rem in /cm/shared/apps/spack/cpu/opt/spack/linux-centos8-zen2/gcc-10.2.0/qchem-5.4-akfmr7b3t57bfs6qan3padb2wnb2i7cl/config/preferences:
 Processing $rem in /home/theleonzhang/.qchemrc:
 Symmetry turned off for PCM/SM12/SMD calculation
 Core orbitals will be frozen

 Checking the input file for inconsistencies... 	...done.

--------------------------------------------------------------
User input:
--------------------------------------------------------------
$molecule
0 1
C	0.133897	-3.866725	0.763475
C	-0.106669	-3.703963	-0.603206
C	-0.185154	-2.357056	-1.050446
H	-0.226709	-4.561092	-1.283024
C	-0.000000	-1.440664	-0.000000
S	0.268206	-2.286957	1.521018
C	-0.437628	-1.978743	-2.483610
H	-0.549717	-2.878678	-3.118875
H	0.394664	-1.376015	-2.903464
H	-1.363110	-1.375728	-2.593726
C	0.000000	0.000000	0.000000
C	0.149995	0.850475	1.099446
C	0.390327	2.213354	0.776721
H	0.085947	0.487279	2.136088
C	0.428665	2.430655	-0.612546
S	0.163670	0.928078	-1.486809
C	0.579235	3.284574	1.814609
H	0.505323	2.865404	2.836676
H	-0.185980	4.083890	1.726239
H	1.571698	3.773937	1.726228
H	0.593515	3.365448	-1.161575
H	1.077442	-4.392713	0.946698
H	-0.690363	-4.392347	1.258274
H	-1.063612	-1.440391	0.187427
$end

$rem
JOBTYPE		SP
EXCHANGE	HF
CORRELATION	pRIMP2
BASIS		cc-pvtz
METHOD		rimp2
AUX_BASIS	rimp2-cc-pvtz
SOLVENT_METHOD	PCM
PURECART	11111
SYMMETRY	false
MEM_TOTAL	110000
SCF_CONVERGENCE = 6
THRESH=10
$end



$solvent
dielectric 4.90
$end
--------------------------------------------------------------
 ----------------------------------------------------------------
             Standard Nuclear Orientation (Angstroms)
    I     Atom           X                Y                Z
 ----------------------------------------------------------------
    1      C       0.1338970000    -3.8667250000     0.7634750000
    2      C      -0.1066690000    -3.7039630000    -0.6032060000
    3      C      -0.1851540000    -2.3570560000    -1.0504460000
    4      H      -0.2267090000    -4.5610920000    -1.2830240000
    5      C       0.0000000000    -1.4406640000     0.0000000000
    6      S       0.2682060000    -2.2869570000     1.5210180000
    7      C      -0.4376280000    -1.9787430000    -2.4836100000
    8      H      -0.5497170000    -2.8786780000    -3.1188750000
    9      H       0.3946640000    -1.3760150000    -2.9034640000
   10      H      -1.3631100000    -1.3757280000    -2.5937260000
   11      C       0.0000000000     0.0000000000     0.0000000000
   12      C       0.1499950000     0.8504750000     1.0994460000
   13      C       0.3903270000     2.2133540000     0.7767210000
   14      H       0.0859470000     0.4872790000     2.1360880000
   15      C       0.4286650000     2.4306550000    -0.6125460000
   16      S       0.1636700000     0.9280780000    -1.4868090000
   17      C       0.5792350000     3.2845740000     1.8146090000
   18      H       0.5053230000     2.8654040000     2.8366760000
   19      H      -0.1859800000     4.0838900000     1.7262390000
   20      H       1.5716980000     3.7739370000     1.7262280000
   21      H       0.5935150000     3.3654480000    -1.1615750000
   22      H       1.0774420000    -4.3927130000     0.9466980000
   23      H      -0.6903630000    -4.3923470000     1.2582740000
   24      H      -1.0636120000    -1.4403910000     0.1874270000
 ----------------------------------------------------------------
 Nuclear Repulsion Energy =         876.54724376 hartrees
 There are       52 alpha and       52 beta electrons

 Q-Chem warning in module forms1/BasisType.C, line 2236:

 You are not using the predefined 5D/6D in this basis set.

 Requested basis set is cc-pVTZ
 There are 196 shells and 536 basis functions

 Total QAlloc Memory Limit 110000 MB
 Mega-Array Size       188 MB
 MEM_STATIC part       192 MB
 Discretize the solute cavity surface with Lebedev spheres
	Using 110 Lebedev grid points for each H atom
	Using 194 Lebedev grid points for other atoms
	Atomic van der Waals radii will be scaled by 1.20
 Remove points where switching function is < 1.0e-08
 Keep 1588 surface tesserae and discard 2060 interior tesserae
 Molecular Surface Area = 230.294 Angst**2
 Requested basis set is rimp2-cc-pVTZ
 There are 414 shells and 1414 basis functions
 A cutoff of  1.0D-10 yielded  13852 shell pairs
 There are    100428 function pairs (    128765 Cartesian)
 Smallest overlap matrix eigenvalue = 4.88E-05

 Scale SEOQF with 1.000000e-01/1.000000e-01/1.000000e-01

 Standard Electronic Orientation quadrupole field applied
 Nucleus-field energy     =     0.0000000214 hartrees
 Guess from superposition of atomic densities
 Warning:  Energy on first SCF cycle will be non-variational
 SAD guess density has 104.000000 electrons

 -----------------------------------------------------------------------
  General SCF calculation program by
  Eric Jon Sundstrom, Paul Horn, Yuezhi Mao, Dmitri Zuev, Alec White,
  David Stuck, Shaama M.S., Shane Yost, Joonho Lee, David Small,
  Daniel Levine, Susi Lehtola, Hugh Burton, Evgeny Epifanovsky,
  Bang C. Huynh
 -----------------------------------------------------------------------
 Hartree-Fock
 A restricted SCF calculation will be
 performed using DIIS
 SCF converges when DIIS error is below 1.0e-06
 ---------------------------------------
  Cycle       Energy         DIIS error
 ---------------------------------------
    1   -1186.0516758529      2.39e-02  
    2   -1180.6069674584      1.59e-03  
    3   -1180.7329955985      6.68e-04  
    4   -1180.7494113500      3.54e-04  
    5   -1180.7552265179      5.88e-05  
    6   -1180.7554726981      2.45e-05  
    7   -1180.7555288254      8.44e-06  
    8   -1180.7555402749      4.06e-06  
    9   -1180.7555427402      1.36e-06  
   10   -1180.7555431234      5.12e-07  Convergence criterion met
 ---------------------------------------
 SCF time:   CPU 568.98s  wall 572.00s 

************** Final PCM Free Energy Summary **************
 G_electrostatic  =      -0.00829631 hartree =      -5.20601377 kcal/mol
 G_cavitation     =       0.00000000 hartree =       0.00000000 kcal/mol
 G_dispersion     =       0.00000000 hartree =       0.00000000 kcal/mol
 G_repulsion      =       0.00000000 hartree =       0.00000000 kcal/mol
 --------------------------------------------------
 Non-electrostatic Free Energy =       0.00000000 hartree =       0.00000000 kcal/mol
 Total                         =      -0.00829631 hartree =      -5.20601377 kcal/mol
 --------------------------------------------------
 SCF Energy (H0 + V/2)                       =   -1180.75554312 
 Solute Internal Energy (H0)                 =   -1180.74724681 
 Total Free Energy (H0 + V/2 + non-elec)     =   -1180.75554312 hartree
                                             = -740935.28624567 kcal/mol
***********************************************************

 SCF   energy in the final basis set =    -1180.7555431234
 Total energy in the final basis set =    -1180.7555431234


 --------------------------------------------------------------
  Generalized many-body perturbation theory program
  by Joonho Lee, Fazle Rob, Xintian Feng, Evgeny Epifanovsky

 No regularization used 
 (reg. param. = 0.0000e+00)
  (P|Q)^-1/2 Time:  CPU 1.90 s  wall 1.91 s

 In RI-MP2 calculation: 
 # of frozen core orbitals: 20

 Components of the RIMP2 correlation energy:
        aaaa    correlation energy =        -0.2516688152 a.u.
        abab    correlation energy =        -1.5032970285 a.u.
        bbbb    correlation energy =        -0.2516688152 a.u.
        non-Brillouin singles      =        -0.0000000000 a.u.
        total same-spin energy     =        -0.5033376304 a.u.
        total opposite-spin energy =        -1.5032970285 a.u.

 Total  RIMP2   correlation energy =        -2.0066346590 a.u.
        RIMP2         total energy =     -1182.7621777824 a.u.

 RI-MP2 Energy Time:  CPU 79.99 s  wall 80.27 s
 
 --------------------------------------------------------------
 
                    Orbital Energies (a.u.)
 --------------------------------------------------------------
 
 Alpha MOs
 -- Occupied --
-91.9813 -91.9467 -11.2899 -11.2664 -11.2613 -11.2534 -11.2501 -11.2442
-11.2331 -11.2313 -11.2275 -11.2229  -8.9813  -8.9513  -6.6623  -6.6617
 -6.6610  -6.6326  -6.6316  -6.6304  -1.2025  -1.1523  -1.0609  -1.0287
 -1.0071  -0.9563  -0.9166  -0.9016  -0.8155  -0.7722  -0.7177  -0.7040
 -0.6609  -0.6481  -0.6109  -0.5912  -0.5828  -0.5726  -0.5679  -0.5542
 -0.5420  -0.5344  -0.5161  -0.5099  -0.4874  -0.4848  -0.4579  -0.4460
 -0.3591  -0.3417  -0.3263  -0.2642
 -- Virtual --
  0.1046   0.1325   0.1444   0.1507   0.1591   0.1709   0.1773   0.1830
  0.1909   0.1959   0.2046   0.2094   0.2274   0.2330   0.2389   0.2421
  0.2544   0.2586   0.2747   0.3037   0.3210   0.3365   0.3560   0.3597
  0.3723   0.3759   0.3847   0.3971   0.4074   0.4148   0.4208   0.4349
  0.4432   0.4496   0.4595   0.4616   0.4787   0.4809   0.4895   0.5049
  0.5092   0.5117   0.5274   0.5331   0.5456   0.5465   0.5533   0.5537
  0.5708   0.5761   0.5887   0.6008   0.6094   0.6116   0.6164   0.6170
  0.6231   0.6264   0.6314   0.6356   0.6390   0.6471   0.6493   0.6544
  0.6604   0.6700   0.6839   0.6882   0.6953   0.7126   0.7235   0.7311
  0.7408   0.7554   0.7608   0.7856   0.7939   0.8011   0.8105   0.8236
  0.8455   0.8576   0.8640   0.8686   0.8802   0.9002   0.9085   0.9159
  0.9310   0.9416   0.9504   0.9701   0.9793   0.9852   1.0019   1.0075
  1.0166   1.0268   1.0398   1.0528   1.0648   1.0717   1.0740   1.0829
  1.0899   1.0979   1.1092   1.1225   1.1391   1.1524   1.1570   1.1609
  1.1737   1.1838   1.1975   1.2118   1.2205   1.2210   1.2355   1.2381
  1.2626   1.2684   1.2703   1.2751   1.2822   1.2895   1.2946   1.3124
  1.3241   1.3362   1.3445   1.3688   1.3811   1.3939   1.4047   1.4138
  1.4145   1.4238   1.4464   1.4600   1.4746   1.4766   1.4864   1.4896
  1.5058   1.5165   1.5234   1.5292   1.5361   1.5402   1.5505   1.5574
  1.5700   1.5788   1.5914   1.5950   1.6075   1.6304   1.6393   1.6470
  1.6531   1.6633   1.6780   1.6925   1.7058   1.7182   1.7272   1.7406
  1.7467   1.7595   1.7766   1.8095   1.8203   1.8247   1.8401   1.8566
  1.8970   1.9164   1.9328   1.9480   1.9570   1.9753   1.9929   1.9989
  2.0153   2.0238   2.0566   2.0604   2.0663   2.1015   2.1518   2.1537
  2.1938   2.1989   2.2064   2.2179   2.2287   2.2527   2.2824   2.2965
  2.3006   2.3290   2.3519   2.3679   2.4146   2.4308   2.4557   2.4720
  2.4920   2.5186   2.5399   2.5422   2.5652   2.5941   2.6000   2.6124
  2.6449   2.6502   2.6580   2.6677   2.6833   2.6957   2.7085   2.7355
  2.7359   2.7499   2.7593   2.7665   2.7750   2.7822   2.8072   2.8188
  2.8301   2.8367   2.8535   2.8896   2.8936   2.9052   2.9076   2.9221
  2.9513   2.9612   2.9693   2.9904   2.9964   3.0122   3.0367   3.0474
  3.0549   3.0697   3.0960   3.1022   3.1138   3.1141   3.1248   3.1372
  3.1467   3.1564   3.1712   3.1763   3.1810   3.1920   3.2159   3.2232
  3.2301   3.2411   3.2535   3.2591   3.2677   3.2768   3.2958   3.3040
  3.3102   3.3283   3.3350   3.3389   3.3417   3.3482   3.3598   3.3724
  3.3819   3.3828   3.3919   3.3981   3.4080   3.4119   3.4220   3.4327
  3.4402   3.4500   3.4575   3.4613   3.4795   3.4932   3.4950   3.5056
  3.5076   3.5165   3.5258   3.5363   3.5529   3.5584   3.5680   3.5721
  3.5880   3.6019   3.6113   3.6256   3.6307   3.6401   3.6443   3.6600
  3.6672   3.6816   3.6959   3.7054   3.7139   3.7193   3.7357   3.7406
  3.7503   3.7549   3.7739   3.7799   3.7849   3.7937   3.8042   3.8127
  3.8297   3.8418   3.8471   3.8663   3.8728   3.8871   3.8992   3.9175
  3.9277   3.9370   3.9569   3.9634   3.9799   3.9892   4.0021   4.0138
  4.0273   4.0321   4.0451   4.0530   4.0706   4.0859   4.0946   4.1039
  4.1228   4.1383   4.1461   4.1553   4.1676   4.1736   4.1855   4.2037
  4.2113   4.2201   4.2256   4.2452   4.2493   4.2653   4.2748   4.2822
  4.2875   4.2966   4.3298   4.3428   4.3476   4.3520   4.3599   4.3639
  4.3737   4.3842   4.4031   4.4139   4.4197   4.4292   4.4355   4.4491
  4.4556   4.4610   4.4818   4.4935   4.5191   4.5273   4.5577   4.5771
  4.5891   4.5961   4.6080   4.6311   4.6359   4.6409   4.6749   4.6924
  4.7127   4.7218   4.7500   4.7759   4.7863   4.8104   4.8151   4.8280
  4.8519   4.8659   4.8888   4.9003   4.9291   4.9492   4.9736   4.9808
  5.0376   5.0663   5.0877   5.1049   5.1153   5.1238   5.1576   5.1907
  5.2010   5.2196   5.2533   5.2637   5.2896   5.2918   5.3051   5.3312
  5.3564   5.3657   5.3776   5.3917   5.4103   5.4161   5.4400   5.4556
  5.4721   5.5141   5.5213   5.5442   5.5531   5.5569   5.5691   5.5866
  5.6195   5.6357   5.6488   5.6749   5.6797   5.7012   5.7046   5.7315
  5.7609   5.7919   5.8491   5.9954   6.0109   6.1243   6.1484   6.1580
  6.2201   6.2279   6.2411   6.2494   6.2750   6.2839   6.3046   6.3389
  6.4241   6.5065   9.5751  10.8721  12.0628  12.9995  13.1984  13.9850
 14.1335  14.3005  14.4187  14.8221
 --------------------------------------------------------------
 
          Ground-State Mulliken Net Atomic Charges

     Atom                 Charge (a.u.)
  ----------------------------------------
      1 C                    -0.073511
      2 C                    -0.321174
      3 C                    -0.046288
      4 H                     0.179378
      5 C                     0.148811
      6 S                    -0.183863
      7 C                    -0.310260
      8 H                     0.122180
      9 H                     0.112976
     10 H                     0.114373
     11 C                    -0.027869
     12 C                    -0.328564
     13 C                     0.053885
     14 H                     0.177014
     15 C                    -0.281639
     16 S                     0.011151
     17 C                    -0.272266
     18 H                     0.102622
     19 H                     0.108074
     20 H                     0.108886
     21 H                     0.195364
     22 H                     0.113703
     23 H                     0.111245
     24 H                     0.185773
  ----------------------------------------
  Sum of atomic charges =     0.000000

 -----------------------------------------------------------------
                    Cartesian Multipole Moments
 -----------------------------------------------------------------
    Charge (ESU x 10^10)
                 0.0000
    Dipole Moment (Debye)
         X      -1.0739      Y      -0.4691      Z      -0.8665
       Tot       1.4574
    Quadrupole Moments (Debye-Ang)
        XX     -91.5840     XY       3.7469     YY     -73.3812
        XZ       0.0247     YZ       4.4004     ZZ     -85.4329
    Octopole Moments (Debye-Ang^2)
       XXX     -36.7563    XXY      46.1213    XYY      -7.5692
       YYY     115.5261    XXZ       0.3149    XYZ      -0.6714
       YYZ      -0.9284    XZZ     -12.4041    YZZ      49.3185
       ZZZ      -3.5191
    Hexadecapole Moments (Debye-Ang^3)
      XXXX    -185.1565   XXXY     -89.0634   XXYY    -553.5656
      XYYY     -63.6500   YYYY   -2742.9237   XXXZ     -67.4274
      XXYZ     -31.4757   XYYZ     -20.0528   YYYZ    -107.4464
      XXZZ    -223.3560   XYZZ     -16.5841   YYZZ    -651.2706
      XZZZ     -64.1206   YZZZ     -60.9960   ZZZZ   -1077.5367
 -----------------------------------------------------------------
 Total job time:  656.95s(wall), 649.89s(cpu) 
 Sun Jul 10 05:33:01 2022

        *************************************************************
        *                                                           *
        *  Thank you very much for using Q-Chem.  Have a nice day.  *
        *                                                           *
        *************************************************************


remove work dirs ./qchem1763542.0 -- ./qchem1763542.-1
rm -rf ./qchem1763542
You are running Q-Chem version: 5.4.0

#
# job setting
#
local host:  exp-1-04
current dir: /expanse/lustre/scratch/theleonzhang/temp_project/Hydrogenated_Rotation_Test
input file:  Methylthiophene_Phi_10_Theta_350_Methylthiophene_Hydrogenated.qcin
output file: 
nprocs     : 0
nthreads   : 1
#
# qchem installation setting
#
QC:          /cm/shared/apps/spack/cpu/opt/spack/linux-centos8-zen2/gcc-10.2.0/qchem-5.4-akfmr7b3t57bfs6qan3padb2wnb2i7cl
QCAUX:       /cm/shared/apps/spack/cpu/opt/spack/linux-centos8-zen2/gcc-10.2.0/qchem-5.4-akfmr7b3t57bfs6qan3padb2wnb2i7cl/qcaux
QCPROG:      /cm/shared/apps/spack/cpu/opt/spack/linux-centos8-zen2/gcc-10.2.0/qchem-5.4-akfmr7b3t57bfs6qan3padb2wnb2i7cl/exe/qcprog.exe_s
QCPROG_S:    /cm/shared/apps/spack/cpu/opt/spack/linux-centos8-zen2/gcc-10.2.0/qchem-5.4-akfmr7b3t57bfs6qan3padb2wnb2i7cl/exe/qcprog.exe_s
PARALLEL:    -DSERIAL
QCMPI:       mpich
#
# qchem directory setting
#
qcrun:       qchem1374067
QCSCRATCH:   .
QCLOCALSCR:  
QCTMPDIR:    .
QCFILEPREF:  ./qchem1374067
QCSAVEDIR:   
workdirs:    ./qchem1374067
workdir0:    ./qchem1374067
partmpdirs =  
#
# parallel setting
#
QCRSH:           ssh
QCMPI:           mpich
QCMPIRUN:        /cm/shared/apps/spack/cpu/opt/spack/linux-centos8-zen2/gcc-10.2.0/qchem-5.4-akfmr7b3t57bfs6qan3padb2wnb2i7cl/bin/mpi/mpirun_qchem
QCMACHINEFILE:   ./qchem1374067/hostfile

#
# env setting
#
exported envs:   QC QCAUX QCSCRATCH QCRUNNAME QCFILEPREF QCPROG QCPROG_S GUIFILE

Running Job 1 of 1 Methylthiophene_Phi_10_Theta_350_Methylthiophene_Hydrogenated.qcin
qchem Methylthiophene_Phi_10_Theta_350_Methylthiophene_Hydrogenated.qcin_1374067.0 ./qchem1374067/ 0
/cm/shared/apps/spack/cpu/opt/spack/linux-centos8-zen2/gcc-10.2.0/qchem-5.4-akfmr7b3t57bfs6qan3padb2wnb2i7cl/exe/qcprog.exe_s Methylthiophene_Phi_10_Theta_350_Methylthiophene_Hydrogenated.qcin_1374067.0 ./qchem1374067/
                  Welcome to Q-Chem
     A Quantum Leap Into The Future Of Chemistry


 Q-Chem 5.4, Q-Chem, Inc., Pleasanton, CA (2021)

 License issued to: University of California, San Diego (site)

 E. Epifanovsky,  A. T. B. Gilbert,  Xintian Feng,  Joonho Lee,  Yuezhi Mao,  
 N. Mardirossian,  P. Pokhilko,  A. White,  M. Wormit,  M. P. Coons,  
 A. L. Dempwolff,  Zhengting Gan,  D. Hait,  P. R. Horn,  L. D. Jacobson,  
 I. Kaliman,  J. Kussmann,  A. W. Lange,  Ka Un Lao,  D. S. Levine,  Jie Liu,  
 S. C. McKenzie,  A. F. Morrison,  K. Nanda,  F. Plasser,  D. R. Rehn,  
 M. L. Vidal,  Zhi-Qiang You,  Ying Zhu,  B. Alam,  B. Albrecht,  
 A. Aldossary,  E. Alguire,  J. H. Andersen,  D. Barton,  K. Begam,  A. Behn,  
 Y. A. Bernard,  E. J. Berquist,  H. Burton,  A. Carreras,  K. Carter-Fenk,  
 R. Chakraborty,  A. D. Chien,  K. D. Closser,  V. Cofer-Shabica,  
 S. Dasgupta,  Jia Deng,  M. de Wergifosse,  M. Diedenhofen,  Hainam Do,  
 S. Ehlert,  Po-Tung Fang,  S. Fatehi,  Qingguo Feng,  J. Gayvert,  
 Qinghui Ge,  G. Gidofalvi,  M. Goldey,  J. Gomes,  C. Gonzalez-Espinoza,  
 S. Gulania,  A. Gunina,  M. W. D. Hanson-Heine,  P. H. P. Harbach,  
 A. W. Hauser,  M. F. Herbst,  M. Hernandez Vera,  M. Hodecker,  
 Z. C. Holden,  S. Houck,  Xunkun Huang,  Kerwin Hui,  B. C. Huynh,  
 M. Ivanov,  Hyunjun Ji,  Hanjie Jiang,  B. Kaduk,  S. Kaehler,  
 K. Khistyaev,  Jaehoon Kim,  P. Klunzinger,  Z. Koczor-Benda,  
 Joong Hoon Koh,  D. Kosenkov,  L. Koulias,  T. Kowalczyk,  C. M. Krauter,  
 K. Kue,  A. Kunitsa,  T. Kus,  A. Landau,  K. V. Lawler,  D. Lefrancois,  
 S. Lehtola,  Rain Li,  Yi-Pei Li,  Jiashu Liang,  M. Liebenthal,  
 Hung-Hsuan Lin,  You-Sheng Lin,  Fenglai Liu,  Kuan-Yu Liu,  
 M. Loipersberger,  A. Luenser,  A. Manjanath,  P. Manohar,  E. Mansoor,  
 S. F. Manzer,  Shan-Ping Mao,  A. V. Marenich,  T. Markovich,  S. Mason,  
 S. A. Maurer,  P. F. McLaughlin,  M. F. S. J. Menger,  J.-M. Mewes,  
 S. A. Mewes,  P. Morgante,  J. W. Mullinax,  T. S. Nguyen-Beck,  
 K. J. Oosterbaan,  G. Paran,  Alexander C. Paul,  Suranjan K. Paul,  
 F. Pavosevic,  Zheng Pei,  S. Prager,  E. I. Proynov,  E. Ramos,  B. Rana,  
 A. E. Rask,  A. Rettig,  R. M. Richard,  F. Rob,  E. Rossomme,  T. Scheele,  
 M. Scheurer,  M. Schneider,  N. Sergueev,  S. M. Sharada,  W. Skomorowski,  
 D. W. Small,  C. J. Stein,  Yu-Chuan Su,  E. J. Sundstrom,  Zhen Tao,  
 J. Thirman,  T. Tsuchimochi,  N. M. Tubman,  S. P. Veccham,  O. Vydrov,  
 J. Wenzel,  J. Witte,  A. Yamada,  Kun Yao,  S. Yeganeh,  S. R. Yost,  
 A. Zech,  Igor Ying Zhang,  Xing Zhang,  Yu Zhang,  D. Zuev,  
 A. Aspuru-Guzik,  A. T. Bell,  N. A. Besley,  K. B. Bravaya,  B. R. Brooks,  
 D. Casanova,  Jeng-Da Chai,  S. Coriani,  C. J. Cramer,  
 A. E. DePrince, III,  R. A. DiStasio Jr.,  A. Dreuw,  B. D. Dunietz,  
 T. R. Furlani,  W. A. Goddard III,  S. Grimme,  S. Hammes-Schiffer,  
 T. Head-Gordon,  W. J. Hehre,  Chao-Ping Hsu,  T.-C. Jagau,  Yousung Jung,  
 A. Klamt,  Jing Kong,  D. S. Lambrecht,  WanZhen Liang,  N. J. Mayhall,  
 C. W. McCurdy,  J. B. Neaton,  C. Ochsenfeld,  J. A. Parkhill,  R. Peverati,  
 V. A. Rassolov,  Yihan Shao,  L. V. Slipchenko,  T. Stauch,  R. P. Steele,  
 J. E. Subotnik,  A. J. W. Thom,  A. Tkatchenko,  D. G. Truhlar,  
 T. Van Voorhis,  T. A. Wesolowski,  K. B. Whaley,  H. L. Woodcock III,  
 P. M. Zimmerman,  S. Faraji,  P. M. W. Gill,  M. Head-Gordon,  
 J. M. Herbert,  A. I. Krylov

 Contributors to earlier versions of Q-Chem not listed above: 
 R. D. Adamson,  B. Austin,  R. Baer,  J. Baker,  G. J. O. Beran,  
 K. Brandhorst,  S. T. Brown,  E. F. C. Byrd,  A. K. Chakraborty,  
 G. K. L. Chan,  Chun-Min Chang,  Yunqing Chen,  C.-L. Cheng,  
 Siu Hung Chien,  D. M. Chipman,  D. L. Crittenden,  H. Dachsel,  
 R. J. Doerksen,  A. D. Dutoi,  R. G. Edgar,  J. Fosso-Tande,  
 L. Fusti-Molnar,  D. Ghosh,  A. Ghysels,  A. Golubeva-Zadorozhnaya,  
 J. Gonthier,  M. S. Gordon,  S. R. Gwaltney,  G. Hawkins,  J. E. Herr,  
 A. Heyden,  S. Hirata,  E. G. Hohenstein,  G. Kedziora,  F. J. Keil,  
 C. Kelley,  Jihan Kim,  R. A. King,  R. Z. Khaliullin,  P. P. Korambath,  
 W. Kurlancheek,  A. Laurent,  A. M. Lee,  M. S. Lee,  S. V. Levchenko,  
 Ching Yeh Lin,  D. Liotard,  E. Livshits,  R. C. Lochan,  I. Lotan,  
 L. A. Martinez-Martinez,  P. E. Maslen,  N. Nair,  D. P. O'Neill,  
 D. Neuhauser,  E. Neuscamman,  C. M. Oana,  R. Olivares-Amaya,  R. Olson,  
 T. M. Perrine,  B. Peters,  P. A. Pieniazek,  A. Prociuk,  Y. M. Rhee,  
 J. Ritchie,  M. A. Rohrdanz,  E. Rosta,  N. J. Russ,  H. F. Schaefer III,  
 M. W. Schmidt,  N. E. Schultz,  S. Sharma,  N. Shenvi,  C. D. Sherrill,  
 A. C. Simmonett,  A. Sodt,  T. Stein,  D. Stuck,  K. S. Thanthiriwatte,  
 V. Vanovschi,  L. Vogt,  Tao Wang,  A. Warshel,  M. A. Watson,  
 C. F. Williams,  Q. Wu,  X. Xu,  Jun Yang,  W. Zhang,  Yan Zhao

 Please cite Q-Chem as follows:
 Y. Shao et al., Mol. Phys. 113, 184-215 (2015)
 DOI: 10.1080/00268976.2014.952696

 Q-Chem 5.4.0 for Intel X86 EM64T Linux

 Parts of Q-Chem use Armadillo 9.800.1 (Horizon Scraper).
 http://arma.sourceforge.net/

 Q-Chem begins on Sun Jul 10 05:56:44 2022  

 Host: 
0

     Scratch files written to ./qchem1374067//
 May1621 |scratch|qcdevops|jenkins|workspace|build_RNUM    
 Processing $rem in /cm/shared/apps/spack/cpu/opt/spack/linux-centos8-zen2/gcc-10.2.0/qchem-5.4-akfmr7b3t57bfs6qan3padb2wnb2i7cl/config/preferences:
 Processing $rem in /home/theleonzhang/.qchemrc:
 Symmetry turned off for PCM/SM12/SMD calculation
 Core orbitals will be frozen

 Checking the input file for inconsistencies... 	...done.

--------------------------------------------------------------
User input:
--------------------------------------------------------------
$molecule
0 1
C	0.133897	-3.866725	0.763475
C	-0.106669	-3.703963	-0.603206
C	-0.185154	-2.357056	-1.050446
H	-0.226709	-4.561092	-1.283024
C	-0.000000	-1.440664	-0.000000
S	0.268206	-2.286957	1.521018
C	-0.437628	-1.978743	-2.483610
H	-0.549717	-2.878678	-3.118875
H	0.394664	-1.376015	-2.903464
H	-1.363110	-1.375728	-2.593726
C	0.000000	0.000000	0.000000
C	0.149995	0.850475	1.099446
C	0.390327	2.213354	0.776721
H	0.085947	0.487279	2.136088
C	0.428665	2.430655	-0.612546
S	0.163670	0.928078	-1.486809
C	0.579235	3.284574	1.814609
H	0.505323	2.865404	2.836676
H	-0.185980	4.083890	1.726239
H	1.571698	3.773937	1.726228
H	0.593515	3.365448	-1.161575
H	1.077442	-4.392713	0.946698
H	-0.690363	-4.392347	1.258274
H	-1.063612	-1.440391	0.187427
$end

$rem
JOBTYPE		SP
EXCHANGE	HF
CORRELATION	pRIMP2
BASIS		cc-pvtz
METHOD		rimp2
AUX_BASIS	rimp2-cc-pvtz
SOLVENT_METHOD	PCM
PURECART	11111
SYMMETRY	false
MEM_TOTAL	110000
SCF_CONVERGENCE = 6
THRESH=10
$end



$solvent
dielectric 4.90
$end
--------------------------------------------------------------
 ----------------------------------------------------------------
             Standard Nuclear Orientation (Angstroms)
    I     Atom           X                Y                Z
 ----------------------------------------------------------------
    1      C       0.1338970000    -3.8667250000     0.7634750000
    2      C      -0.1066690000    -3.7039630000    -0.6032060000
    3      C      -0.1851540000    -2.3570560000    -1.0504460000
    4      H      -0.2267090000    -4.5610920000    -1.2830240000
    5      C       0.0000000000    -1.4406640000     0.0000000000
    6      S       0.2682060000    -2.2869570000     1.5210180000
    7      C      -0.4376280000    -1.9787430000    -2.4836100000
    8      H      -0.5497170000    -2.8786780000    -3.1188750000
    9      H       0.3946640000    -1.3760150000    -2.9034640000
   10      H      -1.3631100000    -1.3757280000    -2.5937260000
   11      C       0.0000000000     0.0000000000     0.0000000000
   12      C       0.1499950000     0.8504750000     1.0994460000
   13      C       0.3903270000     2.2133540000     0.7767210000
   14      H       0.0859470000     0.4872790000     2.1360880000
   15      C       0.4286650000     2.4306550000    -0.6125460000
   16      S       0.1636700000     0.9280780000    -1.4868090000
   17      C       0.5792350000     3.2845740000     1.8146090000
   18      H       0.5053230000     2.8654040000     2.8366760000
   19      H      -0.1859800000     4.0838900000     1.7262390000
   20      H       1.5716980000     3.7739370000     1.7262280000
   21      H       0.5935150000     3.3654480000    -1.1615750000
   22      H       1.0774420000    -4.3927130000     0.9466980000
   23      H      -0.6903630000    -4.3923470000     1.2582740000
   24      H      -1.0636120000    -1.4403910000     0.1874270000
 ----------------------------------------------------------------
 Nuclear Repulsion Energy =         876.54724376 hartrees
 There are       52 alpha and       52 beta electrons

 Q-Chem warning in module forms1/BasisType.C, line 2236:

 You are not using the predefined 5D/6D in this basis set.

 Requested basis set is cc-pVTZ
 There are 196 shells and 536 basis functions

 Total QAlloc Memory Limit 110000 MB
 Mega-Array Size       188 MB
 MEM_STATIC part       192 MB
 Discretize the solute cavity surface with Lebedev spheres
	Using 110 Lebedev grid points for each H atom
	Using 194 Lebedev grid points for other atoms
	Atomic van der Waals radii will be scaled by 1.20
 Remove points where switching function is < 1.0e-08
 Keep 1588 surface tesserae and discard 2060 interior tesserae
 Molecular Surface Area = 230.294 Angst**2
 Requested basis set is rimp2-cc-pVTZ
 There are 414 shells and 1414 basis functions
 A cutoff of  1.0D-10 yielded  13852 shell pairs
 There are    100428 function pairs (    128765 Cartesian)
 Smallest overlap matrix eigenvalue = 4.88E-05

 Scale SEOQF with 1.000000e-01/1.000000e-01/1.000000e-01

 Standard Electronic Orientation quadrupole field applied
 Nucleus-field energy     =     0.0000000214 hartrees
 Guess from superposition of atomic densities
 Warning:  Energy on first SCF cycle will be non-variational
 SAD guess density has 104.000000 electrons

 -----------------------------------------------------------------------
  General SCF calculation program by
  Eric Jon Sundstrom, Paul Horn, Yuezhi Mao, Dmitri Zuev, Alec White,
  David Stuck, Shaama M.S., Shane Yost, Joonho Lee, David Small,
  Daniel Levine, Susi Lehtola, Hugh Burton, Evgeny Epifanovsky,
  Bang C. Huynh
 -----------------------------------------------------------------------
 Hartree-Fock
 A restricted SCF calculation will be
 performed using DIIS
 SCF converges when DIIS error is below 1.0e-06
 ---------------------------------------
  Cycle       Energy         DIIS error
 ---------------------------------------
    1   -1186.0516758529      2.39e-02  
    2   -1180.6069674584      1.59e-03  
    3   -1180.7329955985      6.68e-04  
    4   -1180.7494113500      3.54e-04  
    5   -1180.7552265179      5.88e-05  
    6   -1180.7554726981      2.45e-05  
    7   -1180.7555288254      8.44e-06  
    8   -1180.7555402749      4.06e-06  
    9   -1180.7555427402      1.36e-06  
   10   -1180.7555431234      5.12e-07  Convergence criterion met
 ---------------------------------------
 SCF time:   CPU 574.38s  wall 577.00s 

************** Final PCM Free Energy Summary **************
 G_electrostatic  =      -0.00829631 hartree =      -5.20601377 kcal/mol
 G_cavitation     =       0.00000000 hartree =       0.00000000 kcal/mol
 G_dispersion     =       0.00000000 hartree =       0.00000000 kcal/mol
 G_repulsion      =       0.00000000 hartree =       0.00000000 kcal/mol
 --------------------------------------------------
 Non-electrostatic Free Energy =       0.00000000 hartree =       0.00000000 kcal/mol
 Total                         =      -0.00829631 hartree =      -5.20601377 kcal/mol
 --------------------------------------------------
 SCF Energy (H0 + V/2)                       =   -1180.75554312 
 Solute Internal Energy (H0)                 =   -1180.74724681 
 Total Free Energy (H0 + V/2 + non-elec)     =   -1180.75554312 hartree
                                             = -740935.28624567 kcal/mol
***********************************************************

 SCF   energy in the final basis set =    -1180.7555431234
 Total energy in the final basis set =    -1180.7555431234


 --------------------------------------------------------------
  Generalized many-body perturbation theory program
  by Joonho Lee, Fazle Rob, Xintian Feng, Evgeny Epifanovsky

 No regularization used 
 (reg. param. = 0.0000e+00)
  (P|Q)^-1/2 Time:  CPU 1.93 s  wall 1.94 s

 In RI-MP2 calculation: 
 # of frozen core orbitals: 20

 Components of the RIMP2 correlation energy:
        aaaa    correlation energy =        -0.2516688152 a.u.
        abab    correlation energy =        -1.5032970285 a.u.
        bbbb    correlation energy =        -0.2516688152 a.u.
        non-Brillouin singles      =        -0.0000000000 a.u.
        total same-spin energy     =        -0.5033376304 a.u.
        total opposite-spin energy =        -1.5032970285 a.u.

 Total  RIMP2   correlation energy =        -2.0066346590 a.u.
        RIMP2         total energy =     -1182.7621777824 a.u.

 RI-MP2 Energy Time:  CPU 79.83 s  wall 80.20 s
 
 --------------------------------------------------------------
 
                    Orbital Energies (a.u.)
 --------------------------------------------------------------
 
 Alpha MOs
 -- Occupied --
-91.9813 -91.9467 -11.2899 -11.2664 -11.2613 -11.2534 -11.2501 -11.2442
-11.2331 -11.2313 -11.2275 -11.2229  -8.9813  -8.9513  -6.6623  -6.6617
 -6.6610  -6.6326  -6.6316  -6.6304  -1.2025  -1.1523  -1.0609  -1.0287
 -1.0071  -0.9563  -0.9166  -0.9016  -0.8155  -0.7722  -0.7177  -0.7040
 -0.6609  -0.6481  -0.6109  -0.5912  -0.5828  -0.5726  -0.5679  -0.5542
 -0.5420  -0.5344  -0.5161  -0.5099  -0.4874  -0.4848  -0.4579  -0.4460
 -0.3591  -0.3417  -0.3263  -0.2642
 -- Virtual --
  0.1046   0.1325   0.1444   0.1507   0.1591   0.1709   0.1773   0.1830
  0.1909   0.1959   0.2046   0.2094   0.2274   0.2330   0.2389   0.2421
  0.2544   0.2586   0.2747   0.3037   0.3210   0.3365   0.3560   0.3597
  0.3723   0.3759   0.3847   0.3971   0.4074   0.4148   0.4208   0.4349
  0.4432   0.4496   0.4595   0.4616   0.4787   0.4809   0.4895   0.5049
  0.5092   0.5117   0.5274   0.5331   0.5456   0.5465   0.5533   0.5537
  0.5708   0.5761   0.5887   0.6008   0.6094   0.6116   0.6164   0.6170
  0.6231   0.6264   0.6314   0.6356   0.6390   0.6471   0.6493   0.6544
  0.6604   0.6700   0.6839   0.6882   0.6953   0.7126   0.7235   0.7311
  0.7408   0.7554   0.7608   0.7856   0.7939   0.8011   0.8105   0.8236
  0.8455   0.8576   0.8640   0.8686   0.8802   0.9002   0.9085   0.9159
  0.9310   0.9416   0.9504   0.9701   0.9793   0.9852   1.0019   1.0075
  1.0166   1.0268   1.0398   1.0528   1.0648   1.0717   1.0740   1.0829
  1.0899   1.0979   1.1092   1.1225   1.1391   1.1524   1.1570   1.1609
  1.1737   1.1838   1.1975   1.2118   1.2205   1.2210   1.2355   1.2381
  1.2626   1.2684   1.2703   1.2751   1.2822   1.2895   1.2946   1.3124
  1.3241   1.3362   1.3445   1.3688   1.3811   1.3939   1.4047   1.4138
  1.4145   1.4238   1.4464   1.4600   1.4746   1.4766   1.4864   1.4896
  1.5058   1.5165   1.5234   1.5292   1.5361   1.5402   1.5505   1.5574
  1.5700   1.5788   1.5914   1.5950   1.6075   1.6304   1.6393   1.6470
  1.6531   1.6633   1.6780   1.6925   1.7058   1.7182   1.7272   1.7406
  1.7467   1.7595   1.7766   1.8095   1.8203   1.8247   1.8401   1.8566
  1.8970   1.9164   1.9328   1.9480   1.9570   1.9753   1.9929   1.9989
  2.0153   2.0238   2.0566   2.0604   2.0663   2.1015   2.1518   2.1537
  2.1938   2.1989   2.2064   2.2179   2.2287   2.2527   2.2824   2.2965
  2.3006   2.3290   2.3519   2.3679   2.4146   2.4308   2.4557   2.4720
  2.4920   2.5186   2.5399   2.5422   2.5652   2.5941   2.6000   2.6124
  2.6449   2.6502   2.6580   2.6677   2.6833   2.6957   2.7085   2.7355
  2.7359   2.7499   2.7593   2.7665   2.7750   2.7822   2.8072   2.8188
  2.8301   2.8367   2.8535   2.8896   2.8936   2.9052   2.9076   2.9221
  2.9513   2.9612   2.9693   2.9904   2.9964   3.0122   3.0367   3.0474
  3.0549   3.0697   3.0960   3.1022   3.1138   3.1141   3.1248   3.1372
  3.1467   3.1564   3.1712   3.1763   3.1810   3.1920   3.2159   3.2232
  3.2301   3.2411   3.2535   3.2591   3.2677   3.2768   3.2958   3.3040
  3.3102   3.3283   3.3350   3.3389   3.3417   3.3482   3.3598   3.3724
  3.3819   3.3828   3.3919   3.3981   3.4080   3.4119   3.4220   3.4327
  3.4402   3.4500   3.4575   3.4613   3.4795   3.4932   3.4950   3.5056
  3.5076   3.5165   3.5258   3.5363   3.5529   3.5584   3.5680   3.5721
  3.5880   3.6019   3.6113   3.6256   3.6307   3.6401   3.6443   3.6600
  3.6672   3.6816   3.6959   3.7054   3.7139   3.7193   3.7357   3.7406
  3.7503   3.7549   3.7739   3.7799   3.7849   3.7937   3.8042   3.8127
  3.8297   3.8418   3.8471   3.8663   3.8728   3.8871   3.8992   3.9175
  3.9277   3.9370   3.9569   3.9634   3.9799   3.9892   4.0021   4.0138
  4.0273   4.0321   4.0451   4.0530   4.0706   4.0859   4.0946   4.1039
  4.1228   4.1383   4.1461   4.1553   4.1676   4.1736   4.1855   4.2037
  4.2113   4.2201   4.2256   4.2452   4.2493   4.2653   4.2748   4.2822
  4.2875   4.2966   4.3298   4.3428   4.3476   4.3520   4.3599   4.3639
  4.3737   4.3842   4.4031   4.4139   4.4197   4.4292   4.4355   4.4491
  4.4556   4.4610   4.4818   4.4935   4.5191   4.5273   4.5577   4.5771
  4.5891   4.5961   4.6080   4.6311   4.6359   4.6409   4.6749   4.6924
  4.7127   4.7218   4.7500   4.7759   4.7863   4.8104   4.8151   4.8280
  4.8519   4.8659   4.8888   4.9003   4.9291   4.9492   4.9736   4.9808
  5.0376   5.0663   5.0877   5.1049   5.1153   5.1238   5.1576   5.1907
  5.2010   5.2196   5.2533   5.2637   5.2896   5.2918   5.3051   5.3312
  5.3564   5.3657   5.3776   5.3917   5.4103   5.4161   5.4400   5.4556
  5.4721   5.5141   5.5213   5.5442   5.5531   5.5569   5.5691   5.5866
  5.6195   5.6357   5.6488   5.6749   5.6797   5.7012   5.7046   5.7315
  5.7609   5.7919   5.8491   5.9954   6.0109   6.1243   6.1484   6.1580
  6.2201   6.2279   6.2411   6.2494   6.2750   6.2839   6.3046   6.3389
  6.4241   6.5065   9.5751  10.8721  12.0628  12.9995  13.1984  13.9850
 14.1335  14.3005  14.4187  14.8221
 --------------------------------------------------------------
 
          Ground-State Mulliken Net Atomic Charges

     Atom                 Charge (a.u.)
  ----------------------------------------
      1 C                    -0.073511
      2 C                    -0.321174
      3 C                    -0.046288
      4 H                     0.179378
      5 C                     0.148811
      6 S                    -0.183863
      7 C                    -0.310260
      8 H                     0.122180
      9 H                     0.112976
     10 H                     0.114373
     11 C                    -0.027869
     12 C                    -0.328564
     13 C                     0.053885
     14 H                     0.177014
     15 C                    -0.281639
     16 S                     0.011151
     17 C                    -0.272266
     18 H                     0.102622
     19 H                     0.108074
     20 H                     0.108886
     21 H                     0.195364
     22 H                     0.113703
     23 H                     0.111245
     24 H                     0.185773
  ----------------------------------------
  Sum of atomic charges =     0.000000

 -----------------------------------------------------------------
                    Cartesian Multipole Moments
 -----------------------------------------------------------------
    Charge (ESU x 10^10)
                 0.0000
    Dipole Moment (Debye)
         X      -1.0739      Y      -0.4691      Z      -0.8665
       Tot       1.4574
    Quadrupole Moments (Debye-Ang)
        XX     -91.5840     XY       3.7469     YY     -73.3812
        XZ       0.0247     YZ       4.4004     ZZ     -85.4329
    Octopole Moments (Debye-Ang^2)
       XXX     -36.7563    XXY      46.1213    XYY      -7.5692
       YYY     115.5261    XXZ       0.3149    XYZ      -0.6714
       YYZ      -0.9284    XZZ     -12.4041    YZZ      49.3185
       ZZZ      -3.5191
    Hexadecapole Moments (Debye-Ang^3)
      XXXX    -185.1565   XXXY     -89.0634   XXYY    -553.5656
      XYYY     -63.6500   YYYY   -2742.9237   XXXZ     -67.4274
      XXYZ     -31.4757   XYYZ     -20.0528   YYYZ    -107.4464
      XXZZ    -223.3560   XYZZ     -16.5841   YYZZ    -651.2706
      XZZZ     -64.1206   YZZZ     -60.9960   ZZZZ   -1077.5367
 -----------------------------------------------------------------
 Total job time:  659.26s(wall), 655.15s(cpu) 
 Sun Jul 10 06:07:43 2022

        *************************************************************
        *                                                           *
        *  Thank you very much for using Q-Chem.  Have a nice day.  *
        *                                                           *
        *************************************************************


remove work dirs ./qchem1374067.0 -- ./qchem1374067.-1
rm -rf ./qchem1374067
