You are running Q-Chem version: 5.4.0

#
# job setting
#
local host:  exp-1-30
current dir: /expanse/lustre/scratch/theleonzhang/temp_project/Hydrogenated_Rotation_Test
input file:  Methylthiophene_Phi_60_Theta_190_Methylthiophene_Hydrogenated.qcin
output file: 
nprocs     : 0
nthreads   : 1
#
# qchem installation setting
#
QC:          /cm/shared/apps/spack/cpu/opt/spack/linux-centos8-zen2/gcc-10.2.0/qchem-5.4-akfmr7b3t57bfs6qan3padb2wnb2i7cl
QCAUX:       /cm/shared/apps/spack/cpu/opt/spack/linux-centos8-zen2/gcc-10.2.0/qchem-5.4-akfmr7b3t57bfs6qan3padb2wnb2i7cl/qcaux
QCPROG:      /cm/shared/apps/spack/cpu/opt/spack/linux-centos8-zen2/gcc-10.2.0/qchem-5.4-akfmr7b3t57bfs6qan3padb2wnb2i7cl/exe/qcprog.exe_s
QCPROG_S:    /cm/shared/apps/spack/cpu/opt/spack/linux-centos8-zen2/gcc-10.2.0/qchem-5.4-akfmr7b3t57bfs6qan3padb2wnb2i7cl/exe/qcprog.exe_s
PARALLEL:    -DSERIAL
QCMPI:       mpich
#
# qchem directory setting
#
qcrun:       qchem761219
QCSCRATCH:   .
QCLOCALSCR:  
QCTMPDIR:    .
QCFILEPREF:  ./qchem761219
QCSAVEDIR:   
workdirs:    ./qchem761219
workdir0:    ./qchem761219
partmpdirs =  
#
# parallel setting
#
QCRSH:           ssh
QCMPI:           mpich
QCMPIRUN:        /cm/shared/apps/spack/cpu/opt/spack/linux-centos8-zen2/gcc-10.2.0/qchem-5.4-akfmr7b3t57bfs6qan3padb2wnb2i7cl/bin/mpi/mpirun_qchem
QCMACHINEFILE:   ./qchem761219/hostfile

#
# env setting
#
exported envs:   QC QCAUX QCSCRATCH QCRUNNAME QCFILEPREF QCPROG QCPROG_S GUIFILE

Running Job 1 of 1 Methylthiophene_Phi_60_Theta_190_Methylthiophene_Hydrogenated.qcin
qchem Methylthiophene_Phi_60_Theta_190_Methylthiophene_Hydrogenated.qcin_761219.0 ./qchem761219/ 0
/cm/shared/apps/spack/cpu/opt/spack/linux-centos8-zen2/gcc-10.2.0/qchem-5.4-akfmr7b3t57bfs6qan3padb2wnb2i7cl/exe/qcprog.exe_s Methylthiophene_Phi_60_Theta_190_Methylthiophene_Hydrogenated.qcin_761219.0 ./qchem761219/
                  Welcome to Q-Chem
     A Quantum Leap Into The Future Of Chemistry


 Q-Chem 5.4, Q-Chem, Inc., Pleasanton, CA (2021)

 License issued to: University of California, San Diego (site)

 E. Epifanovsky,  A. T. B. Gilbert,  Xintian Feng,  Joonho Lee,  Yuezhi Mao,  
 N. Mardirossian,  P. Pokhilko,  A. White,  M. Wormit,  M. P. Coons,  
 A. L. Dempwolff,  Zhengting Gan,  D. Hait,  P. R. Horn,  L. D. Jacobson,  
 I. Kaliman,  J. Kussmann,  A. W. Lange,  Ka Un Lao,  D. S. Levine,  Jie Liu,  
 S. C. McKenzie,  A. F. Morrison,  K. Nanda,  F. Plasser,  D. R. Rehn,  
 M. L. Vidal,  Zhi-Qiang You,  Ying Zhu,  B. Alam,  B. Albrecht,  
 A. Aldossary,  E. Alguire,  J. H. Andersen,  D. Barton,  K. Begam,  A. Behn,  
 Y. A. Bernard,  E. J. Berquist,  H. Burton,  A. Carreras,  K. Carter-Fenk,  
 R. Chakraborty,  A. D. Chien,  K. D. Closser,  V. Cofer-Shabica,  
 S. Dasgupta,  Jia Deng,  M. de Wergifosse,  M. Diedenhofen,  Hainam Do,  
 S. Ehlert,  Po-Tung Fang,  S. Fatehi,  Qingguo Feng,  J. Gayvert,  
 Qinghui Ge,  G. Gidofalvi,  M. Goldey,  J. Gomes,  C. Gonzalez-Espinoza,  
 S. Gulania,  A. Gunina,  M. W. D. Hanson-Heine,  P. H. P. Harbach,  
 A. W. Hauser,  M. F. Herbst,  M. Hernandez Vera,  M. Hodecker,  
 Z. C. Holden,  S. Houck,  Xunkun Huang,  Kerwin Hui,  B. C. Huynh,  
 M. Ivanov,  Hyunjun Ji,  Hanjie Jiang,  B. Kaduk,  S. Kaehler,  
 K. Khistyaev,  Jaehoon Kim,  P. Klunzinger,  Z. Koczor-Benda,  
 Joong Hoon Koh,  D. Kosenkov,  L. Koulias,  T. Kowalczyk,  C. M. Krauter,  
 K. Kue,  A. Kunitsa,  T. Kus,  A. Landau,  K. V. Lawler,  D. Lefrancois,  
 S. Lehtola,  Rain Li,  Yi-Pei Li,  Jiashu Liang,  M. Liebenthal,  
 Hung-Hsuan Lin,  You-Sheng Lin,  Fenglai Liu,  Kuan-Yu Liu,  
 M. Loipersberger,  A. Luenser,  A. Manjanath,  P. Manohar,  E. Mansoor,  
 S. F. Manzer,  Shan-Ping Mao,  A. V. Marenich,  T. Markovich,  S. Mason,  
 S. A. Maurer,  P. F. McLaughlin,  M. F. S. J. Menger,  J.-M. Mewes,  
 S. A. Mewes,  P. Morgante,  J. W. Mullinax,  T. S. Nguyen-Beck,  
 K. J. Oosterbaan,  G. Paran,  Alexander C. Paul,  Suranjan K. Paul,  
 F. Pavosevic,  Zheng Pei,  S. Prager,  E. I. Proynov,  E. Ramos,  B. Rana,  
 A. E. Rask,  A. Rettig,  R. M. Richard,  F. Rob,  E. Rossomme,  T. Scheele,  
 M. Scheurer,  M. Schneider,  N. Sergueev,  S. M. Sharada,  W. Skomorowski,  
 D. W. Small,  C. J. Stein,  Yu-Chuan Su,  E. J. Sundstrom,  Zhen Tao,  
 J. Thirman,  T. Tsuchimochi,  N. M. Tubman,  S. P. Veccham,  O. Vydrov,  
 J. Wenzel,  J. Witte,  A. Yamada,  Kun Yao,  S. Yeganeh,  S. R. Yost,  
 A. Zech,  Igor Ying Zhang,  Xing Zhang,  Yu Zhang,  D. Zuev,  
 A. Aspuru-Guzik,  A. T. Bell,  N. A. Besley,  K. B. Bravaya,  B. R. Brooks,  
 D. Casanova,  Jeng-Da Chai,  S. Coriani,  C. J. Cramer,  
 A. E. DePrince, III,  R. A. DiStasio Jr.,  A. Dreuw,  B. D. Dunietz,  
 T. R. Furlani,  W. A. Goddard III,  S. Grimme,  S. Hammes-Schiffer,  
 T. Head-Gordon,  W. J. Hehre,  Chao-Ping Hsu,  T.-C. Jagau,  Yousung Jung,  
 A. Klamt,  Jing Kong,  D. S. Lambrecht,  WanZhen Liang,  N. J. Mayhall,  
 C. W. McCurdy,  J. B. Neaton,  C. Ochsenfeld,  J. A. Parkhill,  R. Peverati,  
 V. A. Rassolov,  Yihan Shao,  L. V. Slipchenko,  T. Stauch,  R. P. Steele,  
 J. E. Subotnik,  A. J. W. Thom,  A. Tkatchenko,  D. G. Truhlar,  
 T. Van Voorhis,  T. A. Wesolowski,  K. B. Whaley,  H. L. Woodcock III,  
 P. M. Zimmerman,  S. Faraji,  P. M. W. Gill,  M. Head-Gordon,  
 J. M. Herbert,  A. I. Krylov

 Contributors to earlier versions of Q-Chem not listed above: 
 R. D. Adamson,  B. Austin,  R. Baer,  J. Baker,  G. J. O. Beran,  
 K. Brandhorst,  S. T. Brown,  E. F. C. Byrd,  A. K. Chakraborty,  
 G. K. L. Chan,  Chun-Min Chang,  Yunqing Chen,  C.-L. Cheng,  
 Siu Hung Chien,  D. M. Chipman,  D. L. Crittenden,  H. Dachsel,  
 R. J. Doerksen,  A. D. Dutoi,  R. G. Edgar,  J. Fosso-Tande,  
 L. Fusti-Molnar,  D. Ghosh,  A. Ghysels,  A. Golubeva-Zadorozhnaya,  
 J. Gonthier,  M. S. Gordon,  S. R. Gwaltney,  G. Hawkins,  J. E. Herr,  
 A. Heyden,  S. Hirata,  E. G. Hohenstein,  G. Kedziora,  F. J. Keil,  
 C. Kelley,  Jihan Kim,  R. A. King,  R. Z. Khaliullin,  P. P. Korambath,  
 W. Kurlancheek,  A. Laurent,  A. M. Lee,  M. S. Lee,  S. V. Levchenko,  
 Ching Yeh Lin,  D. Liotard,  E. Livshits,  R. C. Lochan,  I. Lotan,  
 L. A. Martinez-Martinez,  P. E. Maslen,  N. Nair,  D. P. O'Neill,  
 D. Neuhauser,  E. Neuscamman,  C. M. Oana,  R. Olivares-Amaya,  R. Olson,  
 T. M. Perrine,  B. Peters,  P. A. Pieniazek,  A. Prociuk,  Y. M. Rhee,  
 J. Ritchie,  M. A. Rohrdanz,  E. Rosta,  N. J. Russ,  H. F. Schaefer III,  
 M. W. Schmidt,  N. E. Schultz,  S. Sharma,  N. Shenvi,  C. D. Sherrill,  
 A. C. Simmonett,  A. Sodt,  T. Stein,  D. Stuck,  K. S. Thanthiriwatte,  
 V. Vanovschi,  L. Vogt,  Tao Wang,  A. Warshel,  M. A. Watson,  
 C. F. Williams,  Q. Wu,  X. Xu,  Jun Yang,  W. Zhang,  Yan Zhao

 Please cite Q-Chem as follows:
 Y. Shao et al., Mol. Phys. 113, 184-215 (2015)
 DOI: 10.1080/00268976.2014.952696

 Q-Chem 5.4.0 for Intel X86 EM64T Linux

 Parts of Q-Chem use Armadillo 9.800.1 (Horizon Scraper).
 http://arma.sourceforge.net/

 Q-Chem begins on Sun Jul 10 03:29:39 2022  

 Host: 
0

     Scratch files written to ./qchem761219//
 May1621 |scratch|qcdevops|jenkins|workspace|build_RNUM    
 Processing $rem in /cm/shared/apps/spack/cpu/opt/spack/linux-centos8-zen2/gcc-10.2.0/qchem-5.4-akfmr7b3t57bfs6qan3padb2wnb2i7cl/config/preferences:
 Processing $rem in /home/theleonzhang/.qchemrc:
 Symmetry turned off for PCM/SM12/SMD calculation
 Core orbitals will be frozen

 Checking the input file for inconsistencies... 	...done.

--------------------------------------------------------------
User input:
--------------------------------------------------------------
$molecule
0 1
C	0.135301	-3.866725	-0.763228
C	-0.106073	-3.703963	0.603311
C	-0.185286	-2.357056	1.050423
H	-0.225783	-4.561092	1.283188
C	0.000000	-1.440664	0.000000
S	0.268187	-2.286957	-1.521021
C	-0.438209	-1.978743	2.483507
H	-0.550153	-2.878678	3.118798
H	-1.363906	-1.376015	2.593381
H	0.393798	-1.375728	2.903516
C	0.000000	0.000000	0.000000
C	0.747916	0.431772	1.099446
C	1.946425	1.123709	0.776721
H	0.428523	0.247378	2.136088
C	2.137531	1.234018	-0.612546
S	0.816154	0.471179	-1.486809
C	2.888455	1.667564	1.814609
H	2.519842	1.454746	2.836676
H	3.008896	2.767543	1.726239
H	3.901271	1.221850	1.726228
H	2.959587	1.708609	-1.161575
H	-0.688674	-4.392713	-1.258111
H	1.079084	-4.392347	-0.946272
H	-1.063572	-1.440937	-0.187654
$end

$rem
JOBTYPE		SP
EXCHANGE	HF
CORRELATION	pRIMP2
BASIS		cc-pvtz
METHOD		rimp2
AUX_BASIS	rimp2-cc-pvtz
SOLVENT_METHOD	PCM
PURECART	11111
SYMMETRY	false
MEM_TOTAL	110000
SCF_CONVERGENCE = 6
THRESH=10
$end



$solvent
dielectric 4.90
$end
--------------------------------------------------------------
 ----------------------------------------------------------------
             Standard Nuclear Orientation (Angstroms)
    I     Atom           X                Y                Z
 ----------------------------------------------------------------
    1      C       0.1353010000    -3.8667250000    -0.7632280000
    2      C      -0.1060730000    -3.7039630000     0.6033110000
    3      C      -0.1852860000    -2.3570560000     1.0504230000
    4      H      -0.2257830000    -4.5610920000     1.2831880000
    5      C       0.0000000000    -1.4406640000     0.0000000000
    6      S       0.2681870000    -2.2869570000    -1.5210210000
    7      C      -0.4382090000    -1.9787430000     2.4835070000
    8      H      -0.5501530000    -2.8786780000     3.1187980000
    9      H      -1.3639060000    -1.3760150000     2.5933810000
   10      H       0.3937980000    -1.3757280000     2.9035160000
   11      C       0.0000000000     0.0000000000     0.0000000000
   12      C       0.7479160000     0.4317720000     1.0994460000
   13      C       1.9464250000     1.1237090000     0.7767210000
   14      H       0.4285230000     0.2473780000     2.1360880000
   15      C       2.1375310000     1.2340180000    -0.6125460000
   16      S       0.8161540000     0.4711790000    -1.4868090000
   17      C       2.8884550000     1.6675640000     1.8146090000
   18      H       2.5198420000     1.4547460000     2.8366760000
   19      H       3.0088960000     2.7675430000     1.7262390000
   20      H       3.9012710000     1.2218500000     1.7262280000
   21      H       2.9595870000     1.7086090000    -1.1615750000
   22      H      -0.6886740000    -4.3927130000    -1.2581110000
   23      H       1.0790840000    -4.3923470000    -0.9462720000
   24      H      -1.0635720000    -1.4409370000    -0.1876540000
 ----------------------------------------------------------------
 Nuclear Repulsion Energy =         904.49986448 hartrees
 There are       52 alpha and       52 beta electrons

 Q-Chem warning in module forms1/BasisType.C, line 2236:

 You are not using the predefined 5D/6D in this basis set.

 Requested basis set is cc-pVTZ
 There are 196 shells and 536 basis functions

 Total QAlloc Memory Limit 110000 MB
 Mega-Array Size       188 MB
 MEM_STATIC part       192 MB
 Discretize the solute cavity surface with Lebedev spheres
	Using 110 Lebedev grid points for each H atom
	Using 194 Lebedev grid points for other atoms
	Atomic van der Waals radii will be scaled by 1.20
 Remove points where switching function is < 1.0e-08
 Keep 1551 surface tesserae and discard 2097 interior tesserae
 Molecular Surface Area = 225.814 Angst**2
 Requested basis set is rimp2-cc-pVTZ
 There are 414 shells and 1414 basis functions
 A cutoff of  1.0D-10 yielded  14638 shell pairs
 There are    106074 function pairs (    135899 Cartesian)
 Smallest overlap matrix eigenvalue = 6.70E-05

 Scale SEOQF with 1.000000e-01/1.000000e-01/1.000000e-01

 Standard Electronic Orientation quadrupole field applied
 Nucleus-field energy     =     0.0000000162 hartrees
 Guess from superposition of atomic densities
 Warning:  Energy on first SCF cycle will be non-variational
 SAD guess density has 104.000000 electrons

 -----------------------------------------------------------------------
  General SCF calculation program by
  Eric Jon Sundstrom, Paul Horn, Yuezhi Mao, Dmitri Zuev, Alec White,
  David Stuck, Shaama M.S., Shane Yost, Joonho Lee, David Small,
  Daniel Levine, Susi Lehtola, Hugh Burton, Evgeny Epifanovsky,
  Bang C. Huynh
 -----------------------------------------------------------------------
 Hartree-Fock
 A restricted SCF calculation will be
 performed using DIIS
 SCF converges when DIIS error is below 1.0e-06
 ---------------------------------------
  Cycle       Energy         DIIS error
 ---------------------------------------
    1   -1186.2254535925      2.41e-02  
    2   -1180.5101283752      1.54e-03  
    3   -1180.6381957524      5.50e-04  
    4   -1180.6522226091      2.88e-04  
    5   -1180.6563304495      6.32e-05  
    6   -1180.6566778241      2.87e-05  
    7   -1180.6568015771      1.58e-05  
    8   -1180.6568504316      7.78e-06  
    9   -1180.6568677206      3.59e-06  
   10   -1180.6568708068      1.39e-06  
   11   -1180.6568712882      6.95e-07  Convergence criterion met
 ---------------------------------------
 SCF time:   CPU 699.96s  wall 703.00s 

************** Final PCM Free Energy Summary **************
 G_electrostatic  =      -0.01022430 hartree =      -6.41584482 kcal/mol
 G_cavitation     =       0.00000000 hartree =       0.00000000 kcal/mol
 G_dispersion     =       0.00000000 hartree =       0.00000000 kcal/mol
 G_repulsion      =       0.00000000 hartree =       0.00000000 kcal/mol
 --------------------------------------------------
 Non-electrostatic Free Energy =       0.00000000 hartree =       0.00000000 kcal/mol
 Total                         =      -0.01022430 hartree =      -6.41584482 kcal/mol
 --------------------------------------------------
 SCF Energy (H0 + V/2)                       =   -1180.65687129 
 Solute Internal Energy (H0)                 =   -1180.64664699 
 Total Free Energy (H0 + V/2 + non-elec)     =   -1180.65687129 hartree
                                             = -740873.36873456 kcal/mol
***********************************************************

 SCF   energy in the final basis set =    -1180.6568712882
 Total energy in the final basis set =    -1180.6568712882


 --------------------------------------------------------------
  Generalized many-body perturbation theory program
  by Joonho Lee, Fazle Rob, Xintian Feng, Evgeny Epifanovsky

 No regularization used 
 (reg. param. = 0.0000e+00)
  (P|Q)^-1/2 Time:  CPU 1.95 s  wall 1.95 s

 In RI-MP2 calculation: 
 # of frozen core orbitals: 20

 Components of the RIMP2 correlation energy:
        aaaa    correlation energy =        -0.2560634432 a.u.
        abab    correlation energy =        -1.5174372697 a.u.
        bbbb    correlation energy =        -0.2560634432 a.u.
        non-Brillouin singles      =        -0.0000000000 a.u.
        total same-spin energy     =        -0.5121268863 a.u.
        total opposite-spin energy =        -1.5174372697 a.u.

 Total  RIMP2   correlation energy =        -2.0295641561 a.u.
        RIMP2         total energy =     -1182.6864354442 a.u.

 RI-MP2 Energy Time:  CPU 83.28 s  wall 83.61 s
 
 --------------------------------------------------------------
 
                    Orbital Energies (a.u.)
 --------------------------------------------------------------
 
 Alpha MOs
 -- Occupied --
-91.9787 -91.9377 -11.2835 -11.2596 -11.2546 -11.2514 -11.2500 -11.2452
-11.2344 -11.2319 -11.2301 -11.2109  -8.9799  -8.9424  -6.6606  -6.6597
 -6.6595  -6.6237  -6.6226  -6.6213  -1.2045  -1.1525  -1.0574  -1.0329
 -0.9966  -0.9663  -0.9116  -0.9011  -0.8133  -0.7590  -0.7351  -0.7100
 -0.6486  -0.6394  -0.6121  -0.5971  -0.5866  -0.5680  -0.5663  -0.5485
 -0.5433  -0.5347  -0.5201  -0.5055  -0.4809  -0.4771  -0.4441  -0.4301
 -0.3621  -0.3368  -0.3202  -0.2492
 -- Virtual --
  0.0575   0.1321   0.1411   0.1512   0.1602   0.1701   0.1783   0.1829
  0.1856   0.2038   0.2105   0.2180   0.2236   0.2304   0.2407   0.2430
  0.2540   0.2637   0.2773   0.3057   0.3114   0.3192   0.3329   0.3645
  0.3672   0.3711   0.3844   0.3956   0.4001   0.4088   0.4219   0.4229
  0.4342   0.4385   0.4556   0.4673   0.4771   0.4840   0.4846   0.4982
  0.5043   0.5144   0.5199   0.5229   0.5378   0.5420   0.5551   0.5637
  0.5745   0.5784   0.5857   0.5958   0.6022   0.6105   0.6130   0.6209
  0.6275   0.6285   0.6303   0.6346   0.6440   0.6496   0.6527   0.6624
  0.6770   0.6842   0.6872   0.6894   0.7041   0.7069   0.7144   0.7250
  0.7399   0.7492   0.7595   0.7730   0.7856   0.7920   0.8155   0.8272
  0.8492   0.8549   0.8628   0.8681   0.8775   0.8889   0.9011   0.9047
  0.9210   0.9435   0.9592   0.9661   0.9739   0.9845   1.0021   1.0184
  1.0308   1.0372   1.0401   1.0529   1.0559   1.0711   1.0812   1.0850
  1.0921   1.1071   1.1157   1.1419   1.1519   1.1571   1.1625   1.1789
  1.1876   1.1992   1.2060   1.2120   1.2236   1.2260   1.2376   1.2531
  1.2567   1.2618   1.2673   1.2767   1.2861   1.3015   1.3093   1.3184
  1.3343   1.3401   1.3561   1.3679   1.3875   1.3944   1.4062   1.4158
  1.4201   1.4274   1.4446   1.4532   1.4723   1.4750   1.4928   1.5045
  1.5153   1.5188   1.5279   1.5344   1.5418   1.5509   1.5555   1.5614
  1.5795   1.5868   1.5991   1.6102   1.6186   1.6313   1.6494   1.6528
  1.6615   1.6678   1.6783   1.6966   1.7091   1.7121   1.7189   1.7390
  1.7527   1.7599   1.7951   1.7985   1.8116   1.8255   1.8518   1.8774
  1.8834   1.8979   1.9288   1.9363   1.9603   1.9932   2.0021   2.0122
  2.0306   2.0425   2.0648   2.0878   2.0898   2.1279   2.1305   2.1537
  2.1907   2.2044   2.2098   2.2161   2.2321   2.2421   2.2631   2.2877
  2.3041   2.3122   2.3562   2.4077   2.4171   2.4458   2.4562   2.4680
  2.4995   2.5315   2.5488   2.5518   2.5895   2.6031   2.6156   2.6276
  2.6442   2.6606   2.6629   2.6831   2.6894   2.6969   2.7224   2.7275
  2.7524   2.7626   2.7720   2.7742   2.7952   2.8057   2.8151   2.8287
  2.8390   2.8516   2.8659   2.8893   2.8918   2.9128   2.9250   2.9411
  2.9520   2.9723   2.9909   3.0032   3.0121   3.0242   3.0298   3.0366
  3.0485   3.0749   3.0974   3.1107   3.1226   3.1271   3.1339   3.1434
  3.1521   3.1567   3.1712   3.1843   3.1893   3.2020   3.2096   3.2251
  3.2361   3.2467   3.2538   3.2559   3.2764   3.2787   3.2991   3.3055
  3.3122   3.3178   3.3351   3.3378   3.3503   3.3562   3.3650   3.3689
  3.3762   3.3810   3.4047   3.4085   3.4108   3.4209   3.4283   3.4476
  3.4506   3.4549   3.4632   3.4668   3.4814   3.5008   3.5069   3.5151
  3.5271   3.5340   3.5424   3.5445   3.5615   3.5660   3.5750   3.5836
  3.5908   3.6138   3.6159   3.6396   3.6407   3.6536   3.6642   3.6805
  3.6847   3.6937   3.7062   3.7134   3.7277   3.7381   3.7435   3.7473
  3.7702   3.7792   3.7837   3.8007   3.8067   3.8081   3.8293   3.8378
  3.8494   3.8590   3.8675   3.8866   3.8913   3.9034   3.9167   3.9263
  3.9634   3.9684   3.9746   3.9795   4.0039   4.0121   4.0310   4.0452
  4.0471   4.0603   4.0683   4.0728   4.0852   4.0979   4.1169   4.1226
  4.1327   4.1552   4.1577   4.1712   4.1768   4.1830   4.1946   4.2107
  4.2203   4.2274   4.2446   4.2585   4.2682   4.2697   4.2804   4.2944
  4.3114   4.3201   4.3374   4.3415   4.3491   4.3627   4.3684   4.3873
  4.4023   4.4082   4.4153   4.4204   4.4375   4.4504   4.4611   4.4717
  4.4742   4.4832   4.4965   4.5059   4.5184   4.5469   4.5736   4.5873
  4.5895   4.6125   4.6251   4.6361   4.6467   4.6618   4.6754   4.7079
  4.7173   4.7421   4.7535   4.7703   4.8004   4.8247   4.8381   4.8457
  4.8850   4.9006   4.9230   4.9312   4.9516   4.9754   4.9901   5.0122
  5.0499   5.0675   5.0821   5.0911   5.1134   5.1238   5.1419   5.1682
  5.2020   5.2134   5.2308   5.2724   5.2825   5.3013   5.3133   5.3196
  5.3436   5.3782   5.3808   5.4029   5.4135   5.4414   5.4480   5.4657
  5.4877   5.5040   5.5341   5.5448   5.5538   5.5629   5.5818   5.6046
  5.6149   5.6223   5.6361   5.6693   5.6863   5.7002   5.7141   5.7214
  5.7812   5.8140   5.8302   6.0105   6.0398   6.0434   6.1126   6.1618
  6.2126   6.2301   6.2378   6.2473   6.2738   6.2779   6.3070   6.3340
  6.3822   6.4396   9.5122  10.4797  12.5932  12.8274  13.1877  13.9452
 14.1633  14.2313  14.3080  14.7621
 --------------------------------------------------------------
 
          Ground-State Mulliken Net Atomic Charges

     Atom                 Charge (a.u.)
  ----------------------------------------
      1 C                    -0.081610
      2 C                    -0.344538
      3 C                    -0.032627
      4 H                     0.172709
      5 C                     0.068914
      6 S                    -0.186770
      7 C                    -0.290295
      8 H                     0.119017
      9 H                     0.109934
     10 H                     0.098136
     11 C                    -0.155913
     12 C                    -0.145350
     13 C                    -0.017818
     14 H                     0.199998
     15 C                    -0.184915
     16 S                     0.028813
     17 C                    -0.269649
     18 H                     0.101109
     19 H                     0.108510
     20 H                     0.105807
     21 H                     0.200853
     22 H                     0.106387
     23 H                     0.107872
     24 H                     0.181423
  ----------------------------------------
  Sum of atomic charges =     0.000000

 -----------------------------------------------------------------
                    Cartesian Multipole Moments
 -----------------------------------------------------------------
    Charge (ESU x 10^10)
                -0.0000
    Dipole Moment (Debye)
         X       1.4628      Y       0.6779      Z       3.6649
       Tot       4.0039
    Quadrupole Moments (Debye-Ang)
        XX     -82.6137     XY       7.1026     YY     -84.4728
        XZ       0.4518     YZ      -2.5541     ZZ     -84.7507
    Octopole Moments (Debye-Ang^2)
       XXX    -155.5840    XXY      99.3974    XYY     -54.2524
       YYY     213.9806    XXZ      -6.5423    XYZ      -1.5130
       YYZ      -4.0583    XZZ     -54.6999    YZZ      82.7381
       ZZZ       8.5852
    Hexadecapole Moments (Debye-Ang^3)
      XXXX    -834.3525   XXXY    -176.3452   XXYY    -534.7809
      XYYY    -203.9911   YYYY   -2205.3177   XXXZ     -46.0096
      XXYZ     -23.5346   XYYZ     -19.5718   YYYZ     -45.1428
      XXZZ    -321.9146   XYZZ     -53.5451   YYZZ    -560.7570
      XZZZ     -38.4213   YZZZ     -79.0834   ZZZZ   -1077.7197
 -----------------------------------------------------------------
 Total job time:  789.25s(wall), 784.19s(cpu) 
 Sun Jul 10 03:42:48 2022

        *************************************************************
        *                                                           *
        *  Thank you very much for using Q-Chem.  Have a nice day.  *
        *                                                           *
        *************************************************************


remove work dirs ./qchem761219.0 -- ./qchem761219.-1
rm -rf ./qchem761219
