You are running Q-Chem version: 5.4.0

#
# job setting
#
local host:  exp-1-46
current dir: /expanse/lustre/scratch/theleonzhang/temp_project/Hydrogenated_Rotation_Test
input file:  Methylthiophene_Phi_20_Theta_280_Methylthiophene_Hydrogenated.qcin
output file: 
nprocs     : 0
nthreads   : 1
#
# qchem installation setting
#
QC:          /cm/shared/apps/spack/cpu/opt/spack/linux-centos8-zen2/gcc-10.2.0/qchem-5.4-akfmr7b3t57bfs6qan3padb2wnb2i7cl
QCAUX:       /cm/shared/apps/spack/cpu/opt/spack/linux-centos8-zen2/gcc-10.2.0/qchem-5.4-akfmr7b3t57bfs6qan3padb2wnb2i7cl/qcaux
QCPROG:      /cm/shared/apps/spack/cpu/opt/spack/linux-centos8-zen2/gcc-10.2.0/qchem-5.4-akfmr7b3t57bfs6qan3padb2wnb2i7cl/exe/qcprog.exe_s
QCPROG_S:    /cm/shared/apps/spack/cpu/opt/spack/linux-centos8-zen2/gcc-10.2.0/qchem-5.4-akfmr7b3t57bfs6qan3padb2wnb2i7cl/exe/qcprog.exe_s
PARALLEL:    -DSERIAL
QCMPI:       mpich
#
# qchem directory setting
#
qcrun:       qchem4051771
QCSCRATCH:   .
QCLOCALSCR:  
QCTMPDIR:    .
QCFILEPREF:  ./qchem4051771
QCSAVEDIR:   
workdirs:    ./qchem4051771
workdir0:    ./qchem4051771
partmpdirs =  
#
# parallel setting
#
QCRSH:           ssh
QCMPI:           mpich
QCMPIRUN:        /cm/shared/apps/spack/cpu/opt/spack/linux-centos8-zen2/gcc-10.2.0/qchem-5.4-akfmr7b3t57bfs6qan3padb2wnb2i7cl/bin/mpi/mpirun_qchem
QCMACHINEFILE:   ./qchem4051771/hostfile

#
# env setting
#
exported envs:   QC QCAUX QCSCRATCH QCRUNNAME QCFILEPREF QCPROG QCPROG_S GUIFILE

Running Job 1 of 1 Methylthiophene_Phi_20_Theta_280_Methylthiophene_Hydrogenated.qcin
qchem Methylthiophene_Phi_20_Theta_280_Methylthiophene_Hydrogenated.qcin_4051771.0 ./qchem4051771/ 0
/cm/shared/apps/spack/cpu/opt/spack/linux-centos8-zen2/gcc-10.2.0/qchem-5.4-akfmr7b3t57bfs6qan3padb2wnb2i7cl/exe/qcprog.exe_s Methylthiophene_Phi_20_Theta_280_Methylthiophene_Hydrogenated.qcin_4051771.0 ./qchem4051771/
                  Welcome to Q-Chem
     A Quantum Leap Into The Future Of Chemistry


 Q-Chem 5.4, Q-Chem, Inc., Pleasanton, CA (2021)

 License issued to: University of California, San Diego (site)

 E. Epifanovsky,  A. T. B. Gilbert,  Xintian Feng,  Joonho Lee,  Yuezhi Mao,  
 N. Mardirossian,  P. Pokhilko,  A. White,  M. Wormit,  M. P. Coons,  
 A. L. Dempwolff,  Zhengting Gan,  D. Hait,  P. R. Horn,  L. D. Jacobson,  
 I. Kaliman,  J. Kussmann,  A. W. Lange,  Ka Un Lao,  D. S. Levine,  Jie Liu,  
 S. C. McKenzie,  A. F. Morrison,  K. Nanda,  F. Plasser,  D. R. Rehn,  
 M. L. Vidal,  Zhi-Qiang You,  Ying Zhu,  B. Alam,  B. Albrecht,  
 A. Aldossary,  E. Alguire,  J. H. Andersen,  D. Barton,  K. Begam,  A. Behn,  
 Y. A. Bernard,  E. J. Berquist,  H. Burton,  A. Carreras,  K. Carter-Fenk,  
 R. Chakraborty,  A. D. Chien,  K. D. Closser,  V. Cofer-Shabica,  
 S. Dasgupta,  Jia Deng,  M. de Wergifosse,  M. Diedenhofen,  Hainam Do,  
 S. Ehlert,  Po-Tung Fang,  S. Fatehi,  Qingguo Feng,  J. Gayvert,  
 Qinghui Ge,  G. Gidofalvi,  M. Goldey,  J. Gomes,  C. Gonzalez-Espinoza,  
 S. Gulania,  A. Gunina,  M. W. D. Hanson-Heine,  P. H. P. Harbach,  
 A. W. Hauser,  M. F. Herbst,  M. Hernandez Vera,  M. Hodecker,  
 Z. C. Holden,  S. Houck,  Xunkun Huang,  Kerwin Hui,  B. C. Huynh,  
 M. Ivanov,  Hyunjun Ji,  Hanjie Jiang,  B. Kaduk,  S. Kaehler,  
 K. Khistyaev,  Jaehoon Kim,  P. Klunzinger,  Z. Koczor-Benda,  
 Joong Hoon Koh,  D. Kosenkov,  L. Koulias,  T. Kowalczyk,  C. M. Krauter,  
 K. Kue,  A. Kunitsa,  T. Kus,  A. Landau,  K. V. Lawler,  D. Lefrancois,  
 S. Lehtola,  Rain Li,  Yi-Pei Li,  Jiashu Liang,  M. Liebenthal,  
 Hung-Hsuan Lin,  You-Sheng Lin,  Fenglai Liu,  Kuan-Yu Liu,  
 M. Loipersberger,  A. Luenser,  A. Manjanath,  P. Manohar,  E. Mansoor,  
 S. F. Manzer,  Shan-Ping Mao,  A. V. Marenich,  T. Markovich,  S. Mason,  
 S. A. Maurer,  P. F. McLaughlin,  M. F. S. J. Menger,  J.-M. Mewes,  
 S. A. Mewes,  P. Morgante,  J. W. Mullinax,  T. S. Nguyen-Beck,  
 K. J. Oosterbaan,  G. Paran,  Alexander C. Paul,  Suranjan K. Paul,  
 F. Pavosevic,  Zheng Pei,  S. Prager,  E. I. Proynov,  E. Ramos,  B. Rana,  
 A. E. Rask,  A. Rettig,  R. M. Richard,  F. Rob,  E. Rossomme,  T. Scheele,  
 M. Scheurer,  M. Schneider,  N. Sergueev,  S. M. Sharada,  W. Skomorowski,  
 D. W. Small,  C. J. Stein,  Yu-Chuan Su,  E. J. Sundstrom,  Zhen Tao,  
 J. Thirman,  T. Tsuchimochi,  N. M. Tubman,  S. P. Veccham,  O. Vydrov,  
 J. Wenzel,  J. Witte,  A. Yamada,  Kun Yao,  S. Yeganeh,  S. R. Yost,  
 A. Zech,  Igor Ying Zhang,  Xing Zhang,  Yu Zhang,  D. Zuev,  
 A. Aspuru-Guzik,  A. T. Bell,  N. A. Besley,  K. B. Bravaya,  B. R. Brooks,  
 D. Casanova,  Jeng-Da Chai,  S. Coriani,  C. J. Cramer,  
 A. E. DePrince, III,  R. A. DiStasio Jr.,  A. Dreuw,  B. D. Dunietz,  
 T. R. Furlani,  W. A. Goddard III,  S. Grimme,  S. Hammes-Schiffer,  
 T. Head-Gordon,  W. J. Hehre,  Chao-Ping Hsu,  T.-C. Jagau,  Yousung Jung,  
 A. Klamt,  Jing Kong,  D. S. Lambrecht,  WanZhen Liang,  N. J. Mayhall,  
 C. W. McCurdy,  J. B. Neaton,  C. Ochsenfeld,  J. A. Parkhill,  R. Peverati,  
 V. A. Rassolov,  Yihan Shao,  L. V. Slipchenko,  T. Stauch,  R. P. Steele,  
 J. E. Subotnik,  A. J. W. Thom,  A. Tkatchenko,  D. G. Truhlar,  
 T. Van Voorhis,  T. A. Wesolowski,  K. B. Whaley,  H. L. Woodcock III,  
 P. M. Zimmerman,  S. Faraji,  P. M. W. Gill,  M. Head-Gordon,  
 J. M. Herbert,  A. I. Krylov

 Contributors to earlier versions of Q-Chem not listed above: 
 R. D. Adamson,  B. Austin,  R. Baer,  J. Baker,  G. J. O. Beran,  
 K. Brandhorst,  S. T. Brown,  E. F. C. Byrd,  A. K. Chakraborty,  
 G. K. L. Chan,  Chun-Min Chang,  Yunqing Chen,  C.-L. Cheng,  
 Siu Hung Chien,  D. M. Chipman,  D. L. Crittenden,  H. Dachsel,  
 R. J. Doerksen,  A. D. Dutoi,  R. G. Edgar,  J. Fosso-Tande,  
 L. Fusti-Molnar,  D. Ghosh,  A. Ghysels,  A. Golubeva-Zadorozhnaya,  
 J. Gonthier,  M. S. Gordon,  S. R. Gwaltney,  G. Hawkins,  J. E. Herr,  
 A. Heyden,  S. Hirata,  E. G. Hohenstein,  G. Kedziora,  F. J. Keil,  
 C. Kelley,  Jihan Kim,  R. A. King,  R. Z. Khaliullin,  P. P. Korambath,  
 W. Kurlancheek,  A. Laurent,  A. M. Lee,  M. S. Lee,  S. V. Levchenko,  
 Ching Yeh Lin,  D. Liotard,  E. Livshits,  R. C. Lochan,  I. Lotan,  
 L. A. Martinez-Martinez,  P. E. Maslen,  N. Nair,  D. P. O'Neill,  
 D. Neuhauser,  E. Neuscamman,  C. M. Oana,  R. Olivares-Amaya,  R. Olson,  
 T. M. Perrine,  B. Peters,  P. A. Pieniazek,  A. Prociuk,  Y. M. Rhee,  
 J. Ritchie,  M. A. Rohrdanz,  E. Rosta,  N. J. Russ,  H. F. Schaefer III,  
 M. W. Schmidt,  N. E. Schultz,  S. Sharma,  N. Shenvi,  C. D. Sherrill,  
 A. C. Simmonett,  A. Sodt,  T. Stein,  D. Stuck,  K. S. Thanthiriwatte,  
 V. Vanovschi,  L. Vogt,  Tao Wang,  A. Warshel,  M. A. Watson,  
 C. F. Williams,  Q. Wu,  X. Xu,  Jun Yang,  W. Zhang,  Yan Zhao

 Please cite Q-Chem as follows:
 Y. Shao et al., Mol. Phys. 113, 184-215 (2015)
 DOI: 10.1080/00268976.2014.952696

 Q-Chem 5.4.0 for Intel X86 EM64T Linux

 Parts of Q-Chem use Armadillo 9.800.1 (Horizon Scraper).
 http://arma.sourceforge.net/

 Q-Chem begins on Sun Jul 10 04:29:35 2022  

 Host: 
0

     Scratch files written to ./qchem4051771//
 May1621 |scratch|qcdevops|jenkins|workspace|build_RNUM    
 Processing $rem in /cm/shared/apps/spack/cpu/opt/spack/linux-centos8-zen2/gcc-10.2.0/qchem-5.4-akfmr7b3t57bfs6qan3padb2wnb2i7cl/config/preferences:
 Processing $rem in /home/theleonzhang/.qchemrc:
 Symmetry turned off for PCM/SM12/SMD calculation
 Core orbitals will be frozen

 Checking the input file for inconsistencies... 	...done.

--------------------------------------------------------------
User input:
--------------------------------------------------------------
$molecule
0 1
C	0.763228	-3.866725	0.135301
C	-0.603311	-3.703963	-0.106073
C	-1.050423	-2.357056	-0.185286
H	-1.283188	-4.561092	-0.225783
C	0.000000	-1.440664	0.000000
S	1.521021	-2.286957	0.268187
C	-2.483507	-1.978743	-0.438209
H	-3.118798	-2.878678	-0.550153
H	-2.593381	-1.376015	-1.363906
H	-2.903516	-1.375728	0.393798
C	0.000000	0.000000	0.000000
C	0.295399	0.811508	1.099446
C	0.768742	2.111949	0.776721
H	0.169256	0.464952	2.136088
C	0.844232	2.319291	-0.612546
S	0.322342	0.885558	-1.486809
C	1.140796	3.134091	1.814609
H	0.995218	2.734123	2.836676
H	0.526006	4.054142	1.726239
H	2.203157	3.443680	1.726228
H	1.168902	3.211257	-1.161575
H	1.258111	-4.392713	-0.688674
H	0.946272	-4.392347	1.079084
H	-0.187654	-1.440391	1.063572
$end

$rem
JOBTYPE		SP
EXCHANGE	HF
CORRELATION	pRIMP2
BASIS		cc-pvtz
METHOD		rimp2
AUX_BASIS	rimp2-cc-pvtz
SOLVENT_METHOD	PCM
PURECART	11111
SYMMETRY	false
MEM_TOTAL	110000
SCF_CONVERGENCE = 6
THRESH=10
$end



$solvent
dielectric 4.90
$end
--------------------------------------------------------------
 ----------------------------------------------------------------
             Standard Nuclear Orientation (Angstroms)
    I     Atom           X                Y                Z
 ----------------------------------------------------------------
    1      C       0.7632280000    -3.8667250000     0.1353010000
    2      C      -0.6033110000    -3.7039630000    -0.1060730000
    3      C      -1.0504230000    -2.3570560000    -0.1852860000
    4      H      -1.2831880000    -4.5610920000    -0.2257830000
    5      C       0.0000000000    -1.4406640000     0.0000000000
    6      S       1.5210210000    -2.2869570000     0.2681870000
    7      C      -2.4835070000    -1.9787430000    -0.4382090000
    8      H      -3.1187980000    -2.8786780000    -0.5501530000
    9      H      -2.5933810000    -1.3760150000    -1.3639060000
   10      H      -2.9035160000    -1.3757280000     0.3937980000
   11      C       0.0000000000     0.0000000000     0.0000000000
   12      C       0.2953990000     0.8115080000     1.0994460000
   13      C       0.7687420000     2.1119490000     0.7767210000
   14      H       0.1692560000     0.4649520000     2.1360880000
   15      C       0.8442320000     2.3192910000    -0.6125460000
   16      S       0.3223420000     0.8855580000    -1.4868090000
   17      C       1.1407960000     3.1340910000     1.8146090000
   18      H       0.9952180000     2.7341230000     2.8366760000
   19      H       0.5260060000     4.0541420000     1.7262390000
   20      H       2.2031570000     3.4436800000     1.7262280000
   21      H       1.1689020000     3.2112570000    -1.1615750000
   22      H       1.2581110000    -4.3927130000    -0.6886740000
   23      H       0.9462720000    -4.3923470000     1.0790840000
   24      H      -0.1876540000    -1.4403910000     1.0635720000
 ----------------------------------------------------------------
 Nuclear Repulsion Energy =         874.18814922 hartrees
 There are       52 alpha and       52 beta electrons

 Q-Chem warning in module forms1/BasisType.C, line 2236:

 You are not using the predefined 5D/6D in this basis set.

 Requested basis set is cc-pVTZ
 There are 196 shells and 536 basis functions

 Total QAlloc Memory Limit 110000 MB
 Mega-Array Size       188 MB
 MEM_STATIC part       192 MB
 Discretize the solute cavity surface with Lebedev spheres
	Using 110 Lebedev grid points for each H atom
	Using 194 Lebedev grid points for other atoms
	Atomic van der Waals radii will be scaled by 1.20
 Remove points where switching function is < 1.0e-08
 Keep 1630 surface tesserae and discard 2018 interior tesserae
 Molecular Surface Area = 238.315 Angst**2
 Requested basis set is rimp2-cc-pVTZ
 There are 414 shells and 1414 basis functions
 A cutoff of  1.0D-10 yielded  13906 shell pairs
 There are    100482 function pairs (    128809 Cartesian)
 Smallest overlap matrix eigenvalue = 7.20E-05

 Scale SEOQF with 1.000000e-01/1.000000e-01/1.000000e-01

 Standard Electronic Orientation quadrupole field applied
 Nucleus-field energy     =     0.0000000361 hartrees
 Guess from superposition of atomic densities
 Warning:  Energy on first SCF cycle will be non-variational
 SAD guess density has 104.000000 electrons

 -----------------------------------------------------------------------
  General SCF calculation program by
  Eric Jon Sundstrom, Paul Horn, Yuezhi Mao, Dmitri Zuev, Alec White,
  David Stuck, Shaama M.S., Shane Yost, Joonho Lee, David Small,
  Daniel Levine, Susi Lehtola, Hugh Burton, Evgeny Epifanovsky,
  Bang C. Huynh
 -----------------------------------------------------------------------
 Hartree-Fock
 A restricted SCF calculation will be
 performed using DIIS
 SCF converges when DIIS error is below 1.0e-06
 ---------------------------------------
  Cycle       Energy         DIIS error
 ---------------------------------------
    1   -1186.0259514987      2.39e-02  
    2   -1180.6168882148      1.54e-03  
    3   -1180.7403022199      5.68e-04  
    4   -1180.7533876959      3.19e-04  
    5   -1180.7579348576      5.83e-05  
    6   -1180.7581720790      2.40e-05  
    7   -1180.7582306791      9.08e-06  
    8   -1180.7582451935      4.41e-06  
    9   -1180.7582485928      1.56e-06  
   10   -1180.7582491235      5.23e-07  Convergence criterion met
 ---------------------------------------
 SCF time:   CPU 559.01s  wall 562.00s 

************** Final PCM Free Energy Summary **************
 G_electrostatic  =      -0.00935680 hartree =      -5.87148167 kcal/mol
 G_cavitation     =       0.00000000 hartree =       0.00000000 kcal/mol
 G_dispersion     =       0.00000000 hartree =       0.00000000 kcal/mol
 G_repulsion      =       0.00000000 hartree =       0.00000000 kcal/mol
 --------------------------------------------------
 Non-electrostatic Free Energy =       0.00000000 hartree =       0.00000000 kcal/mol
 Total                         =      -0.00935680 hartree =      -5.87148167 kcal/mol
 --------------------------------------------------
 SCF Energy (H0 + V/2)                       =   -1180.75824912 
 Solute Internal Energy (H0)                 =   -1180.74889232 
 Total Free Energy (H0 + V/2 + non-elec)     =   -1180.75824912 hartree
                                             = -740936.98428637 kcal/mol
***********************************************************

 SCF   energy in the final basis set =    -1180.7582491235
 Total energy in the final basis set =    -1180.7582491235


 --------------------------------------------------------------
  Generalized many-body perturbation theory program
  by Joonho Lee, Fazle Rob, Xintian Feng, Evgeny Epifanovsky

 No regularization used 
 (reg. param. = 0.0000e+00)
  (P|Q)^-1/2 Time:  CPU 2.31 s  wall 2.31 s

 In RI-MP2 calculation: 
 # of frozen core orbitals: 20

 Components of the RIMP2 correlation energy:
        aaaa    correlation energy =        -0.2513252417 a.u.
        abab    correlation energy =        -1.5033225596 a.u.
        bbbb    correlation energy =        -0.2513252417 a.u.
        non-Brillouin singles      =        -0.0000000000 a.u.
        total same-spin energy     =        -0.5026504834 a.u.
        total opposite-spin energy =        -1.5033225596 a.u.

 Total  RIMP2   correlation energy =        -2.0059730429 a.u.
        RIMP2         total energy =     -1182.7642221664 a.u.

 RI-MP2 Energy Time:  CPU 117.45 s  wall 117.81 s
 
 --------------------------------------------------------------
 
                    Orbital Energies (a.u.)
 --------------------------------------------------------------
 
 Alpha MOs
 -- Occupied --
-91.9793 -91.9413 -11.2782 -11.2671 -11.2610 -11.2546 -11.2509 -11.2456
-11.2404 -11.2313 -11.2293 -11.2182  -8.9795  -8.9460  -6.6604  -6.6598
 -6.6593  -6.6273  -6.6263  -6.6250  -1.1981  -1.1537  -1.0577  -1.0258
 -1.0059  -0.9589  -0.9119  -0.9011  -0.8147  -0.7621  -0.7354  -0.7000
 -0.6604  -0.6405  -0.6105  -0.5886  -0.5805  -0.5717  -0.5660  -0.5501
 -0.5411  -0.5313  -0.5112  -0.5068  -0.4922  -0.4789  -0.4592  -0.4487
 -0.3566  -0.3399  -0.3122  -0.2813
 -- Virtual --
  0.0884   0.1323   0.1422   0.1506   0.1582   0.1707   0.1767   0.1801
  0.1880   0.1987   0.2050   0.2141   0.2292   0.2326   0.2338   0.2458
  0.2481   0.2602   0.2648   0.3003   0.3077   0.3389   0.3390   0.3518
  0.3657   0.3757   0.3791   0.3904   0.3991   0.4042   0.4108   0.4212
  0.4306   0.4430   0.4492   0.4573   0.4670   0.4746   0.4756   0.4816
  0.5012   0.5100   0.5149   0.5229   0.5283   0.5338   0.5463   0.5587
  0.5659   0.5760   0.5931   0.5992   0.6009   0.6072   0.6109   0.6191
  0.6224   0.6285   0.6339   0.6353   0.6414   0.6451   0.6502   0.6524
  0.6621   0.6686   0.6781   0.6831   0.6899   0.6954   0.7168   0.7290
  0.7354   0.7509   0.7534   0.7731   0.7916   0.8000   0.8099   0.8200
  0.8250   0.8308   0.8376   0.8547   0.8680   0.9012   0.9064   0.9216
  0.9286   0.9438   0.9464   0.9576   0.9771   0.9883   1.0013   1.0104
  1.0115   1.0227   1.0424   1.0467   1.0564   1.0640   1.0741   1.0781
  1.0870   1.1020   1.1138   1.1210   1.1319   1.1482   1.1554   1.1652
  1.1735   1.1817   1.1872   1.2095   1.2164   1.2219   1.2413   1.2447
  1.2516   1.2581   1.2662   1.2747   1.2842   1.2893   1.2963   1.3118
  1.3220   1.3290   1.3435   1.3529   1.3659   1.3948   1.4033   1.4146
  1.4165   1.4323   1.4487   1.4540   1.4718   1.4832   1.4925   1.4991
  1.5083   1.5153   1.5221   1.5328   1.5374   1.5385   1.5459   1.5547
  1.5682   1.5764   1.5867   1.5891   1.6052   1.6097   1.6126   1.6351
  1.6436   1.6653   1.6760   1.6821   1.6960   1.7136   1.7218   1.7388
  1.7516   1.7536   1.7683   1.7786   1.8122   1.8188   1.8341   1.8619
  1.8656   1.9065   1.9287   1.9501   1.9571   1.9735   1.9881   2.0022
  2.0166   2.0310   2.0539   2.0693   2.0721   2.1123   2.1279   2.1467
  2.1806   2.1939   2.1975   2.2120   2.2401   2.2499   2.2639   2.2723
  2.2954   2.3325   2.3346   2.3692   2.4246   2.4306   2.4423   2.4676
  2.4948   2.5123   2.5259   2.5425   2.5628   2.5761   2.6026   2.6128
  2.6274   2.6381   2.6622   2.6637   2.6732   2.6897   2.7036   2.7263
  2.7448   2.7543   2.7603   2.7743   2.7796   2.7880   2.8019   2.8292
  2.8398   2.8505   2.8571   2.8761   2.8876   2.8961   2.9103   2.9204
  2.9374   2.9582   2.9740   2.9786   3.0107   3.0159   3.0236   3.0361
  3.0422   3.0646   3.0816   3.0941   3.1122   3.1142   3.1291   3.1424
  3.1529   3.1614   3.1651   3.1766   3.1859   3.1945   3.2015   3.2133
  3.2319   3.2396   3.2515   3.2690   3.2756   3.2850   3.2958   3.3149
  3.3212   3.3229   3.3334   3.3374   3.3449   3.3534   3.3585   3.3663
  3.3716   3.3831   3.3930   3.3975   3.4054   3.4147   3.4201   3.4256
  3.4398   3.4465   3.4533   3.4600   3.4805   3.4975   3.5022   3.5126
  3.5143   3.5225   3.5366   3.5448   3.5496   3.5571   3.5715   3.5840
  3.5946   3.6075   3.6119   3.6238   3.6274   3.6379   3.6423   3.6576
  3.6755   3.6883   3.6946   3.7015   3.7193   3.7197   3.7291   3.7352
  3.7375   3.7582   3.7696   3.7821   3.7866   3.7984   3.8102   3.8149
  3.8267   3.8351   3.8498   3.8595   3.8795   3.8828   3.8963   3.9160
  3.9288   3.9480   3.9533   3.9602   3.9714   3.9816   3.9968   4.0056
  4.0219   4.0315   4.0426   4.0538   4.0737   4.0771   4.0962   4.1066
  4.1162   4.1175   4.1475   4.1507   4.1629   4.1776   4.1802   4.1959
  4.2102   4.2198   4.2349   4.2449   4.2524   4.2651   4.2674   4.2785
  4.2916   4.3066   4.3200   4.3279   4.3376   4.3543   4.3604   4.3668
  4.3725   4.3850   4.3998   4.4028   4.4093   4.4245   4.4278   4.4444
  4.4590   4.4636   4.4796   4.4850   4.4962   4.5242   4.5264   4.5467
  4.5709   4.5964   4.6167   4.6235   4.6320   4.6496   4.6602   4.6700
  4.7032   4.7223   4.7290   4.7602   4.7741   4.8102   4.8265   4.8352
  4.8573   4.8646   4.8957   4.8982   4.9293   4.9563   4.9652   4.9801
  5.0203   5.0453   5.0905   5.1020   5.1130   5.1242   5.1516   5.1688
  5.1863   5.2019   5.2254   5.2607   5.2828   5.2874   5.3126   5.3173
  5.3392   5.3686   5.3813   5.4027   5.4079   5.4254   5.4419   5.4533
  5.4882   5.5098   5.5302   5.5433   5.5476   5.5613   5.5766   5.5819
  5.6226   5.6327   5.6617   5.6793   5.6867   5.7074   5.7158   5.7259
  5.7684   5.7898   5.8300   5.9608   5.9858   6.0521   6.1215   6.1388
  6.2017   6.2200   6.2265   6.2430   6.2464   6.2776   6.2924   6.3214
  6.3732   6.4690   9.4964  10.6647  12.0780  12.9062  13.1724  13.9130
 14.1134  14.2098  14.2991  14.6061
 --------------------------------------------------------------
 
          Ground-State Mulliken Net Atomic Charges

     Atom                 Charge (a.u.)
  ----------------------------------------
      1 C                    -0.075407
      2 C                    -0.324350
      3 C                    -0.034598
      4 H                     0.175646
      5 C                     0.079527
      6 S                    -0.171030
      7 C                    -0.269251
      8 H                     0.112102
      9 H                     0.105848
     10 H                     0.102166
     11 C                    -0.059852
     12 C                    -0.262040
     13 C                     0.035822
     14 H                     0.181800
     15 C                    -0.234549
     16 S                     0.004493
     17 C                    -0.270255
     18 H                     0.102161
     19 H                     0.107593
     20 H                     0.108789
     21 H                     0.197159
     22 H                     0.111910
     23 H                     0.109371
     24 H                     0.166946
  ----------------------------------------
  Sum of atomic charges =     0.000000

 -----------------------------------------------------------------
                    Cartesian Multipole Moments
 -----------------------------------------------------------------
    Charge (ESU x 10^10)
                -0.0000
    Dipole Moment (Debye)
         X      -1.8134      Y       0.6220      Z       1.9025
       Tot       2.7009
    Quadrupole Moments (Debye-Ang)
        XX     -90.4960     XY       7.2850     YY     -74.9748
        XZ       0.7264     YZ       0.3120     ZZ     -85.9126
    Octopole Moments (Debye-Ang^2)
       XXX     -78.1053    XXY      49.7626    XYY     -11.2715
       YYY     133.2467    XXZ      -3.1684    XYZ      -2.4114
       YYZ      -1.0308    XZZ     -19.7229    YZZ      58.9633
       ZZZ       4.7081
    Hexadecapole Moments (Debye-Ang^3)
      XXXX    -805.1263   XXXY    -125.0957   XXYY    -603.7881
      XYYY    -126.5650   YYYY   -2700.9585   XXXZ     -75.6112
      XXYZ     -24.2137   XYYZ     -24.8261   YYYZ    -105.3158
      XXZZ    -234.9454   XYZZ     -45.8671   YYZZ    -583.6278
      XZZZ     -83.4727   YZZZ     -90.9411   ZZZZ    -554.7222
 -----------------------------------------------------------------
 Total job time:  680.99s(wall), 677.48s(cpu) 
 Sun Jul 10 04:40:56 2022

        *************************************************************
        *                                                           *
        *  Thank you very much for using Q-Chem.  Have a nice day.  *
        *                                                           *
        *************************************************************


remove work dirs ./qchem4051771.0 -- ./qchem4051771.-1
rm -rf ./qchem4051771
You are running Q-Chem version: 5.4.0

#
# job setting
#
local host:  exp-3-09
current dir: /expanse/lustre/scratch/theleonzhang/temp_project/Hydrogenated_Rotation_Test
input file:  Methylthiophene_Phi_20_Theta_280_Methylthiophene_Hydrogenated.qcin
output file: 
nprocs     : 0
nthreads   : 1
#
# qchem installation setting
#
QC:          /cm/shared/apps/spack/cpu/opt/spack/linux-centos8-zen2/gcc-10.2.0/qchem-5.4-akfmr7b3t57bfs6qan3padb2wnb2i7cl
QCAUX:       /cm/shared/apps/spack/cpu/opt/spack/linux-centos8-zen2/gcc-10.2.0/qchem-5.4-akfmr7b3t57bfs6qan3padb2wnb2i7cl/qcaux
QCPROG:      /cm/shared/apps/spack/cpu/opt/spack/linux-centos8-zen2/gcc-10.2.0/qchem-5.4-akfmr7b3t57bfs6qan3padb2wnb2i7cl/exe/qcprog.exe_s
QCPROG_S:    /cm/shared/apps/spack/cpu/opt/spack/linux-centos8-zen2/gcc-10.2.0/qchem-5.4-akfmr7b3t57bfs6qan3padb2wnb2i7cl/exe/qcprog.exe_s
PARALLEL:    -DSERIAL
QCMPI:       mpich
#
# qchem directory setting
#
qcrun:       qchem953352
QCSCRATCH:   .
QCLOCALSCR:  
QCTMPDIR:    .
QCFILEPREF:  ./qchem953352
QCSAVEDIR:   
workdirs:    ./qchem953352
workdir0:    ./qchem953352
partmpdirs =  
#
# parallel setting
#
QCRSH:           ssh
QCMPI:           mpich
QCMPIRUN:        /cm/shared/apps/spack/cpu/opt/spack/linux-centos8-zen2/gcc-10.2.0/qchem-5.4-akfmr7b3t57bfs6qan3padb2wnb2i7cl/bin/mpi/mpirun_qchem
QCMACHINEFILE:   ./qchem953352/hostfile

#
# env setting
#
exported envs:   QC QCAUX QCSCRATCH QCRUNNAME QCFILEPREF QCPROG QCPROG_S GUIFILE

Running Job 1 of 1 Methylthiophene_Phi_20_Theta_280_Methylthiophene_Hydrogenated.qcin
qchem Methylthiophene_Phi_20_Theta_280_Methylthiophene_Hydrogenated.qcin_953352.0 ./qchem953352/ 0
/cm/shared/apps/spack/cpu/opt/spack/linux-centos8-zen2/gcc-10.2.0/qchem-5.4-akfmr7b3t57bfs6qan3padb2wnb2i7cl/exe/qcprog.exe_s Methylthiophene_Phi_20_Theta_280_Methylthiophene_Hydrogenated.qcin_953352.0 ./qchem953352/
                  Welcome to Q-Chem
     A Quantum Leap Into The Future Of Chemistry


 Q-Chem 5.4, Q-Chem, Inc., Pleasanton, CA (2021)

 License issued to: University of California, San Diego (site)

 E. Epifanovsky,  A. T. B. Gilbert,  Xintian Feng,  Joonho Lee,  Yuezhi Mao,  
 N. Mardirossian,  P. Pokhilko,  A. White,  M. Wormit,  M. P. Coons,  
 A. L. Dempwolff,  Zhengting Gan,  D. Hait,  P. R. Horn,  L. D. Jacobson,  
 I. Kaliman,  J. Kussmann,  A. W. Lange,  Ka Un Lao,  D. S. Levine,  Jie Liu,  
 S. C. McKenzie,  A. F. Morrison,  K. Nanda,  F. Plasser,  D. R. Rehn,  
 M. L. Vidal,  Zhi-Qiang You,  Ying Zhu,  B. Alam,  B. Albrecht,  
 A. Aldossary,  E. Alguire,  J. H. Andersen,  D. Barton,  K. Begam,  A. Behn,  
 Y. A. Bernard,  E. J. Berquist,  H. Burton,  A. Carreras,  K. Carter-Fenk,  
 R. Chakraborty,  A. D. Chien,  K. D. Closser,  V. Cofer-Shabica,  
 S. Dasgupta,  Jia Deng,  M. de Wergifosse,  M. Diedenhofen,  Hainam Do,  
 S. Ehlert,  Po-Tung Fang,  S. Fatehi,  Qingguo Feng,  J. Gayvert,  
 Qinghui Ge,  G. Gidofalvi,  M. Goldey,  J. Gomes,  C. Gonzalez-Espinoza,  
 S. Gulania,  A. Gunina,  M. W. D. Hanson-Heine,  P. H. P. Harbach,  
 A. W. Hauser,  M. F. Herbst,  M. Hernandez Vera,  M. Hodecker,  
 Z. C. Holden,  S. Houck,  Xunkun Huang,  Kerwin Hui,  B. C. Huynh,  
 M. Ivanov,  Hyunjun Ji,  Hanjie Jiang,  B. Kaduk,  S. Kaehler,  
 K. Khistyaev,  Jaehoon Kim,  P. Klunzinger,  Z. Koczor-Benda,  
 Joong Hoon Koh,  D. Kosenkov,  L. Koulias,  T. Kowalczyk,  C. M. Krauter,  
 K. Kue,  A. Kunitsa,  T. Kus,  A. Landau,  K. V. Lawler,  D. Lefrancois,  
 S. Lehtola,  Rain Li,  Yi-Pei Li,  Jiashu Liang,  M. Liebenthal,  
 Hung-Hsuan Lin,  You-Sheng Lin,  Fenglai Liu,  Kuan-Yu Liu,  
 M. Loipersberger,  A. Luenser,  A. Manjanath,  P. Manohar,  E. Mansoor,  
 S. F. Manzer,  Shan-Ping Mao,  A. V. Marenich,  T. Markovich,  S. Mason,  
 S. A. Maurer,  P. F. McLaughlin,  M. F. S. J. Menger,  J.-M. Mewes,  
 S. A. Mewes,  P. Morgante,  J. W. Mullinax,  T. S. Nguyen-Beck,  
 K. J. Oosterbaan,  G. Paran,  Alexander C. Paul,  Suranjan K. Paul,  
 F. Pavosevic,  Zheng Pei,  S. Prager,  E. I. Proynov,  E. Ramos,  B. Rana,  
 A. E. Rask,  A. Rettig,  R. M. Richard,  F. Rob,  E. Rossomme,  T. Scheele,  
 M. Scheurer,  M. Schneider,  N. Sergueev,  S. M. Sharada,  W. Skomorowski,  
 D. W. Small,  C. J. Stein,  Yu-Chuan Su,  E. J. Sundstrom,  Zhen Tao,  
 J. Thirman,  T. Tsuchimochi,  N. M. Tubman,  S. P. Veccham,  O. Vydrov,  
 J. Wenzel,  J. Witte,  A. Yamada,  Kun Yao,  S. Yeganeh,  S. R. Yost,  
 A. Zech,  Igor Ying Zhang,  Xing Zhang,  Yu Zhang,  D. Zuev,  
 A. Aspuru-Guzik,  A. T. Bell,  N. A. Besley,  K. B. Bravaya,  B. R. Brooks,  
 D. Casanova,  Jeng-Da Chai,  S. Coriani,  C. J. Cramer,  
 A. E. DePrince, III,  R. A. DiStasio Jr.,  A. Dreuw,  B. D. Dunietz,  
 T. R. Furlani,  W. A. Goddard III,  S. Grimme,  S. Hammes-Schiffer,  
 T. Head-Gordon,  W. J. Hehre,  Chao-Ping Hsu,  T.-C. Jagau,  Yousung Jung,  
 A. Klamt,  Jing Kong,  D. S. Lambrecht,  WanZhen Liang,  N. J. Mayhall,  
 C. W. McCurdy,  J. B. Neaton,  C. Ochsenfeld,  J. A. Parkhill,  R. Peverati,  
 V. A. Rassolov,  Yihan Shao,  L. V. Slipchenko,  T. Stauch,  R. P. Steele,  
 J. E. Subotnik,  A. J. W. Thom,  A. Tkatchenko,  D. G. Truhlar,  
 T. Van Voorhis,  T. A. Wesolowski,  K. B. Whaley,  H. L. Woodcock III,  
 P. M. Zimmerman,  S. Faraji,  P. M. W. Gill,  M. Head-Gordon,  
 J. M. Herbert,  A. I. Krylov

 Contributors to earlier versions of Q-Chem not listed above: 
 R. D. Adamson,  B. Austin,  R. Baer,  J. Baker,  G. J. O. Beran,  
 K. Brandhorst,  S. T. Brown,  E. F. C. Byrd,  A. K. Chakraborty,  
 G. K. L. Chan,  Chun-Min Chang,  Yunqing Chen,  C.-L. Cheng,  
 Siu Hung Chien,  D. M. Chipman,  D. L. Crittenden,  H. Dachsel,  
 R. J. Doerksen,  A. D. Dutoi,  R. G. Edgar,  J. Fosso-Tande,  
 L. Fusti-Molnar,  D. Ghosh,  A. Ghysels,  A. Golubeva-Zadorozhnaya,  
 J. Gonthier,  M. S. Gordon,  S. R. Gwaltney,  G. Hawkins,  J. E. Herr,  
 A. Heyden,  S. Hirata,  E. G. Hohenstein,  G. Kedziora,  F. J. Keil,  
 C. Kelley,  Jihan Kim,  R. A. King,  R. Z. Khaliullin,  P. P. Korambath,  
 W. Kurlancheek,  A. Laurent,  A. M. Lee,  M. S. Lee,  S. V. Levchenko,  
 Ching Yeh Lin,  D. Liotard,  E. Livshits,  R. C. Lochan,  I. Lotan,  
 L. A. Martinez-Martinez,  P. E. Maslen,  N. Nair,  D. P. O'Neill,  
 D. Neuhauser,  E. Neuscamman,  C. M. Oana,  R. Olivares-Amaya,  R. Olson,  
 T. M. Perrine,  B. Peters,  P. A. Pieniazek,  A. Prociuk,  Y. M. Rhee,  
 J. Ritchie,  M. A. Rohrdanz,  E. Rosta,  N. J. Russ,  H. F. Schaefer III,  
 M. W. Schmidt,  N. E. Schultz,  S. Sharma,  N. Shenvi,  C. D. Sherrill,  
 A. C. Simmonett,  A. Sodt,  T. Stein,  D. Stuck,  K. S. Thanthiriwatte,  
 V. Vanovschi,  L. Vogt,  Tao Wang,  A. Warshel,  M. A. Watson,  
 C. F. Williams,  Q. Wu,  X. Xu,  Jun Yang,  W. Zhang,  Yan Zhao

 Please cite Q-Chem as follows:
 Y. Shao et al., Mol. Phys. 113, 184-215 (2015)
 DOI: 10.1080/00268976.2014.952696

 Q-Chem 5.4.0 for Intel X86 EM64T Linux

 Parts of Q-Chem use Armadillo 9.800.1 (Horizon Scraper).
 http://arma.sourceforge.net/

 Q-Chem begins on Sun Jul 10 04:53:18 2022  

 Host: 
0

     Scratch files written to ./qchem953352//
 May1621 |scratch|qcdevops|jenkins|workspace|build_RNUM    
 Processing $rem in /cm/shared/apps/spack/cpu/opt/spack/linux-centos8-zen2/gcc-10.2.0/qchem-5.4-akfmr7b3t57bfs6qan3padb2wnb2i7cl/config/preferences:
 Processing $rem in /home/theleonzhang/.qchemrc:
 Symmetry turned off for PCM/SM12/SMD calculation
 Core orbitals will be frozen

 Checking the input file for inconsistencies... 	...done.

--------------------------------------------------------------
User input:
--------------------------------------------------------------
$molecule
0 1
C	0.763228	-3.866725	0.135301
C	-0.603311	-3.703963	-0.106073
C	-1.050423	-2.357056	-0.185286
H	-1.283188	-4.561092	-0.225783
C	0.000000	-1.440664	0.000000
S	1.521021	-2.286957	0.268187
C	-2.483507	-1.978743	-0.438209
H	-3.118798	-2.878678	-0.550153
H	-2.593381	-1.376015	-1.363906
H	-2.903516	-1.375728	0.393798
C	0.000000	0.000000	0.000000
C	0.295399	0.811508	1.099446
C	0.768742	2.111949	0.776721
H	0.169256	0.464952	2.136088
C	0.844232	2.319291	-0.612546
S	0.322342	0.885558	-1.486809
C	1.140796	3.134091	1.814609
H	0.995218	2.734123	2.836676
H	0.526006	4.054142	1.726239
H	2.203157	3.443680	1.726228
H	1.168902	3.211257	-1.161575
H	1.258111	-4.392713	-0.688674
H	0.946272	-4.392347	1.079084
H	-0.187654	-1.440391	1.063572
$end

$rem
JOBTYPE		SP
EXCHANGE	HF
CORRELATION	pRIMP2
BASIS		cc-pvtz
METHOD		rimp2
AUX_BASIS	rimp2-cc-pvtz
SOLVENT_METHOD	PCM
PURECART	11111
SYMMETRY	false
MEM_TOTAL	110000
SCF_CONVERGENCE = 6
THRESH=10
$end



$solvent
dielectric 4.90
$end
--------------------------------------------------------------
 ----------------------------------------------------------------
             Standard Nuclear Orientation (Angstroms)
    I     Atom           X                Y                Z
 ----------------------------------------------------------------
    1      C       0.7632280000    -3.8667250000     0.1353010000
    2      C      -0.6033110000    -3.7039630000    -0.1060730000
    3      C      -1.0504230000    -2.3570560000    -0.1852860000
    4      H      -1.2831880000    -4.5610920000    -0.2257830000
    5      C       0.0000000000    -1.4406640000     0.0000000000
    6      S       1.5210210000    -2.2869570000     0.2681870000
    7      C      -2.4835070000    -1.9787430000    -0.4382090000
    8      H      -3.1187980000    -2.8786780000    -0.5501530000
    9      H      -2.5933810000    -1.3760150000    -1.3639060000
   10      H      -2.9035160000    -1.3757280000     0.3937980000
   11      C       0.0000000000     0.0000000000     0.0000000000
   12      C       0.2953990000     0.8115080000     1.0994460000
   13      C       0.7687420000     2.1119490000     0.7767210000
   14      H       0.1692560000     0.4649520000     2.1360880000
   15      C       0.8442320000     2.3192910000    -0.6125460000
   16      S       0.3223420000     0.8855580000    -1.4868090000
   17      C       1.1407960000     3.1340910000     1.8146090000
   18      H       0.9952180000     2.7341230000     2.8366760000
   19      H       0.5260060000     4.0541420000     1.7262390000
   20      H       2.2031570000     3.4436800000     1.7262280000
   21      H       1.1689020000     3.2112570000    -1.1615750000
   22      H       1.2581110000    -4.3927130000    -0.6886740000
   23      H       0.9462720000    -4.3923470000     1.0790840000
   24      H      -0.1876540000    -1.4403910000     1.0635720000
 ----------------------------------------------------------------
 Nuclear Repulsion Energy =         874.18814922 hartrees
 There are       52 alpha and       52 beta electrons

 Q-Chem warning in module forms1/BasisType.C, line 2236:

 You are not using the predefined 5D/6D in this basis set.

 Requested basis set is cc-pVTZ
 There are 196 shells and 536 basis functions

 Total QAlloc Memory Limit 110000 MB
 Mega-Array Size       188 MB
 MEM_STATIC part       192 MB
 Discretize the solute cavity surface with Lebedev spheres
	Using 110 Lebedev grid points for each H atom
	Using 194 Lebedev grid points for other atoms
	Atomic van der Waals radii will be scaled by 1.20
 Remove points where switching function is < 1.0e-08
 Keep 1630 surface tesserae and discard 2018 interior tesserae
 Molecular Surface Area = 238.315 Angst**2
 Requested basis set is rimp2-cc-pVTZ
 There are 414 shells and 1414 basis functions
 A cutoff of  1.0D-10 yielded  13906 shell pairs
 There are    100482 function pairs (    128809 Cartesian)
 Smallest overlap matrix eigenvalue = 7.20E-05

 Scale SEOQF with 1.000000e-01/1.000000e-01/1.000000e-01

 Standard Electronic Orientation quadrupole field applied
 Nucleus-field energy     =     0.0000000361 hartrees
 Guess from superposition of atomic densities
 Warning:  Energy on first SCF cycle will be non-variational
 SAD guess density has 104.000000 electrons

 -----------------------------------------------------------------------
  General SCF calculation program by
  Eric Jon Sundstrom, Paul Horn, Yuezhi Mao, Dmitri Zuev, Alec White,
  David Stuck, Shaama M.S., Shane Yost, Joonho Lee, David Small,
  Daniel Levine, Susi Lehtola, Hugh Burton, Evgeny Epifanovsky,
  Bang C. Huynh
 -----------------------------------------------------------------------
 Hartree-Fock
 A restricted SCF calculation will be
 performed using DIIS
 SCF converges when DIIS error is below 1.0e-06
 ---------------------------------------
  Cycle       Energy         DIIS error
 ---------------------------------------
    1   -1186.0259514987      2.39e-02  
    2   -1180.6168882148      1.54e-03  
    3   -1180.7403022199      5.68e-04  
    4   -1180.7533876959      3.19e-04  
    5   -1180.7579348576      5.83e-05  
    6   -1180.7581720790      2.40e-05  
    7   -1180.7582306791      9.08e-06  
    8   -1180.7582451935      4.41e-06  
    9   -1180.7582485928      1.56e-06  
   10   -1180.7582491235      5.23e-07  Convergence criterion met
 ---------------------------------------
 SCF time:   CPU 559.91s  wall 562.00s 

************** Final PCM Free Energy Summary **************
 G_electrostatic  =      -0.00935680 hartree =      -5.87148167 kcal/mol
 G_cavitation     =       0.00000000 hartree =       0.00000000 kcal/mol
 G_dispersion     =       0.00000000 hartree =       0.00000000 kcal/mol
 G_repulsion      =       0.00000000 hartree =       0.00000000 kcal/mol
 --------------------------------------------------
 Non-electrostatic Free Energy =       0.00000000 hartree =       0.00000000 kcal/mol
 Total                         =      -0.00935680 hartree =      -5.87148167 kcal/mol
 --------------------------------------------------
 SCF Energy (H0 + V/2)                       =   -1180.75824912 
 Solute Internal Energy (H0)                 =   -1180.74889232 
 Total Free Energy (H0 + V/2 + non-elec)     =   -1180.75824912 hartree
                                             = -740936.98428637 kcal/mol
***********************************************************

 SCF   energy in the final basis set =    -1180.7582491235
 Total energy in the final basis set =    -1180.7582491235


 --------------------------------------------------------------
  Generalized many-body perturbation theory program
  by Joonho Lee, Fazle Rob, Xintian Feng, Evgeny Epifanovsky

 No regularization used 
 (reg. param. = 0.0000e+00)
  (P|Q)^-1/2 Time:  CPU 1.89 s  wall 1.90 s

 In RI-MP2 calculation: 
 # of frozen core orbitals: 20

 Components of the RIMP2 correlation energy:
        aaaa    correlation energy =        -0.2513252417 a.u.
        abab    correlation energy =        -1.5033225596 a.u.
        bbbb    correlation energy =        -0.2513252417 a.u.
        non-Brillouin singles      =        -0.0000000000 a.u.
        total same-spin energy     =        -0.5026504834 a.u.
        total opposite-spin energy =        -1.5033225596 a.u.

 Total  RIMP2   correlation energy =        -2.0059730429 a.u.
        RIMP2         total energy =     -1182.7642221664 a.u.

 RI-MP2 Energy Time:  CPU 79.16 s  wall 79.41 s
 
 --------------------------------------------------------------
 
                    Orbital Energies (a.u.)
 --------------------------------------------------------------
 
 Alpha MOs
 -- Occupied --
-91.9793 -91.9413 -11.2782 -11.2671 -11.2610 -11.2546 -11.2509 -11.2456
-11.2404 -11.2313 -11.2293 -11.2182  -8.9795  -8.9460  -6.6604  -6.6598
 -6.6593  -6.6273  -6.6263  -6.6250  -1.1981  -1.1537  -1.0577  -1.0258
 -1.0059  -0.9589  -0.9119  -0.9011  -0.8147  -0.7621  -0.7354  -0.7000
 -0.6604  -0.6405  -0.6105  -0.5886  -0.5805  -0.5717  -0.5660  -0.5501
 -0.5411  -0.5313  -0.5112  -0.5068  -0.4922  -0.4789  -0.4592  -0.4487
 -0.3566  -0.3399  -0.3122  -0.2813
 -- Virtual --
  0.0884   0.1323   0.1422   0.1506   0.1582   0.1707   0.1767   0.1801
  0.1880   0.1987   0.2050   0.2141   0.2292   0.2326   0.2338   0.2458
  0.2481   0.2602   0.2648   0.3003   0.3077   0.3389   0.3390   0.3518
  0.3657   0.3757   0.3791   0.3904   0.3991   0.4042   0.4108   0.4212
  0.4306   0.4430   0.4492   0.4573   0.4670   0.4746   0.4756   0.4816
  0.5012   0.5100   0.5149   0.5229   0.5283   0.5338   0.5463   0.5587
  0.5659   0.5760   0.5931   0.5992   0.6009   0.6072   0.6109   0.6191
  0.6224   0.6285   0.6339   0.6353   0.6414   0.6451   0.6502   0.6524
  0.6621   0.6686   0.6781   0.6831   0.6899   0.6954   0.7168   0.7290
  0.7354   0.7509   0.7534   0.7731   0.7916   0.8000   0.8099   0.8200
  0.8250   0.8308   0.8376   0.8547   0.8680   0.9012   0.9064   0.9216
  0.9286   0.9438   0.9464   0.9576   0.9771   0.9883   1.0013   1.0104
  1.0115   1.0227   1.0424   1.0467   1.0564   1.0640   1.0741   1.0781
  1.0870   1.1020   1.1138   1.1210   1.1319   1.1482   1.1554   1.1652
  1.1735   1.1817   1.1872   1.2095   1.2164   1.2219   1.2413   1.2447
  1.2516   1.2581   1.2662   1.2747   1.2842   1.2893   1.2963   1.3118
  1.3220   1.3290   1.3435   1.3529   1.3659   1.3948   1.4033   1.4146
  1.4165   1.4323   1.4487   1.4540   1.4718   1.4832   1.4925   1.4991
  1.5083   1.5153   1.5221   1.5328   1.5374   1.5385   1.5459   1.5547
  1.5682   1.5764   1.5867   1.5891   1.6052   1.6097   1.6126   1.6351
  1.6436   1.6653   1.6760   1.6821   1.6960   1.7136   1.7218   1.7388
  1.7516   1.7536   1.7683   1.7786   1.8122   1.8188   1.8341   1.8619
  1.8656   1.9065   1.9287   1.9501   1.9571   1.9735   1.9881   2.0022
  2.0166   2.0310   2.0539   2.0693   2.0721   2.1123   2.1279   2.1467
  2.1806   2.1939   2.1975   2.2120   2.2401   2.2499   2.2639   2.2723
  2.2954   2.3325   2.3346   2.3692   2.4246   2.4306   2.4423   2.4676
  2.4948   2.5123   2.5259   2.5425   2.5628   2.5761   2.6026   2.6128
  2.6274   2.6381   2.6622   2.6637   2.6732   2.6897   2.7036   2.7263
  2.7448   2.7543   2.7603   2.7743   2.7796   2.7880   2.8019   2.8292
  2.8398   2.8505   2.8571   2.8761   2.8876   2.8961   2.9103   2.9204
  2.9374   2.9582   2.9740   2.9786   3.0107   3.0159   3.0236   3.0361
  3.0422   3.0646   3.0816   3.0941   3.1122   3.1142   3.1291   3.1424
  3.1529   3.1614   3.1651   3.1766   3.1859   3.1945   3.2015   3.2133
  3.2319   3.2396   3.2515   3.2690   3.2756   3.2850   3.2958   3.3149
  3.3212   3.3229   3.3334   3.3374   3.3449   3.3534   3.3585   3.3663
  3.3716   3.3831   3.3930   3.3975   3.4054   3.4147   3.4201   3.4256
  3.4398   3.4465   3.4533   3.4600   3.4805   3.4975   3.5022   3.5126
  3.5143   3.5225   3.5366   3.5448   3.5496   3.5571   3.5715   3.5840
  3.5946   3.6075   3.6119   3.6238   3.6274   3.6379   3.6423   3.6576
  3.6755   3.6883   3.6946   3.7015   3.7193   3.7197   3.7291   3.7352
  3.7375   3.7582   3.7696   3.7821   3.7866   3.7984   3.8102   3.8149
  3.8267   3.8351   3.8498   3.8595   3.8795   3.8828   3.8963   3.9160
  3.9288   3.9480   3.9533   3.9602   3.9714   3.9816   3.9968   4.0056
  4.0219   4.0315   4.0426   4.0538   4.0737   4.0771   4.0962   4.1066
  4.1162   4.1175   4.1475   4.1507   4.1629   4.1776   4.1802   4.1959
  4.2102   4.2198   4.2349   4.2449   4.2524   4.2651   4.2674   4.2785
  4.2916   4.3066   4.3200   4.3279   4.3376   4.3543   4.3604   4.3668
  4.3725   4.3850   4.3998   4.4028   4.4093   4.4245   4.4278   4.4444
  4.4590   4.4636   4.4796   4.4850   4.4962   4.5242   4.5264   4.5467
  4.5709   4.5964   4.6167   4.6235   4.6320   4.6496   4.6602   4.6700
  4.7032   4.7223   4.7290   4.7602   4.7741   4.8102   4.8265   4.8352
  4.8573   4.8646   4.8957   4.8982   4.9293   4.9563   4.9652   4.9801
  5.0203   5.0453   5.0905   5.1020   5.1130   5.1242   5.1516   5.1688
  5.1863   5.2019   5.2254   5.2607   5.2828   5.2874   5.3126   5.3173
  5.3392   5.3686   5.3813   5.4027   5.4079   5.4254   5.4419   5.4533
  5.4882   5.5098   5.5302   5.5433   5.5476   5.5613   5.5766   5.5819
  5.6226   5.6327   5.6617   5.6793   5.6867   5.7074   5.7158   5.7259
  5.7684   5.7898   5.8300   5.9608   5.9858   6.0521   6.1215   6.1388
  6.2017   6.2200   6.2265   6.2430   6.2464   6.2776   6.2924   6.3214
  6.3732   6.4690   9.4964  10.6647  12.0780  12.9062  13.1724  13.9130
 14.1134  14.2098  14.2991  14.6061
 --------------------------------------------------------------
 
          Ground-State Mulliken Net Atomic Charges

     Atom                 Charge (a.u.)
  ----------------------------------------
      1 C                    -0.075407
      2 C                    -0.324350
      3 C                    -0.034598
      4 H                     0.175646
      5 C                     0.079527
      6 S                    -0.171030
      7 C                    -0.269251
      8 H                     0.112102
      9 H                     0.105848
     10 H                     0.102166
     11 C                    -0.059852
     12 C                    -0.262040
     13 C                     0.035822
     14 H                     0.181800
     15 C                    -0.234549
     16 S                     0.004493
     17 C                    -0.270255
     18 H                     0.102161
     19 H                     0.107593
     20 H                     0.108789
     21 H                     0.197159
     22 H                     0.111910
     23 H                     0.109371
     24 H                     0.166946
  ----------------------------------------
  Sum of atomic charges =     0.000000

 -----------------------------------------------------------------
                    Cartesian Multipole Moments
 -----------------------------------------------------------------
    Charge (ESU x 10^10)
                -0.0000
    Dipole Moment (Debye)
         X      -1.8134      Y       0.6220      Z       1.9025
       Tot       2.7009
    Quadrupole Moments (Debye-Ang)
        XX     -90.4960     XY       7.2850     YY     -74.9748
        XZ       0.7264     YZ       0.3120     ZZ     -85.9126
    Octopole Moments (Debye-Ang^2)
       XXX     -78.1053    XXY      49.7626    XYY     -11.2715
       YYY     133.2467    XXZ      -3.1684    XYZ      -2.4114
       YYZ      -1.0308    XZZ     -19.7229    YZZ      58.9633
       ZZZ       4.7081
    Hexadecapole Moments (Debye-Ang^3)
      XXXX    -805.1263   XXXY    -125.0957   XXYY    -603.7881
      XYYY    -126.5650   YYYY   -2700.9585   XXXZ     -75.6112
      XXYZ     -24.2137   XYYZ     -24.8261   YYYZ    -105.3158
      XXZZ    -234.9454   XYZZ     -45.8671   YYZZ    -583.6278
      XZZZ     -83.4727   YZZZ     -90.9411   ZZZZ    -554.7222
 -----------------------------------------------------------------
 Total job time:  643.27s(wall), 639.96s(cpu) 
 Sun Jul 10 05:04:02 2022

        *************************************************************
        *                                                           *
        *  Thank you very much for using Q-Chem.  Have a nice day.  *
        *                                                           *
        *************************************************************


remove work dirs ./qchem953352.0 -- ./qchem953352.-1
rm -rf ./qchem953352
