You are running Q-Chem version: 5.4.0

#
# job setting
#
local host:  exp-1-17
current dir: /expanse/lustre/scratch/theleonzhang/temp_project/Hydrogenated_Rotation_Test
input file:  Methylthiophene_Phi_0_Theta_280_Methylthiophene_Hydrogenated.qcin
output file: 
nprocs     : 0
nthreads   : 1
#
# qchem installation setting
#
QC:          /cm/shared/apps/spack/cpu/opt/spack/linux-centos8-zen2/gcc-10.2.0/qchem-5.4-akfmr7b3t57bfs6qan3padb2wnb2i7cl
QCAUX:       /cm/shared/apps/spack/cpu/opt/spack/linux-centos8-zen2/gcc-10.2.0/qchem-5.4-akfmr7b3t57bfs6qan3padb2wnb2i7cl/qcaux
QCPROG:      /cm/shared/apps/spack/cpu/opt/spack/linux-centos8-zen2/gcc-10.2.0/qchem-5.4-akfmr7b3t57bfs6qan3padb2wnb2i7cl/exe/qcprog.exe_s
QCPROG_S:    /cm/shared/apps/spack/cpu/opt/spack/linux-centos8-zen2/gcc-10.2.0/qchem-5.4-akfmr7b3t57bfs6qan3padb2wnb2i7cl/exe/qcprog.exe_s
PARALLEL:    -DSERIAL
QCMPI:       mpich
#
# qchem directory setting
#
qcrun:       qchem3563560
QCSCRATCH:   .
QCLOCALSCR:  
QCTMPDIR:    .
QCFILEPREF:  ./qchem3563560
QCSAVEDIR:   
workdirs:    ./qchem3563560
workdir0:    ./qchem3563560
partmpdirs =  
#
# parallel setting
#
QCRSH:           ssh
QCMPI:           mpich
QCMPIRUN:        /cm/shared/apps/spack/cpu/opt/spack/linux-centos8-zen2/gcc-10.2.0/qchem-5.4-akfmr7b3t57bfs6qan3padb2wnb2i7cl/bin/mpi/mpirun_qchem
QCMACHINEFILE:   ./qchem3563560/hostfile

#
# env setting
#
exported envs:   QC QCAUX QCSCRATCH QCRUNNAME QCFILEPREF QCPROG QCPROG_S GUIFILE

Running Job 1 of 1 Methylthiophene_Phi_0_Theta_280_Methylthiophene_Hydrogenated.qcin
qchem Methylthiophene_Phi_0_Theta_280_Methylthiophene_Hydrogenated.qcin_3563560.0 ./qchem3563560/ 0
/cm/shared/apps/spack/cpu/opt/spack/linux-centos8-zen2/gcc-10.2.0/qchem-5.4-akfmr7b3t57bfs6qan3padb2wnb2i7cl/exe/qcprog.exe_s Methylthiophene_Phi_0_Theta_280_Methylthiophene_Hydrogenated.qcin_3563560.0 ./qchem3563560/
                  Welcome to Q-Chem
     A Quantum Leap Into The Future Of Chemistry


 Q-Chem 5.4, Q-Chem, Inc., Pleasanton, CA (2021)

 License issued to: University of California, San Diego (site)

 E. Epifanovsky,  A. T. B. Gilbert,  Xintian Feng,  Joonho Lee,  Yuezhi Mao,  
 N. Mardirossian,  P. Pokhilko,  A. White,  M. Wormit,  M. P. Coons,  
 A. L. Dempwolff,  Zhengting Gan,  D. Hait,  P. R. Horn,  L. D. Jacobson,  
 I. Kaliman,  J. Kussmann,  A. W. Lange,  Ka Un Lao,  D. S. Levine,  Jie Liu,  
 S. C. McKenzie,  A. F. Morrison,  K. Nanda,  F. Plasser,  D. R. Rehn,  
 M. L. Vidal,  Zhi-Qiang You,  Ying Zhu,  B. Alam,  B. Albrecht,  
 A. Aldossary,  E. Alguire,  J. H. Andersen,  D. Barton,  K. Begam,  A. Behn,  
 Y. A. Bernard,  E. J. Berquist,  H. Burton,  A. Carreras,  K. Carter-Fenk,  
 R. Chakraborty,  A. D. Chien,  K. D. Closser,  V. Cofer-Shabica,  
 S. Dasgupta,  Jia Deng,  M. de Wergifosse,  M. Diedenhofen,  Hainam Do,  
 S. Ehlert,  Po-Tung Fang,  S. Fatehi,  Qingguo Feng,  J. Gayvert,  
 Qinghui Ge,  G. Gidofalvi,  M. Goldey,  J. Gomes,  C. Gonzalez-Espinoza,  
 S. Gulania,  A. Gunina,  M. W. D. Hanson-Heine,  P. H. P. Harbach,  
 A. W. Hauser,  M. F. Herbst,  M. Hernandez Vera,  M. Hodecker,  
 Z. C. Holden,  S. Houck,  Xunkun Huang,  Kerwin Hui,  B. C. Huynh,  
 M. Ivanov,  Hyunjun Ji,  Hanjie Jiang,  B. Kaduk,  S. Kaehler,  
 K. Khistyaev,  Jaehoon Kim,  P. Klunzinger,  Z. Koczor-Benda,  
 Joong Hoon Koh,  D. Kosenkov,  L. Koulias,  T. Kowalczyk,  C. M. Krauter,  
 K. Kue,  A. Kunitsa,  T. Kus,  A. Landau,  K. V. Lawler,  D. Lefrancois,  
 S. Lehtola,  Rain Li,  Yi-Pei Li,  Jiashu Liang,  M. Liebenthal,  
 Hung-Hsuan Lin,  You-Sheng Lin,  Fenglai Liu,  Kuan-Yu Liu,  
 M. Loipersberger,  A. Luenser,  A. Manjanath,  P. Manohar,  E. Mansoor,  
 S. F. Manzer,  Shan-Ping Mao,  A. V. Marenich,  T. Markovich,  S. Mason,  
 S. A. Maurer,  P. F. McLaughlin,  M. F. S. J. Menger,  J.-M. Mewes,  
 S. A. Mewes,  P. Morgante,  J. W. Mullinax,  T. S. Nguyen-Beck,  
 K. J. Oosterbaan,  G. Paran,  Alexander C. Paul,  Suranjan K. Paul,  
 F. Pavosevic,  Zheng Pei,  S. Prager,  E. I. Proynov,  E. Ramos,  B. Rana,  
 A. E. Rask,  A. Rettig,  R. M. Richard,  F. Rob,  E. Rossomme,  T. Scheele,  
 M. Scheurer,  M. Schneider,  N. Sergueev,  S. M. Sharada,  W. Skomorowski,  
 D. W. Small,  C. J. Stein,  Yu-Chuan Su,  E. J. Sundstrom,  Zhen Tao,  
 J. Thirman,  T. Tsuchimochi,  N. M. Tubman,  S. P. Veccham,  O. Vydrov,  
 J. Wenzel,  J. Witte,  A. Yamada,  Kun Yao,  S. Yeganeh,  S. R. Yost,  
 A. Zech,  Igor Ying Zhang,  Xing Zhang,  Yu Zhang,  D. Zuev,  
 A. Aspuru-Guzik,  A. T. Bell,  N. A. Besley,  K. B. Bravaya,  B. R. Brooks,  
 D. Casanova,  Jeng-Da Chai,  S. Coriani,  C. J. Cramer,  
 A. E. DePrince, III,  R. A. DiStasio Jr.,  A. Dreuw,  B. D. Dunietz,  
 T. R. Furlani,  W. A. Goddard III,  S. Grimme,  S. Hammes-Schiffer,  
 T. Head-Gordon,  W. J. Hehre,  Chao-Ping Hsu,  T.-C. Jagau,  Yousung Jung,  
 A. Klamt,  Jing Kong,  D. S. Lambrecht,  WanZhen Liang,  N. J. Mayhall,  
 C. W. McCurdy,  J. B. Neaton,  C. Ochsenfeld,  J. A. Parkhill,  R. Peverati,  
 V. A. Rassolov,  Yihan Shao,  L. V. Slipchenko,  T. Stauch,  R. P. Steele,  
 J. E. Subotnik,  A. J. W. Thom,  A. Tkatchenko,  D. G. Truhlar,  
 T. Van Voorhis,  T. A. Wesolowski,  K. B. Whaley,  H. L. Woodcock III,  
 P. M. Zimmerman,  S. Faraji,  P. M. W. Gill,  M. Head-Gordon,  
 J. M. Herbert,  A. I. Krylov

 Contributors to earlier versions of Q-Chem not listed above: 
 R. D. Adamson,  B. Austin,  R. Baer,  J. Baker,  G. J. O. Beran,  
 K. Brandhorst,  S. T. Brown,  E. F. C. Byrd,  A. K. Chakraborty,  
 G. K. L. Chan,  Chun-Min Chang,  Yunqing Chen,  C.-L. Cheng,  
 Siu Hung Chien,  D. M. Chipman,  D. L. Crittenden,  H. Dachsel,  
 R. J. Doerksen,  A. D. Dutoi,  R. G. Edgar,  J. Fosso-Tande,  
 L. Fusti-Molnar,  D. Ghosh,  A. Ghysels,  A. Golubeva-Zadorozhnaya,  
 J. Gonthier,  M. S. Gordon,  S. R. Gwaltney,  G. Hawkins,  J. E. Herr,  
 A. Heyden,  S. Hirata,  E. G. Hohenstein,  G. Kedziora,  F. J. Keil,  
 C. Kelley,  Jihan Kim,  R. A. King,  R. Z. Khaliullin,  P. P. Korambath,  
 W. Kurlancheek,  A. Laurent,  A. M. Lee,  M. S. Lee,  S. V. Levchenko,  
 Ching Yeh Lin,  D. Liotard,  E. Livshits,  R. C. Lochan,  I. Lotan,  
 L. A. Martinez-Martinez,  P. E. Maslen,  N. Nair,  D. P. O'Neill,  
 D. Neuhauser,  E. Neuscamman,  C. M. Oana,  R. Olivares-Amaya,  R. Olson,  
 T. M. Perrine,  B. Peters,  P. A. Pieniazek,  A. Prociuk,  Y. M. Rhee,  
 J. Ritchie,  M. A. Rohrdanz,  E. Rosta,  N. J. Russ,  H. F. Schaefer III,  
 M. W. Schmidt,  N. E. Schultz,  S. Sharma,  N. Shenvi,  C. D. Sherrill,  
 A. C. Simmonett,  A. Sodt,  T. Stein,  D. Stuck,  K. S. Thanthiriwatte,  
 V. Vanovschi,  L. Vogt,  Tao Wang,  A. Warshel,  M. A. Watson,  
 C. F. Williams,  Q. Wu,  X. Xu,  Jun Yang,  W. Zhang,  Yan Zhao

 Please cite Q-Chem as follows:
 Y. Shao et al., Mol. Phys. 113, 184-215 (2015)
 DOI: 10.1080/00268976.2014.952696

 Q-Chem 5.4.0 for Intel X86 EM64T Linux

 Parts of Q-Chem use Armadillo 9.800.1 (Horizon Scraper).
 http://arma.sourceforge.net/

 Q-Chem begins on Sun Jul 10 03:59:41 2022  

 Host: 
0

     Scratch files written to ./qchem3563560//
 May1621 |scratch|qcdevops|jenkins|workspace|build_RNUM    
 Processing $rem in /cm/shared/apps/spack/cpu/opt/spack/linux-centos8-zen2/gcc-10.2.0/qchem-5.4-akfmr7b3t57bfs6qan3padb2wnb2i7cl/config/preferences:
 Processing $rem in /home/theleonzhang/.qchemrc:
 Symmetry turned off for PCM/SM12/SMD calculation
 Core orbitals will be frozen

 Checking the input file for inconsistencies... 	...done.

--------------------------------------------------------------
User input:
--------------------------------------------------------------
$molecule
0 1
C	0.763228	-3.866725	0.135301
C	-0.603311	-3.703963	-0.106073
C	-1.050423	-2.357056	-0.185286
H	-1.283188	-4.561092	-0.225783
C	0.000000	-1.440664	0.000000
S	1.521021	-2.286957	0.268187
C	-2.483507	-1.978743	-0.438209
H	-3.118798	-2.878678	-0.550153
H	-2.593381	-1.376015	-1.363906
H	-2.903516	-1.375728	0.393798
C	0.000000	0.000000	0.000000
C	0.000033	0.863600	1.099446
C	0.000052	2.247508	0.776721
H	0.000026	0.494801	2.136088
C	0.000074	2.468165	-0.612546
S	0.000024	0.942399	-1.486809
C	0.000075	3.335257	1.814609
H	0.000074	2.909620	2.836676
H	-0.892314	3.989552	1.726239
H	0.892483	3.989525	1.726228
H	0.000094	3.417382	-1.161575
H	1.258111	-4.392713	-0.688674
H	0.946272	-4.392347	1.079084
H	-0.187654	-1.440391	1.063572
$end

$rem
JOBTYPE		SP
EXCHANGE	HF
CORRELATION	pRIMP2
BASIS		cc-pvtz
METHOD		rimp2
AUX_BASIS	rimp2-cc-pvtz
SOLVENT_METHOD	PCM
PURECART	11111
SYMMETRY	false
MEM_TOTAL	110000
SCF_CONVERGENCE = 6
THRESH=10
$end



$solvent
dielectric 4.90
$end
--------------------------------------------------------------
 ----------------------------------------------------------------
             Standard Nuclear Orientation (Angstroms)
    I     Atom           X                Y                Z
 ----------------------------------------------------------------
    1      C       0.7632280000    -3.8667250000     0.1353010000
    2      C      -0.6033110000    -3.7039630000    -0.1060730000
    3      C      -1.0504230000    -2.3570560000    -0.1852860000
    4      H      -1.2831880000    -4.5610920000    -0.2257830000
    5      C       0.0000000000    -1.4406640000     0.0000000000
    6      S       1.5210210000    -2.2869570000     0.2681870000
    7      C      -2.4835070000    -1.9787430000    -0.4382090000
    8      H      -3.1187980000    -2.8786780000    -0.5501530000
    9      H      -2.5933810000    -1.3760150000    -1.3639060000
   10      H      -2.9035160000    -1.3757280000     0.3937980000
   11      C       0.0000000000     0.0000000000     0.0000000000
   12      C       0.0000330000     0.8636000000     1.0994460000
   13      C       0.0000520000     2.2475080000     0.7767210000
   14      H       0.0000260000     0.4948010000     2.1360880000
   15      C       0.0000740000     2.4681650000    -0.6125460000
   16      S       0.0000240000     0.9423990000    -1.4868090000
   17      C       0.0000750000     3.3352570000     1.8146090000
   18      H       0.0000740000     2.9096200000     2.8366760000
   19      H      -0.8923140000     3.9895520000     1.7262390000
   20      H       0.8924830000     3.9895250000     1.7262280000
   21      H       0.0000940000     3.4173820000    -1.1615750000
   22      H       1.2581110000    -4.3927130000    -0.6886740000
   23      H       0.9462720000    -4.3923470000     1.0790840000
   24      H      -0.1876540000    -1.4403910000     1.0635720000
 ----------------------------------------------------------------
 Nuclear Repulsion Energy =         871.20874258 hartrees
 There are       52 alpha and       52 beta electrons

 Q-Chem warning in module forms1/BasisType.C, line 2236:

 You are not using the predefined 5D/6D in this basis set.

 Requested basis set is cc-pVTZ
 There are 196 shells and 536 basis functions

 Total QAlloc Memory Limit 110000 MB
 Mega-Array Size       188 MB
 MEM_STATIC part       192 MB
 Discretize the solute cavity surface with Lebedev spheres
	Using 110 Lebedev grid points for each H atom
	Using 194 Lebedev grid points for other atoms
	Atomic van der Waals radii will be scaled by 1.20
 Remove points where switching function is < 1.0e-08
 Keep 1628 surface tesserae and discard 2020 interior tesserae
 Molecular Surface Area = 239.936 Angst**2
 Requested basis set is rimp2-cc-pVTZ
 There are 414 shells and 1414 basis functions
 A cutoff of  1.0D-10 yielded  13891 shell pairs
 There are    100799 function pairs (    129393 Cartesian)
 Smallest overlap matrix eigenvalue = 6.15E-05

 Scale SEOQF with 1.000000e-01/1.000000e-01/1.000000e-01

 Standard Electronic Orientation quadrupole field applied
 Nucleus-field energy     =     0.0000000370 hartrees
 Guess from superposition of atomic densities
 Warning:  Energy on first SCF cycle will be non-variational
 SAD guess density has 104.000000 electrons

 -----------------------------------------------------------------------
  General SCF calculation program by
  Eric Jon Sundstrom, Paul Horn, Yuezhi Mao, Dmitri Zuev, Alec White,
  David Stuck, Shaama M.S., Shane Yost, Joonho Lee, David Small,
  Daniel Levine, Susi Lehtola, Hugh Burton, Evgeny Epifanovsky,
  Bang C. Huynh
 -----------------------------------------------------------------------
 Hartree-Fock
 A restricted SCF calculation will be
 performed using DIIS
 SCF converges when DIIS error is below 1.0e-06
 ---------------------------------------
  Cycle       Energy         DIIS error
 ---------------------------------------
    1   -1186.0162514988      2.39e-02  
    2   -1180.6226122146      1.55e-03  
    3   -1180.7460644558      5.85e-04  
    4   -1180.7595211016      3.29e-04  
    5   -1180.7643751247      5.78e-05  
    6   -1180.7646112803      2.38e-05  
    7   -1180.7646682427      8.86e-06  
    8   -1180.7646818960      4.28e-06  
    9   -1180.7646849667      1.48e-06  
   10   -1180.7646854307      4.99e-07  Convergence criterion met
 ---------------------------------------
 SCF time:   CPU 563.21s  wall 566.00s 

************** Final PCM Free Energy Summary **************
 G_electrostatic  =      -0.00915928 hartree =      -5.74753362 kcal/mol
 G_cavitation     =       0.00000000 hartree =       0.00000000 kcal/mol
 G_dispersion     =       0.00000000 hartree =       0.00000000 kcal/mol
 G_repulsion      =       0.00000000 hartree =       0.00000000 kcal/mol
 --------------------------------------------------
 Non-electrostatic Free Energy =       0.00000000 hartree =       0.00000000 kcal/mol
 Total                         =      -0.00915928 hartree =      -5.74753362 kcal/mol
 --------------------------------------------------
 SCF Energy (H0 + V/2)                       =   -1180.76468543 
 Solute Internal Energy (H0)                 =   -1180.75552615 
 Total Free Energy (H0 + V/2 + non-elec)     =   -1180.76468543 hartree
                                             = -740941.02313012 kcal/mol
***********************************************************

 SCF   energy in the final basis set =    -1180.7646854307
 Total energy in the final basis set =    -1180.7646854307


 --------------------------------------------------------------
  Generalized many-body perturbation theory program
  by Joonho Lee, Fazle Rob, Xintian Feng, Evgeny Epifanovsky

 No regularization used 
 (reg. param. = 0.0000e+00)
  (P|Q)^-1/2 Time:  CPU 1.90 s  wall 1.91 s

 In RI-MP2 calculation: 
 # of frozen core orbitals: 20

 Components of the RIMP2 correlation energy:
        aaaa    correlation energy =        -0.2510239571 a.u.
        abab    correlation energy =        -1.5022654166 a.u.
        bbbb    correlation energy =        -0.2510239571 a.u.
        non-Brillouin singles      =        -0.0000000000 a.u.
        total same-spin energy     =        -0.5020479142 a.u.
        total opposite-spin energy =        -1.5022654166 a.u.

 Total  RIMP2   correlation energy =        -2.0043133307 a.u.
        RIMP2         total energy =     -1182.7689987615 a.u.

 RI-MP2 Energy Time:  CPU 79.40 s  wall 79.71 s
 
 --------------------------------------------------------------
 
                    Orbital Energies (a.u.)
 --------------------------------------------------------------
 
 Alpha MOs
 -- Occupied --
-91.9805 -91.9412 -11.2818 -11.2645 -11.2628 -11.2556 -11.2508 -11.2436
-11.2408 -11.2315 -11.2293 -11.2196  -8.9804  -8.9459  -6.6614  -6.6608
 -6.6603  -6.6273  -6.6262  -6.6250  -1.1981  -1.1537  -1.0582  -1.0257
 -1.0065  -0.9595  -0.9123  -0.9011  -0.8151  -0.7628  -0.7348  -0.7014
 -0.6612  -0.6411  -0.6105  -0.5887  -0.5799  -0.5719  -0.5665  -0.5506
 -0.5417  -0.5304  -0.5137  -0.5058  -0.4926  -0.4815  -0.4595  -0.4487
 -0.3559  -0.3416  -0.3126  -0.2813
 -- Virtual --
  0.0958   0.1325   0.1418   0.1501   0.1580   0.1710   0.1779   0.1802
  0.1878   0.1965   0.2041   0.2129   0.2292   0.2329   0.2361   0.2462
  0.2482   0.2600   0.2627   0.2967   0.3049   0.3384   0.3464   0.3534
  0.3692   0.3711   0.3772   0.3940   0.3967   0.4033   0.4112   0.4228
  0.4300   0.4453   0.4539   0.4596   0.4654   0.4719   0.4815   0.4863
  0.5064   0.5099   0.5189   0.5267   0.5288   0.5416   0.5442   0.5571
  0.5653   0.5773   0.5847   0.5852   0.6028   0.6079   0.6143   0.6171
  0.6252   0.6264   0.6351   0.6390   0.6430   0.6453   0.6487   0.6535
  0.6604   0.6661   0.6814   0.6847   0.6922   0.7019   0.7134   0.7261
  0.7305   0.7494   0.7559   0.7723   0.7827   0.8032   0.8064   0.8226
  0.8286   0.8372   0.8486   0.8543   0.8775   0.8902   0.9001   0.9137
  0.9244   0.9458   0.9490   0.9656   0.9688   0.9890   0.9939   1.0072
  1.0140   1.0255   1.0316   1.0493   1.0575   1.0698   1.0725   1.0846
  1.0926   1.0996   1.1057   1.1192   1.1264   1.1512   1.1623   1.1668
  1.1752   1.1925   1.1989   1.2069   1.2154   1.2276   1.2324   1.2457
  1.2547   1.2590   1.2620   1.2727   1.2842   1.2883   1.3015   1.3151
  1.3213   1.3335   1.3430   1.3521   1.3594   1.3966   1.4048   1.4146
  1.4268   1.4325   1.4488   1.4550   1.4680   1.4830   1.4907   1.4980
  1.5034   1.5144   1.5190   1.5331   1.5376   1.5433   1.5486   1.5538
  1.5698   1.5756   1.5860   1.5983   1.6031   1.6125   1.6226   1.6354
  1.6466   1.6755   1.6836   1.6882   1.7005   1.7201   1.7228   1.7372
  1.7509   1.7588   1.7704   1.7851   1.7971   1.8299   1.8326   1.8619
  1.8719   1.9043   1.9175   1.9353   1.9531   1.9708   1.9923   2.0058
  2.0108   2.0241   2.0374   2.0648   2.0708   2.1321   2.1391   2.1528
  2.1843   2.1990   2.2050   2.2177   2.2312   2.2490   2.2697   2.2721
  2.3045   2.3326   2.3398   2.3652   2.4112   2.4260   2.4494   2.4699
  2.4864   2.4992   2.5318   2.5383   2.5722   2.5801   2.6113   2.6157
  2.6319   2.6377   2.6593   2.6637   2.6764   2.6861   2.7072   2.7162
  2.7361   2.7454   2.7587   2.7628   2.7769   2.7822   2.7929   2.8165
  2.8369   2.8434   2.8578   2.8763   2.8881   2.9053   2.9124   2.9187
  2.9273   2.9535   2.9724   2.9846   3.0152   3.0216   3.0231   3.0398
  3.0436   3.0872   3.0889   3.1023   3.1106   3.1167   3.1280   3.1410
  3.1524   3.1564   3.1681   3.1707   3.1823   3.1913   3.2027   3.2157
  3.2329   3.2378   3.2535   3.2634   3.2816   3.2931   3.2982   3.3059
  3.3083   3.3196   3.3321   3.3362   3.3440   3.3532   3.3575   3.3744
  3.3817   3.3852   3.3881   3.3962   3.3995   3.4040   3.4254   3.4341
  3.4404   3.4486   3.4543   3.4670   3.4729   3.4889   3.5070   3.5114
  3.5162   3.5284   3.5321   3.5357   3.5452   3.5589   3.5687   3.5810
  3.5900   3.6021   3.6105   3.6173   3.6232   3.6302   3.6414   3.6597
  3.6723   3.6806   3.6889   3.6994   3.7111   3.7174   3.7321   3.7335
  3.7355   3.7528   3.7637   3.7802   3.7929   3.7981   3.8037   3.8087
  3.8277   3.8345   3.8468   3.8664   3.8814   3.8837   3.8954   3.9130
  3.9250   3.9456   3.9540   3.9714   3.9760   3.9876   4.0011   4.0122
  4.0198   4.0373   4.0430   4.0490   4.0758   4.0776   4.0861   4.1039
  4.1193   4.1307   4.1408   4.1599   4.1700   4.1755   4.1885   4.1977
  4.2090   4.2190   4.2329   4.2423   4.2527   4.2602   4.2734   4.2784
  4.2945   4.3077   4.3143   4.3346   4.3356   4.3511   4.3659   4.3668
  4.3740   4.3927   4.4003   4.4070   4.4094   4.4167   4.4271   4.4471
  4.4608   4.4752   4.4809   4.4858   4.4998   4.5137   4.5410   4.5528
  4.5732   4.5905   4.6139   4.6277   4.6322   4.6536   4.6570   4.6662
  4.7022   4.7239   4.7307   4.7576   4.7771   4.8065   4.8176   4.8345
  4.8558   4.8608   4.8915   4.8956   4.9355   4.9487   4.9813   4.9945
  5.0210   5.0411   5.0904   5.1060   5.1134   5.1274   5.1510   5.1846
  5.1915   5.2137   5.2325   5.2698   5.2839   5.2936   5.3112   5.3192
  5.3454   5.3667   5.3801   5.4012   5.4115   5.4284   5.4404   5.4553
  5.4790   5.5212   5.5240   5.5423   5.5497   5.5600   5.5768   5.5953
  5.6233   5.6288   5.6478   5.6618   5.6775   5.6981   5.7114   5.7325
  5.7771   5.8000   5.8368   5.9797   5.9996   6.0843   6.1232   6.1506
  6.2042   6.2165   6.2262   6.2399   6.2489   6.2778   6.3046   6.3300
  6.3796   6.4958   9.5133  10.6065  12.0410  12.9555  13.1734  13.9466
 14.1060  14.2052  14.3238  14.7189
 --------------------------------------------------------------
 
          Ground-State Mulliken Net Atomic Charges

     Atom                 Charge (a.u.)
  ----------------------------------------
      1 C                    -0.078673
      2 C                    -0.327319
      3 C                    -0.020745
      4 H                     0.176738
      5 C                     0.091413
      6 S                    -0.176450
      7 C                    -0.265464
      8 H                     0.112630
      9 H                     0.106053
     10 H                     0.102095
     11 C                    -0.085681
     12 C                    -0.242615
     13 C                     0.021316
     14 H                     0.182661
     15 C                    -0.236979
     16 S                     0.006162
     17 C                    -0.271700
     18 H                     0.102179
     19 H                     0.107893
     20 H                     0.108790
     21 H                     0.196789
     22 H                     0.112976
     23 H                     0.111159
     24 H                     0.166772
  ----------------------------------------
  Sum of atomic charges =     0.000000

 -----------------------------------------------------------------
                    Cartesian Multipole Moments
 -----------------------------------------------------------------
    Charge (ESU x 10^10)
                -0.0000
    Dipole Moment (Debye)
         X      -2.5269      Y       0.5517      Z       1.8666
       Tot       3.1896
    Quadrupole Moments (Debye-Ang)
        XX     -91.8460     XY       3.8516     YY     -73.5999
        XZ       0.3316     YZ       0.4141     ZZ     -85.9536
    Octopole Moments (Debye-Ang^2)
       XXX      -5.3465    XXY      40.3699    XYY       0.4328
       YYY     125.0740    XXZ      -2.9351    XYZ      -1.5618
       YYZ      -1.1541    XZZ       1.6711    YZZ      55.0474
       ZZZ       4.4954
    Hexadecapole Moments (Debye-Ang^3)
      XXXX    -687.2996   XXXY      34.5421   XXYY    -618.3176
      XYYY       0.6898   YYYY   -2785.1233   XXXZ     -43.5791
      XXYZ     -23.8962   XYYZ      -8.5203   YYYZ    -112.9931
      XXZZ    -218.8893   XYZZ      -1.2524   YYZZ    -599.5043
      XZZZ     -50.3067   YZZZ     -97.0705   ZZZZ    -554.9620
 -----------------------------------------------------------------
 Total job time:  647.56s(wall), 643.52s(cpu) 
 Sun Jul 10 04:10:28 2022

        *************************************************************
        *                                                           *
        *  Thank you very much for using Q-Chem.  Have a nice day.  *
        *                                                           *
        *************************************************************


remove work dirs ./qchem3563560.0 -- ./qchem3563560.-1
rm -rf ./qchem3563560
You are running Q-Chem version: 5.4.0

#
# job setting
#
local host:  exp-2-18
current dir: /expanse/lustre/scratch/theleonzhang/temp_project/Hydrogenated_Rotation_Test
input file:  Methylthiophene_Phi_0_Theta_280_Methylthiophene_Hydrogenated.qcin
output file: 
nprocs     : 0
nthreads   : 1
#
# qchem installation setting
#
QC:          /cm/shared/apps/spack/cpu/opt/spack/linux-centos8-zen2/gcc-10.2.0/qchem-5.4-akfmr7b3t57bfs6qan3padb2wnb2i7cl
QCAUX:       /cm/shared/apps/spack/cpu/opt/spack/linux-centos8-zen2/gcc-10.2.0/qchem-5.4-akfmr7b3t57bfs6qan3padb2wnb2i7cl/qcaux
QCPROG:      /cm/shared/apps/spack/cpu/opt/spack/linux-centos8-zen2/gcc-10.2.0/qchem-5.4-akfmr7b3t57bfs6qan3padb2wnb2i7cl/exe/qcprog.exe_s
QCPROG_S:    /cm/shared/apps/spack/cpu/opt/spack/linux-centos8-zen2/gcc-10.2.0/qchem-5.4-akfmr7b3t57bfs6qan3padb2wnb2i7cl/exe/qcprog.exe_s
PARALLEL:    -DSERIAL
QCMPI:       mpich
#
# qchem directory setting
#
qcrun:       qchem1948728
QCSCRATCH:   .
QCLOCALSCR:  
QCTMPDIR:    .
QCFILEPREF:  ./qchem1948728
QCSAVEDIR:   
workdirs:    ./qchem1948728
workdir0:    ./qchem1948728
partmpdirs =  
#
# parallel setting
#
QCRSH:           ssh
QCMPI:           mpich
QCMPIRUN:        /cm/shared/apps/spack/cpu/opt/spack/linux-centos8-zen2/gcc-10.2.0/qchem-5.4-akfmr7b3t57bfs6qan3padb2wnb2i7cl/bin/mpi/mpirun_qchem
QCMACHINEFILE:   ./qchem1948728/hostfile

#
# env setting
#
exported envs:   QC QCAUX QCSCRATCH QCRUNNAME QCFILEPREF QCPROG QCPROG_S GUIFILE

Running Job 1 of 1 Methylthiophene_Phi_0_Theta_280_Methylthiophene_Hydrogenated.qcin
qchem Methylthiophene_Phi_0_Theta_280_Methylthiophene_Hydrogenated.qcin_1948728.0 ./qchem1948728/ 0
/cm/shared/apps/spack/cpu/opt/spack/linux-centos8-zen2/gcc-10.2.0/qchem-5.4-akfmr7b3t57bfs6qan3padb2wnb2i7cl/exe/qcprog.exe_s Methylthiophene_Phi_0_Theta_280_Methylthiophene_Hydrogenated.qcin_1948728.0 ./qchem1948728/
                  Welcome to Q-Chem
     A Quantum Leap Into The Future Of Chemistry


 Q-Chem 5.4, Q-Chem, Inc., Pleasanton, CA (2021)

 License issued to: University of California, San Diego (site)

 E. Epifanovsky,  A. T. B. Gilbert,  Xintian Feng,  Joonho Lee,  Yuezhi Mao,  
 N. Mardirossian,  P. Pokhilko,  A. White,  M. Wormit,  M. P. Coons,  
 A. L. Dempwolff,  Zhengting Gan,  D. Hait,  P. R. Horn,  L. D. Jacobson,  
 I. Kaliman,  J. Kussmann,  A. W. Lange,  Ka Un Lao,  D. S. Levine,  Jie Liu,  
 S. C. McKenzie,  A. F. Morrison,  K. Nanda,  F. Plasser,  D. R. Rehn,  
 M. L. Vidal,  Zhi-Qiang You,  Ying Zhu,  B. Alam,  B. Albrecht,  
 A. Aldossary,  E. Alguire,  J. H. Andersen,  D. Barton,  K. Begam,  A. Behn,  
 Y. A. Bernard,  E. J. Berquist,  H. Burton,  A. Carreras,  K. Carter-Fenk,  
 R. Chakraborty,  A. D. Chien,  K. D. Closser,  V. Cofer-Shabica,  
 S. Dasgupta,  Jia Deng,  M. de Wergifosse,  M. Diedenhofen,  Hainam Do,  
 S. Ehlert,  Po-Tung Fang,  S. Fatehi,  Qingguo Feng,  J. Gayvert,  
 Qinghui Ge,  G. Gidofalvi,  M. Goldey,  J. Gomes,  C. Gonzalez-Espinoza,  
 S. Gulania,  A. Gunina,  M. W. D. Hanson-Heine,  P. H. P. Harbach,  
 A. W. Hauser,  M. F. Herbst,  M. Hernandez Vera,  M. Hodecker,  
 Z. C. Holden,  S. Houck,  Xunkun Huang,  Kerwin Hui,  B. C. Huynh,  
 M. Ivanov,  Hyunjun Ji,  Hanjie Jiang,  B. Kaduk,  S. Kaehler,  
 K. Khistyaev,  Jaehoon Kim,  P. Klunzinger,  Z. Koczor-Benda,  
 Joong Hoon Koh,  D. Kosenkov,  L. Koulias,  T. Kowalczyk,  C. M. Krauter,  
 K. Kue,  A. Kunitsa,  T. Kus,  A. Landau,  K. V. Lawler,  D. Lefrancois,  
 S. Lehtola,  Rain Li,  Yi-Pei Li,  Jiashu Liang,  M. Liebenthal,  
 Hung-Hsuan Lin,  You-Sheng Lin,  Fenglai Liu,  Kuan-Yu Liu,  
 M. Loipersberger,  A. Luenser,  A. Manjanath,  P. Manohar,  E. Mansoor,  
 S. F. Manzer,  Shan-Ping Mao,  A. V. Marenich,  T. Markovich,  S. Mason,  
 S. A. Maurer,  P. F. McLaughlin,  M. F. S. J. Menger,  J.-M. Mewes,  
 S. A. Mewes,  P. Morgante,  J. W. Mullinax,  T. S. Nguyen-Beck,  
 K. J. Oosterbaan,  G. Paran,  Alexander C. Paul,  Suranjan K. Paul,  
 F. Pavosevic,  Zheng Pei,  S. Prager,  E. I. Proynov,  E. Ramos,  B. Rana,  
 A. E. Rask,  A. Rettig,  R. M. Richard,  F. Rob,  E. Rossomme,  T. Scheele,  
 M. Scheurer,  M. Schneider,  N. Sergueev,  S. M. Sharada,  W. Skomorowski,  
 D. W. Small,  C. J. Stein,  Yu-Chuan Su,  E. J. Sundstrom,  Zhen Tao,  
 J. Thirman,  T. Tsuchimochi,  N. M. Tubman,  S. P. Veccham,  O. Vydrov,  
 J. Wenzel,  J. Witte,  A. Yamada,  Kun Yao,  S. Yeganeh,  S. R. Yost,  
 A. Zech,  Igor Ying Zhang,  Xing Zhang,  Yu Zhang,  D. Zuev,  
 A. Aspuru-Guzik,  A. T. Bell,  N. A. Besley,  K. B. Bravaya,  B. R. Brooks,  
 D. Casanova,  Jeng-Da Chai,  S. Coriani,  C. J. Cramer,  
 A. E. DePrince, III,  R. A. DiStasio Jr.,  A. Dreuw,  B. D. Dunietz,  
 T. R. Furlani,  W. A. Goddard III,  S. Grimme,  S. Hammes-Schiffer,  
 T. Head-Gordon,  W. J. Hehre,  Chao-Ping Hsu,  T.-C. Jagau,  Yousung Jung,  
 A. Klamt,  Jing Kong,  D. S. Lambrecht,  WanZhen Liang,  N. J. Mayhall,  
 C. W. McCurdy,  J. B. Neaton,  C. Ochsenfeld,  J. A. Parkhill,  R. Peverati,  
 V. A. Rassolov,  Yihan Shao,  L. V. Slipchenko,  T. Stauch,  R. P. Steele,  
 J. E. Subotnik,  A. J. W. Thom,  A. Tkatchenko,  D. G. Truhlar,  
 T. Van Voorhis,  T. A. Wesolowski,  K. B. Whaley,  H. L. Woodcock III,  
 P. M. Zimmerman,  S. Faraji,  P. M. W. Gill,  M. Head-Gordon,  
 J. M. Herbert,  A. I. Krylov

 Contributors to earlier versions of Q-Chem not listed above: 
 R. D. Adamson,  B. Austin,  R. Baer,  J. Baker,  G. J. O. Beran,  
 K. Brandhorst,  S. T. Brown,  E. F. C. Byrd,  A. K. Chakraborty,  
 G. K. L. Chan,  Chun-Min Chang,  Yunqing Chen,  C.-L. Cheng,  
 Siu Hung Chien,  D. M. Chipman,  D. L. Crittenden,  H. Dachsel,  
 R. J. Doerksen,  A. D. Dutoi,  R. G. Edgar,  J. Fosso-Tande,  
 L. Fusti-Molnar,  D. Ghosh,  A. Ghysels,  A. Golubeva-Zadorozhnaya,  
 J. Gonthier,  M. S. Gordon,  S. R. Gwaltney,  G. Hawkins,  J. E. Herr,  
 A. Heyden,  S. Hirata,  E. G. Hohenstein,  G. Kedziora,  F. J. Keil,  
 C. Kelley,  Jihan Kim,  R. A. King,  R. Z. Khaliullin,  P. P. Korambath,  
 W. Kurlancheek,  A. Laurent,  A. M. Lee,  M. S. Lee,  S. V. Levchenko,  
 Ching Yeh Lin,  D. Liotard,  E. Livshits,  R. C. Lochan,  I. Lotan,  
 L. A. Martinez-Martinez,  P. E. Maslen,  N. Nair,  D. P. O'Neill,  
 D. Neuhauser,  E. Neuscamman,  C. M. Oana,  R. Olivares-Amaya,  R. Olson,  
 T. M. Perrine,  B. Peters,  P. A. Pieniazek,  A. Prociuk,  Y. M. Rhee,  
 J. Ritchie,  M. A. Rohrdanz,  E. Rosta,  N. J. Russ,  H. F. Schaefer III,  
 M. W. Schmidt,  N. E. Schultz,  S. Sharma,  N. Shenvi,  C. D. Sherrill,  
 A. C. Simmonett,  A. Sodt,  T. Stein,  D. Stuck,  K. S. Thanthiriwatte,  
 V. Vanovschi,  L. Vogt,  Tao Wang,  A. Warshel,  M. A. Watson,  
 C. F. Williams,  Q. Wu,  X. Xu,  Jun Yang,  W. Zhang,  Yan Zhao

 Please cite Q-Chem as follows:
 Y. Shao et al., Mol. Phys. 113, 184-215 (2015)
 DOI: 10.1080/00268976.2014.952696

 Q-Chem 5.4.0 for Intel X86 EM64T Linux

 Parts of Q-Chem use Armadillo 9.800.1 (Horizon Scraper).
 http://arma.sourceforge.net/

 Q-Chem begins on Sun Jul 10 04:32:13 2022  

 Host: 
0

     Scratch files written to ./qchem1948728//
 May1621 |scratch|qcdevops|jenkins|workspace|build_RNUM    
 Processing $rem in /cm/shared/apps/spack/cpu/opt/spack/linux-centos8-zen2/gcc-10.2.0/qchem-5.4-akfmr7b3t57bfs6qan3padb2wnb2i7cl/config/preferences:
 Processing $rem in /home/theleonzhang/.qchemrc:
 Symmetry turned off for PCM/SM12/SMD calculation
 Core orbitals will be frozen

 Checking the input file for inconsistencies... 	...done.

--------------------------------------------------------------
User input:
--------------------------------------------------------------
$molecule
0 1
C	0.763228	-3.866725	0.135301
C	-0.603311	-3.703963	-0.106073
C	-1.050423	-2.357056	-0.185286
H	-1.283188	-4.561092	-0.225783
C	0.000000	-1.440664	0.000000
S	1.521021	-2.286957	0.268187
C	-2.483507	-1.978743	-0.438209
H	-3.118798	-2.878678	-0.550153
H	-2.593381	-1.376015	-1.363906
H	-2.903516	-1.375728	0.393798
C	0.000000	0.000000	0.000000
C	0.000033	0.863600	1.099446
C	0.000052	2.247508	0.776721
H	0.000026	0.494801	2.136088
C	0.000074	2.468165	-0.612546
S	0.000024	0.942399	-1.486809
C	0.000075	3.335257	1.814609
H	0.000074	2.909620	2.836676
H	-0.892314	3.989552	1.726239
H	0.892483	3.989525	1.726228
H	0.000094	3.417382	-1.161575
H	1.258111	-4.392713	-0.688674
H	0.946272	-4.392347	1.079084
H	-0.187654	-1.440391	1.063572
$end

$rem
JOBTYPE		SP
EXCHANGE	HF
CORRELATION	pRIMP2
BASIS		cc-pvtz
METHOD		rimp2
AUX_BASIS	rimp2-cc-pvtz
SOLVENT_METHOD	PCM
PURECART	11111
SYMMETRY	false
MEM_TOTAL	110000
SCF_CONVERGENCE = 6
THRESH=10
$end



$solvent
dielectric 4.90
$end
--------------------------------------------------------------
 ----------------------------------------------------------------
             Standard Nuclear Orientation (Angstroms)
    I     Atom           X                Y                Z
 ----------------------------------------------------------------
    1      C       0.7632280000    -3.8667250000     0.1353010000
    2      C      -0.6033110000    -3.7039630000    -0.1060730000
    3      C      -1.0504230000    -2.3570560000    -0.1852860000
    4      H      -1.2831880000    -4.5610920000    -0.2257830000
    5      C       0.0000000000    -1.4406640000     0.0000000000
    6      S       1.5210210000    -2.2869570000     0.2681870000
    7      C      -2.4835070000    -1.9787430000    -0.4382090000
    8      H      -3.1187980000    -2.8786780000    -0.5501530000
    9      H      -2.5933810000    -1.3760150000    -1.3639060000
   10      H      -2.9035160000    -1.3757280000     0.3937980000
   11      C       0.0000000000     0.0000000000     0.0000000000
   12      C       0.0000330000     0.8636000000     1.0994460000
   13      C       0.0000520000     2.2475080000     0.7767210000
   14      H       0.0000260000     0.4948010000     2.1360880000
   15      C       0.0000740000     2.4681650000    -0.6125460000
   16      S       0.0000240000     0.9423990000    -1.4868090000
   17      C       0.0000750000     3.3352570000     1.8146090000
   18      H       0.0000740000     2.9096200000     2.8366760000
   19      H      -0.8923140000     3.9895520000     1.7262390000
   20      H       0.8924830000     3.9895250000     1.7262280000
   21      H       0.0000940000     3.4173820000    -1.1615750000
   22      H       1.2581110000    -4.3927130000    -0.6886740000
   23      H       0.9462720000    -4.3923470000     1.0790840000
   24      H      -0.1876540000    -1.4403910000     1.0635720000
 ----------------------------------------------------------------
 Nuclear Repulsion Energy =         871.20874258 hartrees
 There are       52 alpha and       52 beta electrons

 Q-Chem warning in module forms1/BasisType.C, line 2236:

 You are not using the predefined 5D/6D in this basis set.

 Requested basis set is cc-pVTZ
 There are 196 shells and 536 basis functions

 Total QAlloc Memory Limit 110000 MB
 Mega-Array Size       188 MB
 MEM_STATIC part       192 MB
 Discretize the solute cavity surface with Lebedev spheres
	Using 110 Lebedev grid points for each H atom
	Using 194 Lebedev grid points for other atoms
	Atomic van der Waals radii will be scaled by 1.20
 Remove points where switching function is < 1.0e-08
 Keep 1628 surface tesserae and discard 2020 interior tesserae
 Molecular Surface Area = 239.936 Angst**2
 Requested basis set is rimp2-cc-pVTZ
 There are 414 shells and 1414 basis functions
 A cutoff of  1.0D-10 yielded  13891 shell pairs
 There are    100799 function pairs (    129393 Cartesian)
 Smallest overlap matrix eigenvalue = 6.15E-05

 Scale SEOQF with 1.000000e-01/1.000000e-01/1.000000e-01

 Standard Electronic Orientation quadrupole field applied
 Nucleus-field energy     =     0.0000000370 hartrees
 Guess from superposition of atomic densities
 Warning:  Energy on first SCF cycle will be non-variational
 SAD guess density has 104.000000 electrons

 -----------------------------------------------------------------------
  General SCF calculation program by
  Eric Jon Sundstrom, Paul Horn, Yuezhi Mao, Dmitri Zuev, Alec White,
  David Stuck, Shaama M.S., Shane Yost, Joonho Lee, David Small,
  Daniel Levine, Susi Lehtola, Hugh Burton, Evgeny Epifanovsky,
  Bang C. Huynh
 -----------------------------------------------------------------------
 Hartree-Fock
 A restricted SCF calculation will be
 performed using DIIS
 SCF converges when DIIS error is below 1.0e-06
 ---------------------------------------
  Cycle       Energy         DIIS error
 ---------------------------------------
    1   -1186.0162514988      2.39e-02  
    2   -1180.6226122146      1.55e-03  
    3   -1180.7460644558      5.85e-04  
    4   -1180.7595211016      3.29e-04  
    5   -1180.7643751247      5.78e-05  
    6   -1180.7646112803      2.38e-05  
    7   -1180.7646682427      8.86e-06  
    8   -1180.7646818960      4.28e-06  
    9   -1180.7646849667      1.48e-06  
   10   -1180.7646854307      4.99e-07  Convergence criterion met
 ---------------------------------------
 SCF time:   CPU 571.51s  wall 574.00s 

************** Final PCM Free Energy Summary **************
 G_electrostatic  =      -0.00915928 hartree =      -5.74753362 kcal/mol
 G_cavitation     =       0.00000000 hartree =       0.00000000 kcal/mol
 G_dispersion     =       0.00000000 hartree =       0.00000000 kcal/mol
 G_repulsion      =       0.00000000 hartree =       0.00000000 kcal/mol
 --------------------------------------------------
 Non-electrostatic Free Energy =       0.00000000 hartree =       0.00000000 kcal/mol
 Total                         =      -0.00915928 hartree =      -5.74753362 kcal/mol
 --------------------------------------------------
 SCF Energy (H0 + V/2)                       =   -1180.76468543 
 Solute Internal Energy (H0)                 =   -1180.75552615 
 Total Free Energy (H0 + V/2 + non-elec)     =   -1180.76468543 hartree
                                             = -740941.02313012 kcal/mol
***********************************************************

 SCF   energy in the final basis set =    -1180.7646854307
 Total energy in the final basis set =    -1180.7646854307


 --------------------------------------------------------------
  Generalized many-body perturbation theory program
  by Joonho Lee, Fazle Rob, Xintian Feng, Evgeny Epifanovsky

 No regularization used 
 (reg. param. = 0.0000e+00)
  (P|Q)^-1/2 Time:  CPU 1.91 s  wall 1.92 s

 In RI-MP2 calculation: 
 # of frozen core orbitals: 20

 Components of the RIMP2 correlation energy:
        aaaa    correlation energy =        -0.2510239571 a.u.
        abab    correlation energy =        -1.5022654166 a.u.
        bbbb    correlation energy =        -0.2510239571 a.u.
        non-Brillouin singles      =        -0.0000000000 a.u.
        total same-spin energy     =        -0.5020479142 a.u.
        total opposite-spin energy =        -1.5022654166 a.u.

 Total  RIMP2   correlation energy =        -2.0043133307 a.u.
        RIMP2         total energy =     -1182.7689987615 a.u.

 RI-MP2 Energy Time:  CPU 80.30 s  wall 80.59 s
 
 --------------------------------------------------------------
 
                    Orbital Energies (a.u.)
 --------------------------------------------------------------
 
 Alpha MOs
 -- Occupied --
-91.9805 -91.9412 -11.2818 -11.2645 -11.2628 -11.2556 -11.2508 -11.2436
-11.2408 -11.2315 -11.2293 -11.2196  -8.9804  -8.9459  -6.6614  -6.6608
 -6.6603  -6.6273  -6.6262  -6.6250  -1.1981  -1.1537  -1.0582  -1.0257
 -1.0065  -0.9595  -0.9123  -0.9011  -0.8151  -0.7628  -0.7348  -0.7014
 -0.6612  -0.6411  -0.6105  -0.5887  -0.5799  -0.5719  -0.5665  -0.5506
 -0.5417  -0.5304  -0.5137  -0.5058  -0.4926  -0.4815  -0.4595  -0.4487
 -0.3559  -0.3416  -0.3126  -0.2813
 -- Virtual --
  0.0958   0.1325   0.1418   0.1501   0.1580   0.1710   0.1779   0.1802
  0.1878   0.1965   0.2041   0.2129   0.2292   0.2329   0.2361   0.2462
  0.2482   0.2600   0.2627   0.2967   0.3049   0.3384   0.3464   0.3534
  0.3692   0.3711   0.3772   0.3940   0.3967   0.4033   0.4112   0.4228
  0.4300   0.4453   0.4539   0.4596   0.4654   0.4719   0.4815   0.4863
  0.5064   0.5099   0.5189   0.5267   0.5288   0.5416   0.5442   0.5571
  0.5653   0.5773   0.5847   0.5852   0.6028   0.6079   0.6143   0.6171
  0.6252   0.6264   0.6351   0.6390   0.6430   0.6453   0.6487   0.6535
  0.6604   0.6661   0.6814   0.6847   0.6922   0.7019   0.7134   0.7261
  0.7305   0.7494   0.7559   0.7723   0.7827   0.8032   0.8064   0.8226
  0.8286   0.8372   0.8486   0.8543   0.8775   0.8902   0.9001   0.9137
  0.9244   0.9458   0.9490   0.9656   0.9688   0.9890   0.9939   1.0072
  1.0140   1.0255   1.0316   1.0493   1.0575   1.0698   1.0725   1.0846
  1.0926   1.0996   1.1057   1.1192   1.1264   1.1512   1.1623   1.1668
  1.1752   1.1925   1.1989   1.2069   1.2154   1.2276   1.2324   1.2457
  1.2547   1.2590   1.2620   1.2727   1.2842   1.2883   1.3015   1.3151
  1.3213   1.3335   1.3430   1.3521   1.3594   1.3966   1.4048   1.4146
  1.4268   1.4325   1.4488   1.4550   1.4680   1.4830   1.4907   1.4980
  1.5034   1.5144   1.5190   1.5331   1.5376   1.5433   1.5486   1.5538
  1.5698   1.5756   1.5860   1.5983   1.6031   1.6125   1.6226   1.6354
  1.6466   1.6755   1.6836   1.6882   1.7005   1.7201   1.7228   1.7372
  1.7509   1.7588   1.7704   1.7851   1.7971   1.8299   1.8326   1.8619
  1.8719   1.9043   1.9175   1.9353   1.9531   1.9708   1.9923   2.0058
  2.0108   2.0241   2.0374   2.0648   2.0708   2.1321   2.1391   2.1528
  2.1843   2.1990   2.2050   2.2177   2.2312   2.2490   2.2697   2.2721
  2.3045   2.3326   2.3398   2.3652   2.4112   2.4260   2.4494   2.4699
  2.4864   2.4992   2.5318   2.5383   2.5722   2.5801   2.6113   2.6157
  2.6319   2.6377   2.6593   2.6637   2.6764   2.6861   2.7072   2.7162
  2.7361   2.7454   2.7587   2.7628   2.7769   2.7822   2.7929   2.8165
  2.8369   2.8434   2.8578   2.8763   2.8881   2.9053   2.9124   2.9187
  2.9273   2.9535   2.9724   2.9846   3.0152   3.0216   3.0231   3.0398
  3.0436   3.0872   3.0889   3.1023   3.1106   3.1167   3.1280   3.1410
  3.1524   3.1564   3.1681   3.1707   3.1823   3.1913   3.2027   3.2157
  3.2329   3.2378   3.2535   3.2634   3.2816   3.2931   3.2982   3.3059
  3.3083   3.3196   3.3321   3.3362   3.3440   3.3532   3.3575   3.3744
  3.3817   3.3852   3.3881   3.3962   3.3995   3.4040   3.4254   3.4341
  3.4404   3.4486   3.4543   3.4670   3.4729   3.4889   3.5070   3.5114
  3.5162   3.5284   3.5321   3.5357   3.5452   3.5589   3.5687   3.5810
  3.5900   3.6021   3.6105   3.6173   3.6232   3.6302   3.6414   3.6597
  3.6723   3.6806   3.6889   3.6994   3.7111   3.7174   3.7321   3.7335
  3.7355   3.7528   3.7637   3.7802   3.7929   3.7981   3.8037   3.8087
  3.8277   3.8345   3.8468   3.8664   3.8814   3.8837   3.8954   3.9130
  3.9250   3.9456   3.9540   3.9714   3.9760   3.9876   4.0011   4.0122
  4.0198   4.0373   4.0430   4.0490   4.0758   4.0776   4.0861   4.1039
  4.1193   4.1307   4.1408   4.1599   4.1700   4.1755   4.1885   4.1977
  4.2090   4.2190   4.2329   4.2423   4.2527   4.2602   4.2734   4.2784
  4.2945   4.3077   4.3143   4.3346   4.3356   4.3511   4.3659   4.3668
  4.3740   4.3927   4.4003   4.4070   4.4094   4.4167   4.4271   4.4471
  4.4608   4.4752   4.4809   4.4858   4.4998   4.5137   4.5410   4.5528
  4.5732   4.5905   4.6139   4.6277   4.6322   4.6536   4.6570   4.6662
  4.7022   4.7239   4.7307   4.7576   4.7771   4.8065   4.8176   4.8345
  4.8558   4.8608   4.8915   4.8956   4.9355   4.9487   4.9813   4.9945
  5.0210   5.0411   5.0904   5.1060   5.1134   5.1274   5.1510   5.1846
  5.1915   5.2137   5.2325   5.2698   5.2839   5.2936   5.3112   5.3192
  5.3454   5.3667   5.3801   5.4012   5.4115   5.4284   5.4404   5.4553
  5.4790   5.5212   5.5240   5.5423   5.5497   5.5600   5.5768   5.5953
  5.6233   5.6288   5.6478   5.6618   5.6775   5.6981   5.7114   5.7325
  5.7771   5.8000   5.8368   5.9797   5.9996   6.0843   6.1232   6.1506
  6.2042   6.2165   6.2262   6.2399   6.2489   6.2778   6.3046   6.3300
  6.3796   6.4958   9.5133  10.6065  12.0410  12.9555  13.1734  13.9466
 14.1060  14.2052  14.3238  14.7189
 --------------------------------------------------------------
 
          Ground-State Mulliken Net Atomic Charges

     Atom                 Charge (a.u.)
  ----------------------------------------
      1 C                    -0.078673
      2 C                    -0.327319
      3 C                    -0.020745
      4 H                     0.176738
      5 C                     0.091413
      6 S                    -0.176450
      7 C                    -0.265464
      8 H                     0.112630
      9 H                     0.106053
     10 H                     0.102095
     11 C                    -0.085681
     12 C                    -0.242615
     13 C                     0.021316
     14 H                     0.182661
     15 C                    -0.236979
     16 S                     0.006162
     17 C                    -0.271700
     18 H                     0.102179
     19 H                     0.107893
     20 H                     0.108790
     21 H                     0.196789
     22 H                     0.112976
     23 H                     0.111159
     24 H                     0.166772
  ----------------------------------------
  Sum of atomic charges =     0.000000

 -----------------------------------------------------------------
                    Cartesian Multipole Moments
 -----------------------------------------------------------------
    Charge (ESU x 10^10)
                -0.0000
    Dipole Moment (Debye)
         X      -2.5269      Y       0.5517      Z       1.8666
       Tot       3.1896
    Quadrupole Moments (Debye-Ang)
        XX     -91.8460     XY       3.8516     YY     -73.5999
        XZ       0.3316     YZ       0.4141     ZZ     -85.9536
    Octopole Moments (Debye-Ang^2)
       XXX      -5.3465    XXY      40.3699    XYY       0.4328
       YYY     125.0740    XXZ      -2.9351    XYZ      -1.5618
       YYZ      -1.1541    XZZ       1.6711    YZZ      55.0474
       ZZZ       4.4954
    Hexadecapole Moments (Debye-Ang^3)
      XXXX    -687.2996   XXXY      34.5421   XXYY    -618.3176
      XYYY       0.6898   YYYY   -2785.1233   XXXZ     -43.5791
      XXYZ     -23.8962   XYYZ      -8.5203   YYYZ    -112.9931
      XXZZ    -218.8893   XYZZ      -1.2524   YYZZ    -599.5043
      XZZZ     -50.3067   YZZZ     -97.0705   ZZZZ    -554.9620
 -----------------------------------------------------------------
 Total job time:  656.99s(wall), 652.74s(cpu) 
 Sun Jul 10 04:43:10 2022

        *************************************************************
        *                                                           *
        *  Thank you very much for using Q-Chem.  Have a nice day.  *
        *                                                           *
        *************************************************************


remove work dirs ./qchem1948728.0 -- ./qchem1948728.-1
rm -rf ./qchem1948728
