You are running Q-Chem version: 5.4.0

#
# job setting
#
local host:  exp-1-41
current dir: /expanse/lustre/scratch/theleonzhang/temp_project/Hydrogenated_Rotation_Test
input file:  Methylthiophene_Phi_40_Theta_260_Methylthiophene_Hydrogenated.qcin
output file: 
nprocs     : 0
nthreads   : 1
#
# qchem installation setting
#
QC:          /cm/shared/apps/spack/cpu/opt/spack/linux-centos8-zen2/gcc-10.2.0/qchem-5.4-akfmr7b3t57bfs6qan3padb2wnb2i7cl
QCAUX:       /cm/shared/apps/spack/cpu/opt/spack/linux-centos8-zen2/gcc-10.2.0/qchem-5.4-akfmr7b3t57bfs6qan3padb2wnb2i7cl/qcaux
QCPROG:      /cm/shared/apps/spack/cpu/opt/spack/linux-centos8-zen2/gcc-10.2.0/qchem-5.4-akfmr7b3t57bfs6qan3padb2wnb2i7cl/exe/qcprog.exe_s
QCPROG_S:    /cm/shared/apps/spack/cpu/opt/spack/linux-centos8-zen2/gcc-10.2.0/qchem-5.4-akfmr7b3t57bfs6qan3padb2wnb2i7cl/exe/qcprog.exe_s
PARALLEL:    -DSERIAL
QCMPI:       mpich
#
# qchem directory setting
#
qcrun:       qchem1155533
QCSCRATCH:   .
QCLOCALSCR:  
QCTMPDIR:    .
QCFILEPREF:  ./qchem1155533
QCSAVEDIR:   
workdirs:    ./qchem1155533
workdir0:    ./qchem1155533
partmpdirs =  
#
# parallel setting
#
QCRSH:           ssh
QCMPI:           mpich
QCMPIRUN:        /cm/shared/apps/spack/cpu/opt/spack/linux-centos8-zen2/gcc-10.2.0/qchem-5.4-akfmr7b3t57bfs6qan3padb2wnb2i7cl/bin/mpi/mpirun_qchem
QCMACHINEFILE:   ./qchem1155533/hostfile

#
# env setting
#
exported envs:   QC QCAUX QCSCRATCH QCRUNNAME QCFILEPREF QCPROG QCPROG_S GUIFILE

Running Job 1 of 1 Methylthiophene_Phi_40_Theta_260_Methylthiophene_Hydrogenated.qcin
qchem Methylthiophene_Phi_40_Theta_260_Methylthiophene_Hydrogenated.qcin_1155533.0 ./qchem1155533/ 0
/cm/shared/apps/spack/cpu/opt/spack/linux-centos8-zen2/gcc-10.2.0/qchem-5.4-akfmr7b3t57bfs6qan3padb2wnb2i7cl/exe/qcprog.exe_s Methylthiophene_Phi_40_Theta_260_Methylthiophene_Hydrogenated.qcin_1155533.0 ./qchem1155533/
                  Welcome to Q-Chem
     A Quantum Leap Into The Future Of Chemistry


 Q-Chem 5.4, Q-Chem, Inc., Pleasanton, CA (2021)

 License issued to: University of California, San Diego (site)

 E. Epifanovsky,  A. T. B. Gilbert,  Xintian Feng,  Joonho Lee,  Yuezhi Mao,  
 N. Mardirossian,  P. Pokhilko,  A. White,  M. Wormit,  M. P. Coons,  
 A. L. Dempwolff,  Zhengting Gan,  D. Hait,  P. R. Horn,  L. D. Jacobson,  
 I. Kaliman,  J. Kussmann,  A. W. Lange,  Ka Un Lao,  D. S. Levine,  Jie Liu,  
 S. C. McKenzie,  A. F. Morrison,  K. Nanda,  F. Plasser,  D. R. Rehn,  
 M. L. Vidal,  Zhi-Qiang You,  Ying Zhu,  B. Alam,  B. Albrecht,  
 A. Aldossary,  E. Alguire,  J. H. Andersen,  D. Barton,  K. Begam,  A. Behn,  
 Y. A. Bernard,  E. J. Berquist,  H. Burton,  A. Carreras,  K. Carter-Fenk,  
 R. Chakraborty,  A. D. Chien,  K. D. Closser,  V. Cofer-Shabica,  
 S. Dasgupta,  Jia Deng,  M. de Wergifosse,  M. Diedenhofen,  Hainam Do,  
 S. Ehlert,  Po-Tung Fang,  S. Fatehi,  Qingguo Feng,  J. Gayvert,  
 Qinghui Ge,  G. Gidofalvi,  M. Goldey,  J. Gomes,  C. Gonzalez-Espinoza,  
 S. Gulania,  A. Gunina,  M. W. D. Hanson-Heine,  P. H. P. Harbach,  
 A. W. Hauser,  M. F. Herbst,  M. Hernandez Vera,  M. Hodecker,  
 Z. C. Holden,  S. Houck,  Xunkun Huang,  Kerwin Hui,  B. C. Huynh,  
 M. Ivanov,  Hyunjun Ji,  Hanjie Jiang,  B. Kaduk,  S. Kaehler,  
 K. Khistyaev,  Jaehoon Kim,  P. Klunzinger,  Z. Koczor-Benda,  
 Joong Hoon Koh,  D. Kosenkov,  L. Koulias,  T. Kowalczyk,  C. M. Krauter,  
 K. Kue,  A. Kunitsa,  T. Kus,  A. Landau,  K. V. Lawler,  D. Lefrancois,  
 S. Lehtola,  Rain Li,  Yi-Pei Li,  Jiashu Liang,  M. Liebenthal,  
 Hung-Hsuan Lin,  You-Sheng Lin,  Fenglai Liu,  Kuan-Yu Liu,  
 M. Loipersberger,  A. Luenser,  A. Manjanath,  P. Manohar,  E. Mansoor,  
 S. F. Manzer,  Shan-Ping Mao,  A. V. Marenich,  T. Markovich,  S. Mason,  
 S. A. Maurer,  P. F. McLaughlin,  M. F. S. J. Menger,  J.-M. Mewes,  
 S. A. Mewes,  P. Morgante,  J. W. Mullinax,  T. S. Nguyen-Beck,  
 K. J. Oosterbaan,  G. Paran,  Alexander C. Paul,  Suranjan K. Paul,  
 F. Pavosevic,  Zheng Pei,  S. Prager,  E. I. Proynov,  E. Ramos,  B. Rana,  
 A. E. Rask,  A. Rettig,  R. M. Richard,  F. Rob,  E. Rossomme,  T. Scheele,  
 M. Scheurer,  M. Schneider,  N. Sergueev,  S. M. Sharada,  W. Skomorowski,  
 D. W. Small,  C. J. Stein,  Yu-Chuan Su,  E. J. Sundstrom,  Zhen Tao,  
 J. Thirman,  T. Tsuchimochi,  N. M. Tubman,  S. P. Veccham,  O. Vydrov,  
 J. Wenzel,  J. Witte,  A. Yamada,  Kun Yao,  S. Yeganeh,  S. R. Yost,  
 A. Zech,  Igor Ying Zhang,  Xing Zhang,  Yu Zhang,  D. Zuev,  
 A. Aspuru-Guzik,  A. T. Bell,  N. A. Besley,  K. B. Bravaya,  B. R. Brooks,  
 D. Casanova,  Jeng-Da Chai,  S. Coriani,  C. J. Cramer,  
 A. E. DePrince, III,  R. A. DiStasio Jr.,  A. Dreuw,  B. D. Dunietz,  
 T. R. Furlani,  W. A. Goddard III,  S. Grimme,  S. Hammes-Schiffer,  
 T. Head-Gordon,  W. J. Hehre,  Chao-Ping Hsu,  T.-C. Jagau,  Yousung Jung,  
 A. Klamt,  Jing Kong,  D. S. Lambrecht,  WanZhen Liang,  N. J. Mayhall,  
 C. W. McCurdy,  J. B. Neaton,  C. Ochsenfeld,  J. A. Parkhill,  R. Peverati,  
 V. A. Rassolov,  Yihan Shao,  L. V. Slipchenko,  T. Stauch,  R. P. Steele,  
 J. E. Subotnik,  A. J. W. Thom,  A. Tkatchenko,  D. G. Truhlar,  
 T. Van Voorhis,  T. A. Wesolowski,  K. B. Whaley,  H. L. Woodcock III,  
 P. M. Zimmerman,  S. Faraji,  P. M. W. Gill,  M. Head-Gordon,  
 J. M. Herbert,  A. I. Krylov

 Contributors to earlier versions of Q-Chem not listed above: 
 R. D. Adamson,  B. Austin,  R. Baer,  J. Baker,  G. J. O. Beran,  
 K. Brandhorst,  S. T. Brown,  E. F. C. Byrd,  A. K. Chakraborty,  
 G. K. L. Chan,  Chun-Min Chang,  Yunqing Chen,  C.-L. Cheng,  
 Siu Hung Chien,  D. M. Chipman,  D. L. Crittenden,  H. Dachsel,  
 R. J. Doerksen,  A. D. Dutoi,  R. G. Edgar,  J. Fosso-Tande,  
 L. Fusti-Molnar,  D. Ghosh,  A. Ghysels,  A. Golubeva-Zadorozhnaya,  
 J. Gonthier,  M. S. Gordon,  S. R. Gwaltney,  G. Hawkins,  J. E. Herr,  
 A. Heyden,  S. Hirata,  E. G. Hohenstein,  G. Kedziora,  F. J. Keil,  
 C. Kelley,  Jihan Kim,  R. A. King,  R. Z. Khaliullin,  P. P. Korambath,  
 W. Kurlancheek,  A. Laurent,  A. M. Lee,  M. S. Lee,  S. V. Levchenko,  
 Ching Yeh Lin,  D. Liotard,  E. Livshits,  R. C. Lochan,  I. Lotan,  
 L. A. Martinez-Martinez,  P. E. Maslen,  N. Nair,  D. P. O'Neill,  
 D. Neuhauser,  E. Neuscamman,  C. M. Oana,  R. Olivares-Amaya,  R. Olson,  
 T. M. Perrine,  B. Peters,  P. A. Pieniazek,  A. Prociuk,  Y. M. Rhee,  
 J. Ritchie,  M. A. Rohrdanz,  E. Rosta,  N. J. Russ,  H. F. Schaefer III,  
 M. W. Schmidt,  N. E. Schultz,  S. Sharma,  N. Shenvi,  C. D. Sherrill,  
 A. C. Simmonett,  A. Sodt,  T. Stein,  D. Stuck,  K. S. Thanthiriwatte,  
 V. Vanovschi,  L. Vogt,  Tao Wang,  A. Warshel,  M. A. Watson,  
 C. F. Williams,  Q. Wu,  X. Xu,  Jun Yang,  W. Zhang,  Yan Zhao

 Please cite Q-Chem as follows:
 Y. Shao et al., Mol. Phys. 113, 184-215 (2015)
 DOI: 10.1080/00268976.2014.952696

 Q-Chem 5.4.0 for Intel X86 EM64T Linux

 Parts of Q-Chem use Armadillo 9.800.1 (Horizon Scraper).
 http://arma.sourceforge.net/

 Q-Chem begins on Sun Jul 10 04:06:40 2022  

 Host: 
0

     Scratch files written to ./qchem1155533//
 May1621 |scratch|qcdevops|jenkins|workspace|build_RNUM    
 Processing $rem in /cm/shared/apps/spack/cpu/opt/spack/linux-centos8-zen2/gcc-10.2.0/qchem-5.4-akfmr7b3t57bfs6qan3padb2wnb2i7cl/config/preferences:
 Processing $rem in /home/theleonzhang/.qchemrc:
 Symmetry turned off for PCM/SM12/SMD calculation
 Core orbitals will be frozen

 Checking the input file for inconsistencies... 	...done.

--------------------------------------------------------------
User input:
--------------------------------------------------------------
$molecule
0 1
C	0.763475	-3.866725	-0.133897
C	-0.603206	-3.703963	0.106669
C	-1.050446	-2.357056	0.185154
H	-1.283024	-4.561092	0.226709
C	-0.000000	-1.440664	-0.000000
S	1.521018	-2.286957	-0.268206
C	-2.483610	-1.978743	0.437628
H	-3.118875	-2.878678	0.549717
H	-2.903464	-1.376015	-0.394664
H	-2.593726	-1.375728	1.363110
C	0.000000	0.000000	0.000000
C	0.555137	0.661535	1.099446
C	1.444710	1.721658	0.776721
H	0.318072	0.379023	2.136088
C	1.586563	1.890676	-0.612546
S	0.605781	0.721904	-1.486809
C	2.143920	2.554907	1.814609
H	1.870325	2.228851	2.836676
H	1.880882	3.629742	1.726239
H	3.248098	2.482476	1.726228
H	2.196723	2.617806	-1.161575
H	0.946698	-4.392713	-1.077442
H	1.258274	-4.392347	0.690363
H	0.187427	-1.440391	1.063612
$end

$rem
JOBTYPE		SP
EXCHANGE	HF
CORRELATION	pRIMP2
BASIS		cc-pvtz
METHOD		rimp2
AUX_BASIS	rimp2-cc-pvtz
SOLVENT_METHOD	PCM
PURECART	11111
SYMMETRY	false
MEM_TOTAL	110000
SCF_CONVERGENCE = 6
THRESH=10
$end



$solvent
dielectric 4.90
$end
--------------------------------------------------------------
 ----------------------------------------------------------------
             Standard Nuclear Orientation (Angstroms)
    I     Atom           X                Y                Z
 ----------------------------------------------------------------
    1      C       0.7634750000    -3.8667250000    -0.1338970000
    2      C      -0.6032060000    -3.7039630000     0.1066690000
    3      C      -1.0504460000    -2.3570560000     0.1851540000
    4      H      -1.2830240000    -4.5610920000     0.2267090000
    5      C       0.0000000000    -1.4406640000     0.0000000000
    6      S       1.5210180000    -2.2869570000    -0.2682060000
    7      C      -2.4836100000    -1.9787430000     0.4376280000
    8      H      -3.1188750000    -2.8786780000     0.5497170000
    9      H      -2.9034640000    -1.3760150000    -0.3946640000
   10      H      -2.5937260000    -1.3757280000     1.3631100000
   11      C       0.0000000000     0.0000000000     0.0000000000
   12      C       0.5551370000     0.6615350000     1.0994460000
   13      C       1.4447100000     1.7216580000     0.7767210000
   14      H       0.3180720000     0.3790230000     2.1360880000
   15      C       1.5865630000     1.8906760000    -0.6125460000
   16      S       0.6057810000     0.7219040000    -1.4868090000
   17      C       2.1439200000     2.5549070000     1.8146090000
   18      H       1.8703250000     2.2288510000     2.8366760000
   19      H       1.8808820000     3.6297420000     1.7262390000
   20      H       3.2480980000     2.4824760000     1.7262280000
   21      H       2.1967230000     2.6178060000    -1.1615750000
   22      H       0.9466980000    -4.3927130000    -1.0774420000
   23      H       1.2582740000    -4.3923470000     0.6903630000
   24      H       0.1874270000    -1.4403910000     1.0636120000
 ----------------------------------------------------------------
 Nuclear Repulsion Energy =         884.82690937 hartrees
 There are       52 alpha and       52 beta electrons

 Q-Chem warning in module forms1/BasisType.C, line 2236:

 You are not using the predefined 5D/6D in this basis set.

 Requested basis set is cc-pVTZ
 There are 196 shells and 536 basis functions

 Total QAlloc Memory Limit 110000 MB
 Mega-Array Size       188 MB
 MEM_STATIC part       192 MB
 Discretize the solute cavity surface with Lebedev spheres
	Using 110 Lebedev grid points for each H atom
	Using 194 Lebedev grid points for other atoms
	Atomic van der Waals radii will be scaled by 1.20
 Remove points where switching function is < 1.0e-08
 Keep 1604 surface tesserae and discard 2044 interior tesserae
 Molecular Surface Area = 235.569 Angst**2
 Requested basis set is rimp2-cc-pVTZ
 There are 414 shells and 1414 basis functions
 A cutoff of  1.0D-10 yielded  14110 shell pairs
 There are    102076 function pairs (    130893 Cartesian)
 Smallest overlap matrix eigenvalue = 6.84E-05

 Scale SEOQF with 1.000000e-01/1.000000e-01/1.000000e-01

 Standard Electronic Orientation quadrupole field applied
 Nucleus-field energy     =     0.0000000340 hartrees
 Guess from superposition of atomic densities
 Warning:  Energy on first SCF cycle will be non-variational
 SAD guess density has 104.000000 electrons

 -----------------------------------------------------------------------
  General SCF calculation program by
  Eric Jon Sundstrom, Paul Horn, Yuezhi Mao, Dmitri Zuev, Alec White,
  David Stuck, Shaama M.S., Shane Yost, Joonho Lee, David Small,
  Daniel Levine, Susi Lehtola, Hugh Burton, Evgeny Epifanovsky,
  Bang C. Huynh
 -----------------------------------------------------------------------
 Hartree-Fock
 A restricted SCF calculation will be
 performed using DIIS
 SCF converges when DIIS error is below 1.0e-06
 ---------------------------------------
  Cycle       Energy         DIIS error
 ---------------------------------------
    1   -1186.0772999933      2.40e-02  
    2   -1180.5891955701      1.53e-03  
    3   -1180.7136293198      5.41e-04  
    4   -1180.7264442819      2.94e-04  
    5   -1180.7303626282      5.95e-05  
    6   -1180.7306082990      2.45e-05  
    7   -1180.7306729763      1.02e-05  
    8   -1180.7306906220      4.84e-06  
    9   -1180.7306952207      1.87e-06  
   10   -1180.7306960087      6.32e-07  Convergence criterion met
 ---------------------------------------
 SCF time:   CPU 580.84s  wall 583.00s 

************** Final PCM Free Energy Summary **************
 G_electrostatic  =      -0.00983010 hartree =      -6.16848306 kcal/mol
 G_cavitation     =       0.00000000 hartree =       0.00000000 kcal/mol
 G_dispersion     =       0.00000000 hartree =       0.00000000 kcal/mol
 G_repulsion      =       0.00000000 hartree =       0.00000000 kcal/mol
 --------------------------------------------------
 Non-electrostatic Free Energy =       0.00000000 hartree =       0.00000000 kcal/mol
 Total                         =      -0.00983010 hartree =      -6.16848306 kcal/mol
 --------------------------------------------------
 SCF Energy (H0 + V/2)                       =   -1180.73069601 
 Solute Internal Energy (H0)                 =   -1180.72086591 
 Total Free Energy (H0 + V/2 + non-elec)     =   -1180.73069601 hartree
                                             = -740919.69444588 kcal/mol
***********************************************************

 SCF   energy in the final basis set =    -1180.7306960087
 Total energy in the final basis set =    -1180.7306960087


 --------------------------------------------------------------
  Generalized many-body perturbation theory program
  by Joonho Lee, Fazle Rob, Xintian Feng, Evgeny Epifanovsky

 No regularization used 
 (reg. param. = 0.0000e+00)
  (P|Q)^-1/2 Time:  CPU 1.90 s  wall 1.91 s

 In RI-MP2 calculation: 
 # of frozen core orbitals: 20

 Components of the RIMP2 correlation energy:
        aaaa    correlation energy =        -0.2525452104 a.u.
        abab    correlation energy =        -1.5071893509 a.u.
        bbbb    correlation energy =        -0.2525452104 a.u.
        non-Brillouin singles      =        -0.0000000000 a.u.
        total same-spin energy     =        -0.5050904207 a.u.
        total opposite-spin energy =        -1.5071893509 a.u.

 Total  RIMP2   correlation energy =        -2.0122797717 a.u.
        RIMP2         total energy =     -1182.7429757804 a.u.

 RI-MP2 Energy Time:  CPU 79.83 s  wall 80.05 s
 
 --------------------------------------------------------------
 
                    Orbital Energies (a.u.)
 --------------------------------------------------------------
 
 Alpha MOs
 -- Occupied --
-91.9790 -91.9391 -11.2742 -11.2688 -11.2574 -11.2514 -11.2505 -11.2501
-11.2385 -11.2303 -11.2297 -11.2137  -8.9793  -8.9438  -6.6602  -6.6595
 -6.6591  -6.6251  -6.6241  -6.6229  -1.1999  -1.1534  -1.0573  -1.0258
 -1.0045  -0.9590  -0.9095  -0.9017  -0.8131  -0.7576  -0.7400  -0.6988
 -0.6593  -0.6388  -0.6103  -0.5889  -0.5814  -0.5713  -0.5645  -0.5499
 -0.5399  -0.5314  -0.5077  -0.5068  -0.4929  -0.4709  -0.4593  -0.4460
 -0.3584  -0.3350  -0.3137  -0.2768
 -- Virtual --
  0.0728   0.1345   0.1407   0.1556   0.1597   0.1702   0.1752   0.1801
  0.1892   0.1974   0.2064   0.2176   0.2242   0.2276   0.2335   0.2434
  0.2495   0.2549   0.2678   0.2972   0.3105   0.3266   0.3434   0.3488
  0.3674   0.3767   0.3786   0.3866   0.3911   0.3954   0.4126   0.4211
  0.4301   0.4368   0.4438   0.4554   0.4684   0.4726   0.4862   0.4933
  0.5022   0.5073   0.5095   0.5243   0.5275   0.5390   0.5498   0.5532
  0.5697   0.5757   0.5872   0.5995   0.6072   0.6094   0.6180   0.6220
  0.6243   0.6290   0.6328   0.6412   0.6431   0.6450   0.6491   0.6566
  0.6648   0.6677   0.6747   0.6897   0.6949   0.7018   0.7119   0.7364
  0.7394   0.7400   0.7476   0.7807   0.7825   0.8008   0.8077   0.8162
  0.8242   0.8411   0.8476   0.8527   0.8694   0.8976   0.9059   0.9084
  0.9154   0.9445   0.9460   0.9650   0.9718   0.9871   0.9900   1.0162
  1.0264   1.0277   1.0381   1.0442   1.0548   1.0598   1.0694   1.0864
  1.0920   1.0983   1.1141   1.1335   1.1392   1.1581   1.1643   1.1708
  1.1777   1.1805   1.1890   1.2056   1.2108   1.2232   1.2338   1.2465
  1.2569   1.2608   1.2634   1.2721   1.2744   1.2867   1.3021   1.3185
  1.3235   1.3427   1.3574   1.3649   1.3805   1.3905   1.4052   1.4089
  1.4234   1.4331   1.4449   1.4560   1.4689   1.4730   1.4845   1.4976
  1.5039   1.5116   1.5202   1.5328   1.5408   1.5451   1.5505   1.5581
  1.5657   1.5702   1.5805   1.5895   1.6063   1.6136   1.6207   1.6391
  1.6462   1.6625   1.6720   1.6849   1.7069   1.7122   1.7243   1.7381
  1.7432   1.7606   1.7700   1.7924   1.8037   1.8070   1.8363   1.8564
  1.8713   1.9145   1.9332   1.9453   1.9508   1.9765   1.9769   1.9984
  2.0165   2.0276   2.0408   2.0692   2.0924   2.1126   2.1209   2.1618
  2.1814   2.1961   2.2099   2.2125   2.2349   2.2416   2.2465   2.2764
  2.2785   2.3238   2.3491   2.3758   2.3955   2.4478   2.4662   2.4712
  2.4935   2.5057   2.5250   2.5479   2.5713   2.5897   2.6098   2.6187
  2.6322   2.6426   2.6598   2.6697   2.6839   2.6938   2.7079   2.7214
  2.7432   2.7597   2.7629   2.7818   2.7831   2.7930   2.8083   2.8271
  2.8392   2.8562   2.8636   2.8903   2.8925   2.8983   2.9142   2.9303
  2.9483   2.9620   2.9720   2.9809   3.0048   3.0133   3.0310   3.0408
  3.0471   3.0584   3.0917   3.1092   3.1112   3.1182   3.1344   3.1562
  3.1581   3.1611   3.1672   3.1699   3.1846   3.1920   3.2038   3.2154
  3.2285   3.2389   3.2497   3.2535   3.2789   3.2801   3.2902   3.3067
  3.3228   3.3250   3.3345   3.3390   3.3427   3.3568   3.3622   3.3703
  3.3768   3.3800   3.3864   3.3964   3.4099   3.4152   3.4222   3.4285
  3.4322   3.4470   3.4592   3.4661   3.4914   3.4947   3.5072   3.5147
  3.5247   3.5275   3.5358   3.5490   3.5558   3.5665   3.5762   3.5803
  3.5844   3.6109   3.6231   3.6345   3.6358   3.6541   3.6566   3.6712
  3.6827   3.6867   3.6984   3.7067   3.7135   3.7249   3.7329   3.7445
  3.7502   3.7567   3.7599   3.7788   3.7912   3.7982   3.8070   3.8182
  3.8300   3.8443   3.8599   3.8632   3.8783   3.8877   3.9028   3.9158
  3.9239   3.9505   3.9548   3.9699   3.9715   3.9723   4.0019   4.0066
  4.0261   4.0308   4.0527   4.0631   4.0677   4.0901   4.1008   4.1121
  4.1197   4.1277   4.1427   4.1551   4.1740   4.1775   4.1959   4.2045
  4.2100   4.2193   4.2342   4.2460   4.2600   4.2615   4.2700   4.2886
  4.2985   4.3010   4.3239   4.3292   4.3395   4.3513   4.3533   4.3680
  4.3767   4.3811   4.3994   4.4017   4.4161   4.4222   4.4381   4.4473
  4.4580   4.4659   4.4817   4.4969   4.4990   4.5224   4.5422   4.5483
  4.5828   4.5871   4.6125   4.6276   4.6363   4.6597   4.6691   4.6715
  4.6906   4.7282   4.7440   4.7544   4.7794   4.8219   4.8349   4.8550
  4.8634   4.8793   4.8971   4.9175   4.9335   4.9666   4.9722   4.9931
  5.0306   5.0508   5.0796   5.1114   5.1129   5.1297   5.1426   5.1562
  5.1724   5.2070   5.2226   5.2607   5.2832   5.2913   5.3106   5.3200
  5.3333   5.3624   5.3852   5.3942   5.4067   5.4271   5.4415   5.4532
  5.4913   5.5113   5.5214   5.5426   5.5511   5.5571   5.5667   5.5828
  5.6280   5.6340   5.6489   5.6702   5.6861   5.7091   5.7155   5.7265
  5.7664   5.7920   5.8201   5.9587   5.9990   6.0228   6.1102   6.1350
  6.2018   6.2203   6.2274   6.2299   6.2476   6.2785   6.2845   6.3247
  6.3815   6.4100   9.4530  10.5012  12.3618  12.8662  13.1595  13.8773
 14.1203  14.2173  14.2868  14.5956
 --------------------------------------------------------------
 
          Ground-State Mulliken Net Atomic Charges

     Atom                 Charge (a.u.)
  ----------------------------------------
      1 C                    -0.075836
      2 C                    -0.333272
      3 C                    -0.041045
      4 H                     0.173573
      5 C                     0.050839
      6 S                    -0.172220
      7 C                    -0.271399
      8 H                     0.112906
      9 H                     0.107162
     10 H                     0.099298
     11 C                    -0.082086
     12 C                    -0.209759
     13 C                     0.022012
     14 H                     0.179553
     15 C                    -0.212023
     16 S                     0.013104
     17 C                    -0.268553
     18 H                     0.101836
     19 H                     0.107581
     20 H                     0.107987
     21 H                     0.198035
     22 H                     0.110379
     23 H                     0.108103
     24 H                     0.173825
  ----------------------------------------
  Sum of atomic charges =     0.000000

 -----------------------------------------------------------------
                    Cartesian Multipole Moments
 -----------------------------------------------------------------
    Charge (ESU x 10^10)
                -0.0000
    Dipole Moment (Debye)
         X      -0.6465      Y       0.8375      Z       2.6994
       Tot       2.8993
    Quadrupole Moments (Debye-Ang)
        XX     -86.8940     XY       8.7737     YY     -79.2818
        XZ       0.8487     YZ      -1.0754     ZZ     -85.7699
    Octopole Moments (Debye-Ang^2)
       XXX    -132.8625    XXY      72.0809    XYY     -28.1089
       YYY     162.8880    XXZ      -1.3080    XYZ      -1.5521
       YYZ      -1.3102    XZZ     -38.3482    YZZ      70.6871
       ZZZ       2.7318
    Hexadecapole Moments (Debye-Ang^3)
      XXXX   -1082.6925   XXXY    -189.1943   XXYY    -585.2404
      XYYY    -216.3054   YYYY   -2482.5384   XXXZ     -17.0636
      XXYZ     -37.0856   XYYZ     -14.4621   YYYZ     -81.5795
      XXZZ    -276.5813   XYZZ     -69.4925   YYZZ    -545.4966
      XZZZ     -10.5147   YZZZ     -71.2281   ZZZZ    -553.8042
 -----------------------------------------------------------------
 Total job time:  665.73s(wall), 661.58s(cpu) 
 Sun Jul 10 04:17:46 2022

        *************************************************************
        *                                                           *
        *  Thank you very much for using Q-Chem.  Have a nice day.  *
        *                                                           *
        *************************************************************


remove work dirs ./qchem1155533.0 -- ./qchem1155533.-1
rm -rf ./qchem1155533
