You are running Q-Chem version: 5.4.0

#
# job setting
#
local host:  exp-1-46
current dir: /expanse/lustre/scratch/theleonzhang/temp_project/Hydrogenated_Rotation_Test
input file:  Methylthiophene_Phi_20_Theta_190_Methylthiophene_Hydrogenated.qcin
output file: 
nprocs     : 0
nthreads   : 1
#
# qchem installation setting
#
QC:          /cm/shared/apps/spack/cpu/opt/spack/linux-centos8-zen2/gcc-10.2.0/qchem-5.4-akfmr7b3t57bfs6qan3padb2wnb2i7cl
QCAUX:       /cm/shared/apps/spack/cpu/opt/spack/linux-centos8-zen2/gcc-10.2.0/qchem-5.4-akfmr7b3t57bfs6qan3padb2wnb2i7cl/qcaux
QCPROG:      /cm/shared/apps/spack/cpu/opt/spack/linux-centos8-zen2/gcc-10.2.0/qchem-5.4-akfmr7b3t57bfs6qan3padb2wnb2i7cl/exe/qcprog.exe_s
QCPROG_S:    /cm/shared/apps/spack/cpu/opt/spack/linux-centos8-zen2/gcc-10.2.0/qchem-5.4-akfmr7b3t57bfs6qan3padb2wnb2i7cl/exe/qcprog.exe_s
PARALLEL:    -DSERIAL
QCMPI:       mpich
#
# qchem directory setting
#
qcrun:       qchem4011833
QCSCRATCH:   .
QCLOCALSCR:  
QCTMPDIR:    .
QCFILEPREF:  ./qchem4011833
QCSAVEDIR:   
workdirs:    ./qchem4011833
workdir0:    ./qchem4011833
partmpdirs =  
#
# parallel setting
#
QCRSH:           ssh
QCMPI:           mpich
QCMPIRUN:        /cm/shared/apps/spack/cpu/opt/spack/linux-centos8-zen2/gcc-10.2.0/qchem-5.4-akfmr7b3t57bfs6qan3padb2wnb2i7cl/bin/mpi/mpirun_qchem
QCMACHINEFILE:   ./qchem4011833/hostfile

#
# env setting
#
exported envs:   QC QCAUX QCSCRATCH QCRUNNAME QCFILEPREF QCPROG QCPROG_S GUIFILE

Running Job 1 of 1 Methylthiophene_Phi_20_Theta_190_Methylthiophene_Hydrogenated.qcin
qchem Methylthiophene_Phi_20_Theta_190_Methylthiophene_Hydrogenated.qcin_4011833.0 ./qchem4011833/ 0
/cm/shared/apps/spack/cpu/opt/spack/linux-centos8-zen2/gcc-10.2.0/qchem-5.4-akfmr7b3t57bfs6qan3padb2wnb2i7cl/exe/qcprog.exe_s Methylthiophene_Phi_20_Theta_190_Methylthiophene_Hydrogenated.qcin_4011833.0 ./qchem4011833/
                  Welcome to Q-Chem
     A Quantum Leap Into The Future Of Chemistry


 Q-Chem 5.4, Q-Chem, Inc., Pleasanton, CA (2021)

 License issued to: University of California, San Diego (site)

 E. Epifanovsky,  A. T. B. Gilbert,  Xintian Feng,  Joonho Lee,  Yuezhi Mao,  
 N. Mardirossian,  P. Pokhilko,  A. White,  M. Wormit,  M. P. Coons,  
 A. L. Dempwolff,  Zhengting Gan,  D. Hait,  P. R. Horn,  L. D. Jacobson,  
 I. Kaliman,  J. Kussmann,  A. W. Lange,  Ka Un Lao,  D. S. Levine,  Jie Liu,  
 S. C. McKenzie,  A. F. Morrison,  K. Nanda,  F. Plasser,  D. R. Rehn,  
 M. L. Vidal,  Zhi-Qiang You,  Ying Zhu,  B. Alam,  B. Albrecht,  
 A. Aldossary,  E. Alguire,  J. H. Andersen,  D. Barton,  K. Begam,  A. Behn,  
 Y. A. Bernard,  E. J. Berquist,  H. Burton,  A. Carreras,  K. Carter-Fenk,  
 R. Chakraborty,  A. D. Chien,  K. D. Closser,  V. Cofer-Shabica,  
 S. Dasgupta,  Jia Deng,  M. de Wergifosse,  M. Diedenhofen,  Hainam Do,  
 S. Ehlert,  Po-Tung Fang,  S. Fatehi,  Qingguo Feng,  J. Gayvert,  
 Qinghui Ge,  G. Gidofalvi,  M. Goldey,  J. Gomes,  C. Gonzalez-Espinoza,  
 S. Gulania,  A. Gunina,  M. W. D. Hanson-Heine,  P. H. P. Harbach,  
 A. W. Hauser,  M. F. Herbst,  M. Hernandez Vera,  M. Hodecker,  
 Z. C. Holden,  S. Houck,  Xunkun Huang,  Kerwin Hui,  B. C. Huynh,  
 M. Ivanov,  Hyunjun Ji,  Hanjie Jiang,  B. Kaduk,  S. Kaehler,  
 K. Khistyaev,  Jaehoon Kim,  P. Klunzinger,  Z. Koczor-Benda,  
 Joong Hoon Koh,  D. Kosenkov,  L. Koulias,  T. Kowalczyk,  C. M. Krauter,  
 K. Kue,  A. Kunitsa,  T. Kus,  A. Landau,  K. V. Lawler,  D. Lefrancois,  
 S. Lehtola,  Rain Li,  Yi-Pei Li,  Jiashu Liang,  M. Liebenthal,  
 Hung-Hsuan Lin,  You-Sheng Lin,  Fenglai Liu,  Kuan-Yu Liu,  
 M. Loipersberger,  A. Luenser,  A. Manjanath,  P. Manohar,  E. Mansoor,  
 S. F. Manzer,  Shan-Ping Mao,  A. V. Marenich,  T. Markovich,  S. Mason,  
 S. A. Maurer,  P. F. McLaughlin,  M. F. S. J. Menger,  J.-M. Mewes,  
 S. A. Mewes,  P. Morgante,  J. W. Mullinax,  T. S. Nguyen-Beck,  
 K. J. Oosterbaan,  G. Paran,  Alexander C. Paul,  Suranjan K. Paul,  
 F. Pavosevic,  Zheng Pei,  S. Prager,  E. I. Proynov,  E. Ramos,  B. Rana,  
 A. E. Rask,  A. Rettig,  R. M. Richard,  F. Rob,  E. Rossomme,  T. Scheele,  
 M. Scheurer,  M. Schneider,  N. Sergueev,  S. M. Sharada,  W. Skomorowski,  
 D. W. Small,  C. J. Stein,  Yu-Chuan Su,  E. J. Sundstrom,  Zhen Tao,  
 J. Thirman,  T. Tsuchimochi,  N. M. Tubman,  S. P. Veccham,  O. Vydrov,  
 J. Wenzel,  J. Witte,  A. Yamada,  Kun Yao,  S. Yeganeh,  S. R. Yost,  
 A. Zech,  Igor Ying Zhang,  Xing Zhang,  Yu Zhang,  D. Zuev,  
 A. Aspuru-Guzik,  A. T. Bell,  N. A. Besley,  K. B. Bravaya,  B. R. Brooks,  
 D. Casanova,  Jeng-Da Chai,  S. Coriani,  C. J. Cramer,  
 A. E. DePrince, III,  R. A. DiStasio Jr.,  A. Dreuw,  B. D. Dunietz,  
 T. R. Furlani,  W. A. Goddard III,  S. Grimme,  S. Hammes-Schiffer,  
 T. Head-Gordon,  W. J. Hehre,  Chao-Ping Hsu,  T.-C. Jagau,  Yousung Jung,  
 A. Klamt,  Jing Kong,  D. S. Lambrecht,  WanZhen Liang,  N. J. Mayhall,  
 C. W. McCurdy,  J. B. Neaton,  C. Ochsenfeld,  J. A. Parkhill,  R. Peverati,  
 V. A. Rassolov,  Yihan Shao,  L. V. Slipchenko,  T. Stauch,  R. P. Steele,  
 J. E. Subotnik,  A. J. W. Thom,  A. Tkatchenko,  D. G. Truhlar,  
 T. Van Voorhis,  T. A. Wesolowski,  K. B. Whaley,  H. L. Woodcock III,  
 P. M. Zimmerman,  S. Faraji,  P. M. W. Gill,  M. Head-Gordon,  
 J. M. Herbert,  A. I. Krylov

 Contributors to earlier versions of Q-Chem not listed above: 
 R. D. Adamson,  B. Austin,  R. Baer,  J. Baker,  G. J. O. Beran,  
 K. Brandhorst,  S. T. Brown,  E. F. C. Byrd,  A. K. Chakraborty,  
 G. K. L. Chan,  Chun-Min Chang,  Yunqing Chen,  C.-L. Cheng,  
 Siu Hung Chien,  D. M. Chipman,  D. L. Crittenden,  H. Dachsel,  
 R. J. Doerksen,  A. D. Dutoi,  R. G. Edgar,  J. Fosso-Tande,  
 L. Fusti-Molnar,  D. Ghosh,  A. Ghysels,  A. Golubeva-Zadorozhnaya,  
 J. Gonthier,  M. S. Gordon,  S. R. Gwaltney,  G. Hawkins,  J. E. Herr,  
 A. Heyden,  S. Hirata,  E. G. Hohenstein,  G. Kedziora,  F. J. Keil,  
 C. Kelley,  Jihan Kim,  R. A. King,  R. Z. Khaliullin,  P. P. Korambath,  
 W. Kurlancheek,  A. Laurent,  A. M. Lee,  M. S. Lee,  S. V. Levchenko,  
 Ching Yeh Lin,  D. Liotard,  E. Livshits,  R. C. Lochan,  I. Lotan,  
 L. A. Martinez-Martinez,  P. E. Maslen,  N. Nair,  D. P. O'Neill,  
 D. Neuhauser,  E. Neuscamman,  C. M. Oana,  R. Olivares-Amaya,  R. Olson,  
 T. M. Perrine,  B. Peters,  P. A. Pieniazek,  A. Prociuk,  Y. M. Rhee,  
 J. Ritchie,  M. A. Rohrdanz,  E. Rosta,  N. J. Russ,  H. F. Schaefer III,  
 M. W. Schmidt,  N. E. Schultz,  S. Sharma,  N. Shenvi,  C. D. Sherrill,  
 A. C. Simmonett,  A. Sodt,  T. Stein,  D. Stuck,  K. S. Thanthiriwatte,  
 V. Vanovschi,  L. Vogt,  Tao Wang,  A. Warshel,  M. A. Watson,  
 C. F. Williams,  Q. Wu,  X. Xu,  Jun Yang,  W. Zhang,  Yan Zhao

 Please cite Q-Chem as follows:
 Y. Shao et al., Mol. Phys. 113, 184-215 (2015)
 DOI: 10.1080/00268976.2014.952696

 Q-Chem 5.4.0 for Intel X86 EM64T Linux

 Parts of Q-Chem use Armadillo 9.800.1 (Horizon Scraper).
 http://arma.sourceforge.net/

 Q-Chem begins on Sun Jul 10 02:46:04 2022  

 Host: 
0

     Scratch files written to ./qchem4011833//
 May1621 |scratch|qcdevops|jenkins|workspace|build_RNUM    
 Processing $rem in /cm/shared/apps/spack/cpu/opt/spack/linux-centos8-zen2/gcc-10.2.0/qchem-5.4-akfmr7b3t57bfs6qan3padb2wnb2i7cl/config/preferences:
 Processing $rem in /home/theleonzhang/.qchemrc:
 Symmetry turned off for PCM/SM12/SMD calculation
 Core orbitals will be frozen

 Checking the input file for inconsistencies... 	...done.

--------------------------------------------------------------
User input:
--------------------------------------------------------------
$molecule
0 1
C	0.135301	-3.866725	-0.763228
C	-0.106073	-3.703963	0.603311
C	-0.185286	-2.357056	1.050423
H	-0.225783	-4.561092	1.283188
C	0.000000	-1.440664	0.000000
S	0.268187	-2.286957	-1.521021
C	-0.438209	-1.978743	2.483507
H	-0.550153	-2.878678	3.118798
H	-1.363906	-1.376015	2.593381
H	0.393798	-1.375728	2.903516
C	0.000000	0.000000	0.000000
C	0.295399	0.811508	1.099446
C	0.768742	2.111949	0.776721
H	0.169256	0.464952	2.136088
C	0.844232	2.319291	-0.612546
S	0.322342	0.885558	-1.486809
C	1.140796	3.134091	1.814609
H	0.995218	2.734123	2.836676
H	0.526006	4.054142	1.726239
H	2.203157	3.443680	1.726228
H	1.168902	3.211257	-1.161575
H	-0.688674	-4.392713	-1.258111
H	1.079084	-4.392347	-0.946272
H	-1.063572	-1.440937	-0.187654
$end

$rem
JOBTYPE		SP
EXCHANGE	HF
CORRELATION	pRIMP2
BASIS		cc-pvtz
METHOD		rimp2
AUX_BASIS	rimp2-cc-pvtz
SOLVENT_METHOD	PCM
PURECART	11111
SYMMETRY	false
MEM_TOTAL	110000
SCF_CONVERGENCE = 6
THRESH=10
$end



$solvent
dielectric 4.90
$end
--------------------------------------------------------------
 ----------------------------------------------------------------
             Standard Nuclear Orientation (Angstroms)
    I     Atom           X                Y                Z
 ----------------------------------------------------------------
    1      C       0.1353010000    -3.8667250000    -0.7632280000
    2      C      -0.1060730000    -3.7039630000     0.6033110000
    3      C      -0.1852860000    -2.3570560000     1.0504230000
    4      H      -0.2257830000    -4.5610920000     1.2831880000
    5      C       0.0000000000    -1.4406640000     0.0000000000
    6      S       0.2681870000    -2.2869570000    -1.5210210000
    7      C      -0.4382090000    -1.9787430000     2.4835070000
    8      H      -0.5501530000    -2.8786780000     3.1187980000
    9      H      -1.3639060000    -1.3760150000     2.5933810000
   10      H       0.3937980000    -1.3757280000     2.9035160000
   11      C       0.0000000000     0.0000000000     0.0000000000
   12      C       0.2953990000     0.8115080000     1.0994460000
   13      C       0.7687420000     2.1119490000     0.7767210000
   14      H       0.1692560000     0.4649520000     2.1360880000
   15      C       0.8442320000     2.3192910000    -0.6125460000
   16      S       0.3223420000     0.8855580000    -1.4868090000
   17      C       1.1407960000     3.1340910000     1.8146090000
   18      H       0.9952180000     2.7341230000     2.8366760000
   19      H       0.5260060000     4.0541420000     1.7262390000
   20      H       2.2031570000     3.4436800000     1.7262280000
   21      H       1.1689020000     3.2112570000    -1.1615750000
   22      H      -0.6886740000    -4.3927130000    -1.2581110000
   23      H       1.0790840000    -4.3923470000    -0.9462720000
   24      H      -1.0635720000    -1.4409370000    -0.1876540000
 ----------------------------------------------------------------
 Nuclear Repulsion Energy =         878.68372705 hartrees
 There are       52 alpha and       52 beta electrons

 Q-Chem warning in module forms1/BasisType.C, line 2236:

 You are not using the predefined 5D/6D in this basis set.

 Requested basis set is cc-pVTZ
 There are 196 shells and 536 basis functions

 Total QAlloc Memory Limit 110000 MB
 Mega-Array Size       188 MB
 MEM_STATIC part       192 MB
 Discretize the solute cavity surface with Lebedev spheres
	Using 110 Lebedev grid points for each H atom
	Using 194 Lebedev grid points for other atoms
	Atomic van der Waals radii will be scaled by 1.20
 Remove points where switching function is < 1.0e-08
 Keep 1586 surface tesserae and discard 2062 interior tesserae
 Molecular Surface Area = 230.712 Angst**2
 Requested basis set is rimp2-cc-pVTZ
 There are 414 shells and 1414 basis functions
 A cutoff of  1.0D-10 yielded  14061 shell pairs
 There are    101803 function pairs (    130446 Cartesian)
 Smallest overlap matrix eigenvalue = 6.34E-05

 Scale SEOQF with 1.000000e-01/1.000000e-01/1.000000e-01

 Standard Electronic Orientation quadrupole field applied
 Nucleus-field energy     =     0.0000000208 hartrees
 Guess from superposition of atomic densities
 Warning:  Energy on first SCF cycle will be non-variational
 SAD guess density has 104.000000 electrons

 -----------------------------------------------------------------------
  General SCF calculation program by
  Eric Jon Sundstrom, Paul Horn, Yuezhi Mao, Dmitri Zuev, Alec White,
  David Stuck, Shaama M.S., Shane Yost, Joonho Lee, David Small,
  Daniel Levine, Susi Lehtola, Hugh Burton, Evgeny Epifanovsky,
  Bang C. Huynh
 -----------------------------------------------------------------------
 Hartree-Fock
 A restricted SCF calculation will be
 performed using DIIS
 SCF converges when DIIS error is below 1.0e-06
 ---------------------------------------
  Cycle       Energy         DIIS error
 ---------------------------------------
    1   -1186.0658429518      2.39e-02  
    2   -1180.5961374021      1.59e-03  
    3   -1180.7230428482      6.54e-04  
    4   -1180.7391272634      3.44e-04  
    5   -1180.7447075937      6.09e-05  
    6   -1180.7449708737      2.54e-05  
    7   -1180.7450350226      9.27e-06  
    8   -1180.7450493729      4.44e-06  
    9   -1180.7450526442      1.52e-06  
   10   -1180.7450531328      5.18e-07  Convergence criterion met
 ---------------------------------------
 SCF time:   CPU 581.58s  wall 583.00s 

************** Final PCM Free Energy Summary **************
 G_electrostatic  =      -0.00963042 hartree =      -6.04318227 kcal/mol
 G_cavitation     =       0.00000000 hartree =       0.00000000 kcal/mol
 G_dispersion     =       0.00000000 hartree =       0.00000000 kcal/mol
 G_repulsion      =       0.00000000 hartree =       0.00000000 kcal/mol
 --------------------------------------------------
 Non-electrostatic Free Energy =       0.00000000 hartree =       0.00000000 kcal/mol
 Total                         =      -0.00963042 hartree =      -6.04318227 kcal/mol
 --------------------------------------------------
 SCF Energy (H0 + V/2)                       =   -1180.74505313 
 Solute Internal Energy (H0)                 =   -1180.73542271 
 Total Free Energy (H0 + V/2 + non-elec)     =   -1180.74505313 hartree
                                             = -740928.70367720 kcal/mol
***********************************************************

 SCF   energy in the final basis set =    -1180.7450531328
 Total energy in the final basis set =    -1180.7450531328


 --------------------------------------------------------------
  Generalized many-body perturbation theory program
  by Joonho Lee, Fazle Rob, Xintian Feng, Evgeny Epifanovsky

 No regularization used 
 (reg. param. = 0.0000e+00)
  (P|Q)^-1/2 Time:  CPU 2.32 s  wall 2.33 s

 In RI-MP2 calculation: 
 # of frozen core orbitals: 20

 Components of the RIMP2 correlation energy:
        aaaa    correlation energy =        -0.2520076446 a.u.
        abab    correlation energy =        -1.5048082873 a.u.
        bbbb    correlation energy =        -0.2520076446 a.u.
        non-Brillouin singles      =        -0.0000000000 a.u.
        total same-spin energy     =        -0.5040152891 a.u.
        total opposite-spin energy =        -1.5048082873 a.u.

 Total  RIMP2   correlation energy =        -2.0088235764 a.u.
        RIMP2         total energy =     -1182.7538767092 a.u.

 RI-MP2 Energy Time:  CPU 118.82 s  wall 119.25 s
 
 --------------------------------------------------------------
 
                    Orbital Energies (a.u.)
 --------------------------------------------------------------
 
 Alpha MOs
 -- Occupied --
-91.9834 -91.9459 -11.2861 -11.2661 -11.2591 -11.2564 -11.2498 -11.2437
-11.2342 -11.2309 -11.2280 -11.2223  -8.9832  -8.9506  -6.6642  -6.6636
 -6.6630  -6.6319  -6.6309  -6.6296  -1.2020  -1.1524  -1.0599  -1.0322
 -1.0004  -0.9625  -0.9159  -0.8995  -0.8180  -0.7625  -0.7308  -0.7058
 -0.6554  -0.6464  -0.6098  -0.5943  -0.5853  -0.5683  -0.5637  -0.5499
 -0.5465  -0.5353  -0.5228  -0.5025  -0.4855  -0.4784  -0.4700  -0.4423
 -0.3609  -0.3432  -0.3238  -0.2623
 -- Virtual --
  0.0985   0.1320   0.1402   0.1476   0.1573   0.1706   0.1774   0.1842
  0.1874   0.2032   0.2092   0.2166   0.2197   0.2306   0.2373   0.2421
  0.2590   0.2738   0.2857   0.3077   0.3139   0.3211   0.3560   0.3583
  0.3689   0.3816   0.3852   0.3921   0.4030   0.4072   0.4155   0.4220
  0.4347   0.4511   0.4662   0.4710   0.4727   0.4812   0.4836   0.4949
  0.5001   0.5180   0.5271   0.5342   0.5368   0.5469   0.5552   0.5645
  0.5680   0.5854   0.5880   0.5976   0.6021   0.6075   0.6148   0.6214
  0.6261   0.6300   0.6325   0.6365   0.6391   0.6509   0.6587   0.6601
  0.6701   0.6736   0.6784   0.6870   0.6961   0.7114   0.7237   0.7282
  0.7434   0.7509   0.7644   0.7737   0.7866   0.7923   0.7979   0.8210
  0.8364   0.8511   0.8539   0.8657   0.8861   0.8966   0.9025   0.9208
  0.9337   0.9464   0.9474   0.9591   0.9748   0.9965   0.9988   1.0073
  1.0225   1.0285   1.0367   1.0448   1.0557   1.0593   1.0667   1.0745
  1.0851   1.0935   1.1029   1.1281   1.1397   1.1486   1.1601   1.1771
  1.1826   1.1911   1.1987   1.2053   1.2145   1.2170   1.2255   1.2420
  1.2467   1.2588   1.2676   1.2717   1.2747   1.2889   1.3043   1.3144
  1.3207   1.3300   1.3362   1.3656   1.3687   1.3775   1.4091   1.4148
  1.4271   1.4345   1.4394   1.4641   1.4800   1.4814   1.4877   1.5022
  1.5097   1.5161   1.5272   1.5344   1.5399   1.5429   1.5504   1.5615
  1.5668   1.5875   1.5926   1.6097   1.6221   1.6252   1.6359   1.6466
  1.6581   1.6697   1.6732   1.6962   1.7008   1.7172   1.7192   1.7336
  1.7508   1.7607   1.7764   1.8100   1.8197   1.8286   1.8516   1.8631
  1.8889   1.8982   1.9079   1.9351   1.9528   1.9619   1.9895   2.0015
  2.0168   2.0422   2.0617   2.0785   2.0909   2.1108   2.1521   2.1539
  2.1868   2.1941   2.2048   2.2178   2.2329   2.2565   2.2712   2.2789
  2.2871   2.2973   2.3114   2.3933   2.4202   2.4416   2.4583   2.4746
  2.4933   2.5180   2.5277   2.5471   2.5708   2.5805   2.5856   2.6071
  2.6352   2.6518   2.6558   2.6683   2.6746   2.6967   2.7182   2.7377
  2.7533   2.7582   2.7640   2.7737   2.7875   2.7969   2.8014   2.8085
  2.8266   2.8472   2.8528   2.8771   2.8819   2.8998   2.9139   2.9397
  2.9550   2.9673   2.9757   2.9879   3.0092   3.0289   3.0393   3.0459
  3.0654   3.0824   3.0877   3.1042   3.1108   3.1178   3.1274   3.1407
  3.1432   3.1624   3.1691   3.1749   3.1801   3.1954   3.1967   3.2164
  3.2257   3.2408   3.2472   3.2614   3.2748   3.2824   3.2970   3.3077
  3.3172   3.3302   3.3353   3.3417   3.3480   3.3550   3.3586   3.3726
  3.3751   3.3848   3.3941   3.4026   3.4048   3.4170   3.4234   3.4347
  3.4411   3.4518   3.4597   3.4622   3.4782   3.4848   3.4924   3.5094
  3.5108   3.5263   3.5338   3.5395   3.5511   3.5655   3.5683   3.5874
  3.5977   3.6019   3.6066   3.6201   3.6308   3.6377   3.6487   3.6620
  3.6757   3.6910   3.6985   3.7035   3.7163   3.7267   3.7309   3.7332
  3.7454   3.7613   3.7665   3.7751   3.7898   3.7942   3.7998   3.8108
  3.8221   3.8448   3.8600   3.8651   3.8738   3.8803   3.8986   3.9149
  3.9203   3.9516   3.9596   3.9669   3.9807   3.9970   4.0184   4.0256
  4.0333   4.0494   4.0601   4.0658   4.0760   4.0783   4.0982   4.1072
  4.1174   4.1380   4.1500   4.1556   4.1664   4.1713   4.1828   4.1996
  4.2228   4.2250   4.2308   4.2451   4.2493   4.2605   4.2718   4.2927
  4.3026   4.3127   4.3221   4.3396   4.3508   4.3549   4.3627   4.3705
  4.3779   4.3953   4.4025   4.4196   4.4276   4.4402   4.4478   4.4519
  4.4578   4.4711   4.4792   4.4900   4.4981   4.5101   4.5474   4.5870
  4.6015   4.6040   4.6176   4.6279   4.6491   4.6505   4.6599   4.6874
  4.7050   4.7389   4.7728   4.7799   4.7941   4.8101   4.8248   4.8581
  4.8621   4.8685   4.8844   4.9172   4.9313   4.9525   4.9905   4.9943
  5.0417   5.0628   5.0960   5.1033   5.1174   5.1304   5.1633   5.2004
  5.2119   5.2310   5.2447   5.2675   5.2866   5.3010   5.3119   5.3252
  5.3521   5.3715   5.3750   5.4082   5.4104   5.4218   5.4365   5.4427
  5.4794   5.5200   5.5355   5.5421   5.5500   5.5671   5.5767   5.5997
  5.6161   5.6245   5.6306   5.6601   5.6847   5.7032   5.7120   5.7373
  5.7724   5.8153   5.8424   5.9758   6.0250   6.0882   6.1361   6.1711
  6.2115   6.2286   6.2378   6.2606   6.2654   6.2914   6.3177   6.3650
  6.4265   6.5221   9.5357  10.8781  12.0624  12.9377  13.1734  13.9277
 14.1185  14.2111  14.3621  14.9070
 --------------------------------------------------------------
 
          Ground-State Mulliken Net Atomic Charges

     Atom                 Charge (a.u.)
  ----------------------------------------
      1 C                    -0.075823
      2 C                    -0.317996
      3 C                    -0.042496
      4 H                     0.178594
      5 C                     0.120970
      6 S                    -0.177380
      7 C                    -0.303552
      8 H                     0.122256
      9 H                     0.111123
     10 H                     0.105441
     11 C                    -0.055398
     12 C                    -0.275584
     13 C                     0.039470
     14 H                     0.190223
     15 C                    -0.271624
     16 S                     0.005121
     17 C                    -0.271881
     18 H                     0.100427
     19 H                     0.108429
     20 H                     0.108233
     21 H                     0.197544
     22 H                     0.111471
     23 H                     0.114202
     24 H                     0.178228
  ----------------------------------------
  Sum of atomic charges =     0.000000

 -----------------------------------------------------------------
                    Cartesian Multipole Moments
 -----------------------------------------------------------------
    Charge (ESU x 10^10)
                -0.0000
    Dipole Moment (Debye)
         X      -0.7591      Y      -0.3203      Z       3.5663
       Tot       3.6603
    Quadrupole Moments (Debye-Ang)
        XX     -90.7004     XY       5.2532     YY     -74.1845
        XZ       0.5058     YZ      -2.1145     ZZ     -85.5347
    Octopole Moments (Debye-Ang^2)
       XXX     -72.1830    XXY      53.0097    XYY     -14.3428
       YYY     122.0337    XXZ      -3.0039    XYZ      -0.2591
       YYZ      -4.9982    XZZ     -22.8439    YZZ      52.5876
       ZZZ       8.0280
    Hexadecapole Moments (Debye-Ang^3)
      XXXX    -273.0635   XXXY    -162.0964   XXYY    -543.5068
      XYYY    -126.0222   YYYY   -2676.3364   XXXZ      19.6944
      XXYZ     -29.2281   XYYZ      -3.6873   YYYZ     -96.4437
      XXZZ    -235.4692   XYZZ     -37.6494   YYZZ    -639.7535
      XZZZ      12.8834   YZZZ    -125.2119   ZZZZ   -1080.1437
 -----------------------------------------------------------------
 Total job time:  706.44s(wall), 701.47s(cpu) 
 Sun Jul 10 02:57:50 2022

        *************************************************************
        *                                                           *
        *  Thank you very much for using Q-Chem.  Have a nice day.  *
        *                                                           *
        *************************************************************


remove work dirs ./qchem4011833.0 -- ./qchem4011833.-1
rm -rf ./qchem4011833
You are running Q-Chem version: 5.4.0

#
# job setting
#
local host:  exp-3-09
current dir: /expanse/lustre/scratch/theleonzhang/temp_project/Hydrogenated_Rotation_Test
input file:  Methylthiophene_Phi_20_Theta_190_Methylthiophene_Hydrogenated.qcin
output file: 
nprocs     : 0
nthreads   : 1
#
# qchem installation setting
#
QC:          /cm/shared/apps/spack/cpu/opt/spack/linux-centos8-zen2/gcc-10.2.0/qchem-5.4-akfmr7b3t57bfs6qan3padb2wnb2i7cl
QCAUX:       /cm/shared/apps/spack/cpu/opt/spack/linux-centos8-zen2/gcc-10.2.0/qchem-5.4-akfmr7b3t57bfs6qan3padb2wnb2i7cl/qcaux
QCPROG:      /cm/shared/apps/spack/cpu/opt/spack/linux-centos8-zen2/gcc-10.2.0/qchem-5.4-akfmr7b3t57bfs6qan3padb2wnb2i7cl/exe/qcprog.exe_s
QCPROG_S:    /cm/shared/apps/spack/cpu/opt/spack/linux-centos8-zen2/gcc-10.2.0/qchem-5.4-akfmr7b3t57bfs6qan3padb2wnb2i7cl/exe/qcprog.exe_s
PARALLEL:    -DSERIAL
QCMPI:       mpich
#
# qchem directory setting
#
qcrun:       qchem914729
QCSCRATCH:   .
QCLOCALSCR:  
QCTMPDIR:    .
QCFILEPREF:  ./qchem914729
QCSAVEDIR:   
workdirs:    ./qchem914729
workdir0:    ./qchem914729
partmpdirs =  
#
# parallel setting
#
QCRSH:           ssh
QCMPI:           mpich
QCMPIRUN:        /cm/shared/apps/spack/cpu/opt/spack/linux-centos8-zen2/gcc-10.2.0/qchem-5.4-akfmr7b3t57bfs6qan3padb2wnb2i7cl/bin/mpi/mpirun_qchem
QCMACHINEFILE:   ./qchem914729/hostfile

#
# env setting
#
exported envs:   QC QCAUX QCSCRATCH QCRUNNAME QCFILEPREF QCPROG QCPROG_S GUIFILE

Running Job 1 of 1 Methylthiophene_Phi_20_Theta_190_Methylthiophene_Hydrogenated.qcin
qchem Methylthiophene_Phi_20_Theta_190_Methylthiophene_Hydrogenated.qcin_914729.0 ./qchem914729/ 0
/cm/shared/apps/spack/cpu/opt/spack/linux-centos8-zen2/gcc-10.2.0/qchem-5.4-akfmr7b3t57bfs6qan3padb2wnb2i7cl/exe/qcprog.exe_s Methylthiophene_Phi_20_Theta_190_Methylthiophene_Hydrogenated.qcin_914729.0 ./qchem914729/
                  Welcome to Q-Chem
     A Quantum Leap Into The Future Of Chemistry


 Q-Chem 5.4, Q-Chem, Inc., Pleasanton, CA (2021)

 License issued to: University of California, San Diego (site)

 E. Epifanovsky,  A. T. B. Gilbert,  Xintian Feng,  Joonho Lee,  Yuezhi Mao,  
 N. Mardirossian,  P. Pokhilko,  A. White,  M. Wormit,  M. P. Coons,  
 A. L. Dempwolff,  Zhengting Gan,  D. Hait,  P. R. Horn,  L. D. Jacobson,  
 I. Kaliman,  J. Kussmann,  A. W. Lange,  Ka Un Lao,  D. S. Levine,  Jie Liu,  
 S. C. McKenzie,  A. F. Morrison,  K. Nanda,  F. Plasser,  D. R. Rehn,  
 M. L. Vidal,  Zhi-Qiang You,  Ying Zhu,  B. Alam,  B. Albrecht,  
 A. Aldossary,  E. Alguire,  J. H. Andersen,  D. Barton,  K. Begam,  A. Behn,  
 Y. A. Bernard,  E. J. Berquist,  H. Burton,  A. Carreras,  K. Carter-Fenk,  
 R. Chakraborty,  A. D. Chien,  K. D. Closser,  V. Cofer-Shabica,  
 S. Dasgupta,  Jia Deng,  M. de Wergifosse,  M. Diedenhofen,  Hainam Do,  
 S. Ehlert,  Po-Tung Fang,  S. Fatehi,  Qingguo Feng,  J. Gayvert,  
 Qinghui Ge,  G. Gidofalvi,  M. Goldey,  J. Gomes,  C. Gonzalez-Espinoza,  
 S. Gulania,  A. Gunina,  M. W. D. Hanson-Heine,  P. H. P. Harbach,  
 A. W. Hauser,  M. F. Herbst,  M. Hernandez Vera,  M. Hodecker,  
 Z. C. Holden,  S. Houck,  Xunkun Huang,  Kerwin Hui,  B. C. Huynh,  
 M. Ivanov,  Hyunjun Ji,  Hanjie Jiang,  B. Kaduk,  S. Kaehler,  
 K. Khistyaev,  Jaehoon Kim,  P. Klunzinger,  Z. Koczor-Benda,  
 Joong Hoon Koh,  D. Kosenkov,  L. Koulias,  T. Kowalczyk,  C. M. Krauter,  
 K. Kue,  A. Kunitsa,  T. Kus,  A. Landau,  K. V. Lawler,  D. Lefrancois,  
 S. Lehtola,  Rain Li,  Yi-Pei Li,  Jiashu Liang,  M. Liebenthal,  
 Hung-Hsuan Lin,  You-Sheng Lin,  Fenglai Liu,  Kuan-Yu Liu,  
 M. Loipersberger,  A. Luenser,  A. Manjanath,  P. Manohar,  E. Mansoor,  
 S. F. Manzer,  Shan-Ping Mao,  A. V. Marenich,  T. Markovich,  S. Mason,  
 S. A. Maurer,  P. F. McLaughlin,  M. F. S. J. Menger,  J.-M. Mewes,  
 S. A. Mewes,  P. Morgante,  J. W. Mullinax,  T. S. Nguyen-Beck,  
 K. J. Oosterbaan,  G. Paran,  Alexander C. Paul,  Suranjan K. Paul,  
 F. Pavosevic,  Zheng Pei,  S. Prager,  E. I. Proynov,  E. Ramos,  B. Rana,  
 A. E. Rask,  A. Rettig,  R. M. Richard,  F. Rob,  E. Rossomme,  T. Scheele,  
 M. Scheurer,  M. Schneider,  N. Sergueev,  S. M. Sharada,  W. Skomorowski,  
 D. W. Small,  C. J. Stein,  Yu-Chuan Su,  E. J. Sundstrom,  Zhen Tao,  
 J. Thirman,  T. Tsuchimochi,  N. M. Tubman,  S. P. Veccham,  O. Vydrov,  
 J. Wenzel,  J. Witte,  A. Yamada,  Kun Yao,  S. Yeganeh,  S. R. Yost,  
 A. Zech,  Igor Ying Zhang,  Xing Zhang,  Yu Zhang,  D. Zuev,  
 A. Aspuru-Guzik,  A. T. Bell,  N. A. Besley,  K. B. Bravaya,  B. R. Brooks,  
 D. Casanova,  Jeng-Da Chai,  S. Coriani,  C. J. Cramer,  
 A. E. DePrince, III,  R. A. DiStasio Jr.,  A. Dreuw,  B. D. Dunietz,  
 T. R. Furlani,  W. A. Goddard III,  S. Grimme,  S. Hammes-Schiffer,  
 T. Head-Gordon,  W. J. Hehre,  Chao-Ping Hsu,  T.-C. Jagau,  Yousung Jung,  
 A. Klamt,  Jing Kong,  D. S. Lambrecht,  WanZhen Liang,  N. J. Mayhall,  
 C. W. McCurdy,  J. B. Neaton,  C. Ochsenfeld,  J. A. Parkhill,  R. Peverati,  
 V. A. Rassolov,  Yihan Shao,  L. V. Slipchenko,  T. Stauch,  R. P. Steele,  
 J. E. Subotnik,  A. J. W. Thom,  A. Tkatchenko,  D. G. Truhlar,  
 T. Van Voorhis,  T. A. Wesolowski,  K. B. Whaley,  H. L. Woodcock III,  
 P. M. Zimmerman,  S. Faraji,  P. M. W. Gill,  M. Head-Gordon,  
 J. M. Herbert,  A. I. Krylov

 Contributors to earlier versions of Q-Chem not listed above: 
 R. D. Adamson,  B. Austin,  R. Baer,  J. Baker,  G. J. O. Beran,  
 K. Brandhorst,  S. T. Brown,  E. F. C. Byrd,  A. K. Chakraborty,  
 G. K. L. Chan,  Chun-Min Chang,  Yunqing Chen,  C.-L. Cheng,  
 Siu Hung Chien,  D. M. Chipman,  D. L. Crittenden,  H. Dachsel,  
 R. J. Doerksen,  A. D. Dutoi,  R. G. Edgar,  J. Fosso-Tande,  
 L. Fusti-Molnar,  D. Ghosh,  A. Ghysels,  A. Golubeva-Zadorozhnaya,  
 J. Gonthier,  M. S. Gordon,  S. R. Gwaltney,  G. Hawkins,  J. E. Herr,  
 A. Heyden,  S. Hirata,  E. G. Hohenstein,  G. Kedziora,  F. J. Keil,  
 C. Kelley,  Jihan Kim,  R. A. King,  R. Z. Khaliullin,  P. P. Korambath,  
 W. Kurlancheek,  A. Laurent,  A. M. Lee,  M. S. Lee,  S. V. Levchenko,  
 Ching Yeh Lin,  D. Liotard,  E. Livshits,  R. C. Lochan,  I. Lotan,  
 L. A. Martinez-Martinez,  P. E. Maslen,  N. Nair,  D. P. O'Neill,  
 D. Neuhauser,  E. Neuscamman,  C. M. Oana,  R. Olivares-Amaya,  R. Olson,  
 T. M. Perrine,  B. Peters,  P. A. Pieniazek,  A. Prociuk,  Y. M. Rhee,  
 J. Ritchie,  M. A. Rohrdanz,  E. Rosta,  N. J. Russ,  H. F. Schaefer III,  
 M. W. Schmidt,  N. E. Schultz,  S. Sharma,  N. Shenvi,  C. D. Sherrill,  
 A. C. Simmonett,  A. Sodt,  T. Stein,  D. Stuck,  K. S. Thanthiriwatte,  
 V. Vanovschi,  L. Vogt,  Tao Wang,  A. Warshel,  M. A. Watson,  
 C. F. Williams,  Q. Wu,  X. Xu,  Jun Yang,  W. Zhang,  Yan Zhao

 Please cite Q-Chem as follows:
 Y. Shao et al., Mol. Phys. 113, 184-215 (2015)
 DOI: 10.1080/00268976.2014.952696

 Q-Chem 5.4.0 for Intel X86 EM64T Linux

 Parts of Q-Chem use Armadillo 9.800.1 (Horizon Scraper).
 http://arma.sourceforge.net/

 Q-Chem begins on Sun Jul 10 03:15:55 2022  

 Host: 
0

     Scratch files written to ./qchem914729//
 May1621 |scratch|qcdevops|jenkins|workspace|build_RNUM    
 Processing $rem in /cm/shared/apps/spack/cpu/opt/spack/linux-centos8-zen2/gcc-10.2.0/qchem-5.4-akfmr7b3t57bfs6qan3padb2wnb2i7cl/config/preferences:
 Processing $rem in /home/theleonzhang/.qchemrc:
 Symmetry turned off for PCM/SM12/SMD calculation
 Core orbitals will be frozen

 Checking the input file for inconsistencies... 	...done.

--------------------------------------------------------------
User input:
--------------------------------------------------------------
$molecule
0 1
C	0.135301	-3.866725	-0.763228
C	-0.106073	-3.703963	0.603311
C	-0.185286	-2.357056	1.050423
H	-0.225783	-4.561092	1.283188
C	0.000000	-1.440664	0.000000
S	0.268187	-2.286957	-1.521021
C	-0.438209	-1.978743	2.483507
H	-0.550153	-2.878678	3.118798
H	-1.363906	-1.376015	2.593381
H	0.393798	-1.375728	2.903516
C	0.000000	0.000000	0.000000
C	0.295399	0.811508	1.099446
C	0.768742	2.111949	0.776721
H	0.169256	0.464952	2.136088
C	0.844232	2.319291	-0.612546
S	0.322342	0.885558	-1.486809
C	1.140796	3.134091	1.814609
H	0.995218	2.734123	2.836676
H	0.526006	4.054142	1.726239
H	2.203157	3.443680	1.726228
H	1.168902	3.211257	-1.161575
H	-0.688674	-4.392713	-1.258111
H	1.079084	-4.392347	-0.946272
H	-1.063572	-1.440937	-0.187654
$end

$rem
JOBTYPE		SP
EXCHANGE	HF
CORRELATION	pRIMP2
BASIS		cc-pvtz
METHOD		rimp2
AUX_BASIS	rimp2-cc-pvtz
SOLVENT_METHOD	PCM
PURECART	11111
SYMMETRY	false
MEM_TOTAL	110000
SCF_CONVERGENCE = 6
THRESH=10
$end



$solvent
dielectric 4.90
$end
--------------------------------------------------------------
 ----------------------------------------------------------------
             Standard Nuclear Orientation (Angstroms)
    I     Atom           X                Y                Z
 ----------------------------------------------------------------
    1      C       0.1353010000    -3.8667250000    -0.7632280000
    2      C      -0.1060730000    -3.7039630000     0.6033110000
    3      C      -0.1852860000    -2.3570560000     1.0504230000
    4      H      -0.2257830000    -4.5610920000     1.2831880000
    5      C       0.0000000000    -1.4406640000     0.0000000000
    6      S       0.2681870000    -2.2869570000    -1.5210210000
    7      C      -0.4382090000    -1.9787430000     2.4835070000
    8      H      -0.5501530000    -2.8786780000     3.1187980000
    9      H      -1.3639060000    -1.3760150000     2.5933810000
   10      H       0.3937980000    -1.3757280000     2.9035160000
   11      C       0.0000000000     0.0000000000     0.0000000000
   12      C       0.2953990000     0.8115080000     1.0994460000
   13      C       0.7687420000     2.1119490000     0.7767210000
   14      H       0.1692560000     0.4649520000     2.1360880000
   15      C       0.8442320000     2.3192910000    -0.6125460000
   16      S       0.3223420000     0.8855580000    -1.4868090000
   17      C       1.1407960000     3.1340910000     1.8146090000
   18      H       0.9952180000     2.7341230000     2.8366760000
   19      H       0.5260060000     4.0541420000     1.7262390000
   20      H       2.2031570000     3.4436800000     1.7262280000
   21      H       1.1689020000     3.2112570000    -1.1615750000
   22      H      -0.6886740000    -4.3927130000    -1.2581110000
   23      H       1.0790840000    -4.3923470000    -0.9462720000
   24      H      -1.0635720000    -1.4409370000    -0.1876540000
 ----------------------------------------------------------------
 Nuclear Repulsion Energy =         878.68372705 hartrees
 There are       52 alpha and       52 beta electrons

 Q-Chem warning in module forms1/BasisType.C, line 2236:

 You are not using the predefined 5D/6D in this basis set.

 Requested basis set is cc-pVTZ
 There are 196 shells and 536 basis functions

 Total QAlloc Memory Limit 110000 MB
 Mega-Array Size       188 MB
 MEM_STATIC part       192 MB
 Discretize the solute cavity surface with Lebedev spheres
	Using 110 Lebedev grid points for each H atom
	Using 194 Lebedev grid points for other atoms
	Atomic van der Waals radii will be scaled by 1.20
 Remove points where switching function is < 1.0e-08
 Keep 1586 surface tesserae and discard 2062 interior tesserae
 Molecular Surface Area = 230.712 Angst**2
 Requested basis set is rimp2-cc-pVTZ
 There are 414 shells and 1414 basis functions
 A cutoff of  1.0D-10 yielded  14061 shell pairs
 There are    101803 function pairs (    130446 Cartesian)
 Smallest overlap matrix eigenvalue = 6.34E-05

 Scale SEOQF with 1.000000e-01/1.000000e-01/1.000000e-01

 Standard Electronic Orientation quadrupole field applied
 Nucleus-field energy     =     0.0000000208 hartrees
 Guess from superposition of atomic densities
 Warning:  Energy on first SCF cycle will be non-variational
 SAD guess density has 104.000000 electrons

 -----------------------------------------------------------------------
  General SCF calculation program by
  Eric Jon Sundstrom, Paul Horn, Yuezhi Mao, Dmitri Zuev, Alec White,
  David Stuck, Shaama M.S., Shane Yost, Joonho Lee, David Small,
  Daniel Levine, Susi Lehtola, Hugh Burton, Evgeny Epifanovsky,
  Bang C. Huynh
 -----------------------------------------------------------------------
 Hartree-Fock
 A restricted SCF calculation will be
 performed using DIIS
 SCF converges when DIIS error is below 1.0e-06
 ---------------------------------------
  Cycle       Energy         DIIS error
 ---------------------------------------
    1   -1186.0658429518      2.39e-02  
    2   -1180.5961374021      1.59e-03  
    3   -1180.7230428482      6.54e-04  
    4   -1180.7391272634      3.44e-04  
    5   -1180.7447075937      6.09e-05  
    6   -1180.7449708737      2.54e-05  
    7   -1180.7450350226      9.27e-06  
    8   -1180.7450493729      4.44e-06  
    9   -1180.7450526442      1.52e-06  
   10   -1180.7450531328      5.18e-07  Convergence criterion met
 ---------------------------------------
 SCF time:   CPU 577.97s  wall 580.00s 

************** Final PCM Free Energy Summary **************
 G_electrostatic  =      -0.00963042 hartree =      -6.04318227 kcal/mol
 G_cavitation     =       0.00000000 hartree =       0.00000000 kcal/mol
 G_dispersion     =       0.00000000 hartree =       0.00000000 kcal/mol
 G_repulsion      =       0.00000000 hartree =       0.00000000 kcal/mol
 --------------------------------------------------
 Non-electrostatic Free Energy =       0.00000000 hartree =       0.00000000 kcal/mol
 Total                         =      -0.00963042 hartree =      -6.04318227 kcal/mol
 --------------------------------------------------
 SCF Energy (H0 + V/2)                       =   -1180.74505313 
 Solute Internal Energy (H0)                 =   -1180.73542271 
 Total Free Energy (H0 + V/2 + non-elec)     =   -1180.74505313 hartree
                                             = -740928.70367720 kcal/mol
***********************************************************

 SCF   energy in the final basis set =    -1180.7450531328
 Total energy in the final basis set =    -1180.7450531328


 --------------------------------------------------------------
  Generalized many-body perturbation theory program
  by Joonho Lee, Fazle Rob, Xintian Feng, Evgeny Epifanovsky

 No regularization used 
 (reg. param. = 0.0000e+00)
  (P|Q)^-1/2 Time:  CPU 1.90 s  wall 1.90 s

 In RI-MP2 calculation: 
 # of frozen core orbitals: 20

 Components of the RIMP2 correlation energy:
        aaaa    correlation energy =        -0.2520076446 a.u.
        abab    correlation energy =        -1.5048082873 a.u.
        bbbb    correlation energy =        -0.2520076446 a.u.
        non-Brillouin singles      =        -0.0000000000 a.u.
        total same-spin energy     =        -0.5040152891 a.u.
        total opposite-spin energy =        -1.5048082873 a.u.

 Total  RIMP2   correlation energy =        -2.0088235764 a.u.
        RIMP2         total energy =     -1182.7538767092 a.u.

 RI-MP2 Energy Time:  CPU 79.77 s  wall 80.03 s
 
 --------------------------------------------------------------
 
                    Orbital Energies (a.u.)
 --------------------------------------------------------------
 
 Alpha MOs
 -- Occupied --
-91.9834 -91.9459 -11.2861 -11.2661 -11.2591 -11.2564 -11.2498 -11.2437
-11.2342 -11.2309 -11.2280 -11.2223  -8.9832  -8.9506  -6.6642  -6.6636
 -6.6630  -6.6319  -6.6309  -6.6296  -1.2020  -1.1524  -1.0599  -1.0322
 -1.0004  -0.9625  -0.9159  -0.8995  -0.8180  -0.7625  -0.7308  -0.7058
 -0.6554  -0.6464  -0.6098  -0.5943  -0.5853  -0.5683  -0.5637  -0.5499
 -0.5465  -0.5353  -0.5228  -0.5025  -0.4855  -0.4784  -0.4700  -0.4423
 -0.3609  -0.3432  -0.3238  -0.2623
 -- Virtual --
  0.0985   0.1320   0.1402   0.1476   0.1573   0.1706   0.1774   0.1842
  0.1874   0.2032   0.2092   0.2166   0.2197   0.2306   0.2373   0.2421
  0.2590   0.2738   0.2857   0.3077   0.3139   0.3211   0.3560   0.3583
  0.3689   0.3816   0.3852   0.3921   0.4030   0.4072   0.4155   0.4220
  0.4347   0.4511   0.4662   0.4710   0.4727   0.4812   0.4836   0.4949
  0.5001   0.5180   0.5271   0.5342   0.5368   0.5469   0.5552   0.5645
  0.5680   0.5854   0.5880   0.5976   0.6021   0.6075   0.6148   0.6214
  0.6261   0.6300   0.6325   0.6365   0.6391   0.6509   0.6587   0.6601
  0.6701   0.6736   0.6784   0.6870   0.6961   0.7114   0.7237   0.7282
  0.7434   0.7509   0.7644   0.7737   0.7866   0.7923   0.7979   0.8210
  0.8364   0.8511   0.8539   0.8657   0.8861   0.8966   0.9025   0.9208
  0.9337   0.9464   0.9474   0.9591   0.9748   0.9965   0.9988   1.0073
  1.0225   1.0285   1.0367   1.0448   1.0557   1.0593   1.0667   1.0745
  1.0851   1.0935   1.1029   1.1281   1.1397   1.1486   1.1601   1.1771
  1.1826   1.1911   1.1987   1.2053   1.2145   1.2170   1.2255   1.2420
  1.2467   1.2588   1.2676   1.2717   1.2747   1.2889   1.3043   1.3144
  1.3207   1.3300   1.3362   1.3656   1.3687   1.3775   1.4091   1.4148
  1.4271   1.4345   1.4394   1.4641   1.4800   1.4814   1.4877   1.5022
  1.5097   1.5161   1.5272   1.5344   1.5399   1.5429   1.5504   1.5615
  1.5668   1.5875   1.5926   1.6097   1.6221   1.6252   1.6359   1.6466
  1.6581   1.6697   1.6732   1.6962   1.7008   1.7172   1.7192   1.7336
  1.7508   1.7607   1.7764   1.8100   1.8197   1.8286   1.8516   1.8631
  1.8889   1.8982   1.9079   1.9351   1.9528   1.9619   1.9895   2.0015
  2.0168   2.0422   2.0617   2.0785   2.0909   2.1108   2.1521   2.1539
  2.1868   2.1941   2.2048   2.2178   2.2329   2.2565   2.2712   2.2789
  2.2871   2.2973   2.3114   2.3933   2.4202   2.4416   2.4583   2.4746
  2.4933   2.5180   2.5277   2.5471   2.5708   2.5805   2.5856   2.6071
  2.6352   2.6518   2.6558   2.6683   2.6746   2.6967   2.7182   2.7377
  2.7533   2.7582   2.7640   2.7737   2.7875   2.7969   2.8014   2.8085
  2.8266   2.8472   2.8528   2.8771   2.8819   2.8998   2.9139   2.9397
  2.9550   2.9673   2.9757   2.9879   3.0092   3.0289   3.0393   3.0459
  3.0654   3.0824   3.0877   3.1042   3.1108   3.1178   3.1274   3.1407
  3.1432   3.1624   3.1691   3.1749   3.1801   3.1954   3.1967   3.2164
  3.2257   3.2408   3.2472   3.2614   3.2748   3.2824   3.2970   3.3077
  3.3172   3.3302   3.3353   3.3417   3.3480   3.3550   3.3586   3.3726
  3.3751   3.3848   3.3941   3.4026   3.4048   3.4170   3.4234   3.4347
  3.4411   3.4518   3.4597   3.4622   3.4782   3.4848   3.4924   3.5094
  3.5108   3.5263   3.5338   3.5395   3.5511   3.5655   3.5683   3.5874
  3.5977   3.6019   3.6066   3.6201   3.6308   3.6377   3.6487   3.6620
  3.6757   3.6910   3.6985   3.7035   3.7163   3.7267   3.7309   3.7332
  3.7454   3.7613   3.7665   3.7751   3.7898   3.7942   3.7998   3.8108
  3.8221   3.8448   3.8600   3.8651   3.8738   3.8803   3.8986   3.9149
  3.9203   3.9516   3.9596   3.9669   3.9807   3.9970   4.0184   4.0256
  4.0333   4.0494   4.0601   4.0658   4.0760   4.0783   4.0982   4.1072
  4.1174   4.1380   4.1500   4.1556   4.1664   4.1713   4.1828   4.1996
  4.2228   4.2250   4.2308   4.2451   4.2493   4.2605   4.2718   4.2927
  4.3026   4.3127   4.3221   4.3396   4.3508   4.3549   4.3627   4.3705
  4.3779   4.3953   4.4025   4.4196   4.4276   4.4402   4.4478   4.4519
  4.4578   4.4711   4.4792   4.4900   4.4981   4.5101   4.5474   4.5870
  4.6015   4.6040   4.6176   4.6279   4.6491   4.6505   4.6599   4.6874
  4.7050   4.7389   4.7728   4.7799   4.7941   4.8101   4.8248   4.8581
  4.8621   4.8685   4.8844   4.9172   4.9313   4.9525   4.9905   4.9943
  5.0417   5.0628   5.0960   5.1033   5.1174   5.1304   5.1633   5.2004
  5.2119   5.2310   5.2447   5.2675   5.2866   5.3010   5.3119   5.3252
  5.3521   5.3715   5.3750   5.4082   5.4104   5.4218   5.4365   5.4427
  5.4794   5.5200   5.5355   5.5421   5.5500   5.5671   5.5767   5.5997
  5.6161   5.6245   5.6306   5.6601   5.6847   5.7032   5.7120   5.7373
  5.7724   5.8153   5.8424   5.9758   6.0250   6.0882   6.1361   6.1711
  6.2115   6.2286   6.2378   6.2606   6.2654   6.2914   6.3177   6.3650
  6.4265   6.5221   9.5357  10.8781  12.0624  12.9377  13.1734  13.9277
 14.1185  14.2111  14.3621  14.9070
 --------------------------------------------------------------
 
          Ground-State Mulliken Net Atomic Charges

     Atom                 Charge (a.u.)
  ----------------------------------------
      1 C                    -0.075823
      2 C                    -0.317996
      3 C                    -0.042496
      4 H                     0.178594
      5 C                     0.120970
      6 S                    -0.177380
      7 C                    -0.303552
      8 H                     0.122256
      9 H                     0.111123
     10 H                     0.105441
     11 C                    -0.055398
     12 C                    -0.275584
     13 C                     0.039470
     14 H                     0.190223
     15 C                    -0.271624
     16 S                     0.005121
     17 C                    -0.271881
     18 H                     0.100427
     19 H                     0.108429
     20 H                     0.108233
     21 H                     0.197544
     22 H                     0.111471
     23 H                     0.114202
     24 H                     0.178228
  ----------------------------------------
  Sum of atomic charges =     0.000000

 -----------------------------------------------------------------
                    Cartesian Multipole Moments
 -----------------------------------------------------------------
    Charge (ESU x 10^10)
                -0.0000
    Dipole Moment (Debye)
         X      -0.7591      Y      -0.3203      Z       3.5663
       Tot       3.6603
    Quadrupole Moments (Debye-Ang)
        XX     -90.7004     XY       5.2532     YY     -74.1845
        XZ       0.5058     YZ      -2.1145     ZZ     -85.5347
    Octopole Moments (Debye-Ang^2)
       XXX     -72.1830    XXY      53.0097    XYY     -14.3428
       YYY     122.0337    XXZ      -3.0039    XYZ      -0.2591
       YYZ      -4.9982    XZZ     -22.8439    YZZ      52.5876
       ZZZ       8.0280
    Hexadecapole Moments (Debye-Ang^3)
      XXXX    -273.0635   XXXY    -162.0964   XXYY    -543.5068
      XYYY    -126.0222   YYYY   -2676.3364   XXXZ      19.6944
      XXYZ     -29.2281   XYYZ      -3.6873   YYYZ     -96.4437
      XXZZ    -235.4692   XYZZ     -37.6494   YYZZ    -639.7535
      XZZZ      12.8834   YZZZ    -125.2119   ZZZZ   -1080.1437
 -----------------------------------------------------------------
 Total job time:  663.08s(wall), 658.65s(cpu) 
 Sun Jul 10 03:26:58 2022

        *************************************************************
        *                                                           *
        *  Thank you very much for using Q-Chem.  Have a nice day.  *
        *                                                           *
        *************************************************************


remove work dirs ./qchem914729.0 -- ./qchem914729.-1
rm -rf ./qchem914729
