You are running Q-Chem version: 5.4.0

#
# job setting
#
local host:  exp-1-46
current dir: /expanse/lustre/scratch/theleonzhang/temp_project/Hydrogenated_Rotation_Test
input file:  Methylthiophene_Phi_20_Theta_350_Methylthiophene_Hydrogenated.qcin
output file: 
nprocs     : 0
nthreads   : 1
#
# qchem installation setting
#
QC:          /cm/shared/apps/spack/cpu/opt/spack/linux-centos8-zen2/gcc-10.2.0/qchem-5.4-akfmr7b3t57bfs6qan3padb2wnb2i7cl
QCAUX:       /cm/shared/apps/spack/cpu/opt/spack/linux-centos8-zen2/gcc-10.2.0/qchem-5.4-akfmr7b3t57bfs6qan3padb2wnb2i7cl/qcaux
QCPROG:      /cm/shared/apps/spack/cpu/opt/spack/linux-centos8-zen2/gcc-10.2.0/qchem-5.4-akfmr7b3t57bfs6qan3padb2wnb2i7cl/exe/qcprog.exe_s
QCPROG_S:    /cm/shared/apps/spack/cpu/opt/spack/linux-centos8-zen2/gcc-10.2.0/qchem-5.4-akfmr7b3t57bfs6qan3padb2wnb2i7cl/exe/qcprog.exe_s
PARALLEL:    -DSERIAL
QCMPI:       mpich
#
# qchem directory setting
#
qcrun:       qchem4088651
QCSCRATCH:   .
QCLOCALSCR:  
QCTMPDIR:    .
QCFILEPREF:  ./qchem4088651
QCSAVEDIR:   
workdirs:    ./qchem4088651
workdir0:    ./qchem4088651
partmpdirs =  
#
# parallel setting
#
QCRSH:           ssh
QCMPI:           mpich
QCMPIRUN:        /cm/shared/apps/spack/cpu/opt/spack/linux-centos8-zen2/gcc-10.2.0/qchem-5.4-akfmr7b3t57bfs6qan3padb2wnb2i7cl/bin/mpi/mpirun_qchem
QCMACHINEFILE:   ./qchem4088651/hostfile

#
# env setting
#
exported envs:   QC QCAUX QCSCRATCH QCRUNNAME QCFILEPREF QCPROG QCPROG_S GUIFILE

Running Job 1 of 1 Methylthiophene_Phi_20_Theta_350_Methylthiophene_Hydrogenated.qcin
qchem Methylthiophene_Phi_20_Theta_350_Methylthiophene_Hydrogenated.qcin_4088651.0 ./qchem4088651/ 0
/cm/shared/apps/spack/cpu/opt/spack/linux-centos8-zen2/gcc-10.2.0/qchem-5.4-akfmr7b3t57bfs6qan3padb2wnb2i7cl/exe/qcprog.exe_s Methylthiophene_Phi_20_Theta_350_Methylthiophene_Hydrogenated.qcin_4088651.0 ./qchem4088651/
                  Welcome to Q-Chem
     A Quantum Leap Into The Future Of Chemistry


 Q-Chem 5.4, Q-Chem, Inc., Pleasanton, CA (2021)

 License issued to: University of California, San Diego (site)

 E. Epifanovsky,  A. T. B. Gilbert,  Xintian Feng,  Joonho Lee,  Yuezhi Mao,  
 N. Mardirossian,  P. Pokhilko,  A. White,  M. Wormit,  M. P. Coons,  
 A. L. Dempwolff,  Zhengting Gan,  D. Hait,  P. R. Horn,  L. D. Jacobson,  
 I. Kaliman,  J. Kussmann,  A. W. Lange,  Ka Un Lao,  D. S. Levine,  Jie Liu,  
 S. C. McKenzie,  A. F. Morrison,  K. Nanda,  F. Plasser,  D. R. Rehn,  
 M. L. Vidal,  Zhi-Qiang You,  Ying Zhu,  B. Alam,  B. Albrecht,  
 A. Aldossary,  E. Alguire,  J. H. Andersen,  D. Barton,  K. Begam,  A. Behn,  
 Y. A. Bernard,  E. J. Berquist,  H. Burton,  A. Carreras,  K. Carter-Fenk,  
 R. Chakraborty,  A. D. Chien,  K. D. Closser,  V. Cofer-Shabica,  
 S. Dasgupta,  Jia Deng,  M. de Wergifosse,  M. Diedenhofen,  Hainam Do,  
 S. Ehlert,  Po-Tung Fang,  S. Fatehi,  Qingguo Feng,  J. Gayvert,  
 Qinghui Ge,  G. Gidofalvi,  M. Goldey,  J. Gomes,  C. Gonzalez-Espinoza,  
 S. Gulania,  A. Gunina,  M. W. D. Hanson-Heine,  P. H. P. Harbach,  
 A. W. Hauser,  M. F. Herbst,  M. Hernandez Vera,  M. Hodecker,  
 Z. C. Holden,  S. Houck,  Xunkun Huang,  Kerwin Hui,  B. C. Huynh,  
 M. Ivanov,  Hyunjun Ji,  Hanjie Jiang,  B. Kaduk,  S. Kaehler,  
 K. Khistyaev,  Jaehoon Kim,  P. Klunzinger,  Z. Koczor-Benda,  
 Joong Hoon Koh,  D. Kosenkov,  L. Koulias,  T. Kowalczyk,  C. M. Krauter,  
 K. Kue,  A. Kunitsa,  T. Kus,  A. Landau,  K. V. Lawler,  D. Lefrancois,  
 S. Lehtola,  Rain Li,  Yi-Pei Li,  Jiashu Liang,  M. Liebenthal,  
 Hung-Hsuan Lin,  You-Sheng Lin,  Fenglai Liu,  Kuan-Yu Liu,  
 M. Loipersberger,  A. Luenser,  A. Manjanath,  P. Manohar,  E. Mansoor,  
 S. F. Manzer,  Shan-Ping Mao,  A. V. Marenich,  T. Markovich,  S. Mason,  
 S. A. Maurer,  P. F. McLaughlin,  M. F. S. J. Menger,  J.-M. Mewes,  
 S. A. Mewes,  P. Morgante,  J. W. Mullinax,  T. S. Nguyen-Beck,  
 K. J. Oosterbaan,  G. Paran,  Alexander C. Paul,  Suranjan K. Paul,  
 F. Pavosevic,  Zheng Pei,  S. Prager,  E. I. Proynov,  E. Ramos,  B. Rana,  
 A. E. Rask,  A. Rettig,  R. M. Richard,  F. Rob,  E. Rossomme,  T. Scheele,  
 M. Scheurer,  M. Schneider,  N. Sergueev,  S. M. Sharada,  W. Skomorowski,  
 D. W. Small,  C. J. Stein,  Yu-Chuan Su,  E. J. Sundstrom,  Zhen Tao,  
 J. Thirman,  T. Tsuchimochi,  N. M. Tubman,  S. P. Veccham,  O. Vydrov,  
 J. Wenzel,  J. Witte,  A. Yamada,  Kun Yao,  S. Yeganeh,  S. R. Yost,  
 A. Zech,  Igor Ying Zhang,  Xing Zhang,  Yu Zhang,  D. Zuev,  
 A. Aspuru-Guzik,  A. T. Bell,  N. A. Besley,  K. B. Bravaya,  B. R. Brooks,  
 D. Casanova,  Jeng-Da Chai,  S. Coriani,  C. J. Cramer,  
 A. E. DePrince, III,  R. A. DiStasio Jr.,  A. Dreuw,  B. D. Dunietz,  
 T. R. Furlani,  W. A. Goddard III,  S. Grimme,  S. Hammes-Schiffer,  
 T. Head-Gordon,  W. J. Hehre,  Chao-Ping Hsu,  T.-C. Jagau,  Yousung Jung,  
 A. Klamt,  Jing Kong,  D. S. Lambrecht,  WanZhen Liang,  N. J. Mayhall,  
 C. W. McCurdy,  J. B. Neaton,  C. Ochsenfeld,  J. A. Parkhill,  R. Peverati,  
 V. A. Rassolov,  Yihan Shao,  L. V. Slipchenko,  T. Stauch,  R. P. Steele,  
 J. E. Subotnik,  A. J. W. Thom,  A. Tkatchenko,  D. G. Truhlar,  
 T. Van Voorhis,  T. A. Wesolowski,  K. B. Whaley,  H. L. Woodcock III,  
 P. M. Zimmerman,  S. Faraji,  P. M. W. Gill,  M. Head-Gordon,  
 J. M. Herbert,  A. I. Krylov

 Contributors to earlier versions of Q-Chem not listed above: 
 R. D. Adamson,  B. Austin,  R. Baer,  J. Baker,  G. J. O. Beran,  
 K. Brandhorst,  S. T. Brown,  E. F. C. Byrd,  A. K. Chakraborty,  
 G. K. L. Chan,  Chun-Min Chang,  Yunqing Chen,  C.-L. Cheng,  
 Siu Hung Chien,  D. M. Chipman,  D. L. Crittenden,  H. Dachsel,  
 R. J. Doerksen,  A. D. Dutoi,  R. G. Edgar,  J. Fosso-Tande,  
 L. Fusti-Molnar,  D. Ghosh,  A. Ghysels,  A. Golubeva-Zadorozhnaya,  
 J. Gonthier,  M. S. Gordon,  S. R. Gwaltney,  G. Hawkins,  J. E. Herr,  
 A. Heyden,  S. Hirata,  E. G. Hohenstein,  G. Kedziora,  F. J. Keil,  
 C. Kelley,  Jihan Kim,  R. A. King,  R. Z. Khaliullin,  P. P. Korambath,  
 W. Kurlancheek,  A. Laurent,  A. M. Lee,  M. S. Lee,  S. V. Levchenko,  
 Ching Yeh Lin,  D. Liotard,  E. Livshits,  R. C. Lochan,  I. Lotan,  
 L. A. Martinez-Martinez,  P. E. Maslen,  N. Nair,  D. P. O'Neill,  
 D. Neuhauser,  E. Neuscamman,  C. M. Oana,  R. Olivares-Amaya,  R. Olson,  
 T. M. Perrine,  B. Peters,  P. A. Pieniazek,  A. Prociuk,  Y. M. Rhee,  
 J. Ritchie,  M. A. Rohrdanz,  E. Rosta,  N. J. Russ,  H. F. Schaefer III,  
 M. W. Schmidt,  N. E. Schultz,  S. Sharma,  N. Shenvi,  C. D. Sherrill,  
 A. C. Simmonett,  A. Sodt,  T. Stein,  D. Stuck,  K. S. Thanthiriwatte,  
 V. Vanovschi,  L. Vogt,  Tao Wang,  A. Warshel,  M. A. Watson,  
 C. F. Williams,  Q. Wu,  X. Xu,  Jun Yang,  W. Zhang,  Yan Zhao

 Please cite Q-Chem as follows:
 Y. Shao et al., Mol. Phys. 113, 184-215 (2015)
 DOI: 10.1080/00268976.2014.952696

 Q-Chem 5.4.0 for Intel X86 EM64T Linux

 Parts of Q-Chem use Armadillo 9.800.1 (Horizon Scraper).
 http://arma.sourceforge.net/

 Q-Chem begins on Sun Jul 10 05:49:28 2022  

 Host: 
0

     Scratch files written to ./qchem4088651//
 May1621 |scratch|qcdevops|jenkins|workspace|build_RNUM    
 Processing $rem in /cm/shared/apps/spack/cpu/opt/spack/linux-centos8-zen2/gcc-10.2.0/qchem-5.4-akfmr7b3t57bfs6qan3padb2wnb2i7cl/config/preferences:
 Processing $rem in /home/theleonzhang/.qchemrc:
 Symmetry turned off for PCM/SM12/SMD calculation
 Core orbitals will be frozen

 Checking the input file for inconsistencies... 	...done.

--------------------------------------------------------------
User input:
--------------------------------------------------------------
$molecule
0 1
C	0.133897	-3.866725	0.763475
C	-0.106669	-3.703963	-0.603206
C	-0.185154	-2.357056	-1.050446
H	-0.226709	-4.561092	-1.283024
C	0.000000	-1.440664	0.000000
S	0.268206	-2.286957	1.521018
C	-0.437628	-1.978743	-2.483610
H	-0.549717	-2.878678	-3.118875
H	0.394664	-1.376015	-2.903464
H	-1.363110	-1.375728	-2.593726
C	0.000000	0.000000	0.000000
C	0.295399	0.811508	1.099446
C	0.768742	2.111949	0.776721
H	0.169256	0.464952	2.136088
C	0.844232	2.319291	-0.612546
S	0.322342	0.885558	-1.486809
C	1.140796	3.134091	1.814609
H	0.995218	2.734123	2.836676
H	0.526006	4.054142	1.726239
H	2.203157	3.443680	1.726228
H	1.168902	3.211257	-1.161575
H	1.077442	-4.392713	0.946698
H	-0.690363	-4.392347	1.258274
H	-1.063612	-1.440391	0.187427
$end

$rem
JOBTYPE		SP
EXCHANGE	HF
CORRELATION	pRIMP2
BASIS		cc-pvtz
METHOD		rimp2
AUX_BASIS	rimp2-cc-pvtz
SOLVENT_METHOD	PCM
PURECART	11111
SYMMETRY	false
MEM_TOTAL	110000
SCF_CONVERGENCE = 6
THRESH=10
$end



$solvent
dielectric 4.90
$end
--------------------------------------------------------------
 ----------------------------------------------------------------
             Standard Nuclear Orientation (Angstroms)
    I     Atom           X                Y                Z
 ----------------------------------------------------------------
    1      C       0.1338970000    -3.8667250000     0.7634750000
    2      C      -0.1066690000    -3.7039630000    -0.6032060000
    3      C      -0.1851540000    -2.3570560000    -1.0504460000
    4      H      -0.2267090000    -4.5610920000    -1.2830240000
    5      C       0.0000000000    -1.4406640000     0.0000000000
    6      S       0.2682060000    -2.2869570000     1.5210180000
    7      C      -0.4376280000    -1.9787430000    -2.4836100000
    8      H      -0.5497170000    -2.8786780000    -3.1188750000
    9      H       0.3946640000    -1.3760150000    -2.9034640000
   10      H      -1.3631100000    -1.3757280000    -2.5937260000
   11      C       0.0000000000     0.0000000000     0.0000000000
   12      C       0.2953990000     0.8115080000     1.0994460000
   13      C       0.7687420000     2.1119490000     0.7767210000
   14      H       0.1692560000     0.4649520000     2.1360880000
   15      C       0.8442320000     2.3192910000    -0.6125460000
   16      S       0.3223420000     0.8855580000    -1.4868090000
   17      C       1.1407960000     3.1340910000     1.8146090000
   18      H       0.9952180000     2.7341230000     2.8366760000
   19      H       0.5260060000     4.0541420000     1.7262390000
   20      H       2.2031570000     3.4436800000     1.7262280000
   21      H       1.1689020000     3.2112570000    -1.1615750000
   22      H       1.0774420000    -4.3927130000     0.9466980000
   23      H      -0.6903630000    -4.3923470000     1.2582740000
   24      H      -1.0636120000    -1.4403910000     0.1874270000
 ----------------------------------------------------------------
 Nuclear Repulsion Energy =         878.61117974 hartrees
 There are       52 alpha and       52 beta electrons

 Q-Chem warning in module forms1/BasisType.C, line 2236:

 You are not using the predefined 5D/6D in this basis set.

 Requested basis set is cc-pVTZ
 There are 196 shells and 536 basis functions

 Total QAlloc Memory Limit 110000 MB
 Mega-Array Size       188 MB
 MEM_STATIC part       192 MB
 Discretize the solute cavity surface with Lebedev spheres
	Using 110 Lebedev grid points for each H atom
	Using 194 Lebedev grid points for other atoms
	Atomic van der Waals radii will be scaled by 1.20
 Remove points where switching function is < 1.0e-08
 Keep 1590 surface tesserae and discard 2058 interior tesserae
 Molecular Surface Area = 229.825 Angst**2
 Requested basis set is rimp2-cc-pVTZ
 There are 414 shells and 1414 basis functions
 A cutoff of  1.0D-10 yielded  13911 shell pairs
 There are    100797 function pairs (    129228 Cartesian)
 Smallest overlap matrix eigenvalue = 5.92E-05

 Scale SEOQF with 1.000000e-01/1.000000e-01/1.000000e-01

 Standard Electronic Orientation quadrupole field applied
 Nucleus-field energy     =     0.0000000208 hartrees
 Guess from superposition of atomic densities
 Warning:  Energy on first SCF cycle will be non-variational
 SAD guess density has 104.000000 electrons

 -----------------------------------------------------------------------
  General SCF calculation program by
  Eric Jon Sundstrom, Paul Horn, Yuezhi Mao, Dmitri Zuev, Alec White,
  David Stuck, Shaama M.S., Shane Yost, Joonho Lee, David Small,
  Daniel Levine, Susi Lehtola, Hugh Burton, Evgeny Epifanovsky,
  Bang C. Huynh
 -----------------------------------------------------------------------
 Hartree-Fock
 A restricted SCF calculation will be
 performed using DIIS
 SCF converges when DIIS error is below 1.0e-06
 ---------------------------------------
  Cycle       Energy         DIIS error
 ---------------------------------------
    1   -1186.0600466776      2.39e-02  
    2   -1180.5994688267      1.58e-03  
    3   -1180.7254160212      6.55e-04  
    4   -1180.7413435297      3.52e-04  
    5   -1180.7470706459      5.96e-05  
    6   -1180.7473220321      2.46e-05  
    7   -1180.7473794596      8.63e-06  
    8   -1180.7473913225      4.11e-06  
    9   -1180.7473939175      1.40e-06  
   10   -1180.7473943234      5.12e-07  Convergence criterion met
 ---------------------------------------
 SCF time:   CPU 572.44s  wall 575.00s 

************** Final PCM Free Energy Summary **************
 G_electrostatic  =      -0.00825683 hartree =      -5.18124028 kcal/mol
 G_cavitation     =       0.00000000 hartree =       0.00000000 kcal/mol
 G_dispersion     =       0.00000000 hartree =       0.00000000 kcal/mol
 G_repulsion      =       0.00000000 hartree =       0.00000000 kcal/mol
 --------------------------------------------------
 Non-electrostatic Free Energy =       0.00000000 hartree =       0.00000000 kcal/mol
 Total                         =      -0.00825683 hartree =      -5.18124028 kcal/mol
 --------------------------------------------------
 SCF Energy (H0 + V/2)                       =   -1180.74739432 
 Solute Internal Energy (H0)                 =   -1180.73913749 
 Total Free Energy (H0 + V/2 + non-elec)     =   -1180.74739432 hartree
                                             = -740930.17279653 kcal/mol
***********************************************************

 SCF   energy in the final basis set =    -1180.7473943234
 Total energy in the final basis set =    -1180.7473943234


 --------------------------------------------------------------
  Generalized many-body perturbation theory program
  by Joonho Lee, Fazle Rob, Xintian Feng, Evgeny Epifanovsky

 No regularization used 
 (reg. param. = 0.0000e+00)
  (P|Q)^-1/2 Time:  CPU 2.31 s  wall 2.32 s

 In RI-MP2 calculation: 
 # of frozen core orbitals: 20

 Components of the RIMP2 correlation energy:
        aaaa    correlation energy =        -0.2521121196 a.u.
        abab    correlation energy =        -1.5048223763 a.u.
        bbbb    correlation energy =        -0.2521121196 a.u.
        non-Brillouin singles      =        -0.0000000000 a.u.
        total same-spin energy     =        -0.5042242392 a.u.
        total opposite-spin energy =        -1.5048223763 a.u.

 Total  RIMP2   correlation energy =        -2.0090466155 a.u.
        RIMP2         total energy =     -1182.7564409389 a.u.

 RI-MP2 Energy Time:  CPU 117.83 s  wall 118.35 s
 
 --------------------------------------------------------------
 
                    Orbital Energies (a.u.)
 --------------------------------------------------------------
 
 Alpha MOs
 -- Occupied --
-91.9806 -91.9460 -11.2869 -11.2660 -11.2594 -11.2558 -11.2503 -11.2435
-11.2337 -11.2327 -11.2276 -11.2217  -8.9808  -8.9505  -6.6617  -6.6611
 -6.6604  -6.6319  -6.6309  -6.6296  -1.2021  -1.1525  -1.0604  -1.0284
 -1.0070  -0.9565  -0.9161  -0.9017  -0.8149  -0.7720  -0.7183  -0.7040
 -0.6595  -0.6474  -0.6108  -0.5912  -0.5829  -0.5733  -0.5678  -0.5539
 -0.5415  -0.5345  -0.5159  -0.5112  -0.4875  -0.4805  -0.4576  -0.4453
 -0.3586  -0.3413  -0.3263  -0.2630
 -- Virtual --
  0.0990   0.1331   0.1445   0.1506   0.1592   0.1709   0.1788   0.1831
  0.1892   0.1956   0.2051   0.2109   0.2252   0.2327   0.2396   0.2426
  0.2539   0.2590   0.2764   0.3028   0.3210   0.3362   0.3514   0.3620
  0.3729   0.3736   0.3853   0.3963   0.4087   0.4167   0.4192   0.4289
  0.4435   0.4531   0.4578   0.4601   0.4779   0.4803   0.4862   0.5043
  0.5077   0.5103   0.5227   0.5317   0.5445   0.5497   0.5506   0.5566
  0.5720   0.5750   0.5857   0.6011   0.6055   0.6126   0.6156   0.6183
  0.6228   0.6250   0.6316   0.6369   0.6395   0.6474   0.6511   0.6523
  0.6619   0.6723   0.6828   0.6882   0.6960   0.7146   0.7232   0.7296
  0.7393   0.7519   0.7597   0.7844   0.7877   0.8004   0.8093   0.8172
  0.8392   0.8515   0.8575   0.8665   0.8801   0.9000   0.9059   0.9237
  0.9273   0.9379   0.9564   0.9657   0.9744   0.9861   1.0030   1.0050
  1.0130   1.0256   1.0352   1.0506   1.0540   1.0647   1.0782   1.0807
  1.0879   1.0990   1.1052   1.1262   1.1393   1.1527   1.1548   1.1612
  1.1743   1.1841   1.1947   1.2157   1.2188   1.2220   1.2312   1.2486
  1.2629   1.2637   1.2712   1.2764   1.2821   1.2919   1.2978   1.3059
  1.3221   1.3301   1.3400   1.3661   1.3789   1.3930   1.3991   1.4044
  1.4155   1.4259   1.4455   1.4580   1.4737   1.4747   1.4792   1.4917
  1.5057   1.5152   1.5208   1.5299   1.5365   1.5432   1.5473   1.5547
  1.5674   1.5796   1.5869   1.5940   1.6096   1.6258   1.6369   1.6448
  1.6523   1.6651   1.6739   1.6891   1.7071   1.7156   1.7265   1.7389
  1.7537   1.7665   1.7741   1.8023   1.8126   1.8267   1.8385   1.8469
  1.8901   1.9234   1.9304   1.9402   1.9656   1.9753   1.9905   2.0042
  2.0142   2.0282   2.0565   2.0643   2.0790   2.1005   2.1446   2.1609
  2.1888   2.2027   2.2043   2.2196   2.2239   2.2415   2.2776   2.2858
  2.2952   2.3166   2.3459   2.3643   2.4138   2.4419   2.4528   2.4723
  2.4861   2.5120   2.5444   2.5482   2.5763   2.5821   2.5958   2.6196
  2.6404   2.6441   2.6576   2.6605   2.6720   2.6945   2.7080   2.7294
  2.7493   2.7535   2.7667   2.7735   2.7787   2.7806   2.8003   2.8196
  2.8276   2.8384   2.8509   2.8856   2.8896   2.8969   2.9084   2.9301
  2.9579   2.9710   2.9813   2.9836   2.9962   3.0123   3.0386   3.0485
  3.0566   3.0703   3.0901   3.1029   3.1049   3.1139   3.1239   3.1346
  3.1463   3.1599   3.1677   3.1785   3.1853   3.1909   3.2093   3.2228
  3.2247   3.2423   3.2556   3.2583   3.2682   3.2769   3.2979   3.3036
  3.3057   3.3298   3.3330   3.3405   3.3450   3.3516   3.3591   3.3685
  3.3776   3.3857   3.3875   3.3969   3.4156   3.4204   3.4223   3.4246
  3.4395   3.4456   3.4614   3.4741   3.4821   3.4885   3.4975   3.5035
  3.5066   3.5201   3.5248   3.5399   3.5512   3.5644   3.5728   3.5777
  3.5941   3.6120   3.6151   3.6275   3.6315   3.6415   3.6468   3.6576
  3.6658   3.6880   3.7004   3.7054   3.7121   3.7250   3.7335   3.7403
  3.7469   3.7607   3.7686   3.7776   3.7804   3.7915   3.8118   3.8141
  3.8330   3.8395   3.8530   3.8650   3.8670   3.8847   3.8965   3.9212
  3.9296   3.9387   3.9604   3.9673   3.9764   3.9858   3.9988   4.0137
  4.0222   4.0397   4.0452   4.0552   4.0659   4.0803   4.0934   4.1081
  4.1198   4.1325   4.1485   4.1564   4.1652   4.1757   4.1835   4.2060
  4.2106   4.2250   4.2358   4.2382   4.2513   4.2651   4.2739   4.2824
  4.2931   4.2955   4.3226   4.3413   4.3487   4.3529   4.3580   4.3639
  4.3747   4.3878   4.4037   4.4122   4.4170   4.4310   4.4403   4.4497
  4.4590   4.4636   4.4804   4.4900   4.5099   4.5223   4.5561   4.5762
  4.5874   4.5929   4.6108   4.6357   4.6389   4.6408   4.6719   4.6966
  4.7091   4.7274   4.7485   4.7790   4.7827   4.8122   4.8183   4.8229
  4.8510   4.8660   4.8890   4.9091   4.9242   4.9418   4.9688   4.9754
  5.0367   5.0670   5.0815   5.0947   5.1144   5.1248   5.1532   5.1782
  5.1967   5.2180   5.2460   5.2640   5.2853   5.2938   5.3063   5.3294
  5.3514   5.3644   5.3732   5.3949   5.4073   5.4148   5.4401   5.4577
  5.4784   5.5103   5.5222   5.5428   5.5544   5.5587   5.5677   5.5928
  5.6199   5.6342   5.6496   5.6625   5.6798   5.6981   5.7020   5.7353
  5.7602   5.7923   5.8442   5.9846   6.0017   6.1001   6.1371   6.1465
  6.2194   6.2285   6.2367   6.2427   6.2653   6.2846   6.3029   6.3152
  6.4153   6.4781   9.5415  10.7480  12.0973  12.9590  13.1748  13.9281
 14.1145  14.2644  14.3783  14.7316
 --------------------------------------------------------------
 
          Ground-State Mulliken Net Atomic Charges

     Atom                 Charge (a.u.)
  ----------------------------------------
      1 C                    -0.074108
      2 C                    -0.324073
      3 C                    -0.044793
      4 H                     0.178822
      5 C                     0.132958
      6 S                    -0.184677
      7 C                    -0.309394
      8 H                     0.121605
      9 H                     0.113239
     10 H                     0.114408
     11 C                    -0.019320
     12 C                    -0.330509
     13 C                     0.060089
     14 H                     0.178579
     15 C                    -0.277574
     16 S                     0.012660
     17 C                    -0.270748
     18 H                     0.102729
     19 H                     0.108132
     20 H                     0.108770
     21 H                     0.195148
     22 H                     0.113044
     23 H                     0.111494
     24 H                     0.183521
  ----------------------------------------
  Sum of atomic charges =     0.000000

 -----------------------------------------------------------------
                    Cartesian Multipole Moments
 -----------------------------------------------------------------
    Charge (ESU x 10^10)
                -0.0000
    Dipole Moment (Debye)
         X      -0.7940      Y      -0.3129      Z      -0.8307
       Tot       1.1909
    Quadrupole Moments (Debye-Ang)
        XX     -90.7095     XY       5.2673     YY     -74.4640
        XZ       0.2075     YZ       4.3427     ZZ     -85.4001
    Octopole Moments (Debye-Ang^2)
       XXX     -72.2618    XXY      53.0595    XYY     -14.4365
       YYY     122.7781    XXZ       0.1879    XYZ      -0.9128
       YYZ      -0.9698    XZZ     -22.8956    YZZ      52.4278
       ZZZ      -3.3259
    Hexadecapole Moments (Debye-Ang^3)
      XXXX    -273.0050   XXXY    -162.0332   XXYY    -543.6501
      XYYY    -125.8028   YYYY   -2680.9881   XXXZ     -83.3950
      XXYZ     -31.4488   XYYZ     -27.5009   YYYZ    -102.0640
      XXZZ    -235.4225   XYZZ     -37.5890   YYZZ    -639.9821
      XZZZ     -80.9070   YZZZ     -56.1681   ZZZZ   -1077.4524
 -----------------------------------------------------------------
 Total job time:  695.89s(wall), 691.31s(cpu) 
 Sun Jul 10 06:01:04 2022

        *************************************************************
        *                                                           *
        *  Thank you very much for using Q-Chem.  Have a nice day.  *
        *                                                           *
        *************************************************************


remove work dirs ./qchem4088651.0 -- ./qchem4088651.-1
rm -rf ./qchem4088651
You are running Q-Chem version: 5.4.0

#
# job setting
#
local host:  exp-3-09
current dir: /expanse/lustre/scratch/theleonzhang/temp_project/Hydrogenated_Rotation_Test
input file:  Methylthiophene_Phi_20_Theta_350_Methylthiophene_Hydrogenated.qcin
output file: 
nprocs     : 0
nthreads   : 1
#
# qchem installation setting
#
QC:          /cm/shared/apps/spack/cpu/opt/spack/linux-centos8-zen2/gcc-10.2.0/qchem-5.4-akfmr7b3t57bfs6qan3padb2wnb2i7cl
QCAUX:       /cm/shared/apps/spack/cpu/opt/spack/linux-centos8-zen2/gcc-10.2.0/qchem-5.4-akfmr7b3t57bfs6qan3padb2wnb2i7cl/qcaux
QCPROG:      /cm/shared/apps/spack/cpu/opt/spack/linux-centos8-zen2/gcc-10.2.0/qchem-5.4-akfmr7b3t57bfs6qan3padb2wnb2i7cl/exe/qcprog.exe_s
QCPROG_S:    /cm/shared/apps/spack/cpu/opt/spack/linux-centos8-zen2/gcc-10.2.0/qchem-5.4-akfmr7b3t57bfs6qan3padb2wnb2i7cl/exe/qcprog.exe_s
PARALLEL:    -DSERIAL
QCMPI:       mpich
#
# qchem directory setting
#
qcrun:       qchem988200
QCSCRATCH:   .
QCLOCALSCR:  
QCTMPDIR:    .
QCFILEPREF:  ./qchem988200
QCSAVEDIR:   
workdirs:    ./qchem988200
workdir0:    ./qchem988200
partmpdirs =  
#
# parallel setting
#
QCRSH:           ssh
QCMPI:           mpich
QCMPIRUN:        /cm/shared/apps/spack/cpu/opt/spack/linux-centos8-zen2/gcc-10.2.0/qchem-5.4-akfmr7b3t57bfs6qan3padb2wnb2i7cl/bin/mpi/mpirun_qchem
QCMACHINEFILE:   ./qchem988200/hostfile

#
# env setting
#
exported envs:   QC QCAUX QCSCRATCH QCRUNNAME QCFILEPREF QCPROG QCPROG_S GUIFILE

Running Job 1 of 1 Methylthiophene_Phi_20_Theta_350_Methylthiophene_Hydrogenated.qcin
qchem Methylthiophene_Phi_20_Theta_350_Methylthiophene_Hydrogenated.qcin_988200.0 ./qchem988200/ 0
/cm/shared/apps/spack/cpu/opt/spack/linux-centos8-zen2/gcc-10.2.0/qchem-5.4-akfmr7b3t57bfs6qan3padb2wnb2i7cl/exe/qcprog.exe_s Methylthiophene_Phi_20_Theta_350_Methylthiophene_Hydrogenated.qcin_988200.0 ./qchem988200/
                  Welcome to Q-Chem
     A Quantum Leap Into The Future Of Chemistry


 Q-Chem 5.4, Q-Chem, Inc., Pleasanton, CA (2021)

 License issued to: University of California, San Diego (site)

 E. Epifanovsky,  A. T. B. Gilbert,  Xintian Feng,  Joonho Lee,  Yuezhi Mao,  
 N. Mardirossian,  P. Pokhilko,  A. White,  M. Wormit,  M. P. Coons,  
 A. L. Dempwolff,  Zhengting Gan,  D. Hait,  P. R. Horn,  L. D. Jacobson,  
 I. Kaliman,  J. Kussmann,  A. W. Lange,  Ka Un Lao,  D. S. Levine,  Jie Liu,  
 S. C. McKenzie,  A. F. Morrison,  K. Nanda,  F. Plasser,  D. R. Rehn,  
 M. L. Vidal,  Zhi-Qiang You,  Ying Zhu,  B. Alam,  B. Albrecht,  
 A. Aldossary,  E. Alguire,  J. H. Andersen,  D. Barton,  K. Begam,  A. Behn,  
 Y. A. Bernard,  E. J. Berquist,  H. Burton,  A. Carreras,  K. Carter-Fenk,  
 R. Chakraborty,  A. D. Chien,  K. D. Closser,  V. Cofer-Shabica,  
 S. Dasgupta,  Jia Deng,  M. de Wergifosse,  M. Diedenhofen,  Hainam Do,  
 S. Ehlert,  Po-Tung Fang,  S. Fatehi,  Qingguo Feng,  J. Gayvert,  
 Qinghui Ge,  G. Gidofalvi,  M. Goldey,  J. Gomes,  C. Gonzalez-Espinoza,  
 S. Gulania,  A. Gunina,  M. W. D. Hanson-Heine,  P. H. P. Harbach,  
 A. W. Hauser,  M. F. Herbst,  M. Hernandez Vera,  M. Hodecker,  
 Z. C. Holden,  S. Houck,  Xunkun Huang,  Kerwin Hui,  B. C. Huynh,  
 M. Ivanov,  Hyunjun Ji,  Hanjie Jiang,  B. Kaduk,  S. Kaehler,  
 K. Khistyaev,  Jaehoon Kim,  P. Klunzinger,  Z. Koczor-Benda,  
 Joong Hoon Koh,  D. Kosenkov,  L. Koulias,  T. Kowalczyk,  C. M. Krauter,  
 K. Kue,  A. Kunitsa,  T. Kus,  A. Landau,  K. V. Lawler,  D. Lefrancois,  
 S. Lehtola,  Rain Li,  Yi-Pei Li,  Jiashu Liang,  M. Liebenthal,  
 Hung-Hsuan Lin,  You-Sheng Lin,  Fenglai Liu,  Kuan-Yu Liu,  
 M. Loipersberger,  A. Luenser,  A. Manjanath,  P. Manohar,  E. Mansoor,  
 S. F. Manzer,  Shan-Ping Mao,  A. V. Marenich,  T. Markovich,  S. Mason,  
 S. A. Maurer,  P. F. McLaughlin,  M. F. S. J. Menger,  J.-M. Mewes,  
 S. A. Mewes,  P. Morgante,  J. W. Mullinax,  T. S. Nguyen-Beck,  
 K. J. Oosterbaan,  G. Paran,  Alexander C. Paul,  Suranjan K. Paul,  
 F. Pavosevic,  Zheng Pei,  S. Prager,  E. I. Proynov,  E. Ramos,  B. Rana,  
 A. E. Rask,  A. Rettig,  R. M. Richard,  F. Rob,  E. Rossomme,  T. Scheele,  
 M. Scheurer,  M. Schneider,  N. Sergueev,  S. M. Sharada,  W. Skomorowski,  
 D. W. Small,  C. J. Stein,  Yu-Chuan Su,  E. J. Sundstrom,  Zhen Tao,  
 J. Thirman,  T. Tsuchimochi,  N. M. Tubman,  S. P. Veccham,  O. Vydrov,  
 J. Wenzel,  J. Witte,  A. Yamada,  Kun Yao,  S. Yeganeh,  S. R. Yost,  
 A. Zech,  Igor Ying Zhang,  Xing Zhang,  Yu Zhang,  D. Zuev,  
 A. Aspuru-Guzik,  A. T. Bell,  N. A. Besley,  K. B. Bravaya,  B. R. Brooks,  
 D. Casanova,  Jeng-Da Chai,  S. Coriani,  C. J. Cramer,  
 A. E. DePrince, III,  R. A. DiStasio Jr.,  A. Dreuw,  B. D. Dunietz,  
 T. R. Furlani,  W. A. Goddard III,  S. Grimme,  S. Hammes-Schiffer,  
 T. Head-Gordon,  W. J. Hehre,  Chao-Ping Hsu,  T.-C. Jagau,  Yousung Jung,  
 A. Klamt,  Jing Kong,  D. S. Lambrecht,  WanZhen Liang,  N. J. Mayhall,  
 C. W. McCurdy,  J. B. Neaton,  C. Ochsenfeld,  J. A. Parkhill,  R. Peverati,  
 V. A. Rassolov,  Yihan Shao,  L. V. Slipchenko,  T. Stauch,  R. P. Steele,  
 J. E. Subotnik,  A. J. W. Thom,  A. Tkatchenko,  D. G. Truhlar,  
 T. Van Voorhis,  T. A. Wesolowski,  K. B. Whaley,  H. L. Woodcock III,  
 P. M. Zimmerman,  S. Faraji,  P. M. W. Gill,  M. Head-Gordon,  
 J. M. Herbert,  A. I. Krylov

 Contributors to earlier versions of Q-Chem not listed above: 
 R. D. Adamson,  B. Austin,  R. Baer,  J. Baker,  G. J. O. Beran,  
 K. Brandhorst,  S. T. Brown,  E. F. C. Byrd,  A. K. Chakraborty,  
 G. K. L. Chan,  Chun-Min Chang,  Yunqing Chen,  C.-L. Cheng,  
 Siu Hung Chien,  D. M. Chipman,  D. L. Crittenden,  H. Dachsel,  
 R. J. Doerksen,  A. D. Dutoi,  R. G. Edgar,  J. Fosso-Tande,  
 L. Fusti-Molnar,  D. Ghosh,  A. Ghysels,  A. Golubeva-Zadorozhnaya,  
 J. Gonthier,  M. S. Gordon,  S. R. Gwaltney,  G. Hawkins,  J. E. Herr,  
 A. Heyden,  S. Hirata,  E. G. Hohenstein,  G. Kedziora,  F. J. Keil,  
 C. Kelley,  Jihan Kim,  R. A. King,  R. Z. Khaliullin,  P. P. Korambath,  
 W. Kurlancheek,  A. Laurent,  A. M. Lee,  M. S. Lee,  S. V. Levchenko,  
 Ching Yeh Lin,  D. Liotard,  E. Livshits,  R. C. Lochan,  I. Lotan,  
 L. A. Martinez-Martinez,  P. E. Maslen,  N. Nair,  D. P. O'Neill,  
 D. Neuhauser,  E. Neuscamman,  C. M. Oana,  R. Olivares-Amaya,  R. Olson,  
 T. M. Perrine,  B. Peters,  P. A. Pieniazek,  A. Prociuk,  Y. M. Rhee,  
 J. Ritchie,  M. A. Rohrdanz,  E. Rosta,  N. J. Russ,  H. F. Schaefer III,  
 M. W. Schmidt,  N. E. Schultz,  S. Sharma,  N. Shenvi,  C. D. Sherrill,  
 A. C. Simmonett,  A. Sodt,  T. Stein,  D. Stuck,  K. S. Thanthiriwatte,  
 V. Vanovschi,  L. Vogt,  Tao Wang,  A. Warshel,  M. A. Watson,  
 C. F. Williams,  Q. Wu,  X. Xu,  Jun Yang,  W. Zhang,  Yan Zhao

 Please cite Q-Chem as follows:
 Y. Shao et al., Mol. Phys. 113, 184-215 (2015)
 DOI: 10.1080/00268976.2014.952696

 Q-Chem 5.4.0 for Intel X86 EM64T Linux

 Parts of Q-Chem use Armadillo 9.800.1 (Horizon Scraper).
 http://arma.sourceforge.net/

 Q-Chem begins on Sun Jul 10 06:08:26 2022  

 Host: 
0

     Scratch files written to ./qchem988200//
 May1621 |scratch|qcdevops|jenkins|workspace|build_RNUM    
 Processing $rem in /cm/shared/apps/spack/cpu/opt/spack/linux-centos8-zen2/gcc-10.2.0/qchem-5.4-akfmr7b3t57bfs6qan3padb2wnb2i7cl/config/preferences:
 Processing $rem in /home/theleonzhang/.qchemrc:
 Symmetry turned off for PCM/SM12/SMD calculation
 Core orbitals will be frozen

 Checking the input file for inconsistencies... 	...done.

--------------------------------------------------------------
User input:
--------------------------------------------------------------
$molecule
0 1
C	0.133897	-3.866725	0.763475
C	-0.106669	-3.703963	-0.603206
C	-0.185154	-2.357056	-1.050446
H	-0.226709	-4.561092	-1.283024
C	0.000000	-1.440664	0.000000
S	0.268206	-2.286957	1.521018
C	-0.437628	-1.978743	-2.483610
H	-0.549717	-2.878678	-3.118875
H	0.394664	-1.376015	-2.903464
H	-1.363110	-1.375728	-2.593726
C	0.000000	0.000000	0.000000
C	0.295399	0.811508	1.099446
C	0.768742	2.111949	0.776721
H	0.169256	0.464952	2.136088
C	0.844232	2.319291	-0.612546
S	0.322342	0.885558	-1.486809
C	1.140796	3.134091	1.814609
H	0.995218	2.734123	2.836676
H	0.526006	4.054142	1.726239
H	2.203157	3.443680	1.726228
H	1.168902	3.211257	-1.161575
H	1.077442	-4.392713	0.946698
H	-0.690363	-4.392347	1.258274
H	-1.063612	-1.440391	0.187427
$end

$rem
JOBTYPE		SP
EXCHANGE	HF
CORRELATION	pRIMP2
BASIS		cc-pvtz
METHOD		rimp2
AUX_BASIS	rimp2-cc-pvtz
SOLVENT_METHOD	PCM
PURECART	11111
SYMMETRY	false
MEM_TOTAL	110000
SCF_CONVERGENCE = 6
THRESH=10
$end



$solvent
dielectric 4.90
$end
--------------------------------------------------------------
 ----------------------------------------------------------------
             Standard Nuclear Orientation (Angstroms)
    I     Atom           X                Y                Z
 ----------------------------------------------------------------
    1      C       0.1338970000    -3.8667250000     0.7634750000
    2      C      -0.1066690000    -3.7039630000    -0.6032060000
    3      C      -0.1851540000    -2.3570560000    -1.0504460000
    4      H      -0.2267090000    -4.5610920000    -1.2830240000
    5      C       0.0000000000    -1.4406640000     0.0000000000
    6      S       0.2682060000    -2.2869570000     1.5210180000
    7      C      -0.4376280000    -1.9787430000    -2.4836100000
    8      H      -0.5497170000    -2.8786780000    -3.1188750000
    9      H       0.3946640000    -1.3760150000    -2.9034640000
   10      H      -1.3631100000    -1.3757280000    -2.5937260000
   11      C       0.0000000000     0.0000000000     0.0000000000
   12      C       0.2953990000     0.8115080000     1.0994460000
   13      C       0.7687420000     2.1119490000     0.7767210000
   14      H       0.1692560000     0.4649520000     2.1360880000
   15      C       0.8442320000     2.3192910000    -0.6125460000
   16      S       0.3223420000     0.8855580000    -1.4868090000
   17      C       1.1407960000     3.1340910000     1.8146090000
   18      H       0.9952180000     2.7341230000     2.8366760000
   19      H       0.5260060000     4.0541420000     1.7262390000
   20      H       2.2031570000     3.4436800000     1.7262280000
   21      H       1.1689020000     3.2112570000    -1.1615750000
   22      H       1.0774420000    -4.3927130000     0.9466980000
   23      H      -0.6903630000    -4.3923470000     1.2582740000
   24      H      -1.0636120000    -1.4403910000     0.1874270000
 ----------------------------------------------------------------
 Nuclear Repulsion Energy =         878.61117974 hartrees
 There are       52 alpha and       52 beta electrons

 Q-Chem warning in module forms1/BasisType.C, line 2236:

 You are not using the predefined 5D/6D in this basis set.

 Requested basis set is cc-pVTZ
 There are 196 shells and 536 basis functions

 Total QAlloc Memory Limit 110000 MB
 Mega-Array Size       188 MB
 MEM_STATIC part       192 MB
 Discretize the solute cavity surface with Lebedev spheres
	Using 110 Lebedev grid points for each H atom
	Using 194 Lebedev grid points for other atoms
	Atomic van der Waals radii will be scaled by 1.20
 Remove points where switching function is < 1.0e-08
 Keep 1590 surface tesserae and discard 2058 interior tesserae
 Molecular Surface Area = 229.825 Angst**2
 Requested basis set is rimp2-cc-pVTZ
 There are 414 shells and 1414 basis functions
 A cutoff of  1.0D-10 yielded  13911 shell pairs
 There are    100797 function pairs (    129228 Cartesian)
 Smallest overlap matrix eigenvalue = 5.92E-05

 Scale SEOQF with 1.000000e-01/1.000000e-01/1.000000e-01

 Standard Electronic Orientation quadrupole field applied
 Nucleus-field energy     =     0.0000000208 hartrees
 Guess from superposition of atomic densities
 Warning:  Energy on first SCF cycle will be non-variational
 SAD guess density has 104.000000 electrons

 -----------------------------------------------------------------------
  General SCF calculation program by
  Eric Jon Sundstrom, Paul Horn, Yuezhi Mao, Dmitri Zuev, Alec White,
  David Stuck, Shaama M.S., Shane Yost, Joonho Lee, David Small,
  Daniel Levine, Susi Lehtola, Hugh Burton, Evgeny Epifanovsky,
  Bang C. Huynh
 -----------------------------------------------------------------------
 Hartree-Fock
 A restricted SCF calculation will be
 performed using DIIS
 SCF converges when DIIS error is below 1.0e-06
 ---------------------------------------
  Cycle       Energy         DIIS error
 ---------------------------------------
    1   -1186.0600466776      2.39e-02  
    2   -1180.5994688267      1.58e-03  
    3   -1180.7254160212      6.55e-04  
    4   -1180.7413435297      3.52e-04  
    5   -1180.7470706459      5.96e-05  
    6   -1180.7473220321      2.46e-05  
    7   -1180.7473794596      8.63e-06  
    8   -1180.7473913225      4.11e-06  
    9   -1180.7473939175      1.40e-06  
   10   -1180.7473943234      5.12e-07  Convergence criterion met
 ---------------------------------------
 SCF time:   CPU 570.14s  wall 573.00s 

************** Final PCM Free Energy Summary **************
 G_electrostatic  =      -0.00825683 hartree =      -5.18124028 kcal/mol
 G_cavitation     =       0.00000000 hartree =       0.00000000 kcal/mol
 G_dispersion     =       0.00000000 hartree =       0.00000000 kcal/mol
 G_repulsion      =       0.00000000 hartree =       0.00000000 kcal/mol
 --------------------------------------------------
 Non-electrostatic Free Energy =       0.00000000 hartree =       0.00000000 kcal/mol
 Total                         =      -0.00825683 hartree =      -5.18124028 kcal/mol
 --------------------------------------------------
 SCF Energy (H0 + V/2)                       =   -1180.74739432 
 Solute Internal Energy (H0)                 =   -1180.73913749 
 Total Free Energy (H0 + V/2 + non-elec)     =   -1180.74739432 hartree
                                             = -740930.17279653 kcal/mol
***********************************************************

 SCF   energy in the final basis set =    -1180.7473943234
 Total energy in the final basis set =    -1180.7473943234


 --------------------------------------------------------------
  Generalized many-body perturbation theory program
  by Joonho Lee, Fazle Rob, Xintian Feng, Evgeny Epifanovsky

 No regularization used 
 (reg. param. = 0.0000e+00)
  (P|Q)^-1/2 Time:  CPU 1.90 s  wall 1.91 s

 In RI-MP2 calculation: 
 # of frozen core orbitals: 20

 Components of the RIMP2 correlation energy:
        aaaa    correlation energy =        -0.2521121196 a.u.
        abab    correlation energy =        -1.5048223763 a.u.
        bbbb    correlation energy =        -0.2521121196 a.u.
        non-Brillouin singles      =        -0.0000000000 a.u.
        total same-spin energy     =        -0.5042242392 a.u.
        total opposite-spin energy =        -1.5048223763 a.u.

 Total  RIMP2   correlation energy =        -2.0090466155 a.u.
        RIMP2         total energy =     -1182.7564409389 a.u.

 RI-MP2 Energy Time:  CPU 79.31 s  wall 79.57 s
 
 --------------------------------------------------------------
 
                    Orbital Energies (a.u.)
 --------------------------------------------------------------
 
 Alpha MOs
 -- Occupied --
-91.9806 -91.9460 -11.2869 -11.2660 -11.2594 -11.2558 -11.2503 -11.2435
-11.2337 -11.2327 -11.2276 -11.2217  -8.9808  -8.9505  -6.6617  -6.6611
 -6.6604  -6.6319  -6.6309  -6.6296  -1.2021  -1.1525  -1.0604  -1.0284
 -1.0070  -0.9565  -0.9161  -0.9017  -0.8149  -0.7720  -0.7183  -0.7040
 -0.6595  -0.6474  -0.6108  -0.5912  -0.5829  -0.5733  -0.5678  -0.5539
 -0.5415  -0.5345  -0.5159  -0.5112  -0.4875  -0.4805  -0.4576  -0.4453
 -0.3586  -0.3413  -0.3263  -0.2630
 -- Virtual --
  0.0990   0.1331   0.1445   0.1506   0.1592   0.1709   0.1788   0.1831
  0.1892   0.1956   0.2051   0.2109   0.2252   0.2327   0.2396   0.2426
  0.2539   0.2590   0.2764   0.3028   0.3210   0.3362   0.3514   0.3620
  0.3729   0.3736   0.3853   0.3963   0.4087   0.4167   0.4192   0.4289
  0.4435   0.4531   0.4578   0.4601   0.4779   0.4803   0.4862   0.5043
  0.5077   0.5103   0.5227   0.5317   0.5445   0.5497   0.5506   0.5566
  0.5720   0.5750   0.5857   0.6011   0.6055   0.6126   0.6156   0.6183
  0.6228   0.6250   0.6316   0.6369   0.6395   0.6474   0.6511   0.6523
  0.6619   0.6723   0.6828   0.6882   0.6960   0.7146   0.7232   0.7296
  0.7393   0.7519   0.7597   0.7844   0.7877   0.8004   0.8093   0.8172
  0.8392   0.8515   0.8575   0.8665   0.8801   0.9000   0.9059   0.9237
  0.9273   0.9379   0.9564   0.9657   0.9744   0.9861   1.0030   1.0050
  1.0130   1.0256   1.0352   1.0506   1.0540   1.0647   1.0782   1.0807
  1.0879   1.0990   1.1052   1.1262   1.1393   1.1527   1.1548   1.1612
  1.1743   1.1841   1.1947   1.2157   1.2188   1.2220   1.2312   1.2486
  1.2629   1.2637   1.2712   1.2764   1.2821   1.2919   1.2978   1.3059
  1.3221   1.3301   1.3400   1.3661   1.3789   1.3930   1.3991   1.4044
  1.4155   1.4259   1.4455   1.4580   1.4737   1.4747   1.4792   1.4917
  1.5057   1.5152   1.5208   1.5299   1.5365   1.5432   1.5473   1.5547
  1.5674   1.5796   1.5869   1.5940   1.6096   1.6258   1.6369   1.6448
  1.6523   1.6651   1.6739   1.6891   1.7071   1.7156   1.7265   1.7389
  1.7537   1.7665   1.7741   1.8023   1.8126   1.8267   1.8385   1.8469
  1.8901   1.9234   1.9304   1.9402   1.9656   1.9753   1.9905   2.0042
  2.0142   2.0282   2.0565   2.0643   2.0790   2.1005   2.1446   2.1609
  2.1888   2.2027   2.2043   2.2196   2.2239   2.2415   2.2776   2.2858
  2.2952   2.3166   2.3459   2.3643   2.4138   2.4419   2.4528   2.4723
  2.4861   2.5120   2.5444   2.5482   2.5763   2.5821   2.5958   2.6196
  2.6404   2.6441   2.6576   2.6605   2.6720   2.6945   2.7080   2.7294
  2.7493   2.7535   2.7667   2.7735   2.7787   2.7806   2.8003   2.8196
  2.8276   2.8384   2.8509   2.8856   2.8896   2.8969   2.9084   2.9301
  2.9579   2.9710   2.9813   2.9836   2.9962   3.0123   3.0386   3.0485
  3.0566   3.0703   3.0901   3.1029   3.1049   3.1139   3.1239   3.1346
  3.1463   3.1599   3.1677   3.1785   3.1853   3.1909   3.2093   3.2228
  3.2247   3.2423   3.2556   3.2583   3.2682   3.2769   3.2979   3.3036
  3.3057   3.3298   3.3330   3.3405   3.3450   3.3516   3.3591   3.3685
  3.3776   3.3857   3.3875   3.3969   3.4156   3.4204   3.4223   3.4246
  3.4395   3.4456   3.4614   3.4741   3.4821   3.4885   3.4975   3.5035
  3.5066   3.5201   3.5248   3.5399   3.5512   3.5644   3.5728   3.5777
  3.5941   3.6120   3.6151   3.6275   3.6315   3.6415   3.6468   3.6576
  3.6658   3.6880   3.7004   3.7054   3.7121   3.7250   3.7335   3.7403
  3.7469   3.7607   3.7686   3.7776   3.7804   3.7915   3.8118   3.8141
  3.8330   3.8395   3.8530   3.8650   3.8670   3.8847   3.8965   3.9212
  3.9296   3.9387   3.9604   3.9673   3.9764   3.9858   3.9988   4.0137
  4.0222   4.0397   4.0452   4.0552   4.0659   4.0803   4.0934   4.1081
  4.1198   4.1325   4.1485   4.1564   4.1652   4.1757   4.1835   4.2060
  4.2106   4.2250   4.2358   4.2382   4.2513   4.2651   4.2739   4.2824
  4.2931   4.2955   4.3226   4.3413   4.3487   4.3529   4.3580   4.3639
  4.3747   4.3878   4.4037   4.4122   4.4170   4.4310   4.4403   4.4497
  4.4590   4.4636   4.4804   4.4900   4.5099   4.5223   4.5561   4.5762
  4.5874   4.5929   4.6108   4.6357   4.6389   4.6408   4.6719   4.6966
  4.7091   4.7274   4.7485   4.7790   4.7827   4.8122   4.8183   4.8229
  4.8510   4.8660   4.8890   4.9091   4.9242   4.9418   4.9688   4.9754
  5.0367   5.0670   5.0815   5.0947   5.1144   5.1248   5.1532   5.1782
  5.1967   5.2180   5.2460   5.2640   5.2853   5.2938   5.3063   5.3294
  5.3514   5.3644   5.3732   5.3949   5.4073   5.4148   5.4401   5.4577
  5.4784   5.5103   5.5222   5.5428   5.5544   5.5587   5.5677   5.5928
  5.6199   5.6342   5.6496   5.6625   5.6798   5.6981   5.7020   5.7353
  5.7602   5.7923   5.8442   5.9846   6.0017   6.1001   6.1371   6.1465
  6.2194   6.2285   6.2367   6.2427   6.2653   6.2846   6.3029   6.3152
  6.4153   6.4781   9.5415  10.7480  12.0973  12.9590  13.1748  13.9281
 14.1145  14.2644  14.3783  14.7316
 --------------------------------------------------------------
 
          Ground-State Mulliken Net Atomic Charges

     Atom                 Charge (a.u.)
  ----------------------------------------
      1 C                    -0.074108
      2 C                    -0.324073
      3 C                    -0.044793
      4 H                     0.178822
      5 C                     0.132958
      6 S                    -0.184677
      7 C                    -0.309394
      8 H                     0.121605
      9 H                     0.113239
     10 H                     0.114408
     11 C                    -0.019320
     12 C                    -0.330509
     13 C                     0.060089
     14 H                     0.178579
     15 C                    -0.277574
     16 S                     0.012660
     17 C                    -0.270748
     18 H                     0.102729
     19 H                     0.108132
     20 H                     0.108770
     21 H                     0.195148
     22 H                     0.113044
     23 H                     0.111494
     24 H                     0.183521
  ----------------------------------------
  Sum of atomic charges =     0.000000

 -----------------------------------------------------------------
                    Cartesian Multipole Moments
 -----------------------------------------------------------------
    Charge (ESU x 10^10)
                -0.0000
    Dipole Moment (Debye)
         X      -0.7940      Y      -0.3129      Z      -0.8307
       Tot       1.1909
    Quadrupole Moments (Debye-Ang)
        XX     -90.7095     XY       5.2673     YY     -74.4640
        XZ       0.2075     YZ       4.3427     ZZ     -85.4001
    Octopole Moments (Debye-Ang^2)
       XXX     -72.2618    XXY      53.0595    XYY     -14.4365
       YYY     122.7781    XXZ       0.1879    XYZ      -0.9128
       YYZ      -0.9698    XZZ     -22.8956    YZZ      52.4278
       ZZZ      -3.3259
    Hexadecapole Moments (Debye-Ang^3)
      XXXX    -273.0050   XXXY    -162.0332   XXYY    -543.6501
      XYYY    -125.8028   YYYY   -2680.9881   XXXZ     -83.3950
      XXYZ     -31.4488   XYYZ     -27.5009   YYYZ    -102.0640
      XXZZ    -235.4225   XYZZ     -37.5890   YYZZ    -639.9821
      XZZZ     -80.9070   YZZZ     -56.1681   ZZZZ   -1077.4524
 -----------------------------------------------------------------
 Total job time:  653.87s(wall), 650.34s(cpu) 
 Sun Jul 10 06:19:20 2022

        *************************************************************
        *                                                           *
        *  Thank you very much for using Q-Chem.  Have a nice day.  *
        *                                                           *
        *************************************************************


remove work dirs ./qchem988200.0 -- ./qchem988200.-1
rm -rf ./qchem988200
