You are running Q-Chem version: 5.4.0

#
# job setting
#
local host:  exp-4-50
current dir: /expanse/lustre/scratch/theleonzhang/temp_project/Hydrogenated_Rotation_Test
input file:  Methylthiophene_Phi_10_Theta_230_Methylthiophene_Hydrogenated_Alternate.qcin
output file: 
nprocs     : 0
nthreads   : 1
#
# qchem installation setting
#
QC:          /cm/shared/apps/spack/cpu/opt/spack/linux-centos8-zen2/gcc-10.2.0/qchem-5.4-akfmr7b3t57bfs6qan3padb2wnb2i7cl
QCAUX:       /cm/shared/apps/spack/cpu/opt/spack/linux-centos8-zen2/gcc-10.2.0/qchem-5.4-akfmr7b3t57bfs6qan3padb2wnb2i7cl/qcaux
QCPROG:      /cm/shared/apps/spack/cpu/opt/spack/linux-centos8-zen2/gcc-10.2.0/qchem-5.4-akfmr7b3t57bfs6qan3padb2wnb2i7cl/exe/qcprog.exe_s
QCPROG_S:    /cm/shared/apps/spack/cpu/opt/spack/linux-centos8-zen2/gcc-10.2.0/qchem-5.4-akfmr7b3t57bfs6qan3padb2wnb2i7cl/exe/qcprog.exe_s
PARALLEL:    -DSERIAL
QCMPI:       mpich
#
# qchem directory setting
#
qcrun:       qchem1839633
QCSCRATCH:   .
QCLOCALSCR:  
QCTMPDIR:    .
QCFILEPREF:  ./qchem1839633
QCSAVEDIR:   
workdirs:    ./qchem1839633
workdir0:    ./qchem1839633
partmpdirs =  
#
# parallel setting
#
QCRSH:           ssh
QCMPI:           mpich
QCMPIRUN:        /cm/shared/apps/spack/cpu/opt/spack/linux-centos8-zen2/gcc-10.2.0/qchem-5.4-akfmr7b3t57bfs6qan3padb2wnb2i7cl/bin/mpi/mpirun_qchem
QCMACHINEFILE:   ./qchem1839633/hostfile

#
# env setting
#
exported envs:   QC QCAUX QCSCRATCH QCRUNNAME QCFILEPREF QCPROG QCPROG_S GUIFILE

Running Job 1 of 1 Methylthiophene_Phi_10_Theta_230_Methylthiophene_Hydrogenated_Alternate.qcin
qchem Methylthiophene_Phi_10_Theta_230_Methylthiophene_Hydrogenated_Alternate.qcin_1839633.0 ./qchem1839633/ 0
/cm/shared/apps/spack/cpu/opt/spack/linux-centos8-zen2/gcc-10.2.0/qchem-5.4-akfmr7b3t57bfs6qan3padb2wnb2i7cl/exe/qcprog.exe_s Methylthiophene_Phi_10_Theta_230_Methylthiophene_Hydrogenated_Alternate.qcin_1839633.0 ./qchem1839633/
                  Welcome to Q-Chem
     A Quantum Leap Into The Future Of Chemistry


 Q-Chem 5.4, Q-Chem, Inc., Pleasanton, CA (2021)

 License issued to: University of California, San Diego (site)

 E. Epifanovsky,  A. T. B. Gilbert,  Xintian Feng,  Joonho Lee,  Yuezhi Mao,  
 N. Mardirossian,  P. Pokhilko,  A. White,  M. Wormit,  M. P. Coons,  
 A. L. Dempwolff,  Zhengting Gan,  D. Hait,  P. R. Horn,  L. D. Jacobson,  
 I. Kaliman,  J. Kussmann,  A. W. Lange,  Ka Un Lao,  D. S. Levine,  Jie Liu,  
 S. C. McKenzie,  A. F. Morrison,  K. Nanda,  F. Plasser,  D. R. Rehn,  
 M. L. Vidal,  Zhi-Qiang You,  Ying Zhu,  B. Alam,  B. Albrecht,  
 A. Aldossary,  E. Alguire,  J. H. Andersen,  D. Barton,  K. Begam,  A. Behn,  
 Y. A. Bernard,  E. J. Berquist,  H. Burton,  A. Carreras,  K. Carter-Fenk,  
 R. Chakraborty,  A. D. Chien,  K. D. Closser,  V. Cofer-Shabica,  
 S. Dasgupta,  Jia Deng,  M. de Wergifosse,  M. Diedenhofen,  Hainam Do,  
 S. Ehlert,  Po-Tung Fang,  S. Fatehi,  Qingguo Feng,  J. Gayvert,  
 Qinghui Ge,  G. Gidofalvi,  M. Goldey,  J. Gomes,  C. Gonzalez-Espinoza,  
 S. Gulania,  A. Gunina,  M. W. D. Hanson-Heine,  P. H. P. Harbach,  
 A. W. Hauser,  M. F. Herbst,  M. Hernandez Vera,  M. Hodecker,  
 Z. C. Holden,  S. Houck,  Xunkun Huang,  Kerwin Hui,  B. C. Huynh,  
 M. Ivanov,  Hyunjun Ji,  Hanjie Jiang,  B. Kaduk,  S. Kaehler,  
 K. Khistyaev,  Jaehoon Kim,  P. Klunzinger,  Z. Koczor-Benda,  
 Joong Hoon Koh,  D. Kosenkov,  L. Koulias,  T. Kowalczyk,  C. M. Krauter,  
 K. Kue,  A. Kunitsa,  T. Kus,  A. Landau,  K. V. Lawler,  D. Lefrancois,  
 S. Lehtola,  Rain Li,  Yi-Pei Li,  Jiashu Liang,  M. Liebenthal,  
 Hung-Hsuan Lin,  You-Sheng Lin,  Fenglai Liu,  Kuan-Yu Liu,  
 M. Loipersberger,  A. Luenser,  A. Manjanath,  P. Manohar,  E. Mansoor,  
 S. F. Manzer,  Shan-Ping Mao,  A. V. Marenich,  T. Markovich,  S. Mason,  
 S. A. Maurer,  P. F. McLaughlin,  M. F. S. J. Menger,  J.-M. Mewes,  
 S. A. Mewes,  P. Morgante,  J. W. Mullinax,  T. S. Nguyen-Beck,  
 K. J. Oosterbaan,  G. Paran,  Alexander C. Paul,  Suranjan K. Paul,  
 F. Pavosevic,  Zheng Pei,  S. Prager,  E. I. Proynov,  E. Ramos,  B. Rana,  
 A. E. Rask,  A. Rettig,  R. M. Richard,  F. Rob,  E. Rossomme,  T. Scheele,  
 M. Scheurer,  M. Schneider,  N. Sergueev,  S. M. Sharada,  W. Skomorowski,  
 D. W. Small,  C. J. Stein,  Yu-Chuan Su,  E. J. Sundstrom,  Zhen Tao,  
 J. Thirman,  T. Tsuchimochi,  N. M. Tubman,  S. P. Veccham,  O. Vydrov,  
 J. Wenzel,  J. Witte,  A. Yamada,  Kun Yao,  S. Yeganeh,  S. R. Yost,  
 A. Zech,  Igor Ying Zhang,  Xing Zhang,  Yu Zhang,  D. Zuev,  
 A. Aspuru-Guzik,  A. T. Bell,  N. A. Besley,  K. B. Bravaya,  B. R. Brooks,  
 D. Casanova,  Jeng-Da Chai,  S. Coriani,  C. J. Cramer,  
 A. E. DePrince, III,  R. A. DiStasio Jr.,  A. Dreuw,  B. D. Dunietz,  
 T. R. Furlani,  W. A. Goddard III,  S. Grimme,  S. Hammes-Schiffer,  
 T. Head-Gordon,  W. J. Hehre,  Chao-Ping Hsu,  T.-C. Jagau,  Yousung Jung,  
 A. Klamt,  Jing Kong,  D. S. Lambrecht,  WanZhen Liang,  N. J. Mayhall,  
 C. W. McCurdy,  J. B. Neaton,  C. Ochsenfeld,  J. A. Parkhill,  R. Peverati,  
 V. A. Rassolov,  Yihan Shao,  L. V. Slipchenko,  T. Stauch,  R. P. Steele,  
 J. E. Subotnik,  A. J. W. Thom,  A. Tkatchenko,  D. G. Truhlar,  
 T. Van Voorhis,  T. A. Wesolowski,  K. B. Whaley,  H. L. Woodcock III,  
 P. M. Zimmerman,  S. Faraji,  P. M. W. Gill,  M. Head-Gordon,  
 J. M. Herbert,  A. I. Krylov

 Contributors to earlier versions of Q-Chem not listed above: 
 R. D. Adamson,  B. Austin,  R. Baer,  J. Baker,  G. J. O. Beran,  
 K. Brandhorst,  S. T. Brown,  E. F. C. Byrd,  A. K. Chakraborty,  
 G. K. L. Chan,  Chun-Min Chang,  Yunqing Chen,  C.-L. Cheng,  
 Siu Hung Chien,  D. M. Chipman,  D. L. Crittenden,  H. Dachsel,  
 R. J. Doerksen,  A. D. Dutoi,  R. G. Edgar,  J. Fosso-Tande,  
 L. Fusti-Molnar,  D. Ghosh,  A. Ghysels,  A. Golubeva-Zadorozhnaya,  
 J. Gonthier,  M. S. Gordon,  S. R. Gwaltney,  G. Hawkins,  J. E. Herr,  
 A. Heyden,  S. Hirata,  E. G. Hohenstein,  G. Kedziora,  F. J. Keil,  
 C. Kelley,  Jihan Kim,  R. A. King,  R. Z. Khaliullin,  P. P. Korambath,  
 W. Kurlancheek,  A. Laurent,  A. M. Lee,  M. S. Lee,  S. V. Levchenko,  
 Ching Yeh Lin,  D. Liotard,  E. Livshits,  R. C. Lochan,  I. Lotan,  
 L. A. Martinez-Martinez,  P. E. Maslen,  N. Nair,  D. P. O'Neill,  
 D. Neuhauser,  E. Neuscamman,  C. M. Oana,  R. Olivares-Amaya,  R. Olson,  
 T. M. Perrine,  B. Peters,  P. A. Pieniazek,  A. Prociuk,  Y. M. Rhee,  
 J. Ritchie,  M. A. Rohrdanz,  E. Rosta,  N. J. Russ,  H. F. Schaefer III,  
 M. W. Schmidt,  N. E. Schultz,  S. Sharma,  N. Shenvi,  C. D. Sherrill,  
 A. C. Simmonett,  A. Sodt,  T. Stein,  D. Stuck,  K. S. Thanthiriwatte,  
 V. Vanovschi,  L. Vogt,  Tao Wang,  A. Warshel,  M. A. Watson,  
 C. F. Williams,  Q. Wu,  X. Xu,  Jun Yang,  W. Zhang,  Yan Zhao

 Please cite Q-Chem as follows:
 Y. Shao et al., Mol. Phys. 113, 184-215 (2015)
 DOI: 10.1080/00268976.2014.952696

 Q-Chem 5.4.0 for Intel X86 EM64T Linux

 Parts of Q-Chem use Armadillo 9.800.1 (Horizon Scraper).
 http://arma.sourceforge.net/

 Q-Chem begins on Sun Jul 10 04:10:29 2022  

 Host: 
0

     Scratch files written to ./qchem1839633//
 May1621 |scratch|qcdevops|jenkins|workspace|build_RNUM    
 Processing $rem in /cm/shared/apps/spack/cpu/opt/spack/linux-centos8-zen2/gcc-10.2.0/qchem-5.4-akfmr7b3t57bfs6qan3padb2wnb2i7cl/config/preferences:
 Processing $rem in /home/theleonzhang/.qchemrc:
 Symmetry turned off for PCM/SM12/SMD calculation
 Core orbitals will be frozen

 Checking the input file for inconsistencies... 	...done.

--------------------------------------------------------------
User input:
--------------------------------------------------------------
$molecule
0 1
C	0.594240	-3.866725	-0.497696
C	-0.469057	-3.703963	0.393981
C	-0.817136	-2.357056	0.685571
H	-0.997777	-4.561092	0.837848
C	-0.000000	-1.440664	-0.000000
S	1.183137	-2.286957	-0.992782
C	-1.932056	-1.978743	1.620802
H	-2.426166	-2.878678	2.035506
H	-2.711806	-1.376015	1.109943
H	-1.564678	-1.375728	2.477350
C	0.000000	0.000000	0.000000
C	0.149995	0.850475	1.099446
C	0.390327	2.213354	0.776721
H	0.085947	0.487279	2.136088
C	0.428665	2.430655	-0.612546
S	0.163670	0.928078	-1.486809
C	0.579235	3.284574	1.814609
H	0.505323	2.865404	2.836676
H	-0.185980	4.083890	1.726239
H	1.571698	3.773937	1.726228
H	0.593515	3.365448	-1.161575
H	0.281143	-4.392713	-1.406441
H	1.434879	-4.392347	-0.031265
H	-0.694122	-1.440937	-0.827402
$end

$rem
JOBTYPE		SP
EXCHANGE	HF
CORRELATION	pRIMP2
BASIS		cc-pvtz
METHOD		rimp2
AUX_BASIS	rimp2-cc-pvtz
SOLVENT_METHOD	PCM
PURECART	11111
SYMMETRY	false
MEM_TOTAL	110000
SCF_CONVERGENCE = 6
THRESH=10
$end



$solvent
dielectric 4.90
$end
--------------------------------------------------------------
 ----------------------------------------------------------------
             Standard Nuclear Orientation (Angstroms)
    I     Atom           X                Y                Z
 ----------------------------------------------------------------
    1      C       0.5942400000    -3.8667250000    -0.4976960000
    2      C      -0.4690570000    -3.7039630000     0.3939810000
    3      C      -0.8171360000    -2.3570560000     0.6855710000
    4      H      -0.9977770000    -4.5610920000     0.8378480000
    5      C       0.0000000000    -1.4406640000     0.0000000000
    6      S       1.1831370000    -2.2869570000    -0.9927820000
    7      C      -1.9320560000    -1.9787430000     1.6208020000
    8      H      -2.4261660000    -2.8786780000     2.0355060000
    9      H      -2.7118060000    -1.3760150000     1.1099430000
   10      H      -1.5646780000    -1.3757280000     2.4773500000
   11      C       0.0000000000     0.0000000000     0.0000000000
   12      C       0.1499950000     0.8504750000     1.0994460000
   13      C       0.3903270000     2.2133540000     0.7767210000
   14      H       0.0859470000     0.4872790000     2.1360880000
   15      C       0.4286650000     2.4306550000    -0.6125460000
   16      S       0.1636700000     0.9280780000    -1.4868090000
   17      C       0.5792350000     3.2845740000     1.8146090000
   18      H       0.5053230000     2.8654040000     2.8366760000
   19      H      -0.1859800000     4.0838900000     1.7262390000
   20      H       1.5716980000     3.7739370000     1.7262280000
   21      H       0.5935150000     3.3654480000    -1.1615750000
   22      H       0.2811430000    -4.3927130000    -1.4064410000
   23      H       1.4348790000    -4.3923470000    -0.0312650000
   24      H      -0.6941220000    -1.4409370000    -0.8274020000
 ----------------------------------------------------------------
 Nuclear Repulsion Energy =         873.99784174 hartrees
 There are       52 alpha and       52 beta electrons

 Q-Chem warning in module forms1/BasisType.C, line 2236:

 You are not using the predefined 5D/6D in this basis set.

 Requested basis set is cc-pVTZ
 There are 196 shells and 536 basis functions

 Total QAlloc Memory Limit 110000 MB
 Mega-Array Size       188 MB
 MEM_STATIC part       192 MB
 Discretize the solute cavity surface with Lebedev spheres
	Using 110 Lebedev grid points for each H atom
	Using 194 Lebedev grid points for other atoms
	Atomic van der Waals radii will be scaled by 1.20
 Remove points where switching function is < 1.0e-08
 Keep 1605 surface tesserae and discard 2043 interior tesserae
 Molecular Surface Area = 235.743 Angst**2
 Requested basis set is rimp2-cc-pVTZ
 There are 414 shells and 1414 basis functions
 A cutoff of  1.0D-10 yielded  13953 shell pairs
 There are    101099 function pairs (    129640 Cartesian)
 Smallest overlap matrix eigenvalue = 6.51E-05

 Scale SEOQF with 1.000000e-01/1.000000e-01/1.000000e-01

 Standard Electronic Orientation quadrupole field applied
 Nucleus-field energy     =     0.0000000305 hartrees
 Guess from superposition of atomic densities
 Warning:  Energy on first SCF cycle will be non-variational
 SAD guess density has 104.000000 electrons

 -----------------------------------------------------------------------
  General SCF calculation program by
  Eric Jon Sundstrom, Paul Horn, Yuezhi Mao, Dmitri Zuev, Alec White,
  David Stuck, Shaama M.S., Shane Yost, Joonho Lee, David Small,
  Daniel Levine, Susi Lehtola, Hugh Burton, Evgeny Epifanovsky,
  Bang C. Huynh
 -----------------------------------------------------------------------
 Hartree-Fock
 A restricted SCF calculation will be
 performed using DIIS
 SCF converges when DIIS error is below 1.0e-06
 ---------------------------------------
  Cycle       Energy         DIIS error
 ---------------------------------------
    1   -1186.0245476614      2.39e-02  
    2   -1180.6124908492      1.57e-03  
    3   -1180.7376061765      6.18e-04  
    4   -1180.7522511646      3.33e-04  
    5   -1180.7573650337      6.00e-05  
    6   -1180.7576147574      2.47e-05  
    7   -1180.7576751888      9.08e-06  
    8   -1180.7576889383      4.44e-06  
    9   -1180.7576920464      1.45e-06  
   10   -1180.7576925119      5.15e-07  Convergence criterion met
 ---------------------------------------
 SCF time:   CPU 559.43s  wall 561.00s 

************** Final PCM Free Energy Summary **************
 G_electrostatic  =      -0.00939860 hartree =      -5.89770937 kcal/mol
 G_cavitation     =       0.00000000 hartree =       0.00000000 kcal/mol
 G_dispersion     =       0.00000000 hartree =       0.00000000 kcal/mol
 G_repulsion      =       0.00000000 hartree =       0.00000000 kcal/mol
 --------------------------------------------------
 Non-electrostatic Free Energy =       0.00000000 hartree =       0.00000000 kcal/mol
 Total                         =      -0.00939860 hartree =      -5.89770937 kcal/mol
 --------------------------------------------------
 SCF Energy (H0 + V/2)                       =   -1180.75769251 
 Solute Internal Energy (H0)                 =   -1180.74829391 
 Total Free Energy (H0 + V/2 + non-elec)     =   -1180.75769251 hartree
                                             = -740936.63500733 kcal/mol
***********************************************************

 SCF   energy in the final basis set =    -1180.7576925119
 Total energy in the final basis set =    -1180.7576925119


 --------------------------------------------------------------
  Generalized many-body perturbation theory program
  by Joonho Lee, Fazle Rob, Xintian Feng, Evgeny Epifanovsky

 No regularization used 
 (reg. param. = 0.0000e+00)
  (P|Q)^-1/2 Time:  CPU 1.90 s  wall 1.90 s

 In RI-MP2 calculation: 
 # of frozen core orbitals: 20

 Components of the RIMP2 correlation energy:
        aaaa    correlation energy =        -0.2510226068 a.u.
        abab    correlation energy =        -1.5026116403 a.u.
        bbbb    correlation energy =        -0.2510226068 a.u.
        non-Brillouin singles      =        -0.0000000000 a.u.
        total same-spin energy     =        -0.5020452136 a.u.
        total opposite-spin energy =        -1.5026116403 a.u.

 Total  RIMP2   correlation energy =        -2.0046568539 a.u.
        RIMP2         total energy =     -1182.7623493658 a.u.

 RI-MP2 Energy Time:  CPU 79.51 s  wall 79.76 s
 
 --------------------------------------------------------------
 
                    Orbital Energies (a.u.)
 --------------------------------------------------------------
 
 Alpha MOs
 -- Occupied --
-91.9847 -91.9429 -11.2822 -11.2641 -11.2620 -11.2566 -11.2504 -11.2418
-11.2360 -11.2324 -11.2285 -11.2204  -8.9845  -8.9476  -6.6654  -6.6649
 -6.6642  -6.6289  -6.6279  -6.6266  -1.1994  -1.1532  -1.0589  -1.0288
 -1.0011  -0.9632  -0.9132  -0.9002  -0.8155  -0.7603  -0.7410  -0.7026
 -0.6543  -0.6379  -0.6104  -0.5898  -0.5803  -0.5691  -0.5667  -0.5543
 -0.5442  -0.5319  -0.5153  -0.5054  -0.4901  -0.4810  -0.4646  -0.4488
 -0.3562  -0.3422  -0.3200  -0.2720
 -- Virtual --
  0.0956   0.1303   0.1408   0.1505   0.1590   0.1691   0.1778   0.1859
  0.1916   0.2013   0.2039   0.2150   0.2284   0.2325   0.2370   0.2431
  0.2524   0.2559   0.2791   0.2962   0.3232   0.3353   0.3455   0.3593
  0.3686   0.3709   0.3768   0.3855   0.4005   0.4061   0.4121   0.4212
  0.4343   0.4425   0.4498   0.4673   0.4739   0.4824   0.4849   0.4875
  0.4988   0.5086   0.5103   0.5267   0.5375   0.5438   0.5487   0.5539
  0.5690   0.5746   0.5884   0.5916   0.6027   0.6086   0.6147   0.6151
  0.6229   0.6286   0.6337   0.6365   0.6409   0.6482   0.6492   0.6603
  0.6619   0.6752   0.6848   0.6901   0.6997   0.7026   0.7079   0.7250
  0.7276   0.7480   0.7649   0.7749   0.7763   0.7907   0.8095   0.8240
  0.8306   0.8521   0.8578   0.8617   0.8836   0.8902   0.8982   0.9073
  0.9372   0.9419   0.9441   0.9616   0.9697   0.9779   1.0069   1.0120
  1.0162   1.0261   1.0346   1.0394   1.0569   1.0646   1.0752   1.0814
  1.0862   1.1000   1.1187   1.1201   1.1352   1.1376   1.1631   1.1694
  1.1801   1.1946   1.2001   1.2055   1.2122   1.2271   1.2324   1.2450
  1.2474   1.2637   1.2658   1.2749   1.2765   1.2934   1.3027   1.3192
  1.3229   1.3320   1.3448   1.3643   1.3841   1.3895   1.4062   1.4158
  1.4188   1.4420   1.4510   1.4533   1.4636   1.4805   1.4864   1.4927
  1.5060   1.5136   1.5207   1.5276   1.5348   1.5371   1.5506   1.5541
  1.5690   1.5791   1.5829   1.6007   1.6213   1.6249   1.6355   1.6414
  1.6486   1.6564   1.6782   1.6879   1.7049   1.7142   1.7272   1.7362
  1.7469   1.7525   1.7602   1.7935   1.8209   1.8299   1.8407   1.8656
  1.8769   1.9011   1.9279   1.9308   1.9366   1.9579   1.9878   2.0012
  2.0171   2.0304   2.0476   2.0736   2.0767   2.1111   2.1329   2.1576
  2.1725   2.1906   2.2069   2.2240   2.2316   2.2510   2.2695   2.2757
  2.2997   2.3271   2.3391   2.3730   2.4137   2.4469   2.4581   2.4731
  2.4891   2.5114   2.5270   2.5447   2.5744   2.5819   2.5907   2.6017
  2.6255   2.6369   2.6571   2.6666   2.6758   2.6855   2.6908   2.7344
  2.7429   2.7531   2.7622   2.7728   2.7764   2.7924   2.8006   2.8162
  2.8419   2.8505   2.8666   2.8739   2.8772   2.9044   2.9087   2.9229
  2.9432   2.9620   2.9654   2.9799   3.0035   3.0184   3.0357   3.0408
  3.0532   3.0776   3.0856   3.1085   3.1141   3.1194   3.1263   3.1323
  3.1447   3.1532   3.1645   3.1757   3.1807   3.1883   3.2004   3.2137
  3.2264   3.2481   3.2568   3.2669   3.2778   3.2874   3.2953   3.3132
  3.3167   3.3190   3.3349   3.3391   3.3425   3.3504   3.3577   3.3655
  3.3701   3.3883   3.3934   3.3992   3.4125   3.4185   3.4216   3.4246
  3.4395   3.4453   3.4506   3.4648   3.4710   3.4749   3.5018   3.5112
  3.5180   3.5196   3.5302   3.5390   3.5541   3.5594   3.5641   3.5815
  3.5868   3.5943   3.6108   3.6218   3.6321   3.6389   3.6504   3.6570
  3.6711   3.6760   3.6839   3.7004   3.7105   3.7169   3.7349   3.7449
  3.7480   3.7540   3.7650   3.7760   3.7813   3.7884   3.7972   3.8092
  3.8339   3.8397   3.8557   3.8619   3.8714   3.8971   3.9030   3.9187
  3.9214   3.9446   3.9599   3.9637   3.9746   3.9832   3.9918   4.0208
  4.0246   4.0335   4.0500   4.0590   4.0614   4.0806   4.0883   4.0952
  4.1181   4.1265   4.1493   4.1517   4.1571   4.1681   4.1819   4.1989
  4.2141   4.2182   4.2294   4.2416   4.2541   4.2619   4.2761   4.2809
  4.3008   4.3020   4.3149   4.3173   4.3427   4.3547   4.3617   4.3698
  4.3834   4.3922   4.4015   4.4023   4.4204   4.4230   4.4360   4.4577
  4.4587   4.4770   4.4793   4.4861   4.4951   4.5095   4.5368   4.5512
  4.5752   4.5864   4.6062   4.6141   4.6234   4.6421   4.6554   4.6708
  4.6997   4.7089   4.7384   4.7583   4.7763   4.8081   4.8184   4.8447
  4.8611   4.8768   4.8808   4.8995   4.9159   4.9548   4.9835   4.9980
  5.0225   5.0368   5.0893   5.1000   5.1196   5.1322   5.1704   5.1737
  5.1976   5.2107   5.2401   5.2684   5.2711   5.2924   5.3045   5.3301
  5.3438   5.3697   5.3798   5.3998   5.4151   5.4257   5.4389   5.4470
  5.4729   5.5203   5.5262   5.5361   5.5479   5.5574   5.5699   5.5952
  5.6112   5.6244   5.6331   5.6685   5.6803   5.6977   5.7053   5.7368
  5.7660   5.7866   5.8310   5.9791   6.0204   6.0736   6.1206   6.1566
  6.2039   6.2234   6.2310   6.2317   6.2554   6.2887   6.3039   6.3447
  6.3795   6.5240   9.3838  10.8627  12.0557  12.9587  13.2245  13.9975
 14.0828  14.1899  14.3299  14.6835
 --------------------------------------------------------------
 
          Ground-State Mulliken Net Atomic Charges

     Atom                 Charge (a.u.)
  ----------------------------------------
      1 C                    -0.077001
      2 C                    -0.326618
      3 C                    -0.028776
      4 H                     0.177043
      5 C                     0.113649
      6 S                    -0.173974
      7 C                    -0.271785
      8 H                     0.114617
      9 H                     0.105538
     10 H                     0.103570
     11 C                    -0.113172
     12 C                    -0.228380
     13 C                     0.015549
     14 H                     0.192144
     15 C                    -0.242370
     16 S                     0.006671
     17 C                    -0.273863
     18 H                     0.101714
     19 H                     0.107778
     20 H                     0.108836
     21 H                     0.197665
     22 H                     0.110796
     23 H                     0.114306
     24 H                     0.166063
  ----------------------------------------
  Sum of atomic charges =     0.000000

 -----------------------------------------------------------------
                    Cartesian Multipole Moments
 -----------------------------------------------------------------
    Charge (ESU x 10^10)
                -0.0000
    Dipole Moment (Debye)
         X      -2.0511      Y       0.3306      Z       2.3626
       Tot       3.1462
    Quadrupole Moments (Debye-Ang)
        XX     -91.6946     XY       5.4171     YY     -73.6095
        XZ       0.0034     YZ      -0.2212     ZZ     -85.6338
    Octopole Moments (Debye-Ang^2)
       XXX     -38.1572    XXY      44.6233    XYY      -5.9766
       YYY     123.7557    XXZ       2.0813    XYZ       2.3370
       YYZ      -5.9672    XZZ     -12.7679    YZZ      53.6331
       ZZZ       2.8868
    Hexadecapole Moments (Debye-Ang^3)
      XXXX    -509.6888   XXXY     -73.3509   XXYY    -590.4037
      XYYY     -64.5598   YYYY   -2755.4187   XXXZ     122.0187
      XXYZ     -45.1999   XYYZ      22.2391   YYYZ    -104.8902
      XXZZ    -215.8500   XYZZ     -12.4270   YYZZ    -617.5083
      XZZZ     122.5720   YZZZ    -102.5384   ZZZZ    -775.4892
 -----------------------------------------------------------------
 Total job time:  643.18s(wall), 639.81s(cpu) 
 Sun Jul 10 04:21:12 2022

        *************************************************************
        *                                                           *
        *  Thank you very much for using Q-Chem.  Have a nice day.  *
        *                                                           *
        *************************************************************


remove work dirs ./qchem1839633.0 -- ./qchem1839633.-1
rm -rf ./qchem1839633
You are running Q-Chem version: 5.4.0

#
# job setting
#
local host:  exp-6-19
current dir: /expanse/lustre/scratch/theleonzhang/temp_project/Hydrogenated_Rotation_Test
input file:  Methylthiophene_Phi_10_Theta_230_Methylthiophene_Hydrogenated_Alternate.qcin
output file: 
nprocs     : 0
nthreads   : 1
#
# qchem installation setting
#
QC:          /cm/shared/apps/spack/cpu/opt/spack/linux-centos8-zen2/gcc-10.2.0/qchem-5.4-akfmr7b3t57bfs6qan3padb2wnb2i7cl
QCAUX:       /cm/shared/apps/spack/cpu/opt/spack/linux-centos8-zen2/gcc-10.2.0/qchem-5.4-akfmr7b3t57bfs6qan3padb2wnb2i7cl/qcaux
QCPROG:      /cm/shared/apps/spack/cpu/opt/spack/linux-centos8-zen2/gcc-10.2.0/qchem-5.4-akfmr7b3t57bfs6qan3padb2wnb2i7cl/exe/qcprog.exe_s
QCPROG_S:    /cm/shared/apps/spack/cpu/opt/spack/linux-centos8-zen2/gcc-10.2.0/qchem-5.4-akfmr7b3t57bfs6qan3padb2wnb2i7cl/exe/qcprog.exe_s
PARALLEL:    -DSERIAL
QCMPI:       mpich
#
# qchem directory setting
#
qcrun:       qchem2312431
QCSCRATCH:   .
QCLOCALSCR:  
QCTMPDIR:    .
QCFILEPREF:  ./qchem2312431
QCSAVEDIR:   
workdirs:    ./qchem2312431
workdir0:    ./qchem2312431
partmpdirs =  
#
# parallel setting
#
QCRSH:           ssh
QCMPI:           mpich
QCMPIRUN:        /cm/shared/apps/spack/cpu/opt/spack/linux-centos8-zen2/gcc-10.2.0/qchem-5.4-akfmr7b3t57bfs6qan3padb2wnb2i7cl/bin/mpi/mpirun_qchem
QCMACHINEFILE:   ./qchem2312431/hostfile

#
# env setting
#
exported envs:   QC QCAUX QCSCRATCH QCRUNNAME QCFILEPREF QCPROG QCPROG_S GUIFILE

Running Job 1 of 1 Methylthiophene_Phi_10_Theta_230_Methylthiophene_Hydrogenated_Alternate.qcin
qchem Methylthiophene_Phi_10_Theta_230_Methylthiophene_Hydrogenated_Alternate.qcin_2312431.0 ./qchem2312431/ 0
/cm/shared/apps/spack/cpu/opt/spack/linux-centos8-zen2/gcc-10.2.0/qchem-5.4-akfmr7b3t57bfs6qan3padb2wnb2i7cl/exe/qcprog.exe_s Methylthiophene_Phi_10_Theta_230_Methylthiophene_Hydrogenated_Alternate.qcin_2312431.0 ./qchem2312431/
                  Welcome to Q-Chem
     A Quantum Leap Into The Future Of Chemistry


 Q-Chem 5.4, Q-Chem, Inc., Pleasanton, CA (2021)

 License issued to: University of California, San Diego (site)

 E. Epifanovsky,  A. T. B. Gilbert,  Xintian Feng,  Joonho Lee,  Yuezhi Mao,  
 N. Mardirossian,  P. Pokhilko,  A. White,  M. Wormit,  M. P. Coons,  
 A. L. Dempwolff,  Zhengting Gan,  D. Hait,  P. R. Horn,  L. D. Jacobson,  
 I. Kaliman,  J. Kussmann,  A. W. Lange,  Ka Un Lao,  D. S. Levine,  Jie Liu,  
 S. C. McKenzie,  A. F. Morrison,  K. Nanda,  F. Plasser,  D. R. Rehn,  
 M. L. Vidal,  Zhi-Qiang You,  Ying Zhu,  B. Alam,  B. Albrecht,  
 A. Aldossary,  E. Alguire,  J. H. Andersen,  D. Barton,  K. Begam,  A. Behn,  
 Y. A. Bernard,  E. J. Berquist,  H. Burton,  A. Carreras,  K. Carter-Fenk,  
 R. Chakraborty,  A. D. Chien,  K. D. Closser,  V. Cofer-Shabica,  
 S. Dasgupta,  Jia Deng,  M. de Wergifosse,  M. Diedenhofen,  Hainam Do,  
 S. Ehlert,  Po-Tung Fang,  S. Fatehi,  Qingguo Feng,  J. Gayvert,  
 Qinghui Ge,  G. Gidofalvi,  M. Goldey,  J. Gomes,  C. Gonzalez-Espinoza,  
 S. Gulania,  A. Gunina,  M. W. D. Hanson-Heine,  P. H. P. Harbach,  
 A. W. Hauser,  M. F. Herbst,  M. Hernandez Vera,  M. Hodecker,  
 Z. C. Holden,  S. Houck,  Xunkun Huang,  Kerwin Hui,  B. C. Huynh,  
 M. Ivanov,  Hyunjun Ji,  Hanjie Jiang,  B. Kaduk,  S. Kaehler,  
 K. Khistyaev,  Jaehoon Kim,  P. Klunzinger,  Z. Koczor-Benda,  
 Joong Hoon Koh,  D. Kosenkov,  L. Koulias,  T. Kowalczyk,  C. M. Krauter,  
 K. Kue,  A. Kunitsa,  T. Kus,  A. Landau,  K. V. Lawler,  D. Lefrancois,  
 S. Lehtola,  Rain Li,  Yi-Pei Li,  Jiashu Liang,  M. Liebenthal,  
 Hung-Hsuan Lin,  You-Sheng Lin,  Fenglai Liu,  Kuan-Yu Liu,  
 M. Loipersberger,  A. Luenser,  A. Manjanath,  P. Manohar,  E. Mansoor,  
 S. F. Manzer,  Shan-Ping Mao,  A. V. Marenich,  T. Markovich,  S. Mason,  
 S. A. Maurer,  P. F. McLaughlin,  M. F. S. J. Menger,  J.-M. Mewes,  
 S. A. Mewes,  P. Morgante,  J. W. Mullinax,  T. S. Nguyen-Beck,  
 K. J. Oosterbaan,  G. Paran,  Alexander C. Paul,  Suranjan K. Paul,  
 F. Pavosevic,  Zheng Pei,  S. Prager,  E. I. Proynov,  E. Ramos,  B. Rana,  
 A. E. Rask,  A. Rettig,  R. M. Richard,  F. Rob,  E. Rossomme,  T. Scheele,  
 M. Scheurer,  M. Schneider,  N. Sergueev,  S. M. Sharada,  W. Skomorowski,  
 D. W. Small,  C. J. Stein,  Yu-Chuan Su,  E. J. Sundstrom,  Zhen Tao,  
 J. Thirman,  T. Tsuchimochi,  N. M. Tubman,  S. P. Veccham,  O. Vydrov,  
 J. Wenzel,  J. Witte,  A. Yamada,  Kun Yao,  S. Yeganeh,  S. R. Yost,  
 A. Zech,  Igor Ying Zhang,  Xing Zhang,  Yu Zhang,  D. Zuev,  
 A. Aspuru-Guzik,  A. T. Bell,  N. A. Besley,  K. B. Bravaya,  B. R. Brooks,  
 D. Casanova,  Jeng-Da Chai,  S. Coriani,  C. J. Cramer,  
 A. E. DePrince, III,  R. A. DiStasio Jr.,  A. Dreuw,  B. D. Dunietz,  
 T. R. Furlani,  W. A. Goddard III,  S. Grimme,  S. Hammes-Schiffer,  
 T. Head-Gordon,  W. J. Hehre,  Chao-Ping Hsu,  T.-C. Jagau,  Yousung Jung,  
 A. Klamt,  Jing Kong,  D. S. Lambrecht,  WanZhen Liang,  N. J. Mayhall,  
 C. W. McCurdy,  J. B. Neaton,  C. Ochsenfeld,  J. A. Parkhill,  R. Peverati,  
 V. A. Rassolov,  Yihan Shao,  L. V. Slipchenko,  T. Stauch,  R. P. Steele,  
 J. E. Subotnik,  A. J. W. Thom,  A. Tkatchenko,  D. G. Truhlar,  
 T. Van Voorhis,  T. A. Wesolowski,  K. B. Whaley,  H. L. Woodcock III,  
 P. M. Zimmerman,  S. Faraji,  P. M. W. Gill,  M. Head-Gordon,  
 J. M. Herbert,  A. I. Krylov

 Contributors to earlier versions of Q-Chem not listed above: 
 R. D. Adamson,  B. Austin,  R. Baer,  J. Baker,  G. J. O. Beran,  
 K. Brandhorst,  S. T. Brown,  E. F. C. Byrd,  A. K. Chakraborty,  
 G. K. L. Chan,  Chun-Min Chang,  Yunqing Chen,  C.-L. Cheng,  
 Siu Hung Chien,  D. M. Chipman,  D. L. Crittenden,  H. Dachsel,  
 R. J. Doerksen,  A. D. Dutoi,  R. G. Edgar,  J. Fosso-Tande,  
 L. Fusti-Molnar,  D. Ghosh,  A. Ghysels,  A. Golubeva-Zadorozhnaya,  
 J. Gonthier,  M. S. Gordon,  S. R. Gwaltney,  G. Hawkins,  J. E. Herr,  
 A. Heyden,  S. Hirata,  E. G. Hohenstein,  G. Kedziora,  F. J. Keil,  
 C. Kelley,  Jihan Kim,  R. A. King,  R. Z. Khaliullin,  P. P. Korambath,  
 W. Kurlancheek,  A. Laurent,  A. M. Lee,  M. S. Lee,  S. V. Levchenko,  
 Ching Yeh Lin,  D. Liotard,  E. Livshits,  R. C. Lochan,  I. Lotan,  
 L. A. Martinez-Martinez,  P. E. Maslen,  N. Nair,  D. P. O'Neill,  
 D. Neuhauser,  E. Neuscamman,  C. M. Oana,  R. Olivares-Amaya,  R. Olson,  
 T. M. Perrine,  B. Peters,  P. A. Pieniazek,  A. Prociuk,  Y. M. Rhee,  
 J. Ritchie,  M. A. Rohrdanz,  E. Rosta,  N. J. Russ,  H. F. Schaefer III,  
 M. W. Schmidt,  N. E. Schultz,  S. Sharma,  N. Shenvi,  C. D. Sherrill,  
 A. C. Simmonett,  A. Sodt,  T. Stein,  D. Stuck,  K. S. Thanthiriwatte,  
 V. Vanovschi,  L. Vogt,  Tao Wang,  A. Warshel,  M. A. Watson,  
 C. F. Williams,  Q. Wu,  X. Xu,  Jun Yang,  W. Zhang,  Yan Zhao

 Please cite Q-Chem as follows:
 Y. Shao et al., Mol. Phys. 113, 184-215 (2015)
 DOI: 10.1080/00268976.2014.952696

 Q-Chem 5.4.0 for Intel X86 EM64T Linux

 Parts of Q-Chem use Armadillo 9.800.1 (Horizon Scraper).
 http://arma.sourceforge.net/

 Q-Chem begins on Sun Jul 10 04:44:27 2022  

 Host: 
0

     Scratch files written to ./qchem2312431//
 May1621 |scratch|qcdevops|jenkins|workspace|build_RNUM    
 Processing $rem in /cm/shared/apps/spack/cpu/opt/spack/linux-centos8-zen2/gcc-10.2.0/qchem-5.4-akfmr7b3t57bfs6qan3padb2wnb2i7cl/config/preferences:
 Processing $rem in /home/theleonzhang/.qchemrc:
 Symmetry turned off for PCM/SM12/SMD calculation
 Core orbitals will be frozen

 Checking the input file for inconsistencies... 	...done.

--------------------------------------------------------------
User input:
--------------------------------------------------------------
$molecule
0 1
C	0.594240	-3.866725	-0.497696
C	-0.469057	-3.703963	0.393981
C	-0.817136	-2.357056	0.685571
H	-0.997777	-4.561092	0.837848
C	-0.000000	-1.440664	-0.000000
S	1.183137	-2.286957	-0.992782
C	-1.932056	-1.978743	1.620802
H	-2.426166	-2.878678	2.035506
H	-2.711806	-1.376015	1.109943
H	-1.564678	-1.375728	2.477350
C	0.000000	0.000000	0.000000
C	0.149995	0.850475	1.099446
C	0.390327	2.213354	0.776721
H	0.085947	0.487279	2.136088
C	0.428665	2.430655	-0.612546
S	0.163670	0.928078	-1.486809
C	0.579235	3.284574	1.814609
H	0.505323	2.865404	2.836676
H	-0.185980	4.083890	1.726239
H	1.571698	3.773937	1.726228
H	0.593515	3.365448	-1.161575
H	0.281143	-4.392713	-1.406441
H	1.434879	-4.392347	-0.031265
H	-0.694122	-1.440937	-0.827402
$end

$rem
JOBTYPE		SP
EXCHANGE	HF
CORRELATION	pRIMP2
BASIS		cc-pvtz
METHOD		rimp2
AUX_BASIS	rimp2-cc-pvtz
SOLVENT_METHOD	PCM
PURECART	11111
SYMMETRY	false
MEM_TOTAL	110000
SCF_CONVERGENCE = 6
THRESH=10
$end



$solvent
dielectric 4.90
$end
--------------------------------------------------------------
 ----------------------------------------------------------------
             Standard Nuclear Orientation (Angstroms)
    I     Atom           X                Y                Z
 ----------------------------------------------------------------
    1      C       0.5942400000    -3.8667250000    -0.4976960000
    2      C      -0.4690570000    -3.7039630000     0.3939810000
    3      C      -0.8171360000    -2.3570560000     0.6855710000
    4      H      -0.9977770000    -4.5610920000     0.8378480000
    5      C       0.0000000000    -1.4406640000     0.0000000000
    6      S       1.1831370000    -2.2869570000    -0.9927820000
    7      C      -1.9320560000    -1.9787430000     1.6208020000
    8      H      -2.4261660000    -2.8786780000     2.0355060000
    9      H      -2.7118060000    -1.3760150000     1.1099430000
   10      H      -1.5646780000    -1.3757280000     2.4773500000
   11      C       0.0000000000     0.0000000000     0.0000000000
   12      C       0.1499950000     0.8504750000     1.0994460000
   13      C       0.3903270000     2.2133540000     0.7767210000
   14      H       0.0859470000     0.4872790000     2.1360880000
   15      C       0.4286650000     2.4306550000    -0.6125460000
   16      S       0.1636700000     0.9280780000    -1.4868090000
   17      C       0.5792350000     3.2845740000     1.8146090000
   18      H       0.5053230000     2.8654040000     2.8366760000
   19      H      -0.1859800000     4.0838900000     1.7262390000
   20      H       1.5716980000     3.7739370000     1.7262280000
   21      H       0.5935150000     3.3654480000    -1.1615750000
   22      H       0.2811430000    -4.3927130000    -1.4064410000
   23      H       1.4348790000    -4.3923470000    -0.0312650000
   24      H      -0.6941220000    -1.4409370000    -0.8274020000
 ----------------------------------------------------------------
 Nuclear Repulsion Energy =         873.99784174 hartrees
 There are       52 alpha and       52 beta electrons

 Q-Chem warning in module forms1/BasisType.C, line 2236:

 You are not using the predefined 5D/6D in this basis set.

 Requested basis set is cc-pVTZ
 There are 196 shells and 536 basis functions

 Total QAlloc Memory Limit 110000 MB
 Mega-Array Size       188 MB
 MEM_STATIC part       192 MB
 Discretize the solute cavity surface with Lebedev spheres
	Using 110 Lebedev grid points for each H atom
	Using 194 Lebedev grid points for other atoms
	Atomic van der Waals radii will be scaled by 1.20
 Remove points where switching function is < 1.0e-08
 Keep 1605 surface tesserae and discard 2043 interior tesserae
 Molecular Surface Area = 235.743 Angst**2
 Requested basis set is rimp2-cc-pVTZ
 There are 414 shells and 1414 basis functions
 A cutoff of  1.0D-10 yielded  13953 shell pairs
 There are    101099 function pairs (    129640 Cartesian)
 Smallest overlap matrix eigenvalue = 6.51E-05

 Scale SEOQF with 1.000000e-01/1.000000e-01/1.000000e-01

 Standard Electronic Orientation quadrupole field applied
 Nucleus-field energy     =     0.0000000305 hartrees
 Guess from superposition of atomic densities
 Warning:  Energy on first SCF cycle will be non-variational
 SAD guess density has 104.000000 electrons

 -----------------------------------------------------------------------
  General SCF calculation program by
  Eric Jon Sundstrom, Paul Horn, Yuezhi Mao, Dmitri Zuev, Alec White,
  David Stuck, Shaama M.S., Shane Yost, Joonho Lee, David Small,
  Daniel Levine, Susi Lehtola, Hugh Burton, Evgeny Epifanovsky,
  Bang C. Huynh
 -----------------------------------------------------------------------
 Hartree-Fock
 A restricted SCF calculation will be
 performed using DIIS
 SCF converges when DIIS error is below 1.0e-06
 ---------------------------------------
  Cycle       Energy         DIIS error
 ---------------------------------------
    1   -1186.0245476614      2.39e-02  
    2   -1180.6124908492      1.57e-03  
    3   -1180.7376061765      6.18e-04  
    4   -1180.7522511646      3.33e-04  
    5   -1180.7573650337      6.00e-05  
    6   -1180.7576147574      2.47e-05  
    7   -1180.7576751888      9.08e-06  
    8   -1180.7576889383      4.44e-06  
    9   -1180.7576920464      1.45e-06  
   10   -1180.7576925119      5.15e-07  Convergence criterion met
 ---------------------------------------
 SCF time:   CPU 557.97s  wall 560.00s 

************** Final PCM Free Energy Summary **************
 G_electrostatic  =      -0.00939860 hartree =      -5.89770937 kcal/mol
 G_cavitation     =       0.00000000 hartree =       0.00000000 kcal/mol
 G_dispersion     =       0.00000000 hartree =       0.00000000 kcal/mol
 G_repulsion      =       0.00000000 hartree =       0.00000000 kcal/mol
 --------------------------------------------------
 Non-electrostatic Free Energy =       0.00000000 hartree =       0.00000000 kcal/mol
 Total                         =      -0.00939860 hartree =      -5.89770937 kcal/mol
 --------------------------------------------------
 SCF Energy (H0 + V/2)                       =   -1180.75769251 
 Solute Internal Energy (H0)                 =   -1180.74829391 
 Total Free Energy (H0 + V/2 + non-elec)     =   -1180.75769251 hartree
                                             = -740936.63500733 kcal/mol
***********************************************************

 SCF   energy in the final basis set =    -1180.7576925119
 Total energy in the final basis set =    -1180.7576925119


 --------------------------------------------------------------
  Generalized many-body perturbation theory program
  by Joonho Lee, Fazle Rob, Xintian Feng, Evgeny Epifanovsky

 No regularization used 
 (reg. param. = 0.0000e+00)
  (P|Q)^-1/2 Time:  CPU 1.88 s  wall 1.89 s

 In RI-MP2 calculation: 
 # of frozen core orbitals: 20

 Components of the RIMP2 correlation energy:
        aaaa    correlation energy =        -0.2510226068 a.u.
        abab    correlation energy =        -1.5026116403 a.u.
        bbbb    correlation energy =        -0.2510226068 a.u.
        non-Brillouin singles      =        -0.0000000000 a.u.
        total same-spin energy     =        -0.5020452136 a.u.
        total opposite-spin energy =        -1.5026116403 a.u.

 Total  RIMP2   correlation energy =        -2.0046568539 a.u.
        RIMP2         total energy =     -1182.7623493658 a.u.

 RI-MP2 Energy Time:  CPU 78.98 s  wall 79.24 s
 
 --------------------------------------------------------------
 
                    Orbital Energies (a.u.)
 --------------------------------------------------------------
 
 Alpha MOs
 -- Occupied --
-91.9847 -91.9429 -11.2822 -11.2641 -11.2620 -11.2566 -11.2504 -11.2418
-11.2360 -11.2324 -11.2285 -11.2204  -8.9845  -8.9476  -6.6654  -6.6649
 -6.6642  -6.6289  -6.6279  -6.6266  -1.1994  -1.1532  -1.0589  -1.0288
 -1.0011  -0.9632  -0.9132  -0.9002  -0.8155  -0.7603  -0.7410  -0.7026
 -0.6543  -0.6379  -0.6104  -0.5898  -0.5803  -0.5691  -0.5667  -0.5543
 -0.5442  -0.5319  -0.5153  -0.5054  -0.4901  -0.4810  -0.4646  -0.4488
 -0.3562  -0.3422  -0.3200  -0.2720
 -- Virtual --
  0.0956   0.1303   0.1408   0.1505   0.1590   0.1691   0.1778   0.1859
  0.1916   0.2013   0.2039   0.2150   0.2284   0.2325   0.2370   0.2431
  0.2524   0.2559   0.2791   0.2962   0.3232   0.3353   0.3455   0.3593
  0.3686   0.3709   0.3768   0.3855   0.4005   0.4061   0.4121   0.4212
  0.4343   0.4425   0.4498   0.4673   0.4739   0.4824   0.4849   0.4875
  0.4988   0.5086   0.5103   0.5267   0.5375   0.5438   0.5487   0.5539
  0.5690   0.5746   0.5884   0.5916   0.6027   0.6086   0.6147   0.6151
  0.6229   0.6286   0.6337   0.6365   0.6409   0.6482   0.6492   0.6603
  0.6619   0.6752   0.6848   0.6901   0.6997   0.7026   0.7079   0.7250
  0.7276   0.7480   0.7649   0.7749   0.7763   0.7907   0.8095   0.8240
  0.8306   0.8521   0.8578   0.8617   0.8836   0.8902   0.8982   0.9073
  0.9372   0.9419   0.9441   0.9616   0.9697   0.9779   1.0069   1.0120
  1.0162   1.0261   1.0346   1.0394   1.0569   1.0646   1.0752   1.0814
  1.0862   1.1000   1.1187   1.1201   1.1352   1.1376   1.1631   1.1694
  1.1801   1.1946   1.2001   1.2055   1.2122   1.2271   1.2324   1.2450
  1.2474   1.2637   1.2658   1.2749   1.2765   1.2934   1.3027   1.3192
  1.3229   1.3320   1.3448   1.3643   1.3841   1.3895   1.4062   1.4158
  1.4188   1.4420   1.4510   1.4533   1.4636   1.4805   1.4864   1.4927
  1.5060   1.5136   1.5207   1.5276   1.5348   1.5371   1.5506   1.5541
  1.5690   1.5791   1.5829   1.6007   1.6213   1.6249   1.6355   1.6414
  1.6486   1.6564   1.6782   1.6879   1.7049   1.7142   1.7272   1.7362
  1.7469   1.7525   1.7602   1.7935   1.8209   1.8299   1.8407   1.8656
  1.8769   1.9011   1.9279   1.9308   1.9366   1.9579   1.9878   2.0012
  2.0171   2.0304   2.0476   2.0736   2.0767   2.1111   2.1329   2.1576
  2.1725   2.1906   2.2069   2.2240   2.2316   2.2510   2.2695   2.2757
  2.2997   2.3271   2.3391   2.3730   2.4137   2.4469   2.4581   2.4731
  2.4891   2.5114   2.5270   2.5447   2.5744   2.5819   2.5907   2.6017
  2.6255   2.6369   2.6571   2.6666   2.6758   2.6855   2.6908   2.7344
  2.7429   2.7531   2.7622   2.7728   2.7764   2.7924   2.8006   2.8162
  2.8419   2.8505   2.8666   2.8739   2.8772   2.9044   2.9087   2.9229
  2.9432   2.9620   2.9654   2.9799   3.0035   3.0184   3.0357   3.0408
  3.0532   3.0776   3.0856   3.1085   3.1141   3.1194   3.1263   3.1323
  3.1447   3.1532   3.1645   3.1757   3.1807   3.1883   3.2004   3.2137
  3.2264   3.2481   3.2568   3.2669   3.2778   3.2874   3.2953   3.3132
  3.3167   3.3190   3.3349   3.3391   3.3425   3.3504   3.3577   3.3655
  3.3701   3.3883   3.3934   3.3992   3.4125   3.4185   3.4216   3.4246
  3.4395   3.4453   3.4506   3.4648   3.4710   3.4749   3.5018   3.5112
  3.5180   3.5196   3.5302   3.5390   3.5541   3.5594   3.5641   3.5815
  3.5868   3.5943   3.6108   3.6218   3.6321   3.6389   3.6504   3.6570
  3.6711   3.6760   3.6839   3.7004   3.7105   3.7169   3.7349   3.7449
  3.7480   3.7540   3.7650   3.7760   3.7813   3.7884   3.7972   3.8092
  3.8339   3.8397   3.8557   3.8619   3.8714   3.8971   3.9030   3.9187
  3.9214   3.9446   3.9599   3.9637   3.9746   3.9832   3.9918   4.0208
  4.0246   4.0335   4.0500   4.0590   4.0614   4.0806   4.0883   4.0952
  4.1181   4.1265   4.1493   4.1517   4.1571   4.1681   4.1819   4.1989
  4.2141   4.2182   4.2294   4.2416   4.2541   4.2619   4.2761   4.2809
  4.3008   4.3020   4.3149   4.3173   4.3427   4.3547   4.3617   4.3698
  4.3834   4.3922   4.4015   4.4023   4.4204   4.4230   4.4360   4.4577
  4.4587   4.4770   4.4793   4.4861   4.4951   4.5095   4.5368   4.5512
  4.5752   4.5864   4.6062   4.6141   4.6234   4.6421   4.6554   4.6708
  4.6997   4.7089   4.7384   4.7583   4.7763   4.8081   4.8184   4.8447
  4.8611   4.8768   4.8808   4.8995   4.9159   4.9548   4.9835   4.9980
  5.0225   5.0368   5.0893   5.1000   5.1196   5.1322   5.1704   5.1737
  5.1976   5.2107   5.2401   5.2684   5.2711   5.2924   5.3045   5.3301
  5.3438   5.3697   5.3798   5.3998   5.4151   5.4257   5.4389   5.4470
  5.4729   5.5203   5.5262   5.5361   5.5479   5.5574   5.5699   5.5952
  5.6112   5.6244   5.6331   5.6685   5.6803   5.6977   5.7053   5.7368
  5.7660   5.7866   5.8310   5.9791   6.0204   6.0736   6.1206   6.1566
  6.2039   6.2234   6.2310   6.2317   6.2554   6.2887   6.3039   6.3447
  6.3795   6.5240   9.3838  10.8627  12.0557  12.9587  13.2245  13.9975
 14.0828  14.1899  14.3299  14.6835
 --------------------------------------------------------------
 
          Ground-State Mulliken Net Atomic Charges

     Atom                 Charge (a.u.)
  ----------------------------------------
      1 C                    -0.077001
      2 C                    -0.326618
      3 C                    -0.028776
      4 H                     0.177043
      5 C                     0.113649
      6 S                    -0.173974
      7 C                    -0.271785
      8 H                     0.114617
      9 H                     0.105538
     10 H                     0.103570
     11 C                    -0.113172
     12 C                    -0.228380
     13 C                     0.015549
     14 H                     0.192144
     15 C                    -0.242370
     16 S                     0.006671
     17 C                    -0.273863
     18 H                     0.101714
     19 H                     0.107778
     20 H                     0.108836
     21 H                     0.197665
     22 H                     0.110796
     23 H                     0.114306
     24 H                     0.166063
  ----------------------------------------
  Sum of atomic charges =     0.000000

 -----------------------------------------------------------------
                    Cartesian Multipole Moments
 -----------------------------------------------------------------
    Charge (ESU x 10^10)
                -0.0000
    Dipole Moment (Debye)
         X      -2.0511      Y       0.3306      Z       2.3626
       Tot       3.1462
    Quadrupole Moments (Debye-Ang)
        XX     -91.6946     XY       5.4171     YY     -73.6095
        XZ       0.0034     YZ      -0.2212     ZZ     -85.6338
    Octopole Moments (Debye-Ang^2)
       XXX     -38.1572    XXY      44.6233    XYY      -5.9766
       YYY     123.7557    XXZ       2.0813    XYZ       2.3370
       YYZ      -5.9672    XZZ     -12.7679    YZZ      53.6331
       ZZZ       2.8868
    Hexadecapole Moments (Debye-Ang^3)
      XXXX    -509.6888   XXXY     -73.3509   XXYY    -590.4037
      XYYY     -64.5598   YYYY   -2755.4187   XXXZ     122.0187
      XXYZ     -45.1999   XYYZ      22.2391   YYYZ    -104.8902
      XXZZ    -215.8500   XYZZ     -12.4270   YYZZ    -617.5083
      XZZZ     122.5720   YZZZ    -102.5384   ZZZZ    -775.4892
 -----------------------------------------------------------------
 Total job time:  641.95s(wall), 637.82s(cpu) 
 Sun Jul 10 04:55:09 2022

        *************************************************************
        *                                                           *
        *  Thank you very much for using Q-Chem.  Have a nice day.  *
        *                                                           *
        *************************************************************


remove work dirs ./qchem2312431.0 -- ./qchem2312431.-1
rm -rf ./qchem2312431
