You are running Q-Chem version: 5.4.0

#
# job setting
#
local host:  exp-2-06
current dir: /expanse/lustre/scratch/theleonzhang/temp_project/Hydrogenated_Rotation_Test
input file:  Methylthiophene_Phi_50_Theta_210_Methylthiophene_Hydrogenated.qcin
output file: 
nprocs     : 0
nthreads   : 1
#
# qchem installation setting
#
QC:          /cm/shared/apps/spack/cpu/opt/spack/linux-centos8-zen2/gcc-10.2.0/qchem-5.4-akfmr7b3t57bfs6qan3padb2wnb2i7cl
QCAUX:       /cm/shared/apps/spack/cpu/opt/spack/linux-centos8-zen2/gcc-10.2.0/qchem-5.4-akfmr7b3t57bfs6qan3padb2wnb2i7cl/qcaux
QCPROG:      /cm/shared/apps/spack/cpu/opt/spack/linux-centos8-zen2/gcc-10.2.0/qchem-5.4-akfmr7b3t57bfs6qan3padb2wnb2i7cl/exe/qcprog.exe_s
QCPROG_S:    /cm/shared/apps/spack/cpu/opt/spack/linux-centos8-zen2/gcc-10.2.0/qchem-5.4-akfmr7b3t57bfs6qan3padb2wnb2i7cl/exe/qcprog.exe_s
PARALLEL:    -DSERIAL
QCMPI:       mpich
#
# qchem directory setting
#
qcrun:       qchem1867663
QCSCRATCH:   .
QCLOCALSCR:  
QCTMPDIR:    .
QCFILEPREF:  ./qchem1867663
QCSAVEDIR:   
workdirs:    ./qchem1867663
workdir0:    ./qchem1867663
partmpdirs =  
#
# parallel setting
#
QCRSH:           ssh
QCMPI:           mpich
QCMPIRUN:        /cm/shared/apps/spack/cpu/opt/spack/linux-centos8-zen2/gcc-10.2.0/qchem-5.4-akfmr7b3t57bfs6qan3padb2wnb2i7cl/bin/mpi/mpirun_qchem
QCMACHINEFILE:   ./qchem1867663/hostfile

#
# env setting
#
exported envs:   QC QCAUX QCSCRATCH QCRUNNAME QCFILEPREF QCPROG QCPROG_S GUIFILE

Running Job 1 of 1 Methylthiophene_Phi_50_Theta_210_Methylthiophene_Hydrogenated.qcin
qchem Methylthiophene_Phi_50_Theta_210_Methylthiophene_Hydrogenated.qcin_1867663.0 ./qchem1867663/ 0
/cm/shared/apps/spack/cpu/opt/spack/linux-centos8-zen2/gcc-10.2.0/qchem-5.4-akfmr7b3t57bfs6qan3padb2wnb2i7cl/exe/qcprog.exe_s Methylthiophene_Phi_50_Theta_210_Methylthiophene_Hydrogenated.qcin_1867663.0 ./qchem1867663/
                  Welcome to Q-Chem
     A Quantum Leap Into The Future Of Chemistry


 Q-Chem 5.4, Q-Chem, Inc., Pleasanton, CA (2021)

 License issued to: University of California, San Diego (site)

 E. Epifanovsky,  A. T. B. Gilbert,  Xintian Feng,  Joonho Lee,  Yuezhi Mao,  
 N. Mardirossian,  P. Pokhilko,  A. White,  M. Wormit,  M. P. Coons,  
 A. L. Dempwolff,  Zhengting Gan,  D. Hait,  P. R. Horn,  L. D. Jacobson,  
 I. Kaliman,  J. Kussmann,  A. W. Lange,  Ka Un Lao,  D. S. Levine,  Jie Liu,  
 S. C. McKenzie,  A. F. Morrison,  K. Nanda,  F. Plasser,  D. R. Rehn,  
 M. L. Vidal,  Zhi-Qiang You,  Ying Zhu,  B. Alam,  B. Albrecht,  
 A. Aldossary,  E. Alguire,  J. H. Andersen,  D. Barton,  K. Begam,  A. Behn,  
 Y. A. Bernard,  E. J. Berquist,  H. Burton,  A. Carreras,  K. Carter-Fenk,  
 R. Chakraborty,  A. D. Chien,  K. D. Closser,  V. Cofer-Shabica,  
 S. Dasgupta,  Jia Deng,  M. de Wergifosse,  M. Diedenhofen,  Hainam Do,  
 S. Ehlert,  Po-Tung Fang,  S. Fatehi,  Qingguo Feng,  J. Gayvert,  
 Qinghui Ge,  G. Gidofalvi,  M. Goldey,  J. Gomes,  C. Gonzalez-Espinoza,  
 S. Gulania,  A. Gunina,  M. W. D. Hanson-Heine,  P. H. P. Harbach,  
 A. W. Hauser,  M. F. Herbst,  M. Hernandez Vera,  M. Hodecker,  
 Z. C. Holden,  S. Houck,  Xunkun Huang,  Kerwin Hui,  B. C. Huynh,  
 M. Ivanov,  Hyunjun Ji,  Hanjie Jiang,  B. Kaduk,  S. Kaehler,  
 K. Khistyaev,  Jaehoon Kim,  P. Klunzinger,  Z. Koczor-Benda,  
 Joong Hoon Koh,  D. Kosenkov,  L. Koulias,  T. Kowalczyk,  C. M. Krauter,  
 K. Kue,  A. Kunitsa,  T. Kus,  A. Landau,  K. V. Lawler,  D. Lefrancois,  
 S. Lehtola,  Rain Li,  Yi-Pei Li,  Jiashu Liang,  M. Liebenthal,  
 Hung-Hsuan Lin,  You-Sheng Lin,  Fenglai Liu,  Kuan-Yu Liu,  
 M. Loipersberger,  A. Luenser,  A. Manjanath,  P. Manohar,  E. Mansoor,  
 S. F. Manzer,  Shan-Ping Mao,  A. V. Marenich,  T. Markovich,  S. Mason,  
 S. A. Maurer,  P. F. McLaughlin,  M. F. S. J. Menger,  J.-M. Mewes,  
 S. A. Mewes,  P. Morgante,  J. W. Mullinax,  T. S. Nguyen-Beck,  
 K. J. Oosterbaan,  G. Paran,  Alexander C. Paul,  Suranjan K. Paul,  
 F. Pavosevic,  Zheng Pei,  S. Prager,  E. I. Proynov,  E. Ramos,  B. Rana,  
 A. E. Rask,  A. Rettig,  R. M. Richard,  F. Rob,  E. Rossomme,  T. Scheele,  
 M. Scheurer,  M. Schneider,  N. Sergueev,  S. M. Sharada,  W. Skomorowski,  
 D. W. Small,  C. J. Stein,  Yu-Chuan Su,  E. J. Sundstrom,  Zhen Tao,  
 J. Thirman,  T. Tsuchimochi,  N. M. Tubman,  S. P. Veccham,  O. Vydrov,  
 J. Wenzel,  J. Witte,  A. Yamada,  Kun Yao,  S. Yeganeh,  S. R. Yost,  
 A. Zech,  Igor Ying Zhang,  Xing Zhang,  Yu Zhang,  D. Zuev,  
 A. Aspuru-Guzik,  A. T. Bell,  N. A. Besley,  K. B. Bravaya,  B. R. Brooks,  
 D. Casanova,  Jeng-Da Chai,  S. Coriani,  C. J. Cramer,  
 A. E. DePrince, III,  R. A. DiStasio Jr.,  A. Dreuw,  B. D. Dunietz,  
 T. R. Furlani,  W. A. Goddard III,  S. Grimme,  S. Hammes-Schiffer,  
 T. Head-Gordon,  W. J. Hehre,  Chao-Ping Hsu,  T.-C. Jagau,  Yousung Jung,  
 A. Klamt,  Jing Kong,  D. S. Lambrecht,  WanZhen Liang,  N. J. Mayhall,  
 C. W. McCurdy,  J. B. Neaton,  C. Ochsenfeld,  J. A. Parkhill,  R. Peverati,  
 V. A. Rassolov,  Yihan Shao,  L. V. Slipchenko,  T. Stauch,  R. P. Steele,  
 J. E. Subotnik,  A. J. W. Thom,  A. Tkatchenko,  D. G. Truhlar,  
 T. Van Voorhis,  T. A. Wesolowski,  K. B. Whaley,  H. L. Woodcock III,  
 P. M. Zimmerman,  S. Faraji,  P. M. W. Gill,  M. Head-Gordon,  
 J. M. Herbert,  A. I. Krylov

 Contributors to earlier versions of Q-Chem not listed above: 
 R. D. Adamson,  B. Austin,  R. Baer,  J. Baker,  G. J. O. Beran,  
 K. Brandhorst,  S. T. Brown,  E. F. C. Byrd,  A. K. Chakraborty,  
 G. K. L. Chan,  Chun-Min Chang,  Yunqing Chen,  C.-L. Cheng,  
 Siu Hung Chien,  D. M. Chipman,  D. L. Crittenden,  H. Dachsel,  
 R. J. Doerksen,  A. D. Dutoi,  R. G. Edgar,  J. Fosso-Tande,  
 L. Fusti-Molnar,  D. Ghosh,  A. Ghysels,  A. Golubeva-Zadorozhnaya,  
 J. Gonthier,  M. S. Gordon,  S. R. Gwaltney,  G. Hawkins,  J. E. Herr,  
 A. Heyden,  S. Hirata,  E. G. Hohenstein,  G. Kedziora,  F. J. Keil,  
 C. Kelley,  Jihan Kim,  R. A. King,  R. Z. Khaliullin,  P. P. Korambath,  
 W. Kurlancheek,  A. Laurent,  A. M. Lee,  M. S. Lee,  S. V. Levchenko,  
 Ching Yeh Lin,  D. Liotard,  E. Livshits,  R. C. Lochan,  I. Lotan,  
 L. A. Martinez-Martinez,  P. E. Maslen,  N. Nair,  D. P. O'Neill,  
 D. Neuhauser,  E. Neuscamman,  C. M. Oana,  R. Olivares-Amaya,  R. Olson,  
 T. M. Perrine,  B. Peters,  P. A. Pieniazek,  A. Prociuk,  Y. M. Rhee,  
 J. Ritchie,  M. A. Rohrdanz,  E. Rosta,  N. J. Russ,  H. F. Schaefer III,  
 M. W. Schmidt,  N. E. Schultz,  S. Sharma,  N. Shenvi,  C. D. Sherrill,  
 A. C. Simmonett,  A. Sodt,  T. Stein,  D. Stuck,  K. S. Thanthiriwatte,  
 V. Vanovschi,  L. Vogt,  Tao Wang,  A. Warshel,  M. A. Watson,  
 C. F. Williams,  Q. Wu,  X. Xu,  Jun Yang,  W. Zhang,  Yan Zhao

 Please cite Q-Chem as follows:
 Y. Shao et al., Mol. Phys. 113, 184-215 (2015)
 DOI: 10.1080/00268976.2014.952696

 Q-Chem 5.4.0 for Intel X86 EM64T Linux

 Parts of Q-Chem use Armadillo 9.800.1 (Horizon Scraper).
 http://arma.sourceforge.net/

 Q-Chem begins on Sun Jul 10 03:29:27 2022  

 Host: 
0

     Scratch files written to ./qchem1867663//
 May1621 |scratch|qcdevops|jenkins|workspace|build_RNUM    
 Processing $rem in /cm/shared/apps/spack/cpu/opt/spack/linux-centos8-zen2/gcc-10.2.0/qchem-5.4-akfmr7b3t57bfs6qan3padb2wnb2i7cl/config/preferences:
 Processing $rem in /home/theleonzhang/.qchemrc:
 Symmetry turned off for PCM/SM12/SMD calculation
 Core orbitals will be frozen

 Checking the input file for inconsistencies... 	...done.

--------------------------------------------------------------
User input:
--------------------------------------------------------------
$molecule
0 1
C	0.388181	-3.866725	-0.670924
C	-0.306020	-3.703963	0.530648
C	-0.533378	-2.357056	0.923703
H	-0.651043	-4.561092	1.128579
C	0.000000	-1.440664	0.000000
S	0.772234	-2.286957	-1.337567
C	-1.261192	-1.978743	2.183857
H	-1.583666	-2.878678	2.742548
H	-2.168641	-1.376015	1.970497
H	-0.623012	-1.375728	2.863099
C	0.000000	0.000000	0.000000
C	0.661577	0.555087	1.099446
C	1.721724	1.444630	0.776721
H	0.379056	0.318032	2.136088
C	1.890772	1.586449	-0.612546
S	0.721935	0.605744	-1.486809
C	2.555004	2.143805	1.814609
H	2.228946	1.870211	2.836676
H	2.482605	3.247987	1.726239
H	3.629830	1.880735	1.726228
H	2.617927	2.196579	-1.161575
H	-0.216843	-4.392713	-1.417779
H	1.337652	-4.392347	-0.520136
H	-0.935250	-1.440937	-0.540100
$end

$rem
JOBTYPE		SP
EXCHANGE	HF
CORRELATION	pRIMP2
BASIS		cc-pvtz
METHOD		rimp2
AUX_BASIS	rimp2-cc-pvtz
SOLVENT_METHOD	PCM
PURECART	11111
SYMMETRY	false
MEM_TOTAL	110000
SCF_CONVERGENCE = 6
THRESH=10
$end



$solvent
dielectric 4.90
$end
--------------------------------------------------------------
 ----------------------------------------------------------------
             Standard Nuclear Orientation (Angstroms)
    I     Atom           X                Y                Z
 ----------------------------------------------------------------
    1      C       0.3881810000    -3.8667250000    -0.6709240000
    2      C      -0.3060200000    -3.7039630000     0.5306480000
    3      C      -0.5333780000    -2.3570560000     0.9237030000
    4      H      -0.6510430000    -4.5610920000     1.1285790000
    5      C       0.0000000000    -1.4406640000     0.0000000000
    6      S       0.7722340000    -2.2869570000    -1.3375670000
    7      C      -1.2611920000    -1.9787430000     2.1838570000
    8      H      -1.5836660000    -2.8786780000     2.7425480000
    9      H      -2.1686410000    -1.3760150000     1.9704970000
   10      H      -0.6230120000    -1.3757280000     2.8630990000
   11      C       0.0000000000     0.0000000000     0.0000000000
   12      C       0.6615770000     0.5550870000     1.0994460000
   13      C       1.7217240000     1.4446300000     0.7767210000
   14      H       0.3790560000     0.3180320000     2.1360880000
   15      C       1.8907720000     1.5864490000    -0.6125460000
   16      S       0.7219350000     0.6057440000    -1.4868090000
   17      C       2.5550040000     2.1438050000     1.8146090000
   18      H       2.2289460000     1.8702110000     2.8366760000
   19      H       2.4826050000     3.2479870000     1.7262390000
   20      H       3.6298300000     1.8807350000     1.7262280000
   21      H       2.6179270000     2.1965790000    -1.1615750000
   22      H      -0.2168430000    -4.3927130000    -1.4177790000
   23      H       1.3376520000    -4.3923470000    -0.5201360000
   24      H      -0.9352500000    -1.4409370000    -0.5401000000
 ----------------------------------------------------------------
 Nuclear Repulsion Energy =         894.85706399 hartrees
 There are       52 alpha and       52 beta electrons

 Q-Chem warning in module forms1/BasisType.C, line 2236:

 You are not using the predefined 5D/6D in this basis set.

 Requested basis set is cc-pVTZ
 There are 196 shells and 536 basis functions

 Total QAlloc Memory Limit 110000 MB
 Mega-Array Size       188 MB
 MEM_STATIC part       192 MB
 Discretize the solute cavity surface with Lebedev spheres
	Using 110 Lebedev grid points for each H atom
	Using 194 Lebedev grid points for other atoms
	Atomic van der Waals radii will be scaled by 1.20
 Remove points where switching function is < 1.0e-08
 Keep 1574 surface tesserae and discard 2074 interior tesserae
 Molecular Surface Area = 229.529 Angst**2
 Requested basis set is rimp2-cc-pVTZ
 There are 414 shells and 1414 basis functions
 A cutoff of  1.0D-10 yielded  14349 shell pairs
 There are    103931 function pairs (    133238 Cartesian)
 Smallest overlap matrix eigenvalue = 7.24E-05

 Scale SEOQF with 1.000000e-01/1.000000e-01/1.000000e-01

 Standard Electronic Orientation quadrupole field applied
 Nucleus-field energy     =     0.0000000209 hartrees
 Guess from superposition of atomic densities
 Warning:  Energy on first SCF cycle will be non-variational
 SAD guess density has 104.000000 electrons

 -----------------------------------------------------------------------
  General SCF calculation program by
  Eric Jon Sundstrom, Paul Horn, Yuezhi Mao, Dmitri Zuev, Alec White,
  David Stuck, Shaama M.S., Shane Yost, Joonho Lee, David Small,
  Daniel Levine, Susi Lehtola, Hugh Burton, Evgeny Epifanovsky,
  Bang C. Huynh
 -----------------------------------------------------------------------
 Hartree-Fock
 A restricted SCF calculation will be
 performed using DIIS
 SCF converges when DIIS error is below 1.0e-06
 ---------------------------------------
  Cycle       Energy         DIIS error
 ---------------------------------------
    1   -1186.1349183847      2.40e-02  
    2   -1180.5494250616      1.55e-03  
    3   -1180.6762610237      5.62e-04  
    4   -1180.6899947169      3.00e-04  
    5   -1180.6942537853      6.25e-05  
    6   -1180.6945431135      2.64e-05  
    7   -1180.6946289947      1.25e-05  
    8   -1180.6946557703      5.91e-06  
    9   -1180.6946637122      2.49e-06  
   10   -1180.6946650647      9.20e-07  Convergence criterion met
 ---------------------------------------
 SCF time:   CPU 592.48s  wall 595.00s 

************** Final PCM Free Energy Summary **************
 G_electrostatic  =      -0.00971763 hartree =      -6.09790800 kcal/mol
 G_cavitation     =       0.00000000 hartree =       0.00000000 kcal/mol
 G_dispersion     =       0.00000000 hartree =       0.00000000 kcal/mol
 G_repulsion      =       0.00000000 hartree =       0.00000000 kcal/mol
 --------------------------------------------------
 Non-electrostatic Free Energy =       0.00000000 hartree =       0.00000000 kcal/mol
 Total                         =      -0.00971763 hartree =      -6.09790800 kcal/mol
 --------------------------------------------------
 SCF Energy (H0 + V/2)                       =   -1180.69466506 
 Solute Internal Energy (H0)                 =   -1180.68494743 
 Total Free Energy (H0 + V/2 + non-elec)     =   -1180.69466506 hartree
                                             = -740897.08468726 kcal/mol
***********************************************************

 SCF   energy in the final basis set =    -1180.6946650647
 Total energy in the final basis set =    -1180.6946650647


 --------------------------------------------------------------
  Generalized many-body perturbation theory program
  by Joonho Lee, Fazle Rob, Xintian Feng, Evgeny Epifanovsky

 No regularization used 
 (reg. param. = 0.0000e+00)
  (P|Q)^-1/2 Time:  CPU 1.90 s  wall 1.91 s

 In RI-MP2 calculation: 
 # of frozen core orbitals: 20

 Components of the RIMP2 correlation energy:
        aaaa    correlation energy =        -0.2541466708 a.u.
        abab    correlation energy =        -1.5123729978 a.u.
        bbbb    correlation energy =        -0.2541466708 a.u.
        non-Brillouin singles      =        -0.0000000000 a.u.
        total same-spin energy     =        -0.5082933415 a.u.
        total opposite-spin energy =        -1.5123729978 a.u.

 Total  RIMP2   correlation energy =        -2.0206663394 a.u.
        RIMP2         total energy =     -1182.7153314040 a.u.

 RI-MP2 Energy Time:  CPU 80.13 s  wall 80.40 s
 
 --------------------------------------------------------------
 
                    Orbital Energies (a.u.)
 --------------------------------------------------------------
 
 Alpha MOs
 -- Occupied --
-91.9818 -91.9385 -11.2770 -11.2611 -11.2600 -11.2519 -11.2489 -11.2479
-11.2350 -11.2318 -11.2295 -11.2137  -8.9824  -8.9431  -6.6633  -6.6625
 -6.6621  -6.6244  -6.6233  -6.6220  -1.2013  -1.1532  -1.0571  -1.0301
 -0.9978  -0.9658  -0.9101  -0.9009  -0.8139  -0.7571  -0.7398  -0.7056
 -0.6504  -0.6351  -0.6113  -0.5919  -0.5841  -0.5682  -0.5665  -0.5510
 -0.5433  -0.5340  -0.5161  -0.5063  -0.4837  -0.4777  -0.4558  -0.4369
 -0.3536  -0.3402  -0.3235  -0.2565
 -- Virtual --
  0.0658   0.1342   0.1389   0.1530   0.1604   0.1691   0.1774   0.1848
  0.1889   0.2035   0.2091   0.2196   0.2228   0.2386   0.2387   0.2443
  0.2519   0.2639   0.2801   0.2978   0.3072   0.3271   0.3447   0.3590
  0.3647   0.3719   0.3820   0.3932   0.3971   0.4089   0.4199   0.4213
  0.4320   0.4446   0.4536   0.4685   0.4707   0.4780   0.4857   0.4897
  0.5024   0.5138   0.5227   0.5247   0.5308   0.5469   0.5623   0.5633
  0.5733   0.5767   0.5879   0.5906   0.5976   0.6019   0.6135   0.6158
  0.6228   0.6244   0.6309   0.6353   0.6393   0.6457   0.6493   0.6657
  0.6710   0.6761   0.6855   0.6991   0.7063   0.7091   0.7187   0.7206
  0.7446   0.7505   0.7565   0.7711   0.7900   0.7976   0.8087   0.8182
  0.8307   0.8407   0.8520   0.8731   0.8849   0.8893   0.9112   0.9127
  0.9282   0.9324   0.9430   0.9640   0.9729   0.9821   1.0069   1.0197
  1.0227   1.0343   1.0433   1.0517   1.0610   1.0654   1.0758   1.0812
  1.0978   1.1109   1.1135   1.1300   1.1472   1.1526   1.1630   1.1707
  1.1828   1.1912   1.1990   1.2087   1.2242   1.2297   1.2350   1.2416
  1.2464   1.2557   1.2655   1.2731   1.2774   1.2816   1.3011   1.3159
  1.3204   1.3379   1.3412   1.3677   1.3757   1.3880   1.4064   1.4138
  1.4239   1.4278   1.4367   1.4496   1.4744   1.4787   1.4964   1.4993
  1.5055   1.5154   1.5238   1.5311   1.5381   1.5452   1.5504   1.5559
  1.5662   1.5753   1.5861   1.6050   1.6247   1.6287   1.6385   1.6444
  1.6599   1.6685   1.6765   1.6794   1.6993   1.7091   1.7253   1.7357
  1.7474   1.7604   1.7726   1.7876   1.8179   1.8233   1.8387   1.8573
  1.8804   1.8922   1.9123   1.9305   1.9485   1.9827   1.9950   2.0056
  2.0230   2.0465   2.0625   2.0729   2.0981   2.1162   2.1467   2.1657
  2.1836   2.1993   2.2169   2.2247   2.2340   2.2399   2.2562   2.2801
  2.2935   2.3078   2.3597   2.3915   2.4315   2.4362   2.4589   2.4707
  2.4892   2.5212   2.5332   2.5495   2.5654   2.5858   2.6107   2.6213
  2.6322   2.6429   2.6624   2.6680   2.6826   2.6856   2.7159   2.7312
  2.7345   2.7561   2.7644   2.7808   2.7853   2.7919   2.8130   2.8284
  2.8346   2.8382   2.8533   2.8855   2.8981   2.9102   2.9176   2.9274
  2.9456   2.9570   2.9725   2.9954   3.0133   3.0198   3.0330   3.0422
  3.0477   3.0806   3.1015   3.1104   3.1126   3.1294   3.1423   3.1534
  3.1553   3.1624   3.1671   3.1812   3.1825   3.2028   3.2111   3.2304
  3.2358   3.2390   3.2425   3.2487   3.2703   3.2855   3.2953   3.3031
  3.3179   3.3325   3.3342   3.3381   3.3461   3.3513   3.3584   3.3685
  3.3713   3.3832   3.3855   3.3960   3.4084   3.4153   3.4167   3.4312
  3.4386   3.4553   3.4627   3.4647   3.4774   3.4943   3.5100   3.5160
  3.5193   3.5275   3.5360   3.5488   3.5572   3.5680   3.5758   3.5801
  3.5942   3.6008   3.6186   3.6291   3.6379   3.6424   3.6532   3.6687
  3.6769   3.6952   3.6984   3.7120   3.7184   3.7311   3.7454   3.7466
  3.7590   3.7664   3.7797   3.7883   3.8057   3.8111   3.8147   3.8255
  3.8402   3.8438   3.8614   3.8798   3.8891   3.8951   3.9018   3.9250
  3.9439   3.9495   3.9641   3.9681   3.9955   4.0016   4.0156   4.0265
  4.0336   4.0486   4.0542   4.0666   4.0794   4.0822   4.0957   4.1132
  4.1280   4.1379   4.1501   4.1568   4.1654   4.1711   4.1941   4.2074
  4.2095   4.2226   4.2452   4.2549   4.2598   4.2674   4.2788   4.2955
  4.3050   4.3114   4.3175   4.3322   4.3498   4.3630   4.3753   4.3819
  4.3867   4.4022   4.4036   4.4120   4.4180   4.4322   4.4549   4.4577
  4.4633   4.4667   4.4714   4.4828   4.4950   4.5222   4.5364   4.5633
  4.5840   4.5966   4.6096   4.6157   4.6352   4.6583   4.6714   4.6820
  4.7082   4.7181   4.7374   4.7629   4.7876   4.8217   4.8501   4.8593
  4.8712   4.8953   4.9102   4.9278   4.9416   4.9434   4.9826   4.9954
  5.0330   5.0483   5.0828   5.1018   5.1110   5.1259   5.1448   5.1619
  5.1786   5.1990   5.2337   5.2602   5.2851   5.3071   5.3144   5.3232
  5.3442   5.3637   5.3804   5.4022   5.4112   5.4268   5.4415   5.4464
  5.4852   5.5115   5.5358   5.5401   5.5492   5.5653   5.5728   5.5970
  5.6175   5.6186   5.6380   5.6602   5.6792   5.6956   5.7164   5.7272
  5.7820   5.7998   5.8245   5.9890   6.0304   6.0728   6.1105   6.1588
  6.2174   6.2233   6.2410   6.2432   6.2499   6.2822   6.3015   6.3167
  6.3748   6.4119   9.4563  10.4545  12.4592  12.8603  13.1719  13.9743
 14.0955  14.2180  14.3007  14.6416
 --------------------------------------------------------------
 
          Ground-State Mulliken Net Atomic Charges

     Atom                 Charge (a.u.)
  ----------------------------------------
      1 C                    -0.084145
      2 C                    -0.333836
      3 C                    -0.051212
      4 H                     0.173062
      5 C                     0.079556
      6 S                    -0.178064
      7 C                    -0.286890
      8 H                     0.116729
      9 H                     0.108502
     10 H                     0.100228
     11 C                    -0.128376
     12 C                    -0.163783
     13 C                    -0.003933
     14 H                     0.198313
     15 C                    -0.197809
     16 S                     0.013203
     17 C                    -0.269901
     18 H                     0.100941
     19 H                     0.107915
     20 H                     0.106719
     21 H                     0.201071
     22 H                     0.105752
     23 H                     0.108796
     24 H                     0.177160
  ----------------------------------------
  Sum of atomic charges =     0.000000

 -----------------------------------------------------------------
                    Cartesian Multipole Moments
 -----------------------------------------------------------------
    Charge (ESU x 10^10)
                -0.0000
    Dipole Moment (Debye)
         X       0.1976      Y       0.8326      Z       3.0772
       Tot       3.1940
    Quadrupole Moments (Debye-Ang)
        XX     -85.0071     XY       8.7798     YY     -81.8399
        XZ       0.4244     YZ      -1.7834     ZZ     -85.0103
    Octopole Moments (Debye-Ang^2)
       XXX    -143.6630    XXY      88.2408    XYY     -42.7943
       YYY     184.8985    XXZ      -2.8159    XYZ      -0.1424
       YYZ      -4.5951    XZZ     -50.2804    YZZ      74.5719
       ZZZ       5.3560
    Hexadecapole Moments (Debye-Ang^3)
      XXXX    -832.9897   XXXY    -207.8739   XXYY    -541.7894
      XYYY    -220.8936   YYYY   -2341.1954   XXXZ      45.3594
      XXYZ     -36.2404   XYYZ      -1.8846   YYYZ     -62.5545
      XXZZ    -294.5769   XYZZ     -53.5251   YYZZ    -566.6443
      XZZZ      43.1457   YZZZ     -81.7073   ZZZZ    -959.7388
 -----------------------------------------------------------------
 Total job time:  676.45s(wall), 673.51s(cpu) 
 Sun Jul 10 03:40:44 2022

        *************************************************************
        *                                                           *
        *  Thank you very much for using Q-Chem.  Have a nice day.  *
        *                                                           *
        *************************************************************


remove work dirs ./qchem1867663.0 -- ./qchem1867663.-1
rm -rf ./qchem1867663
