You are running Q-Chem version: 5.4.0

#
# job setting
#
local host:  exp-3-14
current dir: /expanse/lustre/scratch/theleonzhang/temp_project/Hydrogenated_Rotation_Test
input file:  Methylthiophene_Phi_25_Theta_210_Methylthiophene_Hydrogenated.qcin
output file: 
nprocs     : 0
nthreads   : 1
#
# qchem installation setting
#
QC:          /cm/shared/apps/spack/cpu/opt/spack/linux-centos8-zen2/gcc-10.2.0/qchem-5.4-akfmr7b3t57bfs6qan3padb2wnb2i7cl
QCAUX:       /cm/shared/apps/spack/cpu/opt/spack/linux-centos8-zen2/gcc-10.2.0/qchem-5.4-akfmr7b3t57bfs6qan3padb2wnb2i7cl/qcaux
QCPROG:      /cm/shared/apps/spack/cpu/opt/spack/linux-centos8-zen2/gcc-10.2.0/qchem-5.4-akfmr7b3t57bfs6qan3padb2wnb2i7cl/exe/qcprog.exe_s
QCPROG_S:    /cm/shared/apps/spack/cpu/opt/spack/linux-centos8-zen2/gcc-10.2.0/qchem-5.4-akfmr7b3t57bfs6qan3padb2wnb2i7cl/exe/qcprog.exe_s
PARALLEL:    -DSERIAL
QCMPI:       mpich
#
# qchem directory setting
#
qcrun:       qchem3410951
QCSCRATCH:   .
QCLOCALSCR:  
QCTMPDIR:    .
QCFILEPREF:  ./qchem3410951
QCSAVEDIR:   
workdirs:    ./qchem3410951
workdir0:    ./qchem3410951
partmpdirs =  
#
# parallel setting
#
QCRSH:           ssh
QCMPI:           mpich
QCMPIRUN:        /cm/shared/apps/spack/cpu/opt/spack/linux-centos8-zen2/gcc-10.2.0/qchem-5.4-akfmr7b3t57bfs6qan3padb2wnb2i7cl/bin/mpi/mpirun_qchem
QCMACHINEFILE:   ./qchem3410951/hostfile

#
# env setting
#
exported envs:   QC QCAUX QCSCRATCH QCRUNNAME QCFILEPREF QCPROG QCPROG_S GUIFILE

Running Job 1 of 1 Methylthiophene_Phi_25_Theta_210_Methylthiophene_Hydrogenated.qcin
qchem Methylthiophene_Phi_25_Theta_210_Methylthiophene_Hydrogenated.qcin_3410951.0 ./qchem3410951/ 0
/cm/shared/apps/spack/cpu/opt/spack/linux-centos8-zen2/gcc-10.2.0/qchem-5.4-akfmr7b3t57bfs6qan3padb2wnb2i7cl/exe/qcprog.exe_s Methylthiophene_Phi_25_Theta_210_Methylthiophene_Hydrogenated.qcin_3410951.0 ./qchem3410951/
                  Welcome to Q-Chem
     A Quantum Leap Into The Future Of Chemistry


 Q-Chem 5.4, Q-Chem, Inc., Pleasanton, CA (2021)

 License issued to: University of California, San Diego (site)

 E. Epifanovsky,  A. T. B. Gilbert,  Xintian Feng,  Joonho Lee,  Yuezhi Mao,  
 N. Mardirossian,  P. Pokhilko,  A. White,  M. Wormit,  M. P. Coons,  
 A. L. Dempwolff,  Zhengting Gan,  D. Hait,  P. R. Horn,  L. D. Jacobson,  
 I. Kaliman,  J. Kussmann,  A. W. Lange,  Ka Un Lao,  D. S. Levine,  Jie Liu,  
 S. C. McKenzie,  A. F. Morrison,  K. Nanda,  F. Plasser,  D. R. Rehn,  
 M. L. Vidal,  Zhi-Qiang You,  Ying Zhu,  B. Alam,  B. Albrecht,  
 A. Aldossary,  E. Alguire,  J. H. Andersen,  D. Barton,  K. Begam,  A. Behn,  
 Y. A. Bernard,  E. J. Berquist,  H. Burton,  A. Carreras,  K. Carter-Fenk,  
 R. Chakraborty,  A. D. Chien,  K. D. Closser,  V. Cofer-Shabica,  
 S. Dasgupta,  Jia Deng,  M. de Wergifosse,  M. Diedenhofen,  Hainam Do,  
 S. Ehlert,  Po-Tung Fang,  S. Fatehi,  Qingguo Feng,  J. Gayvert,  
 Qinghui Ge,  G. Gidofalvi,  M. Goldey,  J. Gomes,  C. Gonzalez-Espinoza,  
 S. Gulania,  A. Gunina,  M. W. D. Hanson-Heine,  P. H. P. Harbach,  
 A. W. Hauser,  M. F. Herbst,  M. Hernandez Vera,  M. Hodecker,  
 Z. C. Holden,  S. Houck,  Xunkun Huang,  Kerwin Hui,  B. C. Huynh,  
 M. Ivanov,  Hyunjun Ji,  Hanjie Jiang,  B. Kaduk,  S. Kaehler,  
 K. Khistyaev,  Jaehoon Kim,  P. Klunzinger,  Z. Koczor-Benda,  
 Joong Hoon Koh,  D. Kosenkov,  L. Koulias,  T. Kowalczyk,  C. M. Krauter,  
 K. Kue,  A. Kunitsa,  T. Kus,  A. Landau,  K. V. Lawler,  D. Lefrancois,  
 S. Lehtola,  Rain Li,  Yi-Pei Li,  Jiashu Liang,  M. Liebenthal,  
 Hung-Hsuan Lin,  You-Sheng Lin,  Fenglai Liu,  Kuan-Yu Liu,  
 M. Loipersberger,  A. Luenser,  A. Manjanath,  P. Manohar,  E. Mansoor,  
 S. F. Manzer,  Shan-Ping Mao,  A. V. Marenich,  T. Markovich,  S. Mason,  
 S. A. Maurer,  P. F. McLaughlin,  M. F. S. J. Menger,  J.-M. Mewes,  
 S. A. Mewes,  P. Morgante,  J. W. Mullinax,  T. S. Nguyen-Beck,  
 K. J. Oosterbaan,  G. Paran,  Alexander C. Paul,  Suranjan K. Paul,  
 F. Pavosevic,  Zheng Pei,  S. Prager,  E. I. Proynov,  E. Ramos,  B. Rana,  
 A. E. Rask,  A. Rettig,  R. M. Richard,  F. Rob,  E. Rossomme,  T. Scheele,  
 M. Scheurer,  M. Schneider,  N. Sergueev,  S. M. Sharada,  W. Skomorowski,  
 D. W. Small,  C. J. Stein,  Yu-Chuan Su,  E. J. Sundstrom,  Zhen Tao,  
 J. Thirman,  T. Tsuchimochi,  N. M. Tubman,  S. P. Veccham,  O. Vydrov,  
 J. Wenzel,  J. Witte,  A. Yamada,  Kun Yao,  S. Yeganeh,  S. R. Yost,  
 A. Zech,  Igor Ying Zhang,  Xing Zhang,  Yu Zhang,  D. Zuev,  
 A. Aspuru-Guzik,  A. T. Bell,  N. A. Besley,  K. B. Bravaya,  B. R. Brooks,  
 D. Casanova,  Jeng-Da Chai,  S. Coriani,  C. J. Cramer,  
 A. E. DePrince, III,  R. A. DiStasio Jr.,  A. Dreuw,  B. D. Dunietz,  
 T. R. Furlani,  W. A. Goddard III,  S. Grimme,  S. Hammes-Schiffer,  
 T. Head-Gordon,  W. J. Hehre,  Chao-Ping Hsu,  T.-C. Jagau,  Yousung Jung,  
 A. Klamt,  Jing Kong,  D. S. Lambrecht,  WanZhen Liang,  N. J. Mayhall,  
 C. W. McCurdy,  J. B. Neaton,  C. Ochsenfeld,  J. A. Parkhill,  R. Peverati,  
 V. A. Rassolov,  Yihan Shao,  L. V. Slipchenko,  T. Stauch,  R. P. Steele,  
 J. E. Subotnik,  A. J. W. Thom,  A. Tkatchenko,  D. G. Truhlar,  
 T. Van Voorhis,  T. A. Wesolowski,  K. B. Whaley,  H. L. Woodcock III,  
 P. M. Zimmerman,  S. Faraji,  P. M. W. Gill,  M. Head-Gordon,  
 J. M. Herbert,  A. I. Krylov

 Contributors to earlier versions of Q-Chem not listed above: 
 R. D. Adamson,  B. Austin,  R. Baer,  J. Baker,  G. J. O. Beran,  
 K. Brandhorst,  S. T. Brown,  E. F. C. Byrd,  A. K. Chakraborty,  
 G. K. L. Chan,  Chun-Min Chang,  Yunqing Chen,  C.-L. Cheng,  
 Siu Hung Chien,  D. M. Chipman,  D. L. Crittenden,  H. Dachsel,  
 R. J. Doerksen,  A. D. Dutoi,  R. G. Edgar,  J. Fosso-Tande,  
 L. Fusti-Molnar,  D. Ghosh,  A. Ghysels,  A. Golubeva-Zadorozhnaya,  
 J. Gonthier,  M. S. Gordon,  S. R. Gwaltney,  G. Hawkins,  J. E. Herr,  
 A. Heyden,  S. Hirata,  E. G. Hohenstein,  G. Kedziora,  F. J. Keil,  
 C. Kelley,  Jihan Kim,  R. A. King,  R. Z. Khaliullin,  P. P. Korambath,  
 W. Kurlancheek,  A. Laurent,  A. M. Lee,  M. S. Lee,  S. V. Levchenko,  
 Ching Yeh Lin,  D. Liotard,  E. Livshits,  R. C. Lochan,  I. Lotan,  
 L. A. Martinez-Martinez,  P. E. Maslen,  N. Nair,  D. P. O'Neill,  
 D. Neuhauser,  E. Neuscamman,  C. M. Oana,  R. Olivares-Amaya,  R. Olson,  
 T. M. Perrine,  B. Peters,  P. A. Pieniazek,  A. Prociuk,  Y. M. Rhee,  
 J. Ritchie,  M. A. Rohrdanz,  E. Rosta,  N. J. Russ,  H. F. Schaefer III,  
 M. W. Schmidt,  N. E. Schultz,  S. Sharma,  N. Shenvi,  C. D. Sherrill,  
 A. C. Simmonett,  A. Sodt,  T. Stein,  D. Stuck,  K. S. Thanthiriwatte,  
 V. Vanovschi,  L. Vogt,  Tao Wang,  A. Warshel,  M. A. Watson,  
 C. F. Williams,  Q. Wu,  X. Xu,  Jun Yang,  W. Zhang,  Yan Zhao

 Please cite Q-Chem as follows:
 Y. Shao et al., Mol. Phys. 113, 184-215 (2015)
 DOI: 10.1080/00268976.2014.952696

 Q-Chem 5.4.0 for Intel X86 EM64T Linux

 Parts of Q-Chem use Armadillo 9.800.1 (Horizon Scraper).
 http://arma.sourceforge.net/

 Q-Chem begins on Sun Jul 10 03:42:04 2022  

 Host: 
0

     Scratch files written to ./qchem3410951//
 May1621 |scratch|qcdevops|jenkins|workspace|build_RNUM    
 Processing $rem in /cm/shared/apps/spack/cpu/opt/spack/linux-centos8-zen2/gcc-10.2.0/qchem-5.4-akfmr7b3t57bfs6qan3padb2wnb2i7cl/config/preferences:
 Processing $rem in /home/theleonzhang/.qchemrc:
 Symmetry turned off for PCM/SM12/SMD calculation
 Core orbitals will be frozen

 Checking the input file for inconsistencies... 	...done.

--------------------------------------------------------------
User input:
--------------------------------------------------------------
$molecule
0 1
C	0.388181	-3.866725	-0.670924
C	-0.306020	-3.703963	0.530648
C	-0.533378	-2.357056	0.923703
H	-0.651043	-4.561092	1.128579
C	-0.000000	-1.440664	-0.000000
S	0.772234	-2.286957	-1.337567
C	-1.261192	-1.978743	2.183857
H	-1.583666	-2.878678	2.742548
H	-2.168641	-1.376015	1.970497
H	-0.623012	-1.375728	2.863099
C	0.000000	0.000000	0.000000
C	0.365003	0.782674	1.099446
C	0.949885	2.036912	0.776721
H	0.209135	0.448431	2.136088
C	1.043159	2.236886	-0.612546
S	0.398297	0.854094	-1.486809
C	1.409609	3.022738	1.814609
H	1.229726	2.636980	2.836676
H	0.877346	3.992870	1.726239
H	2.494910	3.238558	1.726228
H	1.444334	3.097160	-1.161575
H	-0.216843	-4.392713	-1.417779
H	1.337652	-4.392347	-0.520136
H	-0.935250	-1.440937	-0.540100
$end

$rem
JOBTYPE		SP
EXCHANGE	HF
CORRELATION	pRIMP2
BASIS		cc-pvtz
METHOD		rimp2
AUX_BASIS	rimp2-cc-pvtz
SOLVENT_METHOD	PCM
PURECART	11111
SYMMETRY	false
MEM_TOTAL	110000
SCF_CONVERGENCE = 6
THRESH=10
$end



$solvent
dielectric 4.90
$end
--------------------------------------------------------------
 ----------------------------------------------------------------
             Standard Nuclear Orientation (Angstroms)
    I     Atom           X                Y                Z
 ----------------------------------------------------------------
    1      C       0.3881810000    -3.8667250000    -0.6709240000
    2      C      -0.3060200000    -3.7039630000     0.5306480000
    3      C      -0.5333780000    -2.3570560000     0.9237030000
    4      H      -0.6510430000    -4.5610920000     1.1285790000
    5      C       0.0000000000    -1.4406640000     0.0000000000
    6      S       0.7722340000    -2.2869570000    -1.3375670000
    7      C      -1.2611920000    -1.9787430000     2.1838570000
    8      H      -1.5836660000    -2.8786780000     2.7425480000
    9      H      -2.1686410000    -1.3760150000     1.9704970000
   10      H      -0.6230120000    -1.3757280000     2.8630990000
   11      C       0.0000000000     0.0000000000     0.0000000000
   12      C       0.3650030000     0.7826740000     1.0994460000
   13      C       0.9498850000     2.0369120000     0.7767210000
   14      H       0.2091350000     0.4484310000     2.1360880000
   15      C       1.0431590000     2.2368860000    -0.6125460000
   16      S       0.3982970000     0.8540940000    -1.4868090000
   17      C       1.4096090000     3.0227380000     1.8146090000
   18      H       1.2297260000     2.6369800000     2.8366760000
   19      H       0.8773460000     3.9928700000     1.7262390000
   20      H       2.4949100000     3.2385580000     1.7262280000
   21      H       1.4443340000     3.0971600000    -1.1615750000
   22      H      -0.2168430000    -4.3927130000    -1.4177790000
   23      H       1.3376520000    -4.3923470000    -0.5201360000
   24      H      -0.9352500000    -1.4409370000    -0.5401000000
 ----------------------------------------------------------------
 Nuclear Repulsion Energy =         879.48180679 hartrees
 There are       52 alpha and       52 beta electrons

 Q-Chem warning in module forms1/BasisType.C, line 2236:

 You are not using the predefined 5D/6D in this basis set.

 Requested basis set is cc-pVTZ
 There are 196 shells and 536 basis functions

 Total QAlloc Memory Limit 110000 MB
 Mega-Array Size       188 MB
 MEM_STATIC part       192 MB
 Discretize the solute cavity surface with Lebedev spheres
	Using 110 Lebedev grid points for each H atom
	Using 194 Lebedev grid points for other atoms
	Atomic van der Waals radii will be scaled by 1.20
 Remove points where switching function is < 1.0e-08
 Keep 1592 surface tesserae and discard 2056 interior tesserae
 Molecular Surface Area = 232.467 Angst**2
 Requested basis set is rimp2-cc-pVTZ
 There are 414 shells and 1414 basis functions
 A cutoff of  1.0D-10 yielded  14064 shell pairs
 There are    101820 function pairs (    130517 Cartesian)
 Smallest overlap matrix eigenvalue = 7.26E-05

 Scale SEOQF with 1.000000e-01/1.000000e-01/1.000000e-01

 Standard Electronic Orientation quadrupole field applied
 Nucleus-field energy     =     0.0000000239 hartrees
 Guess from superposition of atomic densities
 Warning:  Energy on first SCF cycle will be non-variational
 SAD guess density has 104.000000 electrons

 -----------------------------------------------------------------------
  General SCF calculation program by
  Eric Jon Sundstrom, Paul Horn, Yuezhi Mao, Dmitri Zuev, Alec White,
  David Stuck, Shaama M.S., Shane Yost, Joonho Lee, David Small,
  Daniel Levine, Susi Lehtola, Hugh Burton, Evgeny Epifanovsky,
  Bang C. Huynh
 -----------------------------------------------------------------------
 Hartree-Fock
 A restricted SCF calculation will be
 performed using DIIS
 SCF converges when DIIS error is below 1.0e-06
 ---------------------------------------
  Cycle       Energy         DIIS error
 ---------------------------------------
    1   -1186.0546213951      2.39e-02  
    2   -1180.5955305174      1.57e-03  
    3   -1180.7216376041      6.24e-04  
    4   -1180.7366241263      3.36e-04  
    5   -1180.7418751695      6.13e-05  
    6   -1180.7421396749      2.53e-05  
    7   -1180.7422054250      9.58e-06  
    8   -1180.7422209214      4.60e-06  
    9   -1180.7422245239      1.57e-06  
   10   -1180.7422250573      5.26e-07  Convergence criterion met
 ---------------------------------------
 SCF time:   CPU 566.53s  wall 568.00s 

************** Final PCM Free Energy Summary **************
 G_electrostatic  =      -0.00955599 hartree =      -5.99647695 kcal/mol
 G_cavitation     =       0.00000000 hartree =       0.00000000 kcal/mol
 G_dispersion     =       0.00000000 hartree =       0.00000000 kcal/mol
 G_repulsion      =       0.00000000 hartree =       0.00000000 kcal/mol
 --------------------------------------------------
 Non-electrostatic Free Energy =       0.00000000 hartree =       0.00000000 kcal/mol
 Total                         =      -0.00955599 hartree =      -5.99647695 kcal/mol
 --------------------------------------------------
 SCF Energy (H0 + V/2)                       =   -1180.74222506 
 Solute Internal Energy (H0)                 =   -1180.73266906 
 Total Free Energy (H0 + V/2 + non-elec)     =   -1180.74222506 hartree
                                             = -740926.92903310 kcal/mol
***********************************************************

 SCF   energy in the final basis set =    -1180.7422250573
 Total energy in the final basis set =    -1180.7422250573


 --------------------------------------------------------------
  Generalized many-body perturbation theory program
  by Joonho Lee, Fazle Rob, Xintian Feng, Evgeny Epifanovsky

 No regularization used 
 (reg. param. = 0.0000e+00)
  (P|Q)^-1/2 Time:  CPU 1.88 s  wall 1.89 s

 In RI-MP2 calculation: 
 # of frozen core orbitals: 20

 Components of the RIMP2 correlation energy:
        aaaa    correlation energy =        -0.2519277462 a.u.
        abab    correlation energy =        -1.5052396334 a.u.
        bbbb    correlation energy =        -0.2519277462 a.u.
        non-Brillouin singles      =        -0.0000000000 a.u.
        total same-spin energy     =        -0.5038554924 a.u.
        total opposite-spin energy =        -1.5052396334 a.u.

 Total  RIMP2   correlation energy =        -2.0090951258 a.u.
        RIMP2         total energy =     -1182.7513201831 a.u.

 RI-MP2 Energy Time:  CPU 79.11 s  wall 79.26 s
 
 --------------------------------------------------------------
 
                    Orbital Energies (a.u.)
 --------------------------------------------------------------
 
 Alpha MOs
 -- Occupied --
-91.9837 -91.9440 -11.2811 -11.2643 -11.2616 -11.2560 -11.2504 -11.2415
-11.2357 -11.2333 -11.2284 -11.2203  -8.9836  -8.9486  -6.6646  -6.6640
 -6.6634  -6.6299  -6.6289  -6.6276  -1.2005  -1.1530  -1.0588  -1.0307
 -1.0000  -0.9635  -0.9137  -0.9000  -0.8166  -0.7604  -0.7368  -0.7039
 -0.6540  -0.6407  -0.6099  -0.5920  -0.5834  -0.5680  -0.5660  -0.5523
 -0.5450  -0.5338  -0.5182  -0.5049  -0.4873  -0.4772  -0.4682  -0.4441
 -0.3569  -0.3429  -0.3233  -0.2642
 -- Virtual --
  0.0903   0.1322   0.1407   0.1497   0.1587   0.1692   0.1786   0.1867
  0.1902   0.2025   0.2075   0.2204   0.2212   0.2341   0.2392   0.2409
  0.2527   0.2672   0.2810   0.3007   0.3156   0.3282   0.3535   0.3566
  0.3671   0.3794   0.3815   0.3900   0.4011   0.4111   0.4130   0.4200
  0.4410   0.4465   0.4622   0.4646   0.4775   0.4777   0.4859   0.4886
  0.4961   0.5101   0.5196   0.5301   0.5398   0.5492   0.5579   0.5606
  0.5688   0.5784   0.5847   0.5869   0.5980   0.6069   0.6139   0.6185
  0.6234   0.6265   0.6314   0.6336   0.6404   0.6467   0.6518   0.6649
  0.6674   0.6694   0.6813   0.6893   0.7036   0.7125   0.7177   0.7264
  0.7387   0.7460   0.7571   0.7776   0.7798   0.7907   0.7991   0.8212
  0.8315   0.8545   0.8568   0.8657   0.8829   0.9042   0.9060   0.9148
  0.9210   0.9364   0.9493   0.9586   0.9665   0.9961   1.0059   1.0144
  1.0193   1.0276   1.0314   1.0444   1.0505   1.0559   1.0698   1.0759
  1.0884   1.0944   1.1135   1.1312   1.1478   1.1555   1.1662   1.1685
  1.1760   1.1867   1.1880   1.2041   1.2122   1.2238   1.2316   1.2465
  1.2498   1.2596   1.2649   1.2708   1.2805   1.2860   1.2892   1.3120
  1.3218   1.3335   1.3407   1.3485   1.3708   1.3860   1.4053   1.4163
  1.4233   1.4284   1.4357   1.4533   1.4717   1.4807   1.4892   1.5028
  1.5067   1.5170   1.5192   1.5302   1.5345   1.5427   1.5545   1.5602
  1.5658   1.5731   1.5855   1.5896   1.6262   1.6317   1.6397   1.6455
  1.6498   1.6627   1.6736   1.6898   1.6954   1.7137   1.7284   1.7386
  1.7494   1.7606   1.7768   1.7866   1.8172   1.8195   1.8409   1.8540
  1.8933   1.9059   1.9128   1.9283   1.9403   1.9729   1.9858   2.0048
  2.0211   2.0420   2.0553   2.0632   2.1071   2.1124   2.1397   2.1590
  2.1807   2.2046   2.2141   2.2182   2.2345   2.2403   2.2653   2.2840
  2.3006   2.3033   2.3064   2.3884   2.4104   2.4324   2.4553   2.4731
  2.4838   2.5158   2.5356   2.5499   2.5615   2.5780   2.5836   2.6000
  2.6216   2.6388   2.6611   2.6697   2.6758   2.6866   2.7131   2.7348
  2.7498   2.7534   2.7651   2.7804   2.7900   2.7931   2.8057   2.8104
  2.8342   2.8420   2.8509   2.8855   2.8958   2.9073   2.9211   2.9248
  2.9366   2.9592   2.9718   3.0042   3.0111   3.0295   3.0370   3.0458
  3.0583   3.0706   3.0874   3.1041   3.1122   3.1154   3.1246   3.1419
  3.1502   3.1616   3.1633   3.1711   3.1785   3.1832   3.1972   3.2244
  3.2282   3.2359   3.2526   3.2568   3.2776   3.2827   3.2904   3.3150
  3.3260   3.3270   3.3327   3.3410   3.3466   3.3539   3.3563   3.3606
  3.3722   3.3837   3.3921   3.3966   3.4083   3.4163   3.4170   3.4309
  3.4421   3.4451   3.4626   3.4718   3.4790   3.4888   3.4905   3.5087
  3.5189   3.5240   3.5368   3.5435   3.5484   3.5621   3.5776   3.5830
  3.5967   3.6100   3.6194   3.6238   3.6264   3.6353   3.6455   3.6583
  3.6662   3.6744   3.6927   3.7087   3.7102   3.7270   3.7391   3.7425
  3.7494   3.7603   3.7656   3.7786   3.7869   3.7949   3.8006   3.8152
  3.8262   3.8416   3.8487   3.8633   3.8722   3.8867   3.8942   3.9150
  3.9302   3.9423   3.9575   3.9686   3.9716   3.9872   4.0077   4.0234
  4.0259   4.0462   4.0503   4.0587   4.0626   4.0781   4.0969   4.1016
  4.1198   4.1277   4.1501   4.1542   4.1639   4.1759   4.1857   4.2041
  4.2140   4.2273   4.2373   4.2397   4.2512   4.2653   4.2696   4.2870
  4.2942   4.3037   4.3164   4.3255   4.3407   4.3563   4.3687   4.3744
  4.3816   4.3943   4.4022   4.4112   4.4182   4.4266   4.4443   4.4543
  4.4668   4.4718   4.4827   4.4842   4.4882   4.4989   4.5417   4.5641
  4.5867   4.5995   4.6029   4.6243   4.6344   4.6424   4.6595   4.6860
  4.6989   4.7127   4.7471   4.7684   4.7777   4.8270   4.8341   4.8510
  4.8664   4.8704   4.8913   4.9055   4.9381   4.9709   4.9784   4.9922
  5.0204   5.0440   5.0928   5.1050   5.1191   5.1278   5.1651   5.1777
  5.1879   5.2030   5.2438   5.2621   5.2817   5.2999   5.3112   5.3270
  5.3459   5.3697   5.3750   5.4060   5.4145   5.4151   5.4338   5.4417
  5.4858   5.5139   5.5337   5.5404   5.5524   5.5637   5.5755   5.6006
  5.6144   5.6237   5.6310   5.6611   5.6941   5.6943   5.7142   5.7366
  5.7721   5.7953   5.8330   5.9859   6.0303   6.0807   6.1179   6.1632
  6.2137   6.2272   6.2353   6.2476   6.2610   6.2971   6.2986   6.3441
  6.3910   6.4825   9.4505  10.7501  12.1417  12.9337  13.1814  13.9673
 14.0808  14.2042  14.3323  14.6609
 --------------------------------------------------------------
 
          Ground-State Mulliken Net Atomic Charges

     Atom                 Charge (a.u.)
  ----------------------------------------
      1 C                    -0.079456
      2 C                    -0.323563
      3 C                    -0.040930
      4 H                     0.176687
      5 C                     0.101516
      6 S                    -0.171107
      7 C                    -0.289960
      8 H                     0.117983
      9 H                     0.110157
     10 H                     0.103807
     11 C                    -0.085012
     12 C                    -0.234544
     13 C                     0.021701
     14 H                     0.192263
     15 C                    -0.242158
     16 S                     0.000167
     17 C                    -0.272580
     18 H                     0.100819
     19 H                     0.108192
     20 H                     0.108095
     21 H                     0.198259
     22 H                     0.110316
     23 H                     0.113641
     24 H                     0.175706
  ----------------------------------------
  Sum of atomic charges =     0.000000

 -----------------------------------------------------------------
                    Cartesian Multipole Moments
 -----------------------------------------------------------------
    Charge (ESU x 10^10)
                -0.0000
    Dipole Moment (Debye)
         X      -1.1607      Y       0.1377      Z       3.0310
       Tot       3.2485
    Quadrupole Moments (Debye-Ang)
        XX     -90.0905     XY       6.9970     YY     -75.2466
        XZ       0.3499     YZ      -1.3847     ZZ     -85.4689
    Octopole Moments (Debye-Ang^2)
       XXX     -87.4548    XXY      57.4848    XYY     -17.3664
       YYY     131.6932    XXZ      -0.7118    XYZ       1.1424
       YYZ      -5.5144    XZZ     -29.5325    YZZ      56.4780
       ZZZ       5.3417
    Hexadecapole Moments (Debye-Ang^3)
      XXXX    -464.2599   XXXY    -185.8582   XXYY    -552.4192
      XYYY    -153.2795   YYYY   -2640.4240   XXXZ      86.5946
      XXYZ     -38.0953   XYYZ       8.1970   YYYZ     -93.4847
      XXZZ    -238.7326   XYZZ     -38.3160   YYZZ    -618.1815
      XZZZ      76.5320   YZZZ    -109.1271   ZZZZ    -961.5508
 -----------------------------------------------------------------
 Total job time:  649.59s(wall), 646.53s(cpu) 
 Sun Jul 10 03:52:53 2022

        *************************************************************
        *                                                           *
        *  Thank you very much for using Q-Chem.  Have a nice day.  *
        *                                                           *
        *************************************************************


remove work dirs ./qchem3410951.0 -- ./qchem3410951.-1
rm -rf ./qchem3410951
