You are running Q-Chem version: 5.4.0

#
# job setting
#
local host:  exp-4-52
current dir: /expanse/lustre/scratch/theleonzhang/temp_project/Hydrogenated_Rotation_Test
input file:  Methylthiophene_Phi_5_Theta_230_Methylthiophene_Hydrogenated_Alternate.qcin
output file: 
nprocs     : 0
nthreads   : 1
#
# qchem installation setting
#
QC:          /cm/shared/apps/spack/cpu/opt/spack/linux-centos8-zen2/gcc-10.2.0/qchem-5.4-akfmr7b3t57bfs6qan3padb2wnb2i7cl
QCAUX:       /cm/shared/apps/spack/cpu/opt/spack/linux-centos8-zen2/gcc-10.2.0/qchem-5.4-akfmr7b3t57bfs6qan3padb2wnb2i7cl/qcaux
QCPROG:      /cm/shared/apps/spack/cpu/opt/spack/linux-centos8-zen2/gcc-10.2.0/qchem-5.4-akfmr7b3t57bfs6qan3padb2wnb2i7cl/exe/qcprog.exe_s
QCPROG_S:    /cm/shared/apps/spack/cpu/opt/spack/linux-centos8-zen2/gcc-10.2.0/qchem-5.4-akfmr7b3t57bfs6qan3padb2wnb2i7cl/exe/qcprog.exe_s
PARALLEL:    -DSERIAL
QCMPI:       mpich
#
# qchem directory setting
#
qcrun:       qchem2066886
QCSCRATCH:   .
QCLOCALSCR:  
QCTMPDIR:    .
QCFILEPREF:  ./qchem2066886
QCSAVEDIR:   
workdirs:    ./qchem2066886
workdir0:    ./qchem2066886
partmpdirs =  
#
# parallel setting
#
QCRSH:           ssh
QCMPI:           mpich
QCMPIRUN:        /cm/shared/apps/spack/cpu/opt/spack/linux-centos8-zen2/gcc-10.2.0/qchem-5.4-akfmr7b3t57bfs6qan3padb2wnb2i7cl/bin/mpi/mpirun_qchem
QCMACHINEFILE:   ./qchem2066886/hostfile

#
# env setting
#
exported envs:   QC QCAUX QCSCRATCH QCRUNNAME QCFILEPREF QCPROG QCPROG_S GUIFILE

Running Job 1 of 1 Methylthiophene_Phi_5_Theta_230_Methylthiophene_Hydrogenated_Alternate.qcin
qchem Methylthiophene_Phi_5_Theta_230_Methylthiophene_Hydrogenated_Alternate.qcin_2066886.0 ./qchem2066886/ 0
/cm/shared/apps/spack/cpu/opt/spack/linux-centos8-zen2/gcc-10.2.0/qchem-5.4-akfmr7b3t57bfs6qan3padb2wnb2i7cl/exe/qcprog.exe_s Methylthiophene_Phi_5_Theta_230_Methylthiophene_Hydrogenated_Alternate.qcin_2066886.0 ./qchem2066886/
                  Welcome to Q-Chem
     A Quantum Leap Into The Future Of Chemistry


 Q-Chem 5.4, Q-Chem, Inc., Pleasanton, CA (2021)

 License issued to: University of California, San Diego (site)

 E. Epifanovsky,  A. T. B. Gilbert,  Xintian Feng,  Joonho Lee,  Yuezhi Mao,  
 N. Mardirossian,  P. Pokhilko,  A. White,  M. Wormit,  M. P. Coons,  
 A. L. Dempwolff,  Zhengting Gan,  D. Hait,  P. R. Horn,  L. D. Jacobson,  
 I. Kaliman,  J. Kussmann,  A. W. Lange,  Ka Un Lao,  D. S. Levine,  Jie Liu,  
 S. C. McKenzie,  A. F. Morrison,  K. Nanda,  F. Plasser,  D. R. Rehn,  
 M. L. Vidal,  Zhi-Qiang You,  Ying Zhu,  B. Alam,  B. Albrecht,  
 A. Aldossary,  E. Alguire,  J. H. Andersen,  D. Barton,  K. Begam,  A. Behn,  
 Y. A. Bernard,  E. J. Berquist,  H. Burton,  A. Carreras,  K. Carter-Fenk,  
 R. Chakraborty,  A. D. Chien,  K. D. Closser,  V. Cofer-Shabica,  
 S. Dasgupta,  Jia Deng,  M. de Wergifosse,  M. Diedenhofen,  Hainam Do,  
 S. Ehlert,  Po-Tung Fang,  S. Fatehi,  Qingguo Feng,  J. Gayvert,  
 Qinghui Ge,  G. Gidofalvi,  M. Goldey,  J. Gomes,  C. Gonzalez-Espinoza,  
 S. Gulania,  A. Gunina,  M. W. D. Hanson-Heine,  P. H. P. Harbach,  
 A. W. Hauser,  M. F. Herbst,  M. Hernandez Vera,  M. Hodecker,  
 Z. C. Holden,  S. Houck,  Xunkun Huang,  Kerwin Hui,  B. C. Huynh,  
 M. Ivanov,  Hyunjun Ji,  Hanjie Jiang,  B. Kaduk,  S. Kaehler,  
 K. Khistyaev,  Jaehoon Kim,  P. Klunzinger,  Z. Koczor-Benda,  
 Joong Hoon Koh,  D. Kosenkov,  L. Koulias,  T. Kowalczyk,  C. M. Krauter,  
 K. Kue,  A. Kunitsa,  T. Kus,  A. Landau,  K. V. Lawler,  D. Lefrancois,  
 S. Lehtola,  Rain Li,  Yi-Pei Li,  Jiashu Liang,  M. Liebenthal,  
 Hung-Hsuan Lin,  You-Sheng Lin,  Fenglai Liu,  Kuan-Yu Liu,  
 M. Loipersberger,  A. Luenser,  A. Manjanath,  P. Manohar,  E. Mansoor,  
 S. F. Manzer,  Shan-Ping Mao,  A. V. Marenich,  T. Markovich,  S. Mason,  
 S. A. Maurer,  P. F. McLaughlin,  M. F. S. J. Menger,  J.-M. Mewes,  
 S. A. Mewes,  P. Morgante,  J. W. Mullinax,  T. S. Nguyen-Beck,  
 K. J. Oosterbaan,  G. Paran,  Alexander C. Paul,  Suranjan K. Paul,  
 F. Pavosevic,  Zheng Pei,  S. Prager,  E. I. Proynov,  E. Ramos,  B. Rana,  
 A. E. Rask,  A. Rettig,  R. M. Richard,  F. Rob,  E. Rossomme,  T. Scheele,  
 M. Scheurer,  M. Schneider,  N. Sergueev,  S. M. Sharada,  W. Skomorowski,  
 D. W. Small,  C. J. Stein,  Yu-Chuan Su,  E. J. Sundstrom,  Zhen Tao,  
 J. Thirman,  T. Tsuchimochi,  N. M. Tubman,  S. P. Veccham,  O. Vydrov,  
 J. Wenzel,  J. Witte,  A. Yamada,  Kun Yao,  S. Yeganeh,  S. R. Yost,  
 A. Zech,  Igor Ying Zhang,  Xing Zhang,  Yu Zhang,  D. Zuev,  
 A. Aspuru-Guzik,  A. T. Bell,  N. A. Besley,  K. B. Bravaya,  B. R. Brooks,  
 D. Casanova,  Jeng-Da Chai,  S. Coriani,  C. J. Cramer,  
 A. E. DePrince, III,  R. A. DiStasio Jr.,  A. Dreuw,  B. D. Dunietz,  
 T. R. Furlani,  W. A. Goddard III,  S. Grimme,  S. Hammes-Schiffer,  
 T. Head-Gordon,  W. J. Hehre,  Chao-Ping Hsu,  T.-C. Jagau,  Yousung Jung,  
 A. Klamt,  Jing Kong,  D. S. Lambrecht,  WanZhen Liang,  N. J. Mayhall,  
 C. W. McCurdy,  J. B. Neaton,  C. Ochsenfeld,  J. A. Parkhill,  R. Peverati,  
 V. A. Rassolov,  Yihan Shao,  L. V. Slipchenko,  T. Stauch,  R. P. Steele,  
 J. E. Subotnik,  A. J. W. Thom,  A. Tkatchenko,  D. G. Truhlar,  
 T. Van Voorhis,  T. A. Wesolowski,  K. B. Whaley,  H. L. Woodcock III,  
 P. M. Zimmerman,  S. Faraji,  P. M. W. Gill,  M. Head-Gordon,  
 J. M. Herbert,  A. I. Krylov

 Contributors to earlier versions of Q-Chem not listed above: 
 R. D. Adamson,  B. Austin,  R. Baer,  J. Baker,  G. J. O. Beran,  
 K. Brandhorst,  S. T. Brown,  E. F. C. Byrd,  A. K. Chakraborty,  
 G. K. L. Chan,  Chun-Min Chang,  Yunqing Chen,  C.-L. Cheng,  
 Siu Hung Chien,  D. M. Chipman,  D. L. Crittenden,  H. Dachsel,  
 R. J. Doerksen,  A. D. Dutoi,  R. G. Edgar,  J. Fosso-Tande,  
 L. Fusti-Molnar,  D. Ghosh,  A. Ghysels,  A. Golubeva-Zadorozhnaya,  
 J. Gonthier,  M. S. Gordon,  S. R. Gwaltney,  G. Hawkins,  J. E. Herr,  
 A. Heyden,  S. Hirata,  E. G. Hohenstein,  G. Kedziora,  F. J. Keil,  
 C. Kelley,  Jihan Kim,  R. A. King,  R. Z. Khaliullin,  P. P. Korambath,  
 W. Kurlancheek,  A. Laurent,  A. M. Lee,  M. S. Lee,  S. V. Levchenko,  
 Ching Yeh Lin,  D. Liotard,  E. Livshits,  R. C. Lochan,  I. Lotan,  
 L. A. Martinez-Martinez,  P. E. Maslen,  N. Nair,  D. P. O'Neill,  
 D. Neuhauser,  E. Neuscamman,  C. M. Oana,  R. Olivares-Amaya,  R. Olson,  
 T. M. Perrine,  B. Peters,  P. A. Pieniazek,  A. Prociuk,  Y. M. Rhee,  
 J. Ritchie,  M. A. Rohrdanz,  E. Rosta,  N. J. Russ,  H. F. Schaefer III,  
 M. W. Schmidt,  N. E. Schultz,  S. Sharma,  N. Shenvi,  C. D. Sherrill,  
 A. C. Simmonett,  A. Sodt,  T. Stein,  D. Stuck,  K. S. Thanthiriwatte,  
 V. Vanovschi,  L. Vogt,  Tao Wang,  A. Warshel,  M. A. Watson,  
 C. F. Williams,  Q. Wu,  X. Xu,  Jun Yang,  W. Zhang,  Yan Zhao

 Please cite Q-Chem as follows:
 Y. Shao et al., Mol. Phys. 113, 184-215 (2015)
 DOI: 10.1080/00268976.2014.952696

 Q-Chem 5.4.0 for Intel X86 EM64T Linux

 Parts of Q-Chem use Armadillo 9.800.1 (Horizon Scraper).
 http://arma.sourceforge.net/

 Q-Chem begins on Sun Jul 10 04:42:09 2022  

 Host: 
0

     Scratch files written to ./qchem2066886//
 May1621 |scratch|qcdevops|jenkins|workspace|build_RNUM    
 Processing $rem in /cm/shared/apps/spack/cpu/opt/spack/linux-centos8-zen2/gcc-10.2.0/qchem-5.4-akfmr7b3t57bfs6qan3padb2wnb2i7cl/config/preferences:
 Processing $rem in /home/theleonzhang/.qchemrc:
 Symmetry turned off for PCM/SM12/SMD calculation
 Core orbitals will be frozen

 Checking the input file for inconsistencies... 	...done.

--------------------------------------------------------------
User input:
--------------------------------------------------------------
$molecule
0 1
C	0.594240	-3.866725	-0.497696
C	-0.469057	-3.703963	0.393981
C	-0.817136	-2.357056	0.685571
H	-0.997777	-4.561092	0.837848
C	-0.000000	-1.440664	-0.000000
S	1.183137	-2.286957	-0.992782
C	-1.932056	-1.978743	1.620802
H	-2.426166	-2.878678	2.035506
H	-2.711806	-1.376015	1.109943
H	-1.564678	-1.375728	2.477350
C	0.000000	0.000000	0.000000
C	0.075300	0.860311	1.099446
C	0.195935	2.238951	0.776721
H	0.043151	0.492916	2.136088
C	0.215188	2.458766	-0.612546
S	0.082160	0.938811	-1.486809
C	0.290762	3.322559	1.814609
H	0.253664	2.898542	2.836676
H	-0.541206	4.052140	1.726239
H	1.236797	3.896558	1.726228
H	0.297938	3.404370	-1.161575
H	0.281143	-4.392713	-1.406441
H	1.434879	-4.392347	-0.031265
H	-0.694122	-1.440937	-0.827402
$end

$rem
JOBTYPE		SP
EXCHANGE	HF
CORRELATION	pRIMP2
BASIS		cc-pvtz
METHOD		rimp2
AUX_BASIS	rimp2-cc-pvtz
SOLVENT_METHOD	PCM
PURECART	11111
SYMMETRY	false
MEM_TOTAL	110000
SCF_CONVERGENCE = 6
THRESH=10
$end



$solvent
dielectric 4.90
$end
--------------------------------------------------------------
 ----------------------------------------------------------------
             Standard Nuclear Orientation (Angstroms)
    I     Atom           X                Y                Z
 ----------------------------------------------------------------
    1      C       0.5942400000    -3.8667250000    -0.4976960000
    2      C      -0.4690570000    -3.7039630000     0.3939810000
    3      C      -0.8171360000    -2.3570560000     0.6855710000
    4      H      -0.9977770000    -4.5610920000     0.8378480000
    5      C       0.0000000000    -1.4406640000     0.0000000000
    6      S       1.1831370000    -2.2869570000    -0.9927820000
    7      C      -1.9320560000    -1.9787430000     1.6208020000
    8      H      -2.4261660000    -2.8786780000     2.0355060000
    9      H      -2.7118060000    -1.3760150000     1.1099430000
   10      H      -1.5646780000    -1.3757280000     2.4773500000
   11      C       0.0000000000     0.0000000000     0.0000000000
   12      C       0.0753000000     0.8603110000     1.0994460000
   13      C       0.1959350000     2.2389510000     0.7767210000
   14      H       0.0431510000     0.4929160000     2.1360880000
   15      C       0.2151880000     2.4587660000    -0.6125460000
   16      S       0.0821600000     0.9388110000    -1.4868090000
   17      C       0.2907620000     3.3225590000     1.8146090000
   18      H       0.2536640000     2.8985420000     2.8366760000
   19      H      -0.5412060000     4.0521400000     1.7262390000
   20      H       1.2367970000     3.8965580000     1.7262280000
   21      H       0.2979380000     3.4043700000    -1.1615750000
   22      H       0.2811430000    -4.3927130000    -1.4064410000
   23      H       1.4348790000    -4.3923470000    -0.0312650000
   24      H      -0.6941220000    -1.4409370000    -0.8274020000
 ----------------------------------------------------------------
 Nuclear Repulsion Energy =         873.45524614 hartrees
 There are       52 alpha and       52 beta electrons

 Q-Chem warning in module forms1/BasisType.C, line 2236:

 You are not using the predefined 5D/6D in this basis set.

 Requested basis set is cc-pVTZ
 There are 196 shells and 536 basis functions

 Total QAlloc Memory Limit 110000 MB
 Mega-Array Size       188 MB
 MEM_STATIC part       192 MB
 Discretize the solute cavity surface with Lebedev spheres
	Using 110 Lebedev grid points for each H atom
	Using 194 Lebedev grid points for other atoms
	Atomic van der Waals radii will be scaled by 1.20
 Remove points where switching function is < 1.0e-08
 Keep 1608 surface tesserae and discard 2040 interior tesserae
 Molecular Surface Area = 236.128 Angst**2
 Requested basis set is rimp2-cc-pVTZ
 There are 414 shells and 1414 basis functions
 A cutoff of  1.0D-10 yielded  13958 shell pairs
 There are    101198 function pairs (    129762 Cartesian)
 Smallest overlap matrix eigenvalue = 5.99E-05

 Scale SEOQF with 1.000000e-01/1.000000e-01/1.000000e-01

 Standard Electronic Orientation quadrupole field applied
 Nucleus-field energy     =     0.0000000306 hartrees
 Guess from superposition of atomic densities
 Warning:  Energy on first SCF cycle will be non-variational
 SAD guess density has 104.000000 electrons

 -----------------------------------------------------------------------
  General SCF calculation program by
  Eric Jon Sundstrom, Paul Horn, Yuezhi Mao, Dmitri Zuev, Alec White,
  David Stuck, Shaama M.S., Shane Yost, Joonho Lee, David Small,
  Daniel Levine, Susi Lehtola, Hugh Burton, Evgeny Epifanovsky,
  Bang C. Huynh
 -----------------------------------------------------------------------
 Hartree-Fock
 A restricted SCF calculation will be
 performed using DIIS
 SCF converges when DIIS error is below 1.0e-06
 ---------------------------------------
  Cycle       Energy         DIIS error
 ---------------------------------------
    1   -1186.0236142826      2.39e-02  
    2   -1180.6141481893      1.57e-03  
    3   -1180.7392826013      6.20e-04  
    4   -1180.7540116401      3.35e-04  
    5   -1180.7591621769      5.97e-05  
    6   -1180.7594106718      2.46e-05  
    7   -1180.7594706133      9.01e-06  
    8   -1180.7594841619      4.42e-06  
    9   -1180.7594872038      1.44e-06  
   10   -1180.7594876589      5.15e-07  Convergence criterion met
 ---------------------------------------
 SCF time:   CPU 562.19s  wall 565.00s 

************** Final PCM Free Energy Summary **************
 G_electrostatic  =      -0.00936920 hartree =      -5.87926469 kcal/mol
 G_cavitation     =       0.00000000 hartree =       0.00000000 kcal/mol
 G_dispersion     =       0.00000000 hartree =       0.00000000 kcal/mol
 G_repulsion      =       0.00000000 hartree =       0.00000000 kcal/mol
 --------------------------------------------------
 Non-electrostatic Free Energy =       0.00000000 hartree =       0.00000000 kcal/mol
 Total                         =      -0.00936920 hartree =      -5.87926469 kcal/mol
 --------------------------------------------------
 SCF Energy (H0 + V/2)                       =   -1180.75948766 
 Solute Internal Energy (H0)                 =   -1180.75011845 
 Total Free Energy (H0 + V/2 + non-elec)     =   -1180.75948766 hartree
                                             = -740937.76147910 kcal/mol
***********************************************************

 SCF   energy in the final basis set =    -1180.7594876589
 Total energy in the final basis set =    -1180.7594876589


 --------------------------------------------------------------
  Generalized many-body perturbation theory program
  by Joonho Lee, Fazle Rob, Xintian Feng, Evgeny Epifanovsky

 No regularization used 
 (reg. param. = 0.0000e+00)
  (P|Q)^-1/2 Time:  CPU 1.89 s  wall 1.90 s

 In RI-MP2 calculation: 
 # of frozen core orbitals: 20

 Components of the RIMP2 correlation energy:
        aaaa    correlation energy =        -0.2509424365 a.u.
        abab    correlation energy =        -1.5023158111 a.u.
        bbbb    correlation energy =        -0.2509424365 a.u.
        non-Brillouin singles      =        -0.0000000000 a.u.
        total same-spin energy     =        -0.5018848730 a.u.
        total opposite-spin energy =        -1.5023158111 a.u.

 Total  RIMP2   correlation energy =        -2.0042006840 a.u.
        RIMP2         total energy =     -1182.7636883430 a.u.

 RI-MP2 Energy Time:  CPU 79.29 s  wall 79.52 s
 
 --------------------------------------------------------------
 
                    Orbital Energies (a.u.)
 --------------------------------------------------------------
 
 Alpha MOs
 -- Occupied --
-91.9846 -91.9429 -11.2831 -11.2643 -11.2615 -11.2571 -11.2504 -11.2420
-11.2357 -11.2324 -11.2285 -11.2208  -8.9844  -8.9477  -6.6653  -6.6648
 -6.6641  -6.6290  -6.6280  -6.6267  -1.1996  -1.1532  -1.0591  -1.0288
 -1.0012  -0.9632  -0.9133  -0.9002  -0.8155  -0.7606  -0.7410  -0.7027
 -0.6544  -0.6383  -0.6105  -0.5900  -0.5800  -0.5693  -0.5667  -0.5544
 -0.5444  -0.5320  -0.5158  -0.5054  -0.4899  -0.4815  -0.4643  -0.4490
 -0.3564  -0.3424  -0.3202  -0.2722
 -- Virtual --
  0.0971   0.1308   0.1404   0.1500   0.1588   0.1694   0.1775   0.1860
  0.1922   0.2005   0.2039   0.2137   0.2297   0.2323   0.2373   0.2433
  0.2531   0.2557   0.2792   0.2959   0.3234   0.3354   0.3452   0.3589
  0.3690   0.3725   0.3758   0.3865   0.4005   0.4074   0.4122   0.4211
  0.4330   0.4429   0.4499   0.4666   0.4744   0.4824   0.4860   0.4886
  0.4994   0.5085   0.5102   0.5264   0.5363   0.5438   0.5477   0.5531
  0.5692   0.5749   0.5881   0.5920   0.6051   0.6070   0.6125   0.6154
  0.6225   0.6285   0.6331   0.6369   0.6416   0.6494   0.6509   0.6608
  0.6612   0.6771   0.6831   0.6917   0.6994   0.7029   0.7059   0.7250
  0.7289   0.7485   0.7683   0.7720   0.7782   0.7900   0.8097   0.8248
  0.8301   0.8497   0.8594   0.8642   0.8791   0.8913   0.9014   0.9067
  0.9360   0.9407   0.9443   0.9645   0.9668   0.9778   1.0078   1.0125
  1.0164   1.0252   1.0350   1.0409   1.0563   1.0624   1.0741   1.0808
  1.0878   1.0983   1.1196   1.1221   1.1354   1.1399   1.1623   1.1689
  1.1804   1.1967   1.2015   1.2044   1.2137   1.2286   1.2324   1.2446
  1.2471   1.2624   1.2656   1.2745   1.2767   1.2878   1.3039   1.3174
  1.3282   1.3331   1.3476   1.3700   1.3875   1.3914   1.4044   1.4133
  1.4205   1.4433   1.4492   1.4547   1.4642   1.4809   1.4859   1.4926
  1.5001   1.5141   1.5233   1.5279   1.5354   1.5404   1.5490   1.5548
  1.5710   1.5792   1.5860   1.6044   1.6208   1.6252   1.6352   1.6393
  1.6466   1.6553   1.6796   1.6872   1.7059   1.7131   1.7268   1.7402
  1.7441   1.7537   1.7603   1.7968   1.8214   1.8310   1.8545   1.8630
  1.8751   1.8971   1.9228   1.9324   1.9401   1.9572   1.9937   2.0013
  2.0170   2.0311   2.0461   2.0658   2.0730   2.1105   2.1310   2.1574
  2.1793   2.1917   2.2066   2.2245   2.2316   2.2483   2.2671   2.2801
  2.3004   2.3302   2.3405   2.3739   2.4132   2.4515   2.4570   2.4723
  2.4975   2.5116   2.5224   2.5432   2.5730   2.5827   2.5959   2.6025
  2.6254   2.6420   2.6571   2.6667   2.6744   2.6889   2.6921   2.7339
  2.7422   2.7537   2.7583   2.7708   2.7759   2.7897   2.7963   2.8195
  2.8437   2.8522   2.8634   2.8697   2.8756   2.9029   2.9067   2.9263
  2.9379   2.9561   2.9667   2.9784   3.0006   3.0177   3.0360   3.0421
  3.0496   3.0743   3.0880   3.1100   3.1144   3.1168   3.1260   3.1370
  3.1443   3.1528   3.1645   3.1801   3.1833   3.1891   3.1999   3.2192
  3.2250   3.2468   3.2557   3.2674   3.2827   3.2907   3.3009   3.3123
  3.3139   3.3214   3.3357   3.3393   3.3420   3.3489   3.3591   3.3657
  3.3714   3.3875   3.3916   3.3969   3.4118   3.4132   3.4194   3.4254
  3.4396   3.4442   3.4504   3.4635   3.4689   3.4762   3.4999   3.5126
  3.5188   3.5197   3.5303   3.5399   3.5498   3.5588   3.5635   3.5810
  3.5893   3.5920   3.6109   3.6209   3.6330   3.6373   3.6496   3.6596
  3.6729   3.6757   3.6860   3.7008   3.7081   3.7135   3.7346   3.7421
  3.7502   3.7530   3.7674   3.7771   3.7814   3.7877   3.8003   3.8089
  3.8324   3.8365   3.8544   3.8666   3.8699   3.8987   3.9064   3.9173
  3.9257   3.9461   3.9593   3.9671   3.9750   3.9833   3.9925   4.0161
  4.0247   4.0354   4.0501   4.0605   4.0653   4.0794   4.0878   4.0961
  4.1178   4.1298   4.1492   4.1510   4.1574   4.1673   4.1826   4.1986
  4.2153   4.2164   4.2312   4.2382   4.2532   4.2613   4.2725   4.2835
  4.3012   4.3037   4.3151   4.3198   4.3432   4.3549   4.3594   4.3657
  4.3857   4.3936   4.3999   4.4021   4.4207   4.4235   4.4351   4.4585
  4.4610   4.4784   4.4817   4.4901   4.4956   4.5100   4.5352   4.5487
  4.5766   4.5856   4.6064   4.6168   4.6265   4.6419   4.6550   4.6705
  4.7003   4.7138   4.7404   4.7629   4.7749   4.8037   4.8148   4.8428
  4.8622   4.8754   4.8823   4.8971   4.9195   4.9595   4.9795   5.0036
  5.0206   5.0364   5.0919   5.1017   5.1183   5.1312   5.1713   5.1739
  5.2035   5.2167   5.2405   5.2653   5.2721   5.2914   5.3032   5.3293
  5.3452   5.3706   5.3803   5.4008   5.4145   5.4248   5.4403   5.4486
  5.4680   5.5216   5.5248   5.5364   5.5478   5.5581   5.5698   5.5972
  5.6111   5.6236   5.6330   5.6672   5.6865   5.6965   5.7022   5.7330
  5.7644   5.7865   5.8313   5.9791   6.0237   6.0711   6.1212   6.1572
  6.2031   6.2247   6.2300   6.2323   6.2577   6.2892   6.3036   6.3459
  6.3840   6.5407   9.3930  10.8510  12.0366  12.9594  13.2214  13.9839
 14.0879  14.1898  14.3307  14.7409
 --------------------------------------------------------------
 
          Ground-State Mulliken Net Atomic Charges

     Atom                 Charge (a.u.)
  ----------------------------------------
      1 C                    -0.076745
      2 C                    -0.326902
      3 C                    -0.025574
      4 H                     0.177320
      5 C                     0.117353
      6 S                    -0.175560
      7 C                    -0.271376
      8 H                     0.115021
      9 H                     0.105798
     10 H                     0.103487
     11 C                    -0.113846
     12 C                    -0.233042
     13 C                     0.016300
     14 H                     0.192334
     15 C                    -0.245849
     16 S                     0.007777
     17 C                    -0.273751
     18 H                     0.101789
     19 H                     0.107809
     20 H                     0.108961
     21 H                     0.197654
     22 H                     0.110899
     23 H                     0.114551
     24 H                     0.165593
  ----------------------------------------
  Sum of atomic charges =     0.000000

 -----------------------------------------------------------------
                    Cartesian Multipole Moments
 -----------------------------------------------------------------
    Charge (ESU x 10^10)
                -0.0000
    Dipole Moment (Debye)
         X      -2.2135      Y       0.2901      Z       2.3703
       Tot       3.2561
    Quadrupole Moments (Debye-Ang)
        XX     -91.9394     XY       4.5180     YY     -73.3124
        XZ      -0.0707     YZ      -0.1941     ZZ     -85.6633
    Octopole Moments (Debye-Ang^2)
       XXX     -19.3870    XXY      42.7711    XYY      -3.1199
       YYY     121.9727    XXZ       2.1455    XYZ       2.5492
       YYZ      -5.9323    XZZ      -7.3872    YZZ      52.8729
       ZZZ       2.9412
    Hexadecapole Moments (Debye-Ang^3)
      XXXX    -486.5861   XXXY     -30.7489   XXYY    -593.3989
      XYYY     -32.1631   YYYY   -2770.6473   XXXZ     130.0118
      XXYZ     -45.1180   XYYZ      26.5062   YYYZ    -106.3960
      XXZZ    -212.7832   XYZZ      -0.7642   YYZZ    -620.5155
      XZZZ     131.1724   YZZZ    -103.6629   ZZZZ    -775.6898
 -----------------------------------------------------------------
 Total job time:  645.98s(wall), 642.36s(cpu) 
 Sun Jul 10 04:52:55 2022

        *************************************************************
        *                                                           *
        *  Thank you very much for using Q-Chem.  Have a nice day.  *
        *                                                           *
        *************************************************************


remove work dirs ./qchem2066886.0 -- ./qchem2066886.-1
rm -rf ./qchem2066886
