You are running Q-Chem version: 5.4.0

#
# job setting
#
local host:  exp-2-07
current dir: /expanse/lustre/scratch/theleonzhang/temp_project/Hydrogenated_Rotation_Test
input file:  Methylthiophene_Phi_30_Theta_260_Methylthiophene_Hydrogenated.qcin
output file: 
nprocs     : 0
nthreads   : 1
#
# qchem installation setting
#
QC:          /cm/shared/apps/spack/cpu/opt/spack/linux-centos8-zen2/gcc-10.2.0/qchem-5.4-akfmr7b3t57bfs6qan3padb2wnb2i7cl
QCAUX:       /cm/shared/apps/spack/cpu/opt/spack/linux-centos8-zen2/gcc-10.2.0/qchem-5.4-akfmr7b3t57bfs6qan3padb2wnb2i7cl/qcaux
QCPROG:      /cm/shared/apps/spack/cpu/opt/spack/linux-centos8-zen2/gcc-10.2.0/qchem-5.4-akfmr7b3t57bfs6qan3padb2wnb2i7cl/exe/qcprog.exe_s
QCPROG_S:    /cm/shared/apps/spack/cpu/opt/spack/linux-centos8-zen2/gcc-10.2.0/qchem-5.4-akfmr7b3t57bfs6qan3padb2wnb2i7cl/exe/qcprog.exe_s
PARALLEL:    -DSERIAL
QCMPI:       mpich
#
# qchem directory setting
#
qcrun:       qchem802013
QCSCRATCH:   .
QCLOCALSCR:  
QCTMPDIR:    .
QCFILEPREF:  ./qchem802013
QCSAVEDIR:   
workdirs:    ./qchem802013
workdir0:    ./qchem802013
partmpdirs =  
#
# parallel setting
#
QCRSH:           ssh
QCMPI:           mpich
QCMPIRUN:        /cm/shared/apps/spack/cpu/opt/spack/linux-centos8-zen2/gcc-10.2.0/qchem-5.4-akfmr7b3t57bfs6qan3padb2wnb2i7cl/bin/mpi/mpirun_qchem
QCMACHINEFILE:   ./qchem802013/hostfile

#
# env setting
#
exported envs:   QC QCAUX QCSCRATCH QCRUNNAME QCFILEPREF QCPROG QCPROG_S GUIFILE

Running Job 1 of 1 Methylthiophene_Phi_30_Theta_260_Methylthiophene_Hydrogenated.qcin
qchem Methylthiophene_Phi_30_Theta_260_Methylthiophene_Hydrogenated.qcin_802013.0 ./qchem802013/ 0
/cm/shared/apps/spack/cpu/opt/spack/linux-centos8-zen2/gcc-10.2.0/qchem-5.4-akfmr7b3t57bfs6qan3padb2wnb2i7cl/exe/qcprog.exe_s Methylthiophene_Phi_30_Theta_260_Methylthiophene_Hydrogenated.qcin_802013.0 ./qchem802013/
                  Welcome to Q-Chem
     A Quantum Leap Into The Future Of Chemistry


 Q-Chem 5.4, Q-Chem, Inc., Pleasanton, CA (2021)

 License issued to: University of California, San Diego (site)

 E. Epifanovsky,  A. T. B. Gilbert,  Xintian Feng,  Joonho Lee,  Yuezhi Mao,  
 N. Mardirossian,  P. Pokhilko,  A. White,  M. Wormit,  M. P. Coons,  
 A. L. Dempwolff,  Zhengting Gan,  D. Hait,  P. R. Horn,  L. D. Jacobson,  
 I. Kaliman,  J. Kussmann,  A. W. Lange,  Ka Un Lao,  D. S. Levine,  Jie Liu,  
 S. C. McKenzie,  A. F. Morrison,  K. Nanda,  F. Plasser,  D. R. Rehn,  
 M. L. Vidal,  Zhi-Qiang You,  Ying Zhu,  B. Alam,  B. Albrecht,  
 A. Aldossary,  E. Alguire,  J. H. Andersen,  D. Barton,  K. Begam,  A. Behn,  
 Y. A. Bernard,  E. J. Berquist,  H. Burton,  A. Carreras,  K. Carter-Fenk,  
 R. Chakraborty,  A. D. Chien,  K. D. Closser,  V. Cofer-Shabica,  
 S. Dasgupta,  Jia Deng,  M. de Wergifosse,  M. Diedenhofen,  Hainam Do,  
 S. Ehlert,  Po-Tung Fang,  S. Fatehi,  Qingguo Feng,  J. Gayvert,  
 Qinghui Ge,  G. Gidofalvi,  M. Goldey,  J. Gomes,  C. Gonzalez-Espinoza,  
 S. Gulania,  A. Gunina,  M. W. D. Hanson-Heine,  P. H. P. Harbach,  
 A. W. Hauser,  M. F. Herbst,  M. Hernandez Vera,  M. Hodecker,  
 Z. C. Holden,  S. Houck,  Xunkun Huang,  Kerwin Hui,  B. C. Huynh,  
 M. Ivanov,  Hyunjun Ji,  Hanjie Jiang,  B. Kaduk,  S. Kaehler,  
 K. Khistyaev,  Jaehoon Kim,  P. Klunzinger,  Z. Koczor-Benda,  
 Joong Hoon Koh,  D. Kosenkov,  L. Koulias,  T. Kowalczyk,  C. M. Krauter,  
 K. Kue,  A. Kunitsa,  T. Kus,  A. Landau,  K. V. Lawler,  D. Lefrancois,  
 S. Lehtola,  Rain Li,  Yi-Pei Li,  Jiashu Liang,  M. Liebenthal,  
 Hung-Hsuan Lin,  You-Sheng Lin,  Fenglai Liu,  Kuan-Yu Liu,  
 M. Loipersberger,  A. Luenser,  A. Manjanath,  P. Manohar,  E. Mansoor,  
 S. F. Manzer,  Shan-Ping Mao,  A. V. Marenich,  T. Markovich,  S. Mason,  
 S. A. Maurer,  P. F. McLaughlin,  M. F. S. J. Menger,  J.-M. Mewes,  
 S. A. Mewes,  P. Morgante,  J. W. Mullinax,  T. S. Nguyen-Beck,  
 K. J. Oosterbaan,  G. Paran,  Alexander C. Paul,  Suranjan K. Paul,  
 F. Pavosevic,  Zheng Pei,  S. Prager,  E. I. Proynov,  E. Ramos,  B. Rana,  
 A. E. Rask,  A. Rettig,  R. M. Richard,  F. Rob,  E. Rossomme,  T. Scheele,  
 M. Scheurer,  M. Schneider,  N. Sergueev,  S. M. Sharada,  W. Skomorowski,  
 D. W. Small,  C. J. Stein,  Yu-Chuan Su,  E. J. Sundstrom,  Zhen Tao,  
 J. Thirman,  T. Tsuchimochi,  N. M. Tubman,  S. P. Veccham,  O. Vydrov,  
 J. Wenzel,  J. Witte,  A. Yamada,  Kun Yao,  S. Yeganeh,  S. R. Yost,  
 A. Zech,  Igor Ying Zhang,  Xing Zhang,  Yu Zhang,  D. Zuev,  
 A. Aspuru-Guzik,  A. T. Bell,  N. A. Besley,  K. B. Bravaya,  B. R. Brooks,  
 D. Casanova,  Jeng-Da Chai,  S. Coriani,  C. J. Cramer,  
 A. E. DePrince, III,  R. A. DiStasio Jr.,  A. Dreuw,  B. D. Dunietz,  
 T. R. Furlani,  W. A. Goddard III,  S. Grimme,  S. Hammes-Schiffer,  
 T. Head-Gordon,  W. J. Hehre,  Chao-Ping Hsu,  T.-C. Jagau,  Yousung Jung,  
 A. Klamt,  Jing Kong,  D. S. Lambrecht,  WanZhen Liang,  N. J. Mayhall,  
 C. W. McCurdy,  J. B. Neaton,  C. Ochsenfeld,  J. A. Parkhill,  R. Peverati,  
 V. A. Rassolov,  Yihan Shao,  L. V. Slipchenko,  T. Stauch,  R. P. Steele,  
 J. E. Subotnik,  A. J. W. Thom,  A. Tkatchenko,  D. G. Truhlar,  
 T. Van Voorhis,  T. A. Wesolowski,  K. B. Whaley,  H. L. Woodcock III,  
 P. M. Zimmerman,  S. Faraji,  P. M. W. Gill,  M. Head-Gordon,  
 J. M. Herbert,  A. I. Krylov

 Contributors to earlier versions of Q-Chem not listed above: 
 R. D. Adamson,  B. Austin,  R. Baer,  J. Baker,  G. J. O. Beran,  
 K. Brandhorst,  S. T. Brown,  E. F. C. Byrd,  A. K. Chakraborty,  
 G. K. L. Chan,  Chun-Min Chang,  Yunqing Chen,  C.-L. Cheng,  
 Siu Hung Chien,  D. M. Chipman,  D. L. Crittenden,  H. Dachsel,  
 R. J. Doerksen,  A. D. Dutoi,  R. G. Edgar,  J. Fosso-Tande,  
 L. Fusti-Molnar,  D. Ghosh,  A. Ghysels,  A. Golubeva-Zadorozhnaya,  
 J. Gonthier,  M. S. Gordon,  S. R. Gwaltney,  G. Hawkins,  J. E. Herr,  
 A. Heyden,  S. Hirata,  E. G. Hohenstein,  G. Kedziora,  F. J. Keil,  
 C. Kelley,  Jihan Kim,  R. A. King,  R. Z. Khaliullin,  P. P. Korambath,  
 W. Kurlancheek,  A. Laurent,  A. M. Lee,  M. S. Lee,  S. V. Levchenko,  
 Ching Yeh Lin,  D. Liotard,  E. Livshits,  R. C. Lochan,  I. Lotan,  
 L. A. Martinez-Martinez,  P. E. Maslen,  N. Nair,  D. P. O'Neill,  
 D. Neuhauser,  E. Neuscamman,  C. M. Oana,  R. Olivares-Amaya,  R. Olson,  
 T. M. Perrine,  B. Peters,  P. A. Pieniazek,  A. Prociuk,  Y. M. Rhee,  
 J. Ritchie,  M. A. Rohrdanz,  E. Rosta,  N. J. Russ,  H. F. Schaefer III,  
 M. W. Schmidt,  N. E. Schultz,  S. Sharma,  N. Shenvi,  C. D. Sherrill,  
 A. C. Simmonett,  A. Sodt,  T. Stein,  D. Stuck,  K. S. Thanthiriwatte,  
 V. Vanovschi,  L. Vogt,  Tao Wang,  A. Warshel,  M. A. Watson,  
 C. F. Williams,  Q. Wu,  X. Xu,  Jun Yang,  W. Zhang,  Yan Zhao

 Please cite Q-Chem as follows:
 Y. Shao et al., Mol. Phys. 113, 184-215 (2015)
 DOI: 10.1080/00268976.2014.952696

 Q-Chem 5.4.0 for Intel X86 EM64T Linux

 Parts of Q-Chem use Armadillo 9.800.1 (Horizon Scraper).
 http://arma.sourceforge.net/

 Q-Chem begins on Sun Jul 10 03:55:20 2022  

 Host: 
0

     Scratch files written to ./qchem802013//
 May1621 |scratch|qcdevops|jenkins|workspace|build_RNUM    
 Processing $rem in /cm/shared/apps/spack/cpu/opt/spack/linux-centos8-zen2/gcc-10.2.0/qchem-5.4-akfmr7b3t57bfs6qan3padb2wnb2i7cl/config/preferences:
 Processing $rem in /home/theleonzhang/.qchemrc:
 Symmetry turned off for PCM/SM12/SMD calculation
 Core orbitals will be frozen

 Checking the input file for inconsistencies... 	...done.

--------------------------------------------------------------
User input:
--------------------------------------------------------------
$molecule
0 1
C	0.763475	-3.866725	-0.133897
C	-0.603206	-3.703963	0.106669
C	-1.050446	-2.357056	0.185154
H	-1.283024	-4.561092	0.226709
C	-0.000000	-1.440664	-0.000000
S	1.521018	-2.286957	-0.268206
C	-2.483610	-1.978743	0.437628
H	-3.118875	-2.878678	0.549717
H	-2.903464	-1.376015	-0.394664
H	-2.593726	-1.375728	1.363110
C	0.000000	0.000000	0.000000
C	0.431829	0.747884	1.099446
C	1.123799	1.946373	0.776721
H	0.247423	0.428497	2.136088
C	1.234147	2.137457	-0.612546
S	0.471221	0.816130	-1.486809
C	1.667694	2.888380	1.814609
H	1.454874	2.519768	2.836676
H	1.222009	3.901210	1.726239
H	2.767675	3.008788	1.726228
H	1.708773	2.959493	-1.161575
H	0.946698	-4.392713	-1.077442
H	1.258274	-4.392347	0.690363
H	0.187427	-1.440391	1.063612
$end

$rem
JOBTYPE		SP
EXCHANGE	HF
CORRELATION	pRIMP2
BASIS		cc-pvtz
METHOD		rimp2
AUX_BASIS	rimp2-cc-pvtz
SOLVENT_METHOD	PCM
PURECART	11111
SYMMETRY	false
MEM_TOTAL	110000
SCF_CONVERGENCE = 6
THRESH=10
$end



$solvent
dielectric 4.90
$end
--------------------------------------------------------------
 ----------------------------------------------------------------
             Standard Nuclear Orientation (Angstroms)
    I     Atom           X                Y                Z
 ----------------------------------------------------------------
    1      C       0.7634750000    -3.8667250000    -0.1338970000
    2      C      -0.6032060000    -3.7039630000     0.1066690000
    3      C      -1.0504460000    -2.3570560000     0.1851540000
    4      H      -1.2830240000    -4.5610920000     0.2267090000
    5      C       0.0000000000    -1.4406640000     0.0000000000
    6      S       1.5210180000    -2.2869570000    -0.2682060000
    7      C      -2.4836100000    -1.9787430000     0.4376280000
    8      H      -3.1188750000    -2.8786780000     0.5497170000
    9      H      -2.9034640000    -1.3760150000    -0.3946640000
   10      H      -2.5937260000    -1.3757280000     1.3631100000
   11      C       0.0000000000     0.0000000000     0.0000000000
   12      C       0.4318290000     0.7478840000     1.0994460000
   13      C       1.1237990000     1.9463730000     0.7767210000
   14      H       0.2474230000     0.4284970000     2.1360880000
   15      C       1.2341470000     2.1374570000    -0.6125460000
   16      S       0.4712210000     0.8161300000    -1.4868090000
   17      C       1.6676940000     2.8883800000     1.8146090000
   18      H       1.4548740000     2.5197680000     2.8366760000
   19      H       1.2220090000     3.9012100000     1.7262390000
   20      H       2.7676750000     3.0087880000     1.7262280000
   21      H       1.7087730000     2.9594930000    -1.1615750000
   22      H       0.9466980000    -4.3927130000    -1.0774420000
   23      H       1.2582740000    -4.3923470000     0.6903630000
   24      H       0.1874270000    -1.4403910000     1.0636120000
 ----------------------------------------------------------------
 Nuclear Repulsion Energy =         878.69752611 hartrees
 There are       52 alpha and       52 beta electrons

 Q-Chem warning in module forms1/BasisType.C, line 2236:

 You are not using the predefined 5D/6D in this basis set.

 Requested basis set is cc-pVTZ
 There are 196 shells and 536 basis functions

 Total QAlloc Memory Limit 110000 MB
 Mega-Array Size       188 MB
 MEM_STATIC part       192 MB
 Discretize the solute cavity surface with Lebedev spheres
	Using 110 Lebedev grid points for each H atom
	Using 194 Lebedev grid points for other atoms
	Atomic van der Waals radii will be scaled by 1.20
 Remove points where switching function is < 1.0e-08
 Keep 1610 surface tesserae and discard 2038 interior tesserae
 Molecular Surface Area = 237.017 Angst**2
 Requested basis set is rimp2-cc-pVTZ
 There are 414 shells and 1414 basis functions
 A cutoff of  1.0D-10 yielded  13998 shell pairs
 There are    101198 function pairs (    129716 Cartesian)
 Smallest overlap matrix eigenvalue = 6.97E-05

 Scale SEOQF with 1.000000e-01/1.000000e-01/1.000000e-01

 Standard Electronic Orientation quadrupole field applied
 Nucleus-field energy     =     0.0000000352 hartrees
 Guess from superposition of atomic densities
 Warning:  Energy on first SCF cycle will be non-variational
 SAD guess density has 104.000000 electrons

 -----------------------------------------------------------------------
  General SCF calculation program by
  Eric Jon Sundstrom, Paul Horn, Yuezhi Mao, Dmitri Zuev, Alec White,
  David Stuck, Shaama M.S., Shane Yost, Joonho Lee, David Small,
  Daniel Levine, Susi Lehtola, Hugh Burton, Evgeny Epifanovsky,
  Bang C. Huynh
 -----------------------------------------------------------------------
 Hartree-Fock
 A restricted SCF calculation will be
 performed using DIIS
 SCF converges when DIIS error is below 1.0e-06
 ---------------------------------------
  Cycle       Energy         DIIS error
 ---------------------------------------
    1   -1186.0484159549      2.39e-02  
    2   -1180.6044589698      1.54e-03  
    3   -1180.7284187363      5.60e-04  
    4   -1180.7414199251      3.11e-04  
    5   -1180.7457733056      5.94e-05  
    6   -1180.7460162994      2.42e-05  
    7   -1180.7460770606      9.44e-06  
    8   -1180.7460924160      4.54e-06  
    9   -1180.7460961548      1.66e-06  
   10   -1180.7460967704      5.57e-07  Convergence criterion met
 ---------------------------------------
 SCF time:   CPU 562.04s  wall 564.00s 

************** Final PCM Free Energy Summary **************
 G_electrostatic  =      -0.00966776 hartree =      -6.06660883 kcal/mol
 G_cavitation     =       0.00000000 hartree =       0.00000000 kcal/mol
 G_dispersion     =       0.00000000 hartree =       0.00000000 kcal/mol
 G_repulsion      =       0.00000000 hartree =       0.00000000 kcal/mol
 --------------------------------------------------
 Non-electrostatic Free Energy =       0.00000000 hartree =       0.00000000 kcal/mol
 Total                         =      -0.00966776 hartree =      -6.06660883 kcal/mol
 --------------------------------------------------
 SCF Energy (H0 + V/2)                       =   -1180.74609677 
 Solute Internal Energy (H0)                 =   -1180.73642901 
 Total Free Energy (H0 + V/2 + non-elec)     =   -1180.74609677 hartree
                                             = -740929.35856972 kcal/mol
***********************************************************

 SCF   energy in the final basis set =    -1180.7460967704
 Total energy in the final basis set =    -1180.7460967704


 --------------------------------------------------------------
  Generalized many-body perturbation theory program
  by Joonho Lee, Fazle Rob, Xintian Feng, Evgeny Epifanovsky

 No regularization used 
 (reg. param. = 0.0000e+00)
  (P|Q)^-1/2 Time:  CPU 1.88 s  wall 1.89 s

 In RI-MP2 calculation: 
 # of frozen core orbitals: 20

 Components of the RIMP2 correlation energy:
        aaaa    correlation energy =        -0.2518240772 a.u.
        abab    correlation energy =        -1.5049584103 a.u.
        bbbb    correlation energy =        -0.2518240772 a.u.
        non-Brillouin singles      =        -0.0000000000 a.u.
        total same-spin energy     =        -0.5036481545 a.u.
        total opposite-spin energy =        -1.5049584103 a.u.

 Total  RIMP2   correlation energy =        -2.0086065648 a.u.
        RIMP2         total energy =     -1182.7547033352 a.u.

 RI-MP2 Energy Time:  CPU 79.37 s  wall 79.57 s
 
 --------------------------------------------------------------
 
                    Orbital Energies (a.u.)
 --------------------------------------------------------------
 
 Alpha MOs
 -- Occupied --
-91.9794 -91.9407 -11.2747 -11.2694 -11.2593 -11.2526 -11.2508 -11.2469
-11.2396 -11.2310 -11.2294 -11.2158  -8.9796  -8.9454  -6.6605  -6.6599
 -6.6594  -6.6267  -6.6257  -6.6244  -1.1987  -1.1535  -1.0575  -1.0262
 -1.0045  -0.9594  -0.9106  -0.9013  -0.8142  -0.7587  -0.7378  -0.7001
 -0.6601  -0.6399  -0.6102  -0.5886  -0.5815  -0.5709  -0.5649  -0.5501
 -0.5407  -0.5307  -0.5092  -0.5068  -0.4929  -0.4752  -0.4603  -0.4471
 -0.3575  -0.3376  -0.3131  -0.2789
 -- Virtual --
  0.0815   0.1335   0.1415   0.1543   0.1593   0.1711   0.1746   0.1799
  0.1893   0.1970   0.2057   0.2175   0.2258   0.2275   0.2336   0.2437
  0.2497   0.2547   0.2676   0.2981   0.3094   0.3329   0.3433   0.3496
  0.3683   0.3776   0.3788   0.3869   0.3919   0.3992   0.4124   0.4204
  0.4335   0.4403   0.4419   0.4563   0.4668   0.4708   0.4850   0.4883
  0.5019   0.5095   0.5128   0.5235   0.5265   0.5364   0.5441   0.5527
  0.5714   0.5785   0.5870   0.5998   0.6052   0.6064   0.6170   0.6212
  0.6240   0.6287   0.6355   0.6371   0.6427   0.6447   0.6455   0.6567
  0.6609   0.6669   0.6756   0.6878   0.6938   0.6960   0.7138   0.7295
  0.7369   0.7441   0.7502   0.7750   0.7942   0.8027   0.8058   0.8161
  0.8212   0.8425   0.8448   0.8495   0.8699   0.9001   0.9046   0.9133
  0.9207   0.9403   0.9460   0.9586   0.9818   0.9855   0.9923   1.0128
  1.0219   1.0251   1.0364   1.0433   1.0510   1.0584   1.0615   1.0839
  1.0907   1.0993   1.1142   1.1267   1.1288   1.1572   1.1659   1.1739
  1.1754   1.1816   1.1850   1.2040   1.2110   1.2210   1.2341   1.2450
  1.2555   1.2588   1.2611   1.2712   1.2758   1.2872   1.3078   1.3182
  1.3246   1.3364   1.3535   1.3630   1.3809   1.3936   1.3998   1.4055
  1.4205   1.4313   1.4473   1.4551   1.4710   1.4751   1.4886   1.4934
  1.5052   1.5122   1.5179   1.5311   1.5415   1.5426   1.5503   1.5561
  1.5634   1.5690   1.5805   1.5880   1.6057   1.6146   1.6241   1.6390
  1.6421   1.6643   1.6790   1.6848   1.7038   1.7097   1.7223   1.7366
  1.7455   1.7593   1.7678   1.7963   1.8029   1.8064   1.8326   1.8552
  1.8686   1.9225   1.9339   1.9467   1.9510   1.9680   1.9791   1.9920
  2.0184   2.0315   2.0444   2.0657   2.0835   2.1224   2.1279   2.1471
  2.1800   2.1925   2.1995   2.2139   2.2325   2.2500   2.2540   2.2749
  2.2799   2.3271   2.3461   2.3763   2.4098   2.4463   2.4600   2.4675
  2.5013   2.5036   2.5232   2.5512   2.5696   2.5825   2.6052   2.6151
  2.6241   2.6349   2.6619   2.6680   2.6743   2.6980   2.7022   2.7233
  2.7452   2.7550   2.7596   2.7783   2.7785   2.7929   2.8086   2.8336
  2.8461   2.8517   2.8658   2.8855   2.8949   2.9036   2.9085   2.9181
  2.9453   2.9598   2.9701   2.9801   2.9974   3.0115   3.0280   3.0363
  3.0427   3.0599   3.0949   3.1003   3.1118   3.1133   3.1366   3.1497
  3.1544   3.1595   3.1648   3.1734   3.1829   3.1928   3.2024   3.2175
  3.2260   3.2433   3.2467   3.2586   3.2780   3.2830   3.2940   3.3030
  3.3211   3.3256   3.3341   3.3372   3.3428   3.3609   3.3642   3.3690
  3.3748   3.3842   3.3888   3.3975   3.4083   3.4110   3.4207   3.4282
  3.4360   3.4437   3.4595   3.4645   3.4859   3.4954   3.5049   3.5089
  3.5229   3.5301   3.5366   3.5460   3.5481   3.5615   3.5722   3.5815
  3.5907   3.6146   3.6206   3.6258   3.6400   3.6459   3.6495   3.6607
  3.6764   3.6826   3.6954   3.7018   3.7093   3.7241   3.7323   3.7369
  3.7447   3.7594   3.7664   3.7789   3.7867   3.7958   3.8010   3.8225
  3.8278   3.8424   3.8494   3.8644   3.8798   3.8833   3.8946   3.9113
  3.9301   3.9491   3.9525   3.9569   3.9681   3.9727   3.9960   4.0064
  4.0241   4.0338   4.0459   4.0565   4.0726   4.0907   4.0983   4.1101
  4.1172   4.1214   4.1459   4.1550   4.1700   4.1721   4.1892   4.1994
  4.2085   4.2192   4.2345   4.2437   4.2558   4.2621   4.2649   4.2894
  4.2969   4.3019   4.3199   4.3301   4.3391   4.3467   4.3572   4.3635
  4.3737   4.3803   4.3984   4.4013   4.4105   4.4252   4.4309   4.4529
  4.4581   4.4693   4.4823   4.4954   4.5015   4.5150   4.5391   4.5465
  4.5806   4.5863   4.6104   4.6337   4.6389   4.6503   4.6621   4.6714
  4.7001   4.7269   4.7324   4.7537   4.7678   4.8173   4.8223   4.8506
  4.8602   4.8709   4.8930   4.9116   4.9286   4.9669   4.9754   4.9855
  5.0294   5.0480   5.0863   5.1049   5.1137   5.1266   5.1495   5.1630
  5.1742   5.1957   5.2241   5.2588   5.2826   5.2910   5.3108   5.3230
  5.3346   5.3630   5.3812   5.3937   5.4040   5.4261   5.4404   5.4492
  5.4953   5.5111   5.5277   5.5430   5.5483   5.5598   5.5727   5.5791
  5.6254   5.6335   5.6546   5.6746   5.6861   5.7062   5.7136   5.7300
  5.7693   5.7890   5.8265   5.9469   5.9922   6.0303   6.1219   6.1325
  6.2019   6.2195   6.2272   6.2376   6.2512   6.2788   6.2847   6.3227
  6.3779   6.4306   9.4489  10.5645  12.2057  12.8962  13.1683  13.8876
 14.1099  14.2024  14.2955  14.5918
 --------------------------------------------------------------
 
          Ground-State Mulliken Net Atomic Charges

     Atom                 Charge (a.u.)
  ----------------------------------------
      1 C                    -0.073709
      2 C                    -0.329976
      3 C                    -0.035624
      4 H                     0.174358
      5 C                     0.055802
      6 S                    -0.168614
      7 C                    -0.270432
      8 H                     0.112934
      9 H                     0.107426
     10 H                     0.099628
     11 C                    -0.066141
     12 C                    -0.234054
     13 C                     0.027602
     14 H                     0.179494
     15 C                    -0.225923
     16 S                     0.009044
     17 C                    -0.269792
     18 H                     0.101849
     19 H                     0.107608
     20 H                     0.108344
     21 H                     0.197228
     22 H                     0.110595
     23 H                     0.108845
     24 H                     0.173509
  ----------------------------------------
  Sum of atomic charges =     0.000000

 -----------------------------------------------------------------
                    Cartesian Multipole Moments
 -----------------------------------------------------------------
    Charge (ESU x 10^10)
                -0.0000
    Dipole Moment (Debye)
         X      -1.1336      Y       0.7115      Z       2.6918
       Tot       3.0062
    Quadrupole Moments (Debye-Ang)
        XX     -88.8141     XY       7.9422     YY     -76.9800
        XZ       0.7743     YZ      -0.9913     ZZ     -85.9561
    Octopole Moments (Debye-Ang^2)
       XXX    -108.7077    XXY      59.5868    XYY     -18.3566
       YYY     145.3616    XXZ      -0.5607    XYZ      -1.1663
       YYZ      -1.4603    XZZ     -29.5695    YZZ      64.2112
       ZZZ       2.5383
    Hexadecapole Moments (Debye-Ang^3)
      XXXX    -931.7082   XXXY    -173.0696   XXYY    -591.6761
      XYYY    -181.1716   YYYY   -2607.0489   XXXZ      -0.6682
      XXYZ     -37.7937   XYYZ      -9.5870   YYYZ     -94.5839
      XXZZ    -254.2305   XYZZ     -61.2270   YYZZ    -567.5146
      XZZZ       3.2873   YZZZ     -81.4750   ZZZZ    -554.8264
 -----------------------------------------------------------------
 Total job time:  645.54s(wall), 642.30s(cpu) 
 Sun Jul 10 04:06:06 2022

        *************************************************************
        *                                                           *
        *  Thank you very much for using Q-Chem.  Have a nice day.  *
        *                                                           *
        *************************************************************


remove work dirs ./qchem802013.0 -- ./qchem802013.-1
rm -rf ./qchem802013
You are running Q-Chem version: 5.4.0

#
# job setting
#
local host:  exp-3-21
current dir: /expanse/lustre/scratch/theleonzhang/temp_project/Hydrogenated_Rotation_Test
input file:  Methylthiophene_Phi_30_Theta_260_Methylthiophene_Hydrogenated.qcin
output file: 
nprocs     : 0
nthreads   : 1
#
# qchem installation setting
#
QC:          /cm/shared/apps/spack/cpu/opt/spack/linux-centos8-zen2/gcc-10.2.0/qchem-5.4-akfmr7b3t57bfs6qan3padb2wnb2i7cl
QCAUX:       /cm/shared/apps/spack/cpu/opt/spack/linux-centos8-zen2/gcc-10.2.0/qchem-5.4-akfmr7b3t57bfs6qan3padb2wnb2i7cl/qcaux
QCPROG:      /cm/shared/apps/spack/cpu/opt/spack/linux-centos8-zen2/gcc-10.2.0/qchem-5.4-akfmr7b3t57bfs6qan3padb2wnb2i7cl/exe/qcprog.exe_s
QCPROG_S:    /cm/shared/apps/spack/cpu/opt/spack/linux-centos8-zen2/gcc-10.2.0/qchem-5.4-akfmr7b3t57bfs6qan3padb2wnb2i7cl/exe/qcprog.exe_s
PARALLEL:    -DSERIAL
QCMPI:       mpich
#
# qchem directory setting
#
qcrun:       qchem1291876
QCSCRATCH:   .
QCLOCALSCR:  
QCTMPDIR:    .
QCFILEPREF:  ./qchem1291876
QCSAVEDIR:   
workdirs:    ./qchem1291876
workdir0:    ./qchem1291876
partmpdirs =  
#
# parallel setting
#
QCRSH:           ssh
QCMPI:           mpich
QCMPIRUN:        /cm/shared/apps/spack/cpu/opt/spack/linux-centos8-zen2/gcc-10.2.0/qchem-5.4-akfmr7b3t57bfs6qan3padb2wnb2i7cl/bin/mpi/mpirun_qchem
QCMACHINEFILE:   ./qchem1291876/hostfile

#
# env setting
#
exported envs:   QC QCAUX QCSCRATCH QCRUNNAME QCFILEPREF QCPROG QCPROG_S GUIFILE

Running Job 1 of 1 Methylthiophene_Phi_30_Theta_260_Methylthiophene_Hydrogenated.qcin
qchem Methylthiophene_Phi_30_Theta_260_Methylthiophene_Hydrogenated.qcin_1291876.0 ./qchem1291876/ 0
/cm/shared/apps/spack/cpu/opt/spack/linux-centos8-zen2/gcc-10.2.0/qchem-5.4-akfmr7b3t57bfs6qan3padb2wnb2i7cl/exe/qcprog.exe_s Methylthiophene_Phi_30_Theta_260_Methylthiophene_Hydrogenated.qcin_1291876.0 ./qchem1291876/
                  Welcome to Q-Chem
     A Quantum Leap Into The Future Of Chemistry


 Q-Chem 5.4, Q-Chem, Inc., Pleasanton, CA (2021)

 License issued to: University of California, San Diego (site)

 E. Epifanovsky,  A. T. B. Gilbert,  Xintian Feng,  Joonho Lee,  Yuezhi Mao,  
 N. Mardirossian,  P. Pokhilko,  A. White,  M. Wormit,  M. P. Coons,  
 A. L. Dempwolff,  Zhengting Gan,  D. Hait,  P. R. Horn,  L. D. Jacobson,  
 I. Kaliman,  J. Kussmann,  A. W. Lange,  Ka Un Lao,  D. S. Levine,  Jie Liu,  
 S. C. McKenzie,  A. F. Morrison,  K. Nanda,  F. Plasser,  D. R. Rehn,  
 M. L. Vidal,  Zhi-Qiang You,  Ying Zhu,  B. Alam,  B. Albrecht,  
 A. Aldossary,  E. Alguire,  J. H. Andersen,  D. Barton,  K. Begam,  A. Behn,  
 Y. A. Bernard,  E. J. Berquist,  H. Burton,  A. Carreras,  K. Carter-Fenk,  
 R. Chakraborty,  A. D. Chien,  K. D. Closser,  V. Cofer-Shabica,  
 S. Dasgupta,  Jia Deng,  M. de Wergifosse,  M. Diedenhofen,  Hainam Do,  
 S. Ehlert,  Po-Tung Fang,  S. Fatehi,  Qingguo Feng,  J. Gayvert,  
 Qinghui Ge,  G. Gidofalvi,  M. Goldey,  J. Gomes,  C. Gonzalez-Espinoza,  
 S. Gulania,  A. Gunina,  M. W. D. Hanson-Heine,  P. H. P. Harbach,  
 A. W. Hauser,  M. F. Herbst,  M. Hernandez Vera,  M. Hodecker,  
 Z. C. Holden,  S. Houck,  Xunkun Huang,  Kerwin Hui,  B. C. Huynh,  
 M. Ivanov,  Hyunjun Ji,  Hanjie Jiang,  B. Kaduk,  S. Kaehler,  
 K. Khistyaev,  Jaehoon Kim,  P. Klunzinger,  Z. Koczor-Benda,  
 Joong Hoon Koh,  D. Kosenkov,  L. Koulias,  T. Kowalczyk,  C. M. Krauter,  
 K. Kue,  A. Kunitsa,  T. Kus,  A. Landau,  K. V. Lawler,  D. Lefrancois,  
 S. Lehtola,  Rain Li,  Yi-Pei Li,  Jiashu Liang,  M. Liebenthal,  
 Hung-Hsuan Lin,  You-Sheng Lin,  Fenglai Liu,  Kuan-Yu Liu,  
 M. Loipersberger,  A. Luenser,  A. Manjanath,  P. Manohar,  E. Mansoor,  
 S. F. Manzer,  Shan-Ping Mao,  A. V. Marenich,  T. Markovich,  S. Mason,  
 S. A. Maurer,  P. F. McLaughlin,  M. F. S. J. Menger,  J.-M. Mewes,  
 S. A. Mewes,  P. Morgante,  J. W. Mullinax,  T. S. Nguyen-Beck,  
 K. J. Oosterbaan,  G. Paran,  Alexander C. Paul,  Suranjan K. Paul,  
 F. Pavosevic,  Zheng Pei,  S. Prager,  E. I. Proynov,  E. Ramos,  B. Rana,  
 A. E. Rask,  A. Rettig,  R. M. Richard,  F. Rob,  E. Rossomme,  T. Scheele,  
 M. Scheurer,  M. Schneider,  N. Sergueev,  S. M. Sharada,  W. Skomorowski,  
 D. W. Small,  C. J. Stein,  Yu-Chuan Su,  E. J. Sundstrom,  Zhen Tao,  
 J. Thirman,  T. Tsuchimochi,  N. M. Tubman,  S. P. Veccham,  O. Vydrov,  
 J. Wenzel,  J. Witte,  A. Yamada,  Kun Yao,  S. Yeganeh,  S. R. Yost,  
 A. Zech,  Igor Ying Zhang,  Xing Zhang,  Yu Zhang,  D. Zuev,  
 A. Aspuru-Guzik,  A. T. Bell,  N. A. Besley,  K. B. Bravaya,  B. R. Brooks,  
 D. Casanova,  Jeng-Da Chai,  S. Coriani,  C. J. Cramer,  
 A. E. DePrince, III,  R. A. DiStasio Jr.,  A. Dreuw,  B. D. Dunietz,  
 T. R. Furlani,  W. A. Goddard III,  S. Grimme,  S. Hammes-Schiffer,  
 T. Head-Gordon,  W. J. Hehre,  Chao-Ping Hsu,  T.-C. Jagau,  Yousung Jung,  
 A. Klamt,  Jing Kong,  D. S. Lambrecht,  WanZhen Liang,  N. J. Mayhall,  
 C. W. McCurdy,  J. B. Neaton,  C. Ochsenfeld,  J. A. Parkhill,  R. Peverati,  
 V. A. Rassolov,  Yihan Shao,  L. V. Slipchenko,  T. Stauch,  R. P. Steele,  
 J. E. Subotnik,  A. J. W. Thom,  A. Tkatchenko,  D. G. Truhlar,  
 T. Van Voorhis,  T. A. Wesolowski,  K. B. Whaley,  H. L. Woodcock III,  
 P. M. Zimmerman,  S. Faraji,  P. M. W. Gill,  M. Head-Gordon,  
 J. M. Herbert,  A. I. Krylov

 Contributors to earlier versions of Q-Chem not listed above: 
 R. D. Adamson,  B. Austin,  R. Baer,  J. Baker,  G. J. O. Beran,  
 K. Brandhorst,  S. T. Brown,  E. F. C. Byrd,  A. K. Chakraborty,  
 G. K. L. Chan,  Chun-Min Chang,  Yunqing Chen,  C.-L. Cheng,  
 Siu Hung Chien,  D. M. Chipman,  D. L. Crittenden,  H. Dachsel,  
 R. J. Doerksen,  A. D. Dutoi,  R. G. Edgar,  J. Fosso-Tande,  
 L. Fusti-Molnar,  D. Ghosh,  A. Ghysels,  A. Golubeva-Zadorozhnaya,  
 J. Gonthier,  M. S. Gordon,  S. R. Gwaltney,  G. Hawkins,  J. E. Herr,  
 A. Heyden,  S. Hirata,  E. G. Hohenstein,  G. Kedziora,  F. J. Keil,  
 C. Kelley,  Jihan Kim,  R. A. King,  R. Z. Khaliullin,  P. P. Korambath,  
 W. Kurlancheek,  A. Laurent,  A. M. Lee,  M. S. Lee,  S. V. Levchenko,  
 Ching Yeh Lin,  D. Liotard,  E. Livshits,  R. C. Lochan,  I. Lotan,  
 L. A. Martinez-Martinez,  P. E. Maslen,  N. Nair,  D. P. O'Neill,  
 D. Neuhauser,  E. Neuscamman,  C. M. Oana,  R. Olivares-Amaya,  R. Olson,  
 T. M. Perrine,  B. Peters,  P. A. Pieniazek,  A. Prociuk,  Y. M. Rhee,  
 J. Ritchie,  M. A. Rohrdanz,  E. Rosta,  N. J. Russ,  H. F. Schaefer III,  
 M. W. Schmidt,  N. E. Schultz,  S. Sharma,  N. Shenvi,  C. D. Sherrill,  
 A. C. Simmonett,  A. Sodt,  T. Stein,  D. Stuck,  K. S. Thanthiriwatte,  
 V. Vanovschi,  L. Vogt,  Tao Wang,  A. Warshel,  M. A. Watson,  
 C. F. Williams,  Q. Wu,  X. Xu,  Jun Yang,  W. Zhang,  Yan Zhao

 Please cite Q-Chem as follows:
 Y. Shao et al., Mol. Phys. 113, 184-215 (2015)
 DOI: 10.1080/00268976.2014.952696

 Q-Chem 5.4.0 for Intel X86 EM64T Linux

 Parts of Q-Chem use Armadillo 9.800.1 (Horizon Scraper).
 http://arma.sourceforge.net/

 Q-Chem begins on Sun Jul 10 04:38:31 2022  

 Host: 
0

     Scratch files written to ./qchem1291876//
 May1621 |scratch|qcdevops|jenkins|workspace|build_RNUM    
 Processing $rem in /cm/shared/apps/spack/cpu/opt/spack/linux-centos8-zen2/gcc-10.2.0/qchem-5.4-akfmr7b3t57bfs6qan3padb2wnb2i7cl/config/preferences:
 Processing $rem in /home/theleonzhang/.qchemrc:
 Symmetry turned off for PCM/SM12/SMD calculation
 Core orbitals will be frozen

 Checking the input file for inconsistencies... 	...done.

--------------------------------------------------------------
User input:
--------------------------------------------------------------
$molecule
0 1
C	0.763475	-3.866725	-0.133897
C	-0.603206	-3.703963	0.106669
C	-1.050446	-2.357056	0.185154
H	-1.283024	-4.561092	0.226709
C	-0.000000	-1.440664	-0.000000
S	1.521018	-2.286957	-0.268206
C	-2.483610	-1.978743	0.437628
H	-3.118875	-2.878678	0.549717
H	-2.903464	-1.376015	-0.394664
H	-2.593726	-1.375728	1.363110
C	0.000000	0.000000	0.000000
C	0.431829	0.747884	1.099446
C	1.123799	1.946373	0.776721
H	0.247423	0.428497	2.136088
C	1.234147	2.137457	-0.612546
S	0.471221	0.816130	-1.486809
C	1.667694	2.888380	1.814609
H	1.454874	2.519768	2.836676
H	1.222009	3.901210	1.726239
H	2.767675	3.008788	1.726228
H	1.708773	2.959493	-1.161575
H	0.946698	-4.392713	-1.077442
H	1.258274	-4.392347	0.690363
H	0.187427	-1.440391	1.063612
$end

$rem
JOBTYPE		SP
EXCHANGE	HF
CORRELATION	pRIMP2
BASIS		cc-pvtz
METHOD		rimp2
AUX_BASIS	rimp2-cc-pvtz
SOLVENT_METHOD	PCM
PURECART	11111
SYMMETRY	false
MEM_TOTAL	110000
SCF_CONVERGENCE = 6
THRESH=10
$end



$solvent
dielectric 4.90
$end
--------------------------------------------------------------
 ----------------------------------------------------------------
             Standard Nuclear Orientation (Angstroms)
    I     Atom           X                Y                Z
 ----------------------------------------------------------------
    1      C       0.7634750000    -3.8667250000    -0.1338970000
    2      C      -0.6032060000    -3.7039630000     0.1066690000
    3      C      -1.0504460000    -2.3570560000     0.1851540000
    4      H      -1.2830240000    -4.5610920000     0.2267090000
    5      C       0.0000000000    -1.4406640000     0.0000000000
    6      S       1.5210180000    -2.2869570000    -0.2682060000
    7      C      -2.4836100000    -1.9787430000     0.4376280000
    8      H      -3.1188750000    -2.8786780000     0.5497170000
    9      H      -2.9034640000    -1.3760150000    -0.3946640000
   10      H      -2.5937260000    -1.3757280000     1.3631100000
   11      C       0.0000000000     0.0000000000     0.0000000000
   12      C       0.4318290000     0.7478840000     1.0994460000
   13      C       1.1237990000     1.9463730000     0.7767210000
   14      H       0.2474230000     0.4284970000     2.1360880000
   15      C       1.2341470000     2.1374570000    -0.6125460000
   16      S       0.4712210000     0.8161300000    -1.4868090000
   17      C       1.6676940000     2.8883800000     1.8146090000
   18      H       1.4548740000     2.5197680000     2.8366760000
   19      H       1.2220090000     3.9012100000     1.7262390000
   20      H       2.7676750000     3.0087880000     1.7262280000
   21      H       1.7087730000     2.9594930000    -1.1615750000
   22      H       0.9466980000    -4.3927130000    -1.0774420000
   23      H       1.2582740000    -4.3923470000     0.6903630000
   24      H       0.1874270000    -1.4403910000     1.0636120000
 ----------------------------------------------------------------
 Nuclear Repulsion Energy =         878.69752611 hartrees
 There are       52 alpha and       52 beta electrons

 Q-Chem warning in module forms1/BasisType.C, line 2236:

 You are not using the predefined 5D/6D in this basis set.

 Requested basis set is cc-pVTZ
 There are 196 shells and 536 basis functions

 Total QAlloc Memory Limit 110000 MB
 Mega-Array Size       188 MB
 MEM_STATIC part       192 MB
 Discretize the solute cavity surface with Lebedev spheres
	Using 110 Lebedev grid points for each H atom
	Using 194 Lebedev grid points for other atoms
	Atomic van der Waals radii will be scaled by 1.20
 Remove points where switching function is < 1.0e-08
 Keep 1610 surface tesserae and discard 2038 interior tesserae
 Molecular Surface Area = 237.017 Angst**2
 Requested basis set is rimp2-cc-pVTZ
 There are 414 shells and 1414 basis functions
 A cutoff of  1.0D-10 yielded  13998 shell pairs
 There are    101198 function pairs (    129716 Cartesian)
 Smallest overlap matrix eigenvalue = 6.97E-05

 Scale SEOQF with 1.000000e-01/1.000000e-01/1.000000e-01

 Standard Electronic Orientation quadrupole field applied
 Nucleus-field energy     =     0.0000000352 hartrees
 Guess from superposition of atomic densities
 Warning:  Energy on first SCF cycle will be non-variational
 SAD guess density has 104.000000 electrons

 -----------------------------------------------------------------------
  General SCF calculation program by
  Eric Jon Sundstrom, Paul Horn, Yuezhi Mao, Dmitri Zuev, Alec White,
  David Stuck, Shaama M.S., Shane Yost, Joonho Lee, David Small,
  Daniel Levine, Susi Lehtola, Hugh Burton, Evgeny Epifanovsky,
  Bang C. Huynh
 -----------------------------------------------------------------------
 Hartree-Fock
 A restricted SCF calculation will be
 performed using DIIS
 SCF converges when DIIS error is below 1.0e-06
 ---------------------------------------
  Cycle       Energy         DIIS error
 ---------------------------------------
    1   -1186.0484159549      2.39e-02  
    2   -1180.6044589698      1.54e-03  
    3   -1180.7284187363      5.60e-04  
    4   -1180.7414199251      3.11e-04  
    5   -1180.7457733056      5.94e-05  
    6   -1180.7460162994      2.42e-05  
    7   -1180.7460770606      9.44e-06  
    8   -1180.7460924160      4.54e-06  
    9   -1180.7460961548      1.66e-06  
   10   -1180.7460967704      5.57e-07  Convergence criterion met
 ---------------------------------------
 SCF time:   CPU 563.52s  wall 565.00s 

************** Final PCM Free Energy Summary **************
 G_electrostatic  =      -0.00966776 hartree =      -6.06660883 kcal/mol
 G_cavitation     =       0.00000000 hartree =       0.00000000 kcal/mol
 G_dispersion     =       0.00000000 hartree =       0.00000000 kcal/mol
 G_repulsion      =       0.00000000 hartree =       0.00000000 kcal/mol
 --------------------------------------------------
 Non-electrostatic Free Energy =       0.00000000 hartree =       0.00000000 kcal/mol
 Total                         =      -0.00966776 hartree =      -6.06660883 kcal/mol
 --------------------------------------------------
 SCF Energy (H0 + V/2)                       =   -1180.74609677 
 Solute Internal Energy (H0)                 =   -1180.73642901 
 Total Free Energy (H0 + V/2 + non-elec)     =   -1180.74609677 hartree
                                             = -740929.35856972 kcal/mol
***********************************************************

 SCF   energy in the final basis set =    -1180.7460967704
 Total energy in the final basis set =    -1180.7460967704


 --------------------------------------------------------------
  Generalized many-body perturbation theory program
  by Joonho Lee, Fazle Rob, Xintian Feng, Evgeny Epifanovsky

 No regularization used 
 (reg. param. = 0.0000e+00)
  (P|Q)^-1/2 Time:  CPU 1.89 s  wall 1.90 s

 In RI-MP2 calculation: 
 # of frozen core orbitals: 20

 Components of the RIMP2 correlation energy:
        aaaa    correlation energy =        -0.2518240772 a.u.
        abab    correlation energy =        -1.5049584103 a.u.
        bbbb    correlation energy =        -0.2518240772 a.u.
        non-Brillouin singles      =        -0.0000000000 a.u.
        total same-spin energy     =        -0.5036481545 a.u.
        total opposite-spin energy =        -1.5049584103 a.u.

 Total  RIMP2   correlation energy =        -2.0086065648 a.u.
        RIMP2         total energy =     -1182.7547033352 a.u.

 RI-MP2 Energy Time:  CPU 78.99 s  wall 79.21 s
 
 --------------------------------------------------------------
 
                    Orbital Energies (a.u.)
 --------------------------------------------------------------
 
 Alpha MOs
 -- Occupied --
-91.9794 -91.9407 -11.2747 -11.2694 -11.2593 -11.2526 -11.2508 -11.2469
-11.2396 -11.2310 -11.2294 -11.2158  -8.9796  -8.9454  -6.6605  -6.6599
 -6.6594  -6.6267  -6.6257  -6.6244  -1.1987  -1.1535  -1.0575  -1.0262
 -1.0045  -0.9594  -0.9106  -0.9013  -0.8142  -0.7587  -0.7378  -0.7001
 -0.6601  -0.6399  -0.6102  -0.5886  -0.5815  -0.5709  -0.5649  -0.5501
 -0.5407  -0.5307  -0.5092  -0.5068  -0.4929  -0.4752  -0.4603  -0.4471
 -0.3575  -0.3376  -0.3131  -0.2789
 -- Virtual --
  0.0815   0.1335   0.1415   0.1543   0.1593   0.1711   0.1746   0.1799
  0.1893   0.1970   0.2057   0.2175   0.2258   0.2275   0.2336   0.2437
  0.2497   0.2547   0.2676   0.2981   0.3094   0.3329   0.3433   0.3496
  0.3683   0.3776   0.3788   0.3869   0.3919   0.3992   0.4124   0.4204
  0.4335   0.4403   0.4419   0.4563   0.4668   0.4708   0.4850   0.4883
  0.5019   0.5095   0.5128   0.5235   0.5265   0.5364   0.5441   0.5527
  0.5714   0.5785   0.5870   0.5998   0.6052   0.6064   0.6170   0.6212
  0.6240   0.6287   0.6355   0.6371   0.6427   0.6447   0.6455   0.6567
  0.6609   0.6669   0.6756   0.6878   0.6938   0.6960   0.7138   0.7295
  0.7369   0.7441   0.7502   0.7750   0.7942   0.8027   0.8058   0.8161
  0.8212   0.8425   0.8448   0.8495   0.8699   0.9001   0.9046   0.9133
  0.9207   0.9403   0.9460   0.9586   0.9818   0.9855   0.9923   1.0128
  1.0219   1.0251   1.0364   1.0433   1.0510   1.0584   1.0615   1.0839
  1.0907   1.0993   1.1142   1.1267   1.1288   1.1572   1.1659   1.1739
  1.1754   1.1816   1.1850   1.2040   1.2110   1.2210   1.2341   1.2450
  1.2555   1.2588   1.2611   1.2712   1.2758   1.2872   1.3078   1.3182
  1.3246   1.3364   1.3535   1.3630   1.3809   1.3936   1.3998   1.4055
  1.4205   1.4313   1.4473   1.4551   1.4710   1.4751   1.4886   1.4934
  1.5052   1.5122   1.5179   1.5311   1.5415   1.5426   1.5503   1.5561
  1.5634   1.5690   1.5805   1.5880   1.6057   1.6146   1.6241   1.6390
  1.6421   1.6643   1.6790   1.6848   1.7038   1.7097   1.7223   1.7366
  1.7455   1.7593   1.7678   1.7963   1.8029   1.8064   1.8326   1.8552
  1.8686   1.9225   1.9339   1.9467   1.9510   1.9680   1.9791   1.9920
  2.0184   2.0315   2.0444   2.0657   2.0835   2.1224   2.1279   2.1471
  2.1800   2.1925   2.1995   2.2139   2.2325   2.2500   2.2540   2.2749
  2.2799   2.3271   2.3461   2.3763   2.4098   2.4463   2.4600   2.4675
  2.5013   2.5036   2.5232   2.5512   2.5696   2.5825   2.6052   2.6151
  2.6241   2.6349   2.6619   2.6680   2.6743   2.6980   2.7022   2.7233
  2.7452   2.7550   2.7596   2.7783   2.7785   2.7929   2.8086   2.8336
  2.8461   2.8517   2.8658   2.8855   2.8949   2.9036   2.9085   2.9181
  2.9453   2.9598   2.9701   2.9801   2.9974   3.0115   3.0280   3.0363
  3.0427   3.0599   3.0949   3.1003   3.1118   3.1133   3.1366   3.1497
  3.1544   3.1595   3.1648   3.1734   3.1829   3.1928   3.2024   3.2175
  3.2260   3.2433   3.2467   3.2586   3.2780   3.2830   3.2940   3.3030
  3.3211   3.3256   3.3341   3.3372   3.3428   3.3609   3.3642   3.3690
  3.3748   3.3842   3.3888   3.3975   3.4083   3.4110   3.4207   3.4282
  3.4360   3.4437   3.4595   3.4645   3.4859   3.4954   3.5049   3.5089
  3.5229   3.5301   3.5366   3.5460   3.5481   3.5615   3.5722   3.5815
  3.5907   3.6146   3.6206   3.6258   3.6400   3.6459   3.6495   3.6607
  3.6764   3.6826   3.6954   3.7018   3.7093   3.7241   3.7323   3.7369
  3.7447   3.7594   3.7664   3.7789   3.7867   3.7958   3.8010   3.8225
  3.8278   3.8424   3.8494   3.8644   3.8798   3.8833   3.8946   3.9113
  3.9301   3.9491   3.9525   3.9569   3.9681   3.9727   3.9960   4.0064
  4.0241   4.0338   4.0459   4.0565   4.0726   4.0907   4.0983   4.1101
  4.1172   4.1214   4.1459   4.1550   4.1700   4.1721   4.1892   4.1994
  4.2085   4.2192   4.2345   4.2437   4.2558   4.2621   4.2649   4.2894
  4.2969   4.3019   4.3199   4.3301   4.3391   4.3467   4.3572   4.3635
  4.3737   4.3803   4.3984   4.4013   4.4105   4.4252   4.4309   4.4529
  4.4581   4.4693   4.4823   4.4954   4.5015   4.5150   4.5391   4.5465
  4.5806   4.5863   4.6104   4.6337   4.6389   4.6503   4.6621   4.6714
  4.7001   4.7269   4.7324   4.7537   4.7678   4.8173   4.8223   4.8506
  4.8602   4.8709   4.8930   4.9116   4.9286   4.9669   4.9754   4.9855
  5.0294   5.0480   5.0863   5.1049   5.1137   5.1266   5.1495   5.1630
  5.1742   5.1957   5.2241   5.2588   5.2826   5.2910   5.3108   5.3230
  5.3346   5.3630   5.3812   5.3937   5.4040   5.4261   5.4404   5.4492
  5.4953   5.5111   5.5277   5.5430   5.5483   5.5598   5.5727   5.5791
  5.6254   5.6335   5.6546   5.6746   5.6861   5.7062   5.7136   5.7300
  5.7693   5.7890   5.8265   5.9469   5.9922   6.0303   6.1219   6.1325
  6.2019   6.2195   6.2272   6.2376   6.2512   6.2788   6.2847   6.3227
  6.3779   6.4306   9.4489  10.5645  12.2057  12.8962  13.1683  13.8876
 14.1099  14.2024  14.2955  14.5918
 --------------------------------------------------------------
 
          Ground-State Mulliken Net Atomic Charges

     Atom                 Charge (a.u.)
  ----------------------------------------
      1 C                    -0.073709
      2 C                    -0.329976
      3 C                    -0.035624
      4 H                     0.174358
      5 C                     0.055802
      6 S                    -0.168614
      7 C                    -0.270432
      8 H                     0.112934
      9 H                     0.107426
     10 H                     0.099628
     11 C                    -0.066141
     12 C                    -0.234054
     13 C                     0.027602
     14 H                     0.179494
     15 C                    -0.225923
     16 S                     0.009044
     17 C                    -0.269792
     18 H                     0.101849
     19 H                     0.107608
     20 H                     0.108344
     21 H                     0.197228
     22 H                     0.110595
     23 H                     0.108845
     24 H                     0.173509
  ----------------------------------------
  Sum of atomic charges =     0.000000

 -----------------------------------------------------------------
                    Cartesian Multipole Moments
 -----------------------------------------------------------------
    Charge (ESU x 10^10)
                -0.0000
    Dipole Moment (Debye)
         X      -1.1336      Y       0.7115      Z       2.6918
       Tot       3.0062
    Quadrupole Moments (Debye-Ang)
        XX     -88.8141     XY       7.9422     YY     -76.9800
        XZ       0.7743     YZ      -0.9913     ZZ     -85.9561
    Octopole Moments (Debye-Ang^2)
       XXX    -108.7077    XXY      59.5868    XYY     -18.3566
       YYY     145.3616    XXZ      -0.5607    XYZ      -1.1663
       YYZ      -1.4603    XZZ     -29.5695    YZZ      64.2112
       ZZZ       2.5383
    Hexadecapole Moments (Debye-Ang^3)
      XXXX    -931.7082   XXXY    -173.0696   XXYY    -591.6761
      XYYY    -181.1716   YYYY   -2607.0489   XXXZ      -0.6682
      XXYZ     -37.7937   XYYZ      -9.5870   YYYZ     -94.5839
      XXZZ    -254.2305   XYZZ     -61.2270   YYZZ    -567.5146
      XZZZ       3.2873   YZZZ     -81.4750   ZZZZ    -554.8264
 -----------------------------------------------------------------
 Total job time:  646.73s(wall), 643.39s(cpu) 
 Sun Jul 10 04:49:17 2022

        *************************************************************
        *                                                           *
        *  Thank you very much for using Q-Chem.  Have a nice day.  *
        *                                                           *
        *************************************************************


remove work dirs ./qchem1291876.0 -- ./qchem1291876.-1
rm -rf ./qchem1291876
