You are running Q-Chem version: 5.4.0

#
# job setting
#
local host:  exp-1-12
current dir: /expanse/lustre/scratch/theleonzhang/temp_project/Hydrogenated_Rotation_Test
input file:  Methylthiophene_Phi_40_Theta_50_Methylthiophene_Hydrogenated.qcin
output file: 
nprocs     : 0
nthreads   : 1
#
# qchem installation setting
#
QC:          /cm/shared/apps/spack/cpu/opt/spack/linux-centos8-zen2/gcc-10.2.0/qchem-5.4-akfmr7b3t57bfs6qan3padb2wnb2i7cl
QCAUX:       /cm/shared/apps/spack/cpu/opt/spack/linux-centos8-zen2/gcc-10.2.0/qchem-5.4-akfmr7b3t57bfs6qan3padb2wnb2i7cl/qcaux
QCPROG:      /cm/shared/apps/spack/cpu/opt/spack/linux-centos8-zen2/gcc-10.2.0/qchem-5.4-akfmr7b3t57bfs6qan3padb2wnb2i7cl/exe/qcprog.exe_s
QCPROG_S:    /cm/shared/apps/spack/cpu/opt/spack/linux-centos8-zen2/gcc-10.2.0/qchem-5.4-akfmr7b3t57bfs6qan3padb2wnb2i7cl/exe/qcprog.exe_s
PARALLEL:    -DSERIAL
QCMPI:       mpich
#
# qchem directory setting
#
qcrun:       qchem154191
QCSCRATCH:   .
QCLOCALSCR:  
QCTMPDIR:    .
QCFILEPREF:  ./qchem154191
QCSAVEDIR:   
workdirs:    ./qchem154191
workdir0:    ./qchem154191
partmpdirs =  
#
# parallel setting
#
QCRSH:           ssh
QCMPI:           mpich
QCMPIRUN:        /cm/shared/apps/spack/cpu/opt/spack/linux-centos8-zen2/gcc-10.2.0/qchem-5.4-akfmr7b3t57bfs6qan3padb2wnb2i7cl/bin/mpi/mpirun_qchem
QCMACHINEFILE:   ./qchem154191/hostfile

#
# env setting
#
exported envs:   QC QCAUX QCSCRATCH QCRUNNAME QCFILEPREF QCPROG QCPROG_S GUIFILE

Running Job 1 of 1 Methylthiophene_Phi_40_Theta_50_Methylthiophene_Hydrogenated.qcin
qchem Methylthiophene_Phi_40_Theta_50_Methylthiophene_Hydrogenated.qcin_154191.0 ./qchem154191/ 0
/cm/shared/apps/spack/cpu/opt/spack/linux-centos8-zen2/gcc-10.2.0/qchem-5.4-akfmr7b3t57bfs6qan3padb2wnb2i7cl/exe/qcprog.exe_s Methylthiophene_Phi_40_Theta_50_Methylthiophene_Hydrogenated.qcin_154191.0 ./qchem154191/
                  Welcome to Q-Chem
     A Quantum Leap Into The Future Of Chemistry


 Q-Chem 5.4, Q-Chem, Inc., Pleasanton, CA (2021)

 License issued to: University of California, San Diego (site)

 E. Epifanovsky,  A. T. B. Gilbert,  Xintian Feng,  Joonho Lee,  Yuezhi Mao,  
 N. Mardirossian,  P. Pokhilko,  A. White,  M. Wormit,  M. P. Coons,  
 A. L. Dempwolff,  Zhengting Gan,  D. Hait,  P. R. Horn,  L. D. Jacobson,  
 I. Kaliman,  J. Kussmann,  A. W. Lange,  Ka Un Lao,  D. S. Levine,  Jie Liu,  
 S. C. McKenzie,  A. F. Morrison,  K. Nanda,  F. Plasser,  D. R. Rehn,  
 M. L. Vidal,  Zhi-Qiang You,  Ying Zhu,  B. Alam,  B. Albrecht,  
 A. Aldossary,  E. Alguire,  J. H. Andersen,  D. Barton,  K. Begam,  A. Behn,  
 Y. A. Bernard,  E. J. Berquist,  H. Burton,  A. Carreras,  K. Carter-Fenk,  
 R. Chakraborty,  A. D. Chien,  K. D. Closser,  V. Cofer-Shabica,  
 S. Dasgupta,  Jia Deng,  M. de Wergifosse,  M. Diedenhofen,  Hainam Do,  
 S. Ehlert,  Po-Tung Fang,  S. Fatehi,  Qingguo Feng,  J. Gayvert,  
 Qinghui Ge,  G. Gidofalvi,  M. Goldey,  J. Gomes,  C. Gonzalez-Espinoza,  
 S. Gulania,  A. Gunina,  M. W. D. Hanson-Heine,  P. H. P. Harbach,  
 A. W. Hauser,  M. F. Herbst,  M. Hernandez Vera,  M. Hodecker,  
 Z. C. Holden,  S. Houck,  Xunkun Huang,  Kerwin Hui,  B. C. Huynh,  
 M. Ivanov,  Hyunjun Ji,  Hanjie Jiang,  B. Kaduk,  S. Kaehler,  
 K. Khistyaev,  Jaehoon Kim,  P. Klunzinger,  Z. Koczor-Benda,  
 Joong Hoon Koh,  D. Kosenkov,  L. Koulias,  T. Kowalczyk,  C. M. Krauter,  
 K. Kue,  A. Kunitsa,  T. Kus,  A. Landau,  K. V. Lawler,  D. Lefrancois,  
 S. Lehtola,  Rain Li,  Yi-Pei Li,  Jiashu Liang,  M. Liebenthal,  
 Hung-Hsuan Lin,  You-Sheng Lin,  Fenglai Liu,  Kuan-Yu Liu,  
 M. Loipersberger,  A. Luenser,  A. Manjanath,  P. Manohar,  E. Mansoor,  
 S. F. Manzer,  Shan-Ping Mao,  A. V. Marenich,  T. Markovich,  S. Mason,  
 S. A. Maurer,  P. F. McLaughlin,  M. F. S. J. Menger,  J.-M. Mewes,  
 S. A. Mewes,  P. Morgante,  J. W. Mullinax,  T. S. Nguyen-Beck,  
 K. J. Oosterbaan,  G. Paran,  Alexander C. Paul,  Suranjan K. Paul,  
 F. Pavosevic,  Zheng Pei,  S. Prager,  E. I. Proynov,  E. Ramos,  B. Rana,  
 A. E. Rask,  A. Rettig,  R. M. Richard,  F. Rob,  E. Rossomme,  T. Scheele,  
 M. Scheurer,  M. Schneider,  N. Sergueev,  S. M. Sharada,  W. Skomorowski,  
 D. W. Small,  C. J. Stein,  Yu-Chuan Su,  E. J. Sundstrom,  Zhen Tao,  
 J. Thirman,  T. Tsuchimochi,  N. M. Tubman,  S. P. Veccham,  O. Vydrov,  
 J. Wenzel,  J. Witte,  A. Yamada,  Kun Yao,  S. Yeganeh,  S. R. Yost,  
 A. Zech,  Igor Ying Zhang,  Xing Zhang,  Yu Zhang,  D. Zuev,  
 A. Aspuru-Guzik,  A. T. Bell,  N. A. Besley,  K. B. Bravaya,  B. R. Brooks,  
 D. Casanova,  Jeng-Da Chai,  S. Coriani,  C. J. Cramer,  
 A. E. DePrince, III,  R. A. DiStasio Jr.,  A. Dreuw,  B. D. Dunietz,  
 T. R. Furlani,  W. A. Goddard III,  S. Grimme,  S. Hammes-Schiffer,  
 T. Head-Gordon,  W. J. Hehre,  Chao-Ping Hsu,  T.-C. Jagau,  Yousung Jung,  
 A. Klamt,  Jing Kong,  D. S. Lambrecht,  WanZhen Liang,  N. J. Mayhall,  
 C. W. McCurdy,  J. B. Neaton,  C. Ochsenfeld,  J. A. Parkhill,  R. Peverati,  
 V. A. Rassolov,  Yihan Shao,  L. V. Slipchenko,  T. Stauch,  R. P. Steele,  
 J. E. Subotnik,  A. J. W. Thom,  A. Tkatchenko,  D. G. Truhlar,  
 T. Van Voorhis,  T. A. Wesolowski,  K. B. Whaley,  H. L. Woodcock III,  
 P. M. Zimmerman,  S. Faraji,  P. M. W. Gill,  M. Head-Gordon,  
 J. M. Herbert,  A. I. Krylov

 Contributors to earlier versions of Q-Chem not listed above: 
 R. D. Adamson,  B. Austin,  R. Baer,  J. Baker,  G. J. O. Beran,  
 K. Brandhorst,  S. T. Brown,  E. F. C. Byrd,  A. K. Chakraborty,  
 G. K. L. Chan,  Chun-Min Chang,  Yunqing Chen,  C.-L. Cheng,  
 Siu Hung Chien,  D. M. Chipman,  D. L. Crittenden,  H. Dachsel,  
 R. J. Doerksen,  A. D. Dutoi,  R. G. Edgar,  J. Fosso-Tande,  
 L. Fusti-Molnar,  D. Ghosh,  A. Ghysels,  A. Golubeva-Zadorozhnaya,  
 J. Gonthier,  M. S. Gordon,  S. R. Gwaltney,  G. Hawkins,  J. E. Herr,  
 A. Heyden,  S. Hirata,  E. G. Hohenstein,  G. Kedziora,  F. J. Keil,  
 C. Kelley,  Jihan Kim,  R. A. King,  R. Z. Khaliullin,  P. P. Korambath,  
 W. Kurlancheek,  A. Laurent,  A. M. Lee,  M. S. Lee,  S. V. Levchenko,  
 Ching Yeh Lin,  D. Liotard,  E. Livshits,  R. C. Lochan,  I. Lotan,  
 L. A. Martinez-Martinez,  P. E. Maslen,  N. Nair,  D. P. O'Neill,  
 D. Neuhauser,  E. Neuscamman,  C. M. Oana,  R. Olivares-Amaya,  R. Olson,  
 T. M. Perrine,  B. Peters,  P. A. Pieniazek,  A. Prociuk,  Y. M. Rhee,  
 J. Ritchie,  M. A. Rohrdanz,  E. Rosta,  N. J. Russ,  H. F. Schaefer III,  
 M. W. Schmidt,  N. E. Schultz,  S. Sharma,  N. Shenvi,  C. D. Sherrill,  
 A. C. Simmonett,  A. Sodt,  T. Stein,  D. Stuck,  K. S. Thanthiriwatte,  
 V. Vanovschi,  L. Vogt,  Tao Wang,  A. Warshel,  M. A. Watson,  
 C. F. Williams,  Q. Wu,  X. Xu,  Jun Yang,  W. Zhang,  Yan Zhao

 Please cite Q-Chem as follows:
 Y. Shao et al., Mol. Phys. 113, 184-215 (2015)
 DOI: 10.1080/00268976.2014.952696

 Q-Chem 5.4.0 for Intel X86 EM64T Linux

 Parts of Q-Chem use Armadillo 9.800.1 (Horizon Scraper).
 http://arma.sourceforge.net/

 Q-Chem begins on Sat Jul  9 20:01:46 2022  

 Host: 
0

     Scratch files written to ./qchem154191//
 May1621 |scratch|qcdevops|jenkins|workspace|build_RNUM    
 Processing $rem in /cm/shared/apps/spack/cpu/opt/spack/linux-centos8-zen2/gcc-10.2.0/qchem-5.4-akfmr7b3t57bfs6qan3padb2wnb2i7cl/config/preferences:
 Processing $rem in /home/theleonzhang/.qchemrc:
 Symmetry turned off for PCM/SM12/SMD calculation
 Core orbitals will be frozen

 Checking the input file for inconsistencies... 	...done.

--------------------------------------------------------------
User input:
--------------------------------------------------------------
$molecule
0 1
C	-0.594240	-3.866725	0.497696
C	0.469057	-3.703963	-0.393981
C	0.817136	-2.357056	-0.685571
H	0.997777	-4.561092	-0.837848
C	-0.000000	-1.440664	-0.000000
S	-1.183137	-2.286957	0.992782
C	1.932056	-1.978743	-1.620802
H	2.426166	-2.878678	-2.035506
H	2.711806	-1.376015	-1.109943
H	1.564678	-1.375728	-2.477350
C	0.000000	0.000000	0.000000
C	0.555137	0.661535	1.099446
C	1.444710	1.721658	0.776721
H	0.318072	0.379023	2.136088
C	1.586563	1.890676	-0.612546
S	0.605781	0.721904	-1.486809
C	2.143920	2.554907	1.814609
H	1.870325	2.228851	2.836676
H	1.880882	3.629742	1.726239
H	3.248098	2.482476	1.726228
H	2.196723	2.617806	-1.161575
H	-0.281143	-4.392713	1.406441
H	-1.434879	-4.392347	0.031265
H	-0.694122	-1.440391	-0.827402
$end

$rem
JOBTYPE		SP
EXCHANGE	HF
CORRELATION	pRIMP2
BASIS		cc-pvtz
METHOD		rimp2
AUX_BASIS	rimp2-cc-pvtz
SOLVENT_METHOD	PCM
PURECART	11111
SYMMETRY	false
MEM_TOTAL	110000
SCF_CONVERGENCE = 6
THRESH=10
$end



$solvent
dielectric 4.90
$end
--------------------------------------------------------------
 ----------------------------------------------------------------
             Standard Nuclear Orientation (Angstroms)
    I     Atom           X                Y                Z
 ----------------------------------------------------------------
    1      C      -0.5942400000    -3.8667250000     0.4976960000
    2      C       0.4690570000    -3.7039630000    -0.3939810000
    3      C       0.8171360000    -2.3570560000    -0.6855710000
    4      H       0.9977770000    -4.5610920000    -0.8378480000
    5      C       0.0000000000    -1.4406640000     0.0000000000
    6      S      -1.1831370000    -2.2869570000     0.9927820000
    7      C       1.9320560000    -1.9787430000    -1.6208020000
    8      H       2.4261660000    -2.8786780000    -2.0355060000
    9      H       2.7118060000    -1.3760150000    -1.1099430000
   10      H       1.5646780000    -1.3757280000    -2.4773500000
   11      C       0.0000000000     0.0000000000     0.0000000000
   12      C       0.5551370000     0.6615350000     1.0994460000
   13      C       1.4447100000     1.7216580000     0.7767210000
   14      H       0.3180720000     0.3790230000     2.1360880000
   15      C       1.5865630000     1.8906760000    -0.6125460000
   16      S       0.6057810000     0.7219040000    -1.4868090000
   17      C       2.1439200000     2.5549070000     1.8146090000
   18      H       1.8703250000     2.2288510000     2.8366760000
   19      H       1.8808820000     3.6297420000     1.7262390000
   20      H       3.2480980000     2.4824760000     1.7262280000
   21      H       2.1967230000     2.6178060000    -1.1615750000
   22      H      -0.2811430000    -4.3927130000     1.4064410000
   23      H      -1.4348790000    -4.3923470000     0.0312650000
   24      H      -0.6941220000    -1.4403910000    -0.8274020000
 ----------------------------------------------------------------
 Nuclear Repulsion Energy =         887.56491956 hartrees
 There are       52 alpha and       52 beta electrons

 Q-Chem warning in module forms1/BasisType.C, line 2236:

 You are not using the predefined 5D/6D in this basis set.

 Requested basis set is cc-pVTZ
 There are 196 shells and 536 basis functions

 Total QAlloc Memory Limit 110000 MB
 Mega-Array Size       188 MB
 MEM_STATIC part       192 MB
 Discretize the solute cavity surface with Lebedev spheres
	Using 110 Lebedev grid points for each H atom
	Using 194 Lebedev grid points for other atoms
	Atomic van der Waals radii will be scaled by 1.20
 Remove points where switching function is < 1.0e-08
 Keep 1569 surface tesserae and discard 2079 interior tesserae
 Molecular Surface Area = 231.068 Angst**2
 Requested basis set is rimp2-cc-pVTZ
 There are 414 shells and 1414 basis functions
 A cutoff of  1.0D-10 yielded  14368 shell pairs
 There are    104198 function pairs (    133643 Cartesian)
 Smallest overlap matrix eigenvalue = 6.38E-05

 Scale SEOQF with 1.000000e-01/1.000000e-01/1.000000e-01

 Standard Electronic Orientation quadrupole field applied
 Nucleus-field energy     =     0.0000000277 hartrees
 Guess from superposition of atomic densities
 Warning:  Energy on first SCF cycle will be non-variational
 SAD guess density has 104.000000 electrons

 -----------------------------------------------------------------------
  General SCF calculation program by
  Eric Jon Sundstrom, Paul Horn, Yuezhi Mao, Dmitri Zuev, Alec White,
  David Stuck, Shaama M.S., Shane Yost, Joonho Lee, David Small,
  Daniel Levine, Susi Lehtola, Hugh Burton, Evgeny Epifanovsky,
  Bang C. Huynh
 -----------------------------------------------------------------------
 Hartree-Fock
 A restricted SCF calculation will be
 performed using DIIS
 SCF converges when DIIS error is below 1.0e-06
 ---------------------------------------
  Cycle       Energy         DIIS error
 ---------------------------------------
    1   -1186.1006518696      2.40e-02  
    2   -1180.5717676893      1.55e-03  
    3   -1180.6977944109      5.85e-04  
    4   -1180.7117494327      3.17e-04  
    5   -1180.7164143917      6.41e-05  
    6   -1180.7166927227      2.61e-05  
    7   -1180.7167673503      1.12e-05  
    8   -1180.7167875809      5.25e-06  
    9   -1180.7167931072      2.15e-06  
   10   -1180.7167940517      7.50e-07  Convergence criterion met
 ---------------------------------------
 SCF time:   CPU 590.17s  wall 593.00s 

************** Final PCM Free Energy Summary **************
 G_electrostatic  =      -0.00837902 hartree =      -5.25791730 kcal/mol
 G_cavitation     =       0.00000000 hartree =       0.00000000 kcal/mol
 G_dispersion     =       0.00000000 hartree =       0.00000000 kcal/mol
 G_repulsion      =       0.00000000 hartree =       0.00000000 kcal/mol
 --------------------------------------------------
 Non-electrostatic Free Energy =       0.00000000 hartree =       0.00000000 kcal/mol
 Total                         =      -0.00837902 hartree =      -5.25791730 kcal/mol
 --------------------------------------------------
 SCF Energy (H0 + V/2)                       =   -1180.71679405 
 Solute Internal Energy (H0)                 =   -1180.70841503 
 Total Free Energy (H0 + V/2 + non-elec)     =   -1180.71679405 hartree
                                             = -740910.97083622 kcal/mol
***********************************************************

 SCF   energy in the final basis set =    -1180.7167940517
 Total energy in the final basis set =    -1180.7167940517


 --------------------------------------------------------------
  Generalized many-body perturbation theory program
  by Joonho Lee, Fazle Rob, Xintian Feng, Evgeny Epifanovsky

 No regularization used 
 (reg. param. = 0.0000e+00)
  (P|Q)^-1/2 Time:  CPU 2.29 s  wall 2.30 s

 In RI-MP2 calculation: 
 # of frozen core orbitals: 20

 Components of the RIMP2 correlation energy:
        aaaa    correlation energy =        -0.2535654129 a.u.
        abab    correlation energy =        -1.5100674781 a.u.
        bbbb    correlation energy =        -0.2535654129 a.u.
        non-Brillouin singles      =        -0.0000000000 a.u.
        total same-spin energy     =        -0.5071308259 a.u.
        total opposite-spin energy =        -1.5100674781 a.u.

 Total  RIMP2   correlation energy =        -2.0171983040 a.u.
        RIMP2         total energy =     -1182.7339923557 a.u.

 RI-MP2 Energy Time:  CPU 117.37 s  wall 117.78 s
 
 --------------------------------------------------------------
 
                    Orbital Energies (a.u.)
 --------------------------------------------------------------
 
 Alpha MOs
 -- Occupied --
-91.9822 -91.9392 -11.2739 -11.2670 -11.2615 -11.2523 -11.2513 -11.2442
-11.2391 -11.2291 -11.2268 -11.2163  -8.9828  -8.9437  -6.6636  -6.6630
 -6.6626  -6.6251  -6.6242  -6.6229  -1.1999  -1.1535  -1.0588  -1.0227
 -1.0057  -0.9613  -0.9110  -0.9026  -0.8073  -0.7693  -0.7312  -0.7078
 -0.6511  -0.6338  -0.6118  -0.5913  -0.5790  -0.5732  -0.5699  -0.5519
 -0.5418  -0.5273  -0.5177  -0.5099  -0.4893  -0.4634  -0.4588  -0.4425
 -0.3529  -0.3403  -0.3189  -0.2695
 -- Virtual --
  0.0787   0.1333   0.1398   0.1523   0.1622   0.1667   0.1757   0.1853
  0.1889   0.1969   0.2022   0.2075   0.2189   0.2362   0.2399   0.2430
  0.2547   0.2609   0.2734   0.2955   0.3125   0.3330   0.3452   0.3493
  0.3576   0.3704   0.3777   0.3892   0.3980   0.4041   0.4210   0.4348
  0.4431   0.4481   0.4497   0.4507   0.4650   0.4810   0.4849   0.4893
  0.5076   0.5136   0.5315   0.5323   0.5377   0.5421   0.5517   0.5558
  0.5738   0.5797   0.5859   0.5949   0.5997   0.6102   0.6150   0.6215
  0.6227   0.6264   0.6314   0.6400   0.6434   0.6464   0.6504   0.6543
  0.6684   0.6749   0.6830   0.6850   0.6964   0.6968   0.7177   0.7251
  0.7343   0.7550   0.7585   0.7748   0.7817   0.7942   0.8007   0.8216
  0.8358   0.8367   0.8530   0.8679   0.8807   0.8839   0.8896   0.9244
  0.9360   0.9428   0.9481   0.9561   0.9752   0.9872   1.0004   1.0106
  1.0170   1.0275   1.0435   1.0487   1.0594   1.0663   1.0723   1.0850
  1.0981   1.1071   1.1362   1.1372   1.1505   1.1596   1.1667   1.1770
  1.1806   1.1906   1.1993   1.2112   1.2144   1.2293   1.2386   1.2501
  1.2537   1.2572   1.2675   1.2800   1.2845   1.2853   1.2985   1.3120
  1.3167   1.3245   1.3522   1.3567   1.3873   1.3973   1.4093   1.4229
  1.4284   1.4347   1.4489   1.4572   1.4736   1.4768   1.4850   1.5006
  1.5030   1.5096   1.5147   1.5225   1.5360   1.5453   1.5481   1.5583
  1.5640   1.5737   1.5880   1.5982   1.6164   1.6255   1.6338   1.6442
  1.6576   1.6676   1.6706   1.6883   1.7051   1.7091   1.7264   1.7376
  1.7423   1.7581   1.7837   1.7948   1.8124   1.8289   1.8419   1.8505
  1.8902   1.9022   1.9311   1.9670   1.9853   1.9938   2.0033   2.0079
  2.0255   2.0282   2.0450   2.0715   2.1021   2.1094   2.1273   2.1623
  2.1755   2.1923   2.2071   2.2195   2.2360   2.2491   2.2741   2.2855
  2.3010   2.3171   2.3279   2.3565   2.3978   2.4512   2.4614   2.4911
  2.4973   2.5024   2.5484   2.5585   2.5725   2.5942   2.6028   2.6270
  2.6419   2.6532   2.6611   2.6727   2.6794   2.7037   2.7211   2.7269
  2.7489   2.7564   2.7715   2.7797   2.7854   2.8094   2.8158   2.8189
  2.8401   2.8501   2.8662   2.8792   2.8975   2.9062   2.9176   2.9295
  2.9621   2.9675   2.9835   2.9924   3.0113   3.0185   3.0314   3.0533
  3.0729   3.0858   3.0881   3.1088   3.1122   3.1222   3.1311   3.1503
  3.1554   3.1585   3.1688   3.1894   3.1931   3.2066   3.2113   3.2228
  3.2315   3.2388   3.2498   3.2570   3.2772   3.2793   3.2881   3.2979
  3.3140   3.3262   3.3311   3.3415   3.3491   3.3529   3.3598   3.3680
  3.3777   3.3905   3.3948   3.3991   3.4074   3.4219   3.4244   3.4395
  3.4532   3.4578   3.4657   3.4715   3.4804   3.4913   3.4940   3.5051
  3.5136   3.5204   3.5364   3.5450   3.5538   3.5571   3.5671   3.5746
  3.6026   3.6125   3.6237   3.6326   3.6371   3.6569   3.6592   3.6692
  3.6866   3.6928   3.7070   3.7132   3.7290   3.7315   3.7340   3.7495
  3.7612   3.7643   3.7823   3.7868   3.7945   3.7962   3.8065   3.8149
  3.8471   3.8595   3.8704   3.8763   3.8848   3.8905   3.9092   3.9129
  3.9344   3.9521   3.9621   3.9643   3.9860   3.9950   4.0063   4.0178
  4.0305   4.0434   4.0536   4.0664   4.0815   4.0850   4.0972   4.1050
  4.1155   4.1337   4.1512   4.1611   4.1728   4.1896   4.1912   4.2024
  4.2104   4.2221   4.2338   4.2490   4.2558   4.2651   4.2722   4.2858
  4.2962   4.3058   4.3190   4.3366   4.3396   4.3617   4.3749   4.3768
  4.3826   4.3958   4.4008   4.4085   4.4218   4.4318   4.4435   4.4559
  4.4623   4.4693   4.4747   4.4947   4.5063   4.5231   4.5268   4.5605
  4.5720   4.5930   4.6136   4.6245   4.6443   4.6511   4.6555   4.6731
  4.6863   4.7219   4.7421   4.7487   4.7655   4.8006   4.8421   4.8472
  4.8696   4.8898   4.9003   4.9193   4.9296   4.9398   4.9754   4.9835
  5.0088   5.0335   5.0694   5.1044   5.1113   5.1322   5.1428   5.1643
  5.1856   5.2060   5.2302   5.2654   5.2862   5.2957   5.3123   5.3176
  5.3446   5.3696   5.3863   5.3998   5.4129   5.4179   5.4449   5.4560
  5.4827   5.5088   5.5275   5.5369   5.5548   5.5636   5.5774   5.5807
  5.6236   5.6317   5.6342   5.6653   5.6801   5.6964   5.7109   5.7400
  5.7748   5.7904   5.8217   5.9872   6.0040   6.1103   6.1384   6.1615
  6.2106   6.2251   6.2437   6.2589   6.2819   6.3007   6.3114   6.3183
  6.4035   6.4085   9.4040  10.4264  12.2231  12.8747  13.1697  13.9626
 14.0869  14.2327  14.3801  14.7354
 --------------------------------------------------------------
 
          Ground-State Mulliken Net Atomic Charges

     Atom                 Charge (a.u.)
  ----------------------------------------
      1 C                    -0.068592
      2 C                    -0.333998
      3 C                    -0.035532
      4 H                     0.176346
      5 C                     0.061836
      6 S                    -0.192208
      7 C                    -0.277340
      8 H                     0.111148
      9 H                     0.114514
     10 H                     0.107905
     11 C                    -0.115796
     12 C                    -0.178701
     13 C                     0.007288
     14 H                     0.188857
     15 C                    -0.214925
     16 S                     0.012340
     17 C                    -0.269296
     18 H                     0.103132
     19 H                     0.107419
     20 H                     0.105809
     21 H                     0.199752
     22 H                     0.109755
     23 H                     0.107597
     24 H                     0.172689
  ----------------------------------------
  Sum of atomic charges =     0.000000

 -----------------------------------------------------------------
                    Cartesian Multipole Moments
 -----------------------------------------------------------------
    Charge (ESU x 10^10)
                -0.0000
    Dipole Moment (Debye)
         X       3.0139      Y       0.8007      Z      -0.8035
       Tot       3.2204
    Quadrupole Moments (Debye-Ang)
        XX     -86.8816     XY       3.9522     YY     -79.1976
        XZ       0.3264     YZ       3.9841     ZZ     -85.7684
    Octopole Moments (Debye-Ang^2)
       XXX    -127.2068    XXY      73.6933    XYY     -33.0549
       YYY     160.7188    XXZ      -5.9350    XYZ      -0.0486
       YYZ      -3.5951    XZZ     -36.9467    YZZ      70.0328
       ZZZ       3.8910
    Hexadecapole Moments (Debye-Ang^3)
      XXXX    -873.6463   XXXY    -234.7667   XXYY    -561.6453
      XYYY    -207.1907   YYYY   -2473.1232   XXXZ      72.4557
      XXYZ     -17.0998   XYYZ       6.0175   YYYZ     -80.5970
      XXZZ    -269.0327   XYZZ     -79.8834   YYZZ    -573.2707
      XZZZ      77.5159   YZZZ     -66.8048   ZZZZ    -776.9620
 -----------------------------------------------------------------
 Total job time:  712.97s(wall), 708.59s(cpu) 
 Sat Jul  9 20:13:39 2022

        *************************************************************
        *                                                           *
        *  Thank you very much for using Q-Chem.  Have a nice day.  *
        *                                                           *
        *************************************************************


remove work dirs ./qchem154191.0 -- ./qchem154191.-1
rm -rf ./qchem154191
