You are running Q-Chem version: 5.4.0

#
# job setting
#
local host:  exp-4-15
current dir: /expanse/lustre/scratch/theleonzhang/temp_project/Hydrogenated_Rotation_Test
input file:  Methylthiophene_Phi_60_Theta_330_Methylthiophene_Hydrogenated_Alternate.qcin
output file: 
nprocs     : 0
nthreads   : 1
#
# qchem installation setting
#
QC:          /cm/shared/apps/spack/cpu/opt/spack/linux-centos8-zen2/gcc-10.2.0/qchem-5.4-akfmr7b3t57bfs6qan3padb2wnb2i7cl
QCAUX:       /cm/shared/apps/spack/cpu/opt/spack/linux-centos8-zen2/gcc-10.2.0/qchem-5.4-akfmr7b3t57bfs6qan3padb2wnb2i7cl/qcaux
QCPROG:      /cm/shared/apps/spack/cpu/opt/spack/linux-centos8-zen2/gcc-10.2.0/qchem-5.4-akfmr7b3t57bfs6qan3padb2wnb2i7cl/exe/qcprog.exe_s
QCPROG_S:    /cm/shared/apps/spack/cpu/opt/spack/linux-centos8-zen2/gcc-10.2.0/qchem-5.4-akfmr7b3t57bfs6qan3padb2wnb2i7cl/exe/qcprog.exe_s
PARALLEL:    -DSERIAL
QCMPI:       mpich
#
# qchem directory setting
#
qcrun:       qchem317865
QCSCRATCH:   .
QCLOCALSCR:  
QCTMPDIR:    .
QCFILEPREF:  ./qchem317865
QCSAVEDIR:   
workdirs:    ./qchem317865
workdir0:    ./qchem317865
partmpdirs =  
#
# parallel setting
#
QCRSH:           ssh
QCMPI:           mpich
QCMPIRUN:        /cm/shared/apps/spack/cpu/opt/spack/linux-centos8-zen2/gcc-10.2.0/qchem-5.4-akfmr7b3t57bfs6qan3padb2wnb2i7cl/bin/mpi/mpirun_qchem
QCMACHINEFILE:   ./qchem317865/hostfile

#
# env setting
#
exported envs:   QC QCAUX QCSCRATCH QCRUNNAME QCFILEPREF QCPROG QCPROG_S GUIFILE

Running Job 1 of 1 Methylthiophene_Phi_60_Theta_330_Methylthiophene_Hydrogenated_Alternate.qcin
qchem Methylthiophene_Phi_60_Theta_330_Methylthiophene_Hydrogenated_Alternate.qcin_317865.0 ./qchem317865/ 0
/cm/shared/apps/spack/cpu/opt/spack/linux-centos8-zen2/gcc-10.2.0/qchem-5.4-akfmr7b3t57bfs6qan3padb2wnb2i7cl/exe/qcprog.exe_s Methylthiophene_Phi_60_Theta_330_Methylthiophene_Hydrogenated_Alternate.qcin_317865.0 ./qchem317865/
                  Welcome to Q-Chem
     A Quantum Leap Into The Future Of Chemistry


 Q-Chem 5.4, Q-Chem, Inc., Pleasanton, CA (2021)

 License issued to: University of California, San Diego (site)

 E. Epifanovsky,  A. T. B. Gilbert,  Xintian Feng,  Joonho Lee,  Yuezhi Mao,  
 N. Mardirossian,  P. Pokhilko,  A. White,  M. Wormit,  M. P. Coons,  
 A. L. Dempwolff,  Zhengting Gan,  D. Hait,  P. R. Horn,  L. D. Jacobson,  
 I. Kaliman,  J. Kussmann,  A. W. Lange,  Ka Un Lao,  D. S. Levine,  Jie Liu,  
 S. C. McKenzie,  A. F. Morrison,  K. Nanda,  F. Plasser,  D. R. Rehn,  
 M. L. Vidal,  Zhi-Qiang You,  Ying Zhu,  B. Alam,  B. Albrecht,  
 A. Aldossary,  E. Alguire,  J. H. Andersen,  D. Barton,  K. Begam,  A. Behn,  
 Y. A. Bernard,  E. J. Berquist,  H. Burton,  A. Carreras,  K. Carter-Fenk,  
 R. Chakraborty,  A. D. Chien,  K. D. Closser,  V. Cofer-Shabica,  
 S. Dasgupta,  Jia Deng,  M. de Wergifosse,  M. Diedenhofen,  Hainam Do,  
 S. Ehlert,  Po-Tung Fang,  S. Fatehi,  Qingguo Feng,  J. Gayvert,  
 Qinghui Ge,  G. Gidofalvi,  M. Goldey,  J. Gomes,  C. Gonzalez-Espinoza,  
 S. Gulania,  A. Gunina,  M. W. D. Hanson-Heine,  P. H. P. Harbach,  
 A. W. Hauser,  M. F. Herbst,  M. Hernandez Vera,  M. Hodecker,  
 Z. C. Holden,  S. Houck,  Xunkun Huang,  Kerwin Hui,  B. C. Huynh,  
 M. Ivanov,  Hyunjun Ji,  Hanjie Jiang,  B. Kaduk,  S. Kaehler,  
 K. Khistyaev,  Jaehoon Kim,  P. Klunzinger,  Z. Koczor-Benda,  
 Joong Hoon Koh,  D. Kosenkov,  L. Koulias,  T. Kowalczyk,  C. M. Krauter,  
 K. Kue,  A. Kunitsa,  T. Kus,  A. Landau,  K. V. Lawler,  D. Lefrancois,  
 S. Lehtola,  Rain Li,  Yi-Pei Li,  Jiashu Liang,  M. Liebenthal,  
 Hung-Hsuan Lin,  You-Sheng Lin,  Fenglai Liu,  Kuan-Yu Liu,  
 M. Loipersberger,  A. Luenser,  A. Manjanath,  P. Manohar,  E. Mansoor,  
 S. F. Manzer,  Shan-Ping Mao,  A. V. Marenich,  T. Markovich,  S. Mason,  
 S. A. Maurer,  P. F. McLaughlin,  M. F. S. J. Menger,  J.-M. Mewes,  
 S. A. Mewes,  P. Morgante,  J. W. Mullinax,  T. S. Nguyen-Beck,  
 K. J. Oosterbaan,  G. Paran,  Alexander C. Paul,  Suranjan K. Paul,  
 F. Pavosevic,  Zheng Pei,  S. Prager,  E. I. Proynov,  E. Ramos,  B. Rana,  
 A. E. Rask,  A. Rettig,  R. M. Richard,  F. Rob,  E. Rossomme,  T. Scheele,  
 M. Scheurer,  M. Schneider,  N. Sergueev,  S. M. Sharada,  W. Skomorowski,  
 D. W. Small,  C. J. Stein,  Yu-Chuan Su,  E. J. Sundstrom,  Zhen Tao,  
 J. Thirman,  T. Tsuchimochi,  N. M. Tubman,  S. P. Veccham,  O. Vydrov,  
 J. Wenzel,  J. Witte,  A. Yamada,  Kun Yao,  S. Yeganeh,  S. R. Yost,  
 A. Zech,  Igor Ying Zhang,  Xing Zhang,  Yu Zhang,  D. Zuev,  
 A. Aspuru-Guzik,  A. T. Bell,  N. A. Besley,  K. B. Bravaya,  B. R. Brooks,  
 D. Casanova,  Jeng-Da Chai,  S. Coriani,  C. J. Cramer,  
 A. E. DePrince, III,  R. A. DiStasio Jr.,  A. Dreuw,  B. D. Dunietz,  
 T. R. Furlani,  W. A. Goddard III,  S. Grimme,  S. Hammes-Schiffer,  
 T. Head-Gordon,  W. J. Hehre,  Chao-Ping Hsu,  T.-C. Jagau,  Yousung Jung,  
 A. Klamt,  Jing Kong,  D. S. Lambrecht,  WanZhen Liang,  N. J. Mayhall,  
 C. W. McCurdy,  J. B. Neaton,  C. Ochsenfeld,  J. A. Parkhill,  R. Peverati,  
 V. A. Rassolov,  Yihan Shao,  L. V. Slipchenko,  T. Stauch,  R. P. Steele,  
 J. E. Subotnik,  A. J. W. Thom,  A. Tkatchenko,  D. G. Truhlar,  
 T. Van Voorhis,  T. A. Wesolowski,  K. B. Whaley,  H. L. Woodcock III,  
 P. M. Zimmerman,  S. Faraji,  P. M. W. Gill,  M. Head-Gordon,  
 J. M. Herbert,  A. I. Krylov

 Contributors to earlier versions of Q-Chem not listed above: 
 R. D. Adamson,  B. Austin,  R. Baer,  J. Baker,  G. J. O. Beran,  
 K. Brandhorst,  S. T. Brown,  E. F. C. Byrd,  A. K. Chakraborty,  
 G. K. L. Chan,  Chun-Min Chang,  Yunqing Chen,  C.-L. Cheng,  
 Siu Hung Chien,  D. M. Chipman,  D. L. Crittenden,  H. Dachsel,  
 R. J. Doerksen,  A. D. Dutoi,  R. G. Edgar,  J. Fosso-Tande,  
 L. Fusti-Molnar,  D. Ghosh,  A. Ghysels,  A. Golubeva-Zadorozhnaya,  
 J. Gonthier,  M. S. Gordon,  S. R. Gwaltney,  G. Hawkins,  J. E. Herr,  
 A. Heyden,  S. Hirata,  E. G. Hohenstein,  G. Kedziora,  F. J. Keil,  
 C. Kelley,  Jihan Kim,  R. A. King,  R. Z. Khaliullin,  P. P. Korambath,  
 W. Kurlancheek,  A. Laurent,  A. M. Lee,  M. S. Lee,  S. V. Levchenko,  
 Ching Yeh Lin,  D. Liotard,  E. Livshits,  R. C. Lochan,  I. Lotan,  
 L. A. Martinez-Martinez,  P. E. Maslen,  N. Nair,  D. P. O'Neill,  
 D. Neuhauser,  E. Neuscamman,  C. M. Oana,  R. Olivares-Amaya,  R. Olson,  
 T. M. Perrine,  B. Peters,  P. A. Pieniazek,  A. Prociuk,  Y. M. Rhee,  
 J. Ritchie,  M. A. Rohrdanz,  E. Rosta,  N. J. Russ,  H. F. Schaefer III,  
 M. W. Schmidt,  N. E. Schultz,  S. Sharma,  N. Shenvi,  C. D. Sherrill,  
 A. C. Simmonett,  A. Sodt,  T. Stein,  D. Stuck,  K. S. Thanthiriwatte,  
 V. Vanovschi,  L. Vogt,  Tao Wang,  A. Warshel,  M. A. Watson,  
 C. F. Williams,  Q. Wu,  X. Xu,  Jun Yang,  W. Zhang,  Yan Zhao

 Please cite Q-Chem as follows:
 Y. Shao et al., Mol. Phys. 113, 184-215 (2015)
 DOI: 10.1080/00268976.2014.952696

 Q-Chem 5.4.0 for Intel X86 EM64T Linux

 Parts of Q-Chem use Armadillo 9.800.1 (Horizon Scraper).
 http://arma.sourceforge.net/

 Q-Chem begins on Sun Jul 10 07:14:03 2022  

 Host: 
0

     Scratch files written to ./qchem317865//
 May1621 |scratch|qcdevops|jenkins|workspace|build_RNUM    
 Processing $rem in /cm/shared/apps/spack/cpu/opt/spack/linux-centos8-zen2/gcc-10.2.0/qchem-5.4-akfmr7b3t57bfs6qan3padb2wnb2i7cl/config/preferences:
 Processing $rem in /home/theleonzhang/.qchemrc:
 Symmetry turned off for PCM/SM12/SMD calculation
 Core orbitals will be frozen

 Checking the input file for inconsistencies... 	...done.

--------------------------------------------------------------
User input:
--------------------------------------------------------------
$molecule
0 1
C	0.386946	-3.866725	0.671636
C	-0.306544	-3.703963	-0.530345
C	-0.533261	-2.357056	-0.923770
H	-0.651857	-4.561092	-1.128109
C	0.000000	-1.440664	0.000000
S	0.772250	-2.286957	1.337557
C	-1.260680	-1.978743	-2.184153
H	-1.583283	-2.878678	-2.742769
H	-0.622180	-1.376015	-2.863347
H	-2.168011	-1.375728	-1.971094
C	0.000000	0.000000	0.000000
C	0.747916	0.431772	1.099446
C	1.946425	1.123709	0.776721
H	0.428523	0.247378	2.136088
C	2.137531	1.234018	-0.612546
S	0.816154	0.471179	-1.486809
C	2.888455	1.667564	1.814609
H	2.519842	1.454746	2.836676
H	3.008896	2.767543	1.726239
H	3.901271	1.221850	1.726228
H	2.959587	1.708609	-1.161575
H	1.336254	-4.392713	0.521098
H	-0.218374	-4.392347	1.418509
H	0.935365	-1.440937	-0.539900
$end

$rem
JOBTYPE		SP
EXCHANGE	HF
CORRELATION	pRIMP2
BASIS		cc-pvtz
METHOD		rimp2
AUX_BASIS	rimp2-cc-pvtz
SOLVENT_METHOD	PCM
PURECART	11111
SYMMETRY	false
MEM_TOTAL	110000
SCF_CONVERGENCE = 6
THRESH=10
$end



$solvent
dielectric 4.90
$end
--------------------------------------------------------------
 ----------------------------------------------------------------
             Standard Nuclear Orientation (Angstroms)
    I     Atom           X                Y                Z
 ----------------------------------------------------------------
    1      C       0.3869460000    -3.8667250000     0.6716360000
    2      C      -0.3065440000    -3.7039630000    -0.5303450000
    3      C      -0.5332610000    -2.3570560000    -0.9237700000
    4      H      -0.6518570000    -4.5610920000    -1.1281090000
    5      C       0.0000000000    -1.4406640000     0.0000000000
    6      S       0.7722500000    -2.2869570000     1.3375570000
    7      C      -1.2606800000    -1.9787430000    -2.1841530000
    8      H      -1.5832830000    -2.8786780000    -2.7427690000
    9      H      -0.6221800000    -1.3760150000    -2.8633470000
   10      H      -2.1680110000    -1.3757280000    -1.9710940000
   11      C       0.0000000000     0.0000000000     0.0000000000
   12      C       0.7479160000     0.4317720000     1.0994460000
   13      C       1.9464250000     1.1237090000     0.7767210000
   14      H       0.4285230000     0.2473780000     2.1360880000
   15      C       2.1375310000     1.2340180000    -0.6125460000
   16      S       0.8161540000     0.4711790000    -1.4868090000
   17      C       2.8884550000     1.6675640000     1.8146090000
   18      H       2.5198420000     1.4547460000     2.8366760000
   19      H       3.0088960000     2.7675430000     1.7262390000
   20      H       3.9012710000     1.2218500000     1.7262280000
   21      H       2.9595870000     1.7086090000    -1.1615750000
   22      H       1.3362540000    -4.3927130000     0.5210980000
   23      H      -0.2183740000    -4.3923470000     1.4185090000
   24      H       0.9353650000    -1.4409370000    -0.5399000000
 ----------------------------------------------------------------
 Nuclear Repulsion Energy =         904.87610451 hartrees
 There are       52 alpha and       52 beta electrons

 Q-Chem warning in module forms1/BasisType.C, line 2236:

 You are not using the predefined 5D/6D in this basis set.

 Requested basis set is cc-pVTZ
 There are 196 shells and 536 basis functions

 Total QAlloc Memory Limit 110000 MB
 Mega-Array Size       188 MB
 MEM_STATIC part       192 MB
 Discretize the solute cavity surface with Lebedev spheres
	Using 110 Lebedev grid points for each H atom
	Using 194 Lebedev grid points for other atoms
	Atomic van der Waals radii will be scaled by 1.20
 Remove points where switching function is < 1.0e-08
 Keep 1554 surface tesserae and discard 2094 interior tesserae
 Molecular Surface Area = 227.706 Angst**2
 Requested basis set is rimp2-cc-pVTZ
 There are 414 shells and 1414 basis functions
 A cutoff of  1.0D-10 yielded  14518 shell pairs
 There are    105338 function pairs (    135028 Cartesian)
 Smallest overlap matrix eigenvalue = 6.28E-05

 Scale SEOQF with 1.000000e-01/1.000000e-01/1.000000e-01

 Standard Electronic Orientation quadrupole field applied
 Nucleus-field energy     =     0.0000000198 hartrees
 Guess from superposition of atomic densities
 Warning:  Energy on first SCF cycle will be non-variational
 SAD guess density has 104.000000 electrons

 -----------------------------------------------------------------------
  General SCF calculation program by
  Eric Jon Sundstrom, Paul Horn, Yuezhi Mao, Dmitri Zuev, Alec White,
  David Stuck, Shaama M.S., Shane Yost, Joonho Lee, David Small,
  Daniel Levine, Susi Lehtola, Hugh Burton, Evgeny Epifanovsky,
  Bang C. Huynh
 -----------------------------------------------------------------------
 Hartree-Fock
 A restricted SCF calculation will be
 performed using DIIS
 SCF converges when DIIS error is below 1.0e-06
 ---------------------------------------
  Cycle       Energy         DIIS error
 ---------------------------------------
    1   -1186.2415538763      2.42e-02  
    2   -1180.5336644002      1.53e-03  
    3   -1180.6613672297      5.39e-04  
    4   -1180.6749448169      2.93e-04  
    5   -1180.6789612854      5.99e-05  
    6   -1180.6792398905      2.55e-05  
    7   -1180.6793136743      1.12e-05  
    8   -1180.6793320113      4.84e-06  
    9   -1180.6793365220      2.42e-06  
   10   -1180.6793376703      1.06e-06  
   11   -1180.6793379256      5.00e-07  Convergence criterion met
 ---------------------------------------
 SCF time:   CPU 659.15s  wall 660.00s 

************** Final PCM Free Energy Summary **************
 G_electrostatic  =      -0.00848108 hartree =      -5.32195962 kcal/mol
 G_cavitation     =       0.00000000 hartree =       0.00000000 kcal/mol
 G_dispersion     =       0.00000000 hartree =       0.00000000 kcal/mol
 G_repulsion      =       0.00000000 hartree =       0.00000000 kcal/mol
 --------------------------------------------------
 Non-electrostatic Free Energy =       0.00000000 hartree =       0.00000000 kcal/mol
 Total                         =      -0.00848108 hartree =      -5.32195962 kcal/mol
 --------------------------------------------------
 SCF Energy (H0 + V/2)                       =   -1180.67933793 
 Solute Internal Energy (H0)                 =   -1180.67085684 
 Total Free Energy (H0 + V/2 + non-elec)     =   -1180.67933793 hartree
                                             = -740887.46676230 kcal/mol
***********************************************************

 SCF   energy in the final basis set =    -1180.6793379256
 Total energy in the final basis set =    -1180.6793379256


 --------------------------------------------------------------
  Generalized many-body perturbation theory program
  by Joonho Lee, Fazle Rob, Xintian Feng, Evgeny Epifanovsky

 No regularization used 
 (reg. param. = 0.0000e+00)
  (P|Q)^-1/2 Time:  CPU 1.88 s  wall 1.89 s

 In RI-MP2 calculation: 
 # of frozen core orbitals: 20

 Components of the RIMP2 correlation energy:
        aaaa    correlation energy =        -0.2550460906 a.u.
        abab    correlation energy =        -1.5142207680 a.u.
        bbbb    correlation energy =        -0.2550460906 a.u.
        non-Brillouin singles      =        -0.0000000000 a.u.
        total same-spin energy     =        -0.5100921812 a.u.
        total opposite-spin energy =        -1.5142207680 a.u.

 Total  RIMP2   correlation energy =        -2.0243129492 a.u.
        RIMP2         total energy =     -1182.7036508748 a.u.

 RI-MP2 Energy Time:  CPU 80.39 s  wall 80.54 s
 
 --------------------------------------------------------------
 
                    Orbital Energies (a.u.)
 --------------------------------------------------------------
 
 Alpha MOs
 -- Occupied --
-91.9733 -91.9397 -11.2829 -11.2634 -11.2558 -11.2551 -11.2537 -11.2515
-11.2375 -11.2302 -11.2300 -11.2168  -8.9756  -8.9443  -6.6563  -6.6555
 -6.6551  -6.6257  -6.6246  -6.6233  -1.2125  -1.1534  -1.0623  -1.0268
 -1.0067  -0.9577  -0.9148  -0.9022  -0.8075  -0.7750  -0.7285  -0.7037
 -0.6542  -0.6434  -0.6148  -0.5900  -0.5832  -0.5750  -0.5696  -0.5510
 -0.5424  -0.5371  -0.5176  -0.5088  -0.4879  -0.4612  -0.4599  -0.4340
 -0.3593  -0.3410  -0.3291  -0.2566
 -- Virtual --
  0.0597   0.1341   0.1473   0.1541   0.1620   0.1714   0.1798   0.1819
  0.1884   0.2007   0.2025   0.2094   0.2182   0.2329   0.2403   0.2412
  0.2461   0.2705   0.2725   0.2943   0.3067   0.3175   0.3519   0.3625
  0.3678   0.3742   0.3780   0.3867   0.3910   0.4105   0.4206   0.4287
  0.4342   0.4450   0.4525   0.4692   0.4745   0.4787   0.4820   0.4843
  0.5043   0.5064   0.5152   0.5185   0.5341   0.5412   0.5541   0.5608
  0.5688   0.5766   0.5836   0.5958   0.6013   0.6109   0.6138   0.6188
  0.6225   0.6307   0.6325   0.6366   0.6453   0.6475   0.6504   0.6560
  0.6703   0.6753   0.6875   0.6942   0.6998   0.7193   0.7230   0.7339
  0.7423   0.7505   0.7589   0.7704   0.7735   0.8006   0.8165   0.8197
  0.8273   0.8450   0.8533   0.8629   0.8781   0.8840   0.8983   0.9181
  0.9288   0.9342   0.9482   0.9607   0.9659   0.9914   1.0016   1.0219
  1.0328   1.0340   1.0451   1.0494   1.0650   1.0710   1.0756   1.0820
  1.0972   1.1163   1.1239   1.1308   1.1483   1.1513   1.1669   1.1756
  1.1931   1.2035   1.2122   1.2175   1.2240   1.2255   1.2355   1.2451
  1.2486   1.2587   1.2710   1.2774   1.2826   1.2948   1.3051   1.3119
  1.3328   1.3458   1.3551   1.3681   1.3826   1.3902   1.4117   1.4211
  1.4284   1.4405   1.4465   1.4562   1.4714   1.4790   1.4900   1.4984
  1.5068   1.5154   1.5201   1.5271   1.5364   1.5413   1.5431   1.5545
  1.5637   1.5688   1.5790   1.5904   1.6014   1.6174   1.6361   1.6498
  1.6542   1.6601   1.6697   1.6787   1.7067   1.7134   1.7209   1.7275
  1.7497   1.7618   1.7766   1.7956   1.8011   1.8381   1.8495   1.8608
  1.8762   1.8975   1.9324   1.9606   1.9731   1.9863   1.9965   2.0120
  2.0342   2.0382   2.0572   2.0790   2.0846   2.1070   2.1148   2.1539
  2.1818   2.1892   2.2065   2.2128   2.2334   2.2403   2.2661   2.2809
  2.3074   2.3319   2.3400   2.3644   2.4180   2.4326   2.4668   2.4779
  2.4857   2.5048   2.5334   2.5478   2.5728   2.5938   2.6163   2.6246
  2.6314   2.6589   2.6656   2.6806   2.6849   2.6980   2.7129   2.7437
  2.7537   2.7569   2.7638   2.7850   2.7910   2.8032   2.8170   2.8316
  2.8475   2.8539   2.8740   2.8846   2.8962   2.9129   2.9267   2.9272
  2.9459   2.9567   2.9772   3.0008   3.0062   3.0189   3.0287   3.0346
  3.0674   3.0815   3.1039   3.1091   3.1229   3.1297   3.1374   3.1454
  3.1554   3.1645   3.1753   3.1768   3.1896   3.2024   3.2112   3.2194
  3.2273   3.2447   3.2509   3.2566   3.2618   3.2771   3.2886   3.3059
  3.3096   3.3267   3.3355   3.3458   3.3504   3.3567   3.3688   3.3729
  3.3770   3.3777   3.3902   3.3994   3.4080   3.4129   3.4195   3.4368
  3.4442   3.4504   3.4713   3.4754   3.4932   3.4973   3.5057   3.5127
  3.5178   3.5245   3.5441   3.5578   3.5603   3.5646   3.5711   3.5949
  3.6103   3.6159   3.6179   3.6337   3.6402   3.6655   3.6736   3.6856
  3.6943   3.7042   3.7071   3.7146   3.7285   3.7350   3.7403   3.7426
  3.7533   3.7706   3.7878   3.7933   3.7976   3.8150   3.8214   3.8296
  3.8398   3.8494   3.8689   3.8875   3.8931   3.9054   3.9171   3.9218
  3.9301   3.9450   3.9645   3.9793   3.9844   3.9967   4.0107   4.0228
  4.0454   4.0520   4.0645   4.0811   4.0885   4.0980   4.1033   4.1145
  4.1250   4.1425   4.1590   4.1678   4.1790   4.1959   4.2029   4.2074
  4.2267   4.2310   4.2350   4.2511   4.2596   4.2693   4.2766   4.2886
  4.2938   4.3190   4.3230   4.3346   4.3488   4.3597   4.3692   4.3839
  4.3894   4.3982   4.4056   4.4094   4.4266   4.4299   4.4368   4.4542
  4.4594   4.4752   4.4862   4.4980   4.5112   4.5491   4.5561   4.5638
  4.6016   4.6067   4.6124   4.6366   4.6478   4.6665   4.6770   4.6819
  4.6846   4.7277   4.7548   4.7643   4.7893   4.8250   4.8295   4.8346
  4.8635   4.8831   4.8916   4.9206   4.9250   4.9558   4.9912   5.0109
  5.0438   5.0473   5.0884   5.1019   5.1285   5.1328   5.1514   5.1695
  5.1874   5.2217   5.2369   5.2770   5.2801   5.2976   5.3029   5.3160
  5.3520   5.3676   5.3906   5.3917   5.4022   5.4368   5.4384   5.4540
  5.4679   5.5102   5.5338   5.5420   5.5524   5.5619   5.5757   5.5906
  5.6161   5.6314   5.6327   5.6520   5.6889   5.7042   5.7132   5.7435
  5.7722   5.8013   5.8174   5.9627   6.0160   6.0634   6.0896   6.1497
  6.2017   6.2181   6.2305   6.2346   6.2455   6.2697   6.2940   6.3464
  6.3888   6.4178   9.4448  10.6067  12.5465  12.8111  13.1961  13.8776
 14.1352  14.2808  14.3784  14.8256
 --------------------------------------------------------------
 
          Ground-State Mulliken Net Atomic Charges

     Atom                 Charge (a.u.)
  ----------------------------------------
      1 C                    -0.088932
      2 C                    -0.313926
      3 C                    -0.081511
      4 H                     0.174201
      5 C                     0.119151
      6 S                    -0.196207
      7 C                    -0.286629
      8 H                     0.114552
      9 H                     0.107029
     10 H                     0.111563
     11 C                    -0.106362
     12 C                    -0.179386
     13 C                     0.005319
     14 H                     0.192709
     15 C                    -0.196057
     16 S                    -0.011006
     17 C                    -0.268543
     18 H                     0.104439
     19 H                     0.110388
     20 H                     0.108133
     21 H                     0.201269
     22 H                     0.108010
     23 H                     0.109467
     24 H                     0.162327
  ----------------------------------------
  Sum of atomic charges =     0.000000

 -----------------------------------------------------------------
                    Cartesian Multipole Moments
 -----------------------------------------------------------------
    Charge (ESU x 10^10)
                -0.0000
    Dipole Moment (Debye)
         X       1.8685      Y       0.1979      Z      -0.5807
       Tot       1.9667
    Quadrupole Moments (Debye-Ang)
        XX     -82.1460     XY       6.0438     YY     -82.5530
        XZ       1.0565     YZ       4.6787     ZZ     -85.7918
    Octopole Moments (Debye-Ang^2)
       XXX    -156.5399    XXY      97.1810    XYY     -50.1586
       YYY     205.1697    XXZ      -4.2786    XYZ      -3.9877
       YYZ      -2.2554    XZZ     -57.0236    YZZ      84.6102
       ZZZ       3.6032
    Hexadecapole Moments (Debye-Ang^3)
      XXXX    -960.2066   XXXY    -171.2461   XXYY    -541.9483
      XYYY    -208.1480   YYYY   -2165.9826   XXXZ    -219.1858
      XXYZ     -17.3795   XYYZ     -58.4426   YYYZ     -45.9903
      XXZZ    -314.9404   XYZZ     -44.3497   YYZZ    -548.0298
      XZZZ    -201.4212   YZZZ     -21.3112   ZZZZ    -967.4137
 -----------------------------------------------------------------
 Total job time:  743.65s(wall), 740.43s(cpu) 
 Sun Jul 10 07:26:27 2022

        *************************************************************
        *                                                           *
        *  Thank you very much for using Q-Chem.  Have a nice day.  *
        *                                                           *
        *************************************************************


remove work dirs ./qchem317865.0 -- ./qchem317865.-1
rm -rf ./qchem317865
