You are running Q-Chem version: 5.4.0

#
# job setting
#
local host:  exp-2-07
current dir: /expanse/lustre/scratch/theleonzhang/temp_project/Hydrogenated_Rotation_Test
input file:  Methylthiophene_Phi_30_Theta_300_Methylthiophene_Hydrogenated.qcin
output file: 
nprocs     : 0
nthreads   : 1
#
# qchem installation setting
#
QC:          /cm/shared/apps/spack/cpu/opt/spack/linux-centos8-zen2/gcc-10.2.0/qchem-5.4-akfmr7b3t57bfs6qan3padb2wnb2i7cl
QCAUX:       /cm/shared/apps/spack/cpu/opt/spack/linux-centos8-zen2/gcc-10.2.0/qchem-5.4-akfmr7b3t57bfs6qan3padb2wnb2i7cl/qcaux
QCPROG:      /cm/shared/apps/spack/cpu/opt/spack/linux-centos8-zen2/gcc-10.2.0/qchem-5.4-akfmr7b3t57bfs6qan3padb2wnb2i7cl/exe/qcprog.exe_s
QCPROG_S:    /cm/shared/apps/spack/cpu/opt/spack/linux-centos8-zen2/gcc-10.2.0/qchem-5.4-akfmr7b3t57bfs6qan3padb2wnb2i7cl/exe/qcprog.exe_s
PARALLEL:    -DSERIAL
QCMPI:       mpich
#
# qchem directory setting
#
qcrun:       qchem824070
QCSCRATCH:   .
QCLOCALSCR:  
QCTMPDIR:    .
QCFILEPREF:  ./qchem824070
QCSAVEDIR:   
workdirs:    ./qchem824070
workdir0:    ./qchem824070
partmpdirs =  
#
# parallel setting
#
QCRSH:           ssh
QCMPI:           mpich
QCMPIRUN:        /cm/shared/apps/spack/cpu/opt/spack/linux-centos8-zen2/gcc-10.2.0/qchem-5.4-akfmr7b3t57bfs6qan3padb2wnb2i7cl/bin/mpi/mpirun_qchem
QCMACHINEFILE:   ./qchem824070/hostfile

#
# env setting
#
exported envs:   QC QCAUX QCSCRATCH QCRUNNAME QCFILEPREF QCPROG QCPROG_S GUIFILE

Running Job 1 of 1 Methylthiophene_Phi_30_Theta_300_Methylthiophene_Hydrogenated.qcin
qchem Methylthiophene_Phi_30_Theta_300_Methylthiophene_Hydrogenated.qcin_824070.0 ./qchem824070/ 0
/cm/shared/apps/spack/cpu/opt/spack/linux-centos8-zen2/gcc-10.2.0/qchem-5.4-akfmr7b3t57bfs6qan3padb2wnb2i7cl/exe/qcprog.exe_s Methylthiophene_Phi_30_Theta_300_Methylthiophene_Hydrogenated.qcin_824070.0 ./qchem824070/
                  Welcome to Q-Chem
     A Quantum Leap Into The Future Of Chemistry


 Q-Chem 5.4, Q-Chem, Inc., Pleasanton, CA (2021)

 License issued to: University of California, San Diego (site)

 E. Epifanovsky,  A. T. B. Gilbert,  Xintian Feng,  Joonho Lee,  Yuezhi Mao,  
 N. Mardirossian,  P. Pokhilko,  A. White,  M. Wormit,  M. P. Coons,  
 A. L. Dempwolff,  Zhengting Gan,  D. Hait,  P. R. Horn,  L. D. Jacobson,  
 I. Kaliman,  J. Kussmann,  A. W. Lange,  Ka Un Lao,  D. S. Levine,  Jie Liu,  
 S. C. McKenzie,  A. F. Morrison,  K. Nanda,  F. Plasser,  D. R. Rehn,  
 M. L. Vidal,  Zhi-Qiang You,  Ying Zhu,  B. Alam,  B. Albrecht,  
 A. Aldossary,  E. Alguire,  J. H. Andersen,  D. Barton,  K. Begam,  A. Behn,  
 Y. A. Bernard,  E. J. Berquist,  H. Burton,  A. Carreras,  K. Carter-Fenk,  
 R. Chakraborty,  A. D. Chien,  K. D. Closser,  V. Cofer-Shabica,  
 S. Dasgupta,  Jia Deng,  M. de Wergifosse,  M. Diedenhofen,  Hainam Do,  
 S. Ehlert,  Po-Tung Fang,  S. Fatehi,  Qingguo Feng,  J. Gayvert,  
 Qinghui Ge,  G. Gidofalvi,  M. Goldey,  J. Gomes,  C. Gonzalez-Espinoza,  
 S. Gulania,  A. Gunina,  M. W. D. Hanson-Heine,  P. H. P. Harbach,  
 A. W. Hauser,  M. F. Herbst,  M. Hernandez Vera,  M. Hodecker,  
 Z. C. Holden,  S. Houck,  Xunkun Huang,  Kerwin Hui,  B. C. Huynh,  
 M. Ivanov,  Hyunjun Ji,  Hanjie Jiang,  B. Kaduk,  S. Kaehler,  
 K. Khistyaev,  Jaehoon Kim,  P. Klunzinger,  Z. Koczor-Benda,  
 Joong Hoon Koh,  D. Kosenkov,  L. Koulias,  T. Kowalczyk,  C. M. Krauter,  
 K. Kue,  A. Kunitsa,  T. Kus,  A. Landau,  K. V. Lawler,  D. Lefrancois,  
 S. Lehtola,  Rain Li,  Yi-Pei Li,  Jiashu Liang,  M. Liebenthal,  
 Hung-Hsuan Lin,  You-Sheng Lin,  Fenglai Liu,  Kuan-Yu Liu,  
 M. Loipersberger,  A. Luenser,  A. Manjanath,  P. Manohar,  E. Mansoor,  
 S. F. Manzer,  Shan-Ping Mao,  A. V. Marenich,  T. Markovich,  S. Mason,  
 S. A. Maurer,  P. F. McLaughlin,  M. F. S. J. Menger,  J.-M. Mewes,  
 S. A. Mewes,  P. Morgante,  J. W. Mullinax,  T. S. Nguyen-Beck,  
 K. J. Oosterbaan,  G. Paran,  Alexander C. Paul,  Suranjan K. Paul,  
 F. Pavosevic,  Zheng Pei,  S. Prager,  E. I. Proynov,  E. Ramos,  B. Rana,  
 A. E. Rask,  A. Rettig,  R. M. Richard,  F. Rob,  E. Rossomme,  T. Scheele,  
 M. Scheurer,  M. Schneider,  N. Sergueev,  S. M. Sharada,  W. Skomorowski,  
 D. W. Small,  C. J. Stein,  Yu-Chuan Su,  E. J. Sundstrom,  Zhen Tao,  
 J. Thirman,  T. Tsuchimochi,  N. M. Tubman,  S. P. Veccham,  O. Vydrov,  
 J. Wenzel,  J. Witte,  A. Yamada,  Kun Yao,  S. Yeganeh,  S. R. Yost,  
 A. Zech,  Igor Ying Zhang,  Xing Zhang,  Yu Zhang,  D. Zuev,  
 A. Aspuru-Guzik,  A. T. Bell,  N. A. Besley,  K. B. Bravaya,  B. R. Brooks,  
 D. Casanova,  Jeng-Da Chai,  S. Coriani,  C. J. Cramer,  
 A. E. DePrince, III,  R. A. DiStasio Jr.,  A. Dreuw,  B. D. Dunietz,  
 T. R. Furlani,  W. A. Goddard III,  S. Grimme,  S. Hammes-Schiffer,  
 T. Head-Gordon,  W. J. Hehre,  Chao-Ping Hsu,  T.-C. Jagau,  Yousung Jung,  
 A. Klamt,  Jing Kong,  D. S. Lambrecht,  WanZhen Liang,  N. J. Mayhall,  
 C. W. McCurdy,  J. B. Neaton,  C. Ochsenfeld,  J. A. Parkhill,  R. Peverati,  
 V. A. Rassolov,  Yihan Shao,  L. V. Slipchenko,  T. Stauch,  R. P. Steele,  
 J. E. Subotnik,  A. J. W. Thom,  A. Tkatchenko,  D. G. Truhlar,  
 T. Van Voorhis,  T. A. Wesolowski,  K. B. Whaley,  H. L. Woodcock III,  
 P. M. Zimmerman,  S. Faraji,  P. M. W. Gill,  M. Head-Gordon,  
 J. M. Herbert,  A. I. Krylov

 Contributors to earlier versions of Q-Chem not listed above: 
 R. D. Adamson,  B. Austin,  R. Baer,  J. Baker,  G. J. O. Beran,  
 K. Brandhorst,  S. T. Brown,  E. F. C. Byrd,  A. K. Chakraborty,  
 G. K. L. Chan,  Chun-Min Chang,  Yunqing Chen,  C.-L. Cheng,  
 Siu Hung Chien,  D. M. Chipman,  D. L. Crittenden,  H. Dachsel,  
 R. J. Doerksen,  A. D. Dutoi,  R. G. Edgar,  J. Fosso-Tande,  
 L. Fusti-Molnar,  D. Ghosh,  A. Ghysels,  A. Golubeva-Zadorozhnaya,  
 J. Gonthier,  M. S. Gordon,  S. R. Gwaltney,  G. Hawkins,  J. E. Herr,  
 A. Heyden,  S. Hirata,  E. G. Hohenstein,  G. Kedziora,  F. J. Keil,  
 C. Kelley,  Jihan Kim,  R. A. King,  R. Z. Khaliullin,  P. P. Korambath,  
 W. Kurlancheek,  A. Laurent,  A. M. Lee,  M. S. Lee,  S. V. Levchenko,  
 Ching Yeh Lin,  D. Liotard,  E. Livshits,  R. C. Lochan,  I. Lotan,  
 L. A. Martinez-Martinez,  P. E. Maslen,  N. Nair,  D. P. O'Neill,  
 D. Neuhauser,  E. Neuscamman,  C. M. Oana,  R. Olivares-Amaya,  R. Olson,  
 T. M. Perrine,  B. Peters,  P. A. Pieniazek,  A. Prociuk,  Y. M. Rhee,  
 J. Ritchie,  M. A. Rohrdanz,  E. Rosta,  N. J. Russ,  H. F. Schaefer III,  
 M. W. Schmidt,  N. E. Schultz,  S. Sharma,  N. Shenvi,  C. D. Sherrill,  
 A. C. Simmonett,  A. Sodt,  T. Stein,  D. Stuck,  K. S. Thanthiriwatte,  
 V. Vanovschi,  L. Vogt,  Tao Wang,  A. Warshel,  M. A. Watson,  
 C. F. Williams,  Q. Wu,  X. Xu,  Jun Yang,  W. Zhang,  Yan Zhao

 Please cite Q-Chem as follows:
 Y. Shao et al., Mol. Phys. 113, 184-215 (2015)
 DOI: 10.1080/00268976.2014.952696

 Q-Chem 5.4.0 for Intel X86 EM64T Linux

 Parts of Q-Chem use Armadillo 9.800.1 (Horizon Scraper).
 http://arma.sourceforge.net/

 Q-Chem begins on Sun Jul 10 04:38:23 2022  

 Host: 
0

     Scratch files written to ./qchem824070//
 May1621 |scratch|qcdevops|jenkins|workspace|build_RNUM    
 Processing $rem in /cm/shared/apps/spack/cpu/opt/spack/linux-centos8-zen2/gcc-10.2.0/qchem-5.4-akfmr7b3t57bfs6qan3padb2wnb2i7cl/config/preferences:
 Processing $rem in /home/theleonzhang/.qchemrc:
 Symmetry turned off for PCM/SM12/SMD calculation
 Core orbitals will be frozen

 Checking the input file for inconsistencies... 	...done.

--------------------------------------------------------------
User input:
--------------------------------------------------------------
$molecule
0 1
C	0.670924	-3.866725	0.388181
C	-0.530648	-3.703963	-0.306020
C	-0.923703	-2.357056	-0.533378
H	-1.128579	-4.561092	-0.651043
C	-0.000000	-1.440664	-0.000000
S	1.337567	-2.286957	0.772234
C	-2.183857	-1.978743	-1.261192
H	-2.742548	-2.878678	-1.583666
H	-1.970497	-1.376015	-2.168641
H	-2.863099	-1.375728	-0.623012
C	0.000000	0.000000	0.000000
C	0.431829	0.747884	1.099446
C	1.123799	1.946373	0.776721
H	0.247423	0.428497	2.136088
C	1.234147	2.137457	-0.612546
S	0.471221	0.816130	-1.486809
C	1.667694	2.888380	1.814609
H	1.454874	2.519768	2.836676
H	1.222009	3.901210	1.726239
H	2.767675	3.008788	1.726228
H	1.708773	2.959493	-1.161575
H	1.417779	-4.392713	-0.216843
H	0.520136	-4.392347	1.337652
H	-0.540100	-1.440391	0.935250
$end

$rem
JOBTYPE		SP
EXCHANGE	HF
CORRELATION	pRIMP2
BASIS		cc-pvtz
METHOD		rimp2
AUX_BASIS	rimp2-cc-pvtz
SOLVENT_METHOD	PCM
PURECART	11111
SYMMETRY	false
MEM_TOTAL	110000
SCF_CONVERGENCE = 6
THRESH=10
$end



$solvent
dielectric 4.90
$end
--------------------------------------------------------------
 ----------------------------------------------------------------
             Standard Nuclear Orientation (Angstroms)
    I     Atom           X                Y                Z
 ----------------------------------------------------------------
    1      C       0.6709240000    -3.8667250000     0.3881810000
    2      C      -0.5306480000    -3.7039630000    -0.3060200000
    3      C      -0.9237030000    -2.3570560000    -0.5333780000
    4      H      -1.1285790000    -4.5610920000    -0.6510430000
    5      C       0.0000000000    -1.4406640000     0.0000000000
    6      S       1.3375670000    -2.2869570000     0.7722340000
    7      C      -2.1838570000    -1.9787430000    -1.2611920000
    8      H      -2.7425480000    -2.8786780000    -1.5836660000
    9      H      -1.9704970000    -1.3760150000    -2.1686410000
   10      H      -2.8630990000    -1.3757280000    -0.6230120000
   11      C       0.0000000000     0.0000000000     0.0000000000
   12      C       0.4318290000     0.7478840000     1.0994460000
   13      C       1.1237990000     1.9463730000     0.7767210000
   14      H       0.2474230000     0.4284970000     2.1360880000
   15      C       1.2341470000     2.1374570000    -0.6125460000
   16      S       0.4712210000     0.8161300000    -1.4868090000
   17      C       1.6676940000     2.8883800000     1.8146090000
   18      H       1.4548740000     2.5197680000     2.8366760000
   19      H       1.2220090000     3.9012100000     1.7262390000
   20      H       2.7676750000     3.0087880000     1.7262280000
   21      H       1.7087730000     2.9594930000    -1.1615750000
   22      H       1.4177790000    -4.3927130000    -0.2168430000
   23      H       0.5201360000    -4.3923470000     1.3376520000
   24      H      -0.5401000000    -1.4403910000     0.9352500000
 ----------------------------------------------------------------
 Nuclear Repulsion Energy =         878.81060291 hartrees
 There are       52 alpha and       52 beta electrons

 Q-Chem warning in module forms1/BasisType.C, line 2236:

 You are not using the predefined 5D/6D in this basis set.

 Requested basis set is cc-pVTZ
 There are 196 shells and 536 basis functions

 Total QAlloc Memory Limit 110000 MB
 Mega-Array Size       188 MB
 MEM_STATIC part       192 MB
 Discretize the solute cavity surface with Lebedev spheres
	Using 110 Lebedev grid points for each H atom
	Using 194 Lebedev grid points for other atoms
	Atomic van der Waals radii will be scaled by 1.20
 Remove points where switching function is < 1.0e-08
 Keep 1606 surface tesserae and discard 2042 interior tesserae
 Molecular Surface Area = 236.719 Angst**2
 Requested basis set is rimp2-cc-pVTZ
 There are 414 shells and 1414 basis functions
 A cutoff of  1.0D-10 yielded  13976 shell pairs
 There are    101200 function pairs (    129825 Cartesian)
 Smallest overlap matrix eigenvalue = 6.94E-05

 Scale SEOQF with 1.000000e-01/1.000000e-01/1.000000e-01

 Standard Electronic Orientation quadrupole field applied
 Nucleus-field energy     =     0.0000000316 hartrees
 Guess from superposition of atomic densities
 Warning:  Energy on first SCF cycle will be non-variational
 SAD guess density has 104.000000 electrons

 -----------------------------------------------------------------------
  General SCF calculation program by
  Eric Jon Sundstrom, Paul Horn, Yuezhi Mao, Dmitri Zuev, Alec White,
  David Stuck, Shaama M.S., Shane Yost, Joonho Lee, David Small,
  Daniel Levine, Susi Lehtola, Hugh Burton, Evgeny Epifanovsky,
  Bang C. Huynh
 -----------------------------------------------------------------------
 Hartree-Fock
 A restricted SCF calculation will be
 performed using DIIS
 SCF converges when DIIS error is below 1.0e-06
 ---------------------------------------
  Cycle       Energy         DIIS error
 ---------------------------------------
    1   -1186.0391746704      2.39e-02  
    2   -1180.6061879111      1.53e-03  
    3   -1180.7297372317      5.61e-04  
    4   -1180.7427115165      3.14e-04  
    5   -1180.7471310963      5.88e-05  
    6   -1180.7473713941      2.43e-05  
    7   -1180.7474318896      9.37e-06  
    8   -1180.7474472860      4.55e-06  
    9   -1180.7474511016      1.67e-06  
   10   -1180.7474517154      5.67e-07  Convergence criterion met
 ---------------------------------------
 SCF time:   CPU 559.67s  wall 562.00s 

************** Final PCM Free Energy Summary **************
 G_electrostatic  =      -0.00904394 hartree =      -5.67515711 kcal/mol
 G_cavitation     =       0.00000000 hartree =       0.00000000 kcal/mol
 G_dispersion     =       0.00000000 hartree =       0.00000000 kcal/mol
 G_repulsion      =       0.00000000 hartree =       0.00000000 kcal/mol
 --------------------------------------------------
 Non-electrostatic Free Energy =       0.00000000 hartree =       0.00000000 kcal/mol
 Total                         =      -0.00904394 hartree =      -5.67515711 kcal/mol
 --------------------------------------------------
 SCF Energy (H0 + V/2)                       =   -1180.74745172 
 Solute Internal Energy (H0)                 =   -1180.73840778 
 Total Free Energy (H0 + V/2 + non-elec)     =   -1180.74745172 hartree
                                             = -740930.20881051 kcal/mol
***********************************************************

 SCF   energy in the final basis set =    -1180.7474517154
 Total energy in the final basis set =    -1180.7474517154


 --------------------------------------------------------------
  Generalized many-body perturbation theory program
  by Joonho Lee, Fazle Rob, Xintian Feng, Evgeny Epifanovsky

 No regularization used 
 (reg. param. = 0.0000e+00)
  (P|Q)^-1/2 Time:  CPU 1.88 s  wall 1.88 s

 In RI-MP2 calculation: 
 # of frozen core orbitals: 20

 Components of the RIMP2 correlation energy:
        aaaa    correlation energy =        -0.2519588707 a.u.
        abab    correlation energy =        -1.5052502794 a.u.
        bbbb    correlation energy =        -0.2519588707 a.u.
        non-Brillouin singles      =        -0.0000000000 a.u.
        total same-spin energy     =        -0.5039177415 a.u.
        total opposite-spin energy =        -1.5052502794 a.u.

 Total  RIMP2   correlation energy =        -2.0091680209 a.u.
        RIMP2         total energy =     -1182.7566197363 a.u.

 RI-MP2 Energy Time:  CPU 79.39 s  wall 79.58 s
 
 --------------------------------------------------------------
 
                    Orbital Energies (a.u.)
 --------------------------------------------------------------
 
 Alpha MOs
 -- Occupied --
-91.9789 -91.9409 -11.2754 -11.2686 -11.2606 -11.2539 -11.2516 -11.2462
-11.2398 -11.2314 -11.2292 -11.2181  -8.9792  -8.9456  -6.6601  -6.6594
 -6.6589  -6.6269  -6.6259  -6.6246  -1.1989  -1.1537  -1.0578  -1.0258
 -1.0066  -0.9577  -0.9125  -0.9012  -0.8138  -0.7651  -0.7323  -0.6985
 -0.6594  -0.6406  -0.6109  -0.5881  -0.5808  -0.5737  -0.5663  -0.5507
 -0.5405  -0.5334  -0.5127  -0.5075  -0.4899  -0.4747  -0.4585  -0.4486
 -0.3551  -0.3413  -0.3168  -0.2741
 -- Virtual --
  0.0816   0.1327   0.1420   0.1488   0.1579   0.1702   0.1764   0.1829
  0.1908   0.2011   0.2060   0.2094   0.2289   0.2324   0.2372   0.2440
  0.2528   0.2590   0.2774   0.2969   0.3214   0.3312   0.3387   0.3502
  0.3629   0.3753   0.3824   0.3859   0.3995   0.4098   0.4155   0.4231
  0.4258   0.4451   0.4491   0.4647   0.4664   0.4737   0.4776   0.4848
  0.4922   0.5090   0.5232   0.5268   0.5306   0.5434   0.5546   0.5563
  0.5600   0.5733   0.5842   0.5950   0.6053   0.6101   0.6115   0.6206
  0.6218   0.6280   0.6346   0.6371   0.6423   0.6449   0.6497   0.6508
  0.6683   0.6724   0.6773   0.6844   0.6931   0.7023   0.7142   0.7293
  0.7385   0.7440   0.7573   0.7787   0.7811   0.8041   0.8063   0.8221
  0.8255   0.8283   0.8406   0.8549   0.8714   0.8877   0.9079   0.9174
  0.9288   0.9480   0.9629   0.9675   0.9806   0.9876   0.9999   1.0090
  1.0105   1.0222   1.0399   1.0471   1.0535   1.0700   1.0707   1.0814
  1.0892   1.0936   1.1045   1.1242   1.1407   1.1489   1.1561   1.1687
  1.1744   1.1841   1.2004   1.2042   1.2103   1.2285   1.2386   1.2424
  1.2600   1.2663   1.2702   1.2775   1.2827   1.2898   1.3005   1.3079
  1.3199   1.3280   1.3467   1.3556   1.3766   1.3911   1.4033   1.4150
  1.4211   1.4305   1.4438   1.4494   1.4752   1.4804   1.4898   1.4974
  1.5075   1.5097   1.5181   1.5296   1.5352   1.5436   1.5494   1.5579
  1.5659   1.5805   1.5847   1.5972   1.6046   1.6071   1.6298   1.6345
  1.6504   1.6618   1.6741   1.6867   1.6930   1.7164   1.7247   1.7310
  1.7475   1.7559   1.7663   1.7789   1.8140   1.8246   1.8306   1.8587
  1.8646   1.9143   1.9384   1.9539   1.9601   1.9711   1.9958   2.0016
  2.0163   2.0307   2.0520   2.0530   2.0962   2.1156   2.1374   2.1521
  2.1832   2.1870   2.2042   2.2117   2.2387   2.2496   2.2686   2.2710
  2.2962   2.3205   2.3364   2.3595   2.4116   2.4226   2.4323   2.4668
  2.4910   2.5183   2.5415   2.5492   2.5515   2.5810   2.6043   2.6144
  2.6262   2.6358   2.6594   2.6625   2.6791   2.6868   2.6963   2.7298
  2.7449   2.7527   2.7727   2.7745   2.7862   2.7928   2.8020   2.8169
  2.8376   2.8450   2.8562   2.8717   2.9006   2.9064   2.9144   2.9390
  2.9444   2.9736   2.9852   2.9993   3.0077   3.0140   3.0263   3.0401
  3.0501   3.0546   3.0770   3.0952   3.1111   3.1133   3.1277   3.1389
  3.1407   3.1638   3.1672   3.1755   3.1853   3.1934   3.1991   3.2063
  3.2281   3.2423   3.2533   3.2582   3.2699   3.2753   3.2889   3.3002
  3.3166   3.3182   3.3322   3.3331   3.3394   3.3521   3.3631   3.3681
  3.3733   3.3903   3.3911   3.3982   3.4004   3.4145   3.4209   3.4369
  3.4404   3.4524   3.4585   3.4661   3.4830   3.5033   3.5093   3.5115
  3.5241   3.5325   3.5364   3.5412   3.5560   3.5634   3.5677   3.5845
  3.5975   3.6103   3.6179   3.6272   3.6388   3.6444   3.6460   3.6640
  3.6685   3.6903   3.6920   3.6977   3.7219   3.7282   3.7371   3.7425
  3.7510   3.7645   3.7704   3.7878   3.7932   3.7981   3.8088   3.8202
  3.8294   3.8421   3.8515   3.8572   3.8708   3.8952   3.8974   3.9133
  3.9293   3.9419   3.9577   3.9670   3.9709   3.9786   4.0037   4.0168
  4.0198   4.0290   4.0388   4.0583   4.0669   4.0881   4.0923   4.1086
  4.1233   4.1302   4.1414   4.1510   4.1619   4.1671   4.1882   4.1943
  4.2110   4.2206   4.2284   4.2418   4.2530   4.2644   4.2707   4.2838
  4.2899   4.2991   4.3056   4.3336   4.3409   4.3586   4.3644   4.3682
  4.3714   4.3781   4.4002   4.4061   4.4160   4.4210   4.4297   4.4407
  4.4545   4.4610   4.4696   4.4836   4.5160   4.5220   4.5319   4.5408
  4.5685   4.5983   4.6130   4.6240   4.6281   4.6581   4.6633   4.6782
  4.6859   4.7223   4.7299   4.7526   4.7888   4.8111   4.8242   4.8421
  4.8637   4.8725   4.8864   4.8981   4.9336   4.9507   4.9546   4.9647
  5.0094   5.0506   5.0820   5.1003   5.1137   5.1265   5.1382   5.1602
  5.1835   5.2193   5.2269   5.2686   5.2840   5.2908   5.3105   5.3127
  5.3345   5.3648   5.3828   5.3970   5.4094   5.4274   5.4400   5.4537
  5.4825   5.5077   5.5294   5.5417   5.5543   5.5620   5.5680   5.5842
  5.6229   5.6331   5.6581   5.6704   5.6938   5.6987   5.7112   5.7363
  5.7587   5.7888   5.8253   5.9778   6.0182   6.0510   6.1112   6.1344
  6.2047   6.2223   6.2270   6.2318   6.2393   6.2826   6.2915   6.3125
  6.3750   6.4593   9.5348  10.6113  12.1739  12.8893  13.1723  13.9002
 14.1209  14.2389  14.2794  14.6283
 --------------------------------------------------------------
 
          Ground-State Mulliken Net Atomic Charges

     Atom                 Charge (a.u.)
  ----------------------------------------
      1 C                    -0.078655
      2 C                    -0.323140
      3 C                    -0.039717
      4 H                     0.175392
      5 C                     0.079724
      6 S                    -0.174277
      7 C                    -0.273280
      8 H                     0.113683
      9 H                     0.105388
     10 H                     0.104532
     11 C                    -0.042740
     12 C                    -0.294600
     13 C                     0.049648
     14 H                     0.186796
     15 C                    -0.232975
     16 S                     0.006416
     17 C                    -0.269110
     18 H                     0.102553
     19 H                     0.107543
     20 H                     0.108712
     21 H                     0.197034
     22 H                     0.111497
     23 H                     0.108476
     24 H                     0.171102
  ----------------------------------------
  Sum of atomic charges =     0.000000

 -----------------------------------------------------------------
                    Cartesian Multipole Moments
 -----------------------------------------------------------------
    Charge (ESU x 10^10)
                -0.0000
    Dipole Moment (Debye)
         X      -1.4352      Y       0.5777      Z       1.1105
       Tot       1.9044
    Quadrupole Moments (Debye-Ang)
        XX     -89.1385     XY       8.6730     YY     -76.4862
        XZ       0.8578     YZ       1.5445     ZZ     -85.6568
    Octopole Moments (Debye-Ang^2)
       XXX    -105.8033    XXY      61.3764    XYY     -20.5814
       YYY     142.6354    XXZ      -5.1716    XYZ      -3.7047
       YYZ      -0.6274    XZZ     -31.9272    YZZ      62.1795
       ZZZ       5.7191
    Hexadecapole Moments (Debye-Ang^3)
      XXXX    -816.3677   XXXY    -183.6194   XXYY    -579.0696
      XYYY    -176.2034   YYYY   -2597.1998   XXXZ    -166.2481
      XXYZ     -15.5121   XYYZ     -48.7658   YYYZ     -94.9539
      XXZZ    -247.5448   XYZZ     -53.0410   YYZZ    -578.2244
      XZZZ    -173.2494   YZZZ     -81.0883   ZZZZ    -682.6159
 -----------------------------------------------------------------
 Total job time:  642.97s(wall), 639.94s(cpu) 
 Sun Jul 10 04:49:06 2022

        *************************************************************
        *                                                           *
        *  Thank you very much for using Q-Chem.  Have a nice day.  *
        *                                                           *
        *************************************************************


remove work dirs ./qchem824070.0 -- ./qchem824070.-1
rm -rf ./qchem824070
You are running Q-Chem version: 5.4.0

#
# job setting
#
local host:  exp-3-21
current dir: /expanse/lustre/scratch/theleonzhang/temp_project/Hydrogenated_Rotation_Test
input file:  Methylthiophene_Phi_30_Theta_300_Methylthiophene_Hydrogenated.qcin
output file: 
nprocs     : 0
nthreads   : 1
#
# qchem installation setting
#
QC:          /cm/shared/apps/spack/cpu/opt/spack/linux-centos8-zen2/gcc-10.2.0/qchem-5.4-akfmr7b3t57bfs6qan3padb2wnb2i7cl
QCAUX:       /cm/shared/apps/spack/cpu/opt/spack/linux-centos8-zen2/gcc-10.2.0/qchem-5.4-akfmr7b3t57bfs6qan3padb2wnb2i7cl/qcaux
QCPROG:      /cm/shared/apps/spack/cpu/opt/spack/linux-centos8-zen2/gcc-10.2.0/qchem-5.4-akfmr7b3t57bfs6qan3padb2wnb2i7cl/exe/qcprog.exe_s
QCPROG_S:    /cm/shared/apps/spack/cpu/opt/spack/linux-centos8-zen2/gcc-10.2.0/qchem-5.4-akfmr7b3t57bfs6qan3padb2wnb2i7cl/exe/qcprog.exe_s
PARALLEL:    -DSERIAL
QCMPI:       mpich
#
# qchem directory setting
#
qcrun:       qchem1306474
QCSCRATCH:   .
QCLOCALSCR:  
QCTMPDIR:    .
QCFILEPREF:  ./qchem1306474
QCSAVEDIR:   
workdirs:    ./qchem1306474
workdir0:    ./qchem1306474
partmpdirs =  
#
# parallel setting
#
QCRSH:           ssh
QCMPI:           mpich
QCMPIRUN:        /cm/shared/apps/spack/cpu/opt/spack/linux-centos8-zen2/gcc-10.2.0/qchem-5.4-akfmr7b3t57bfs6qan3padb2wnb2i7cl/bin/mpi/mpirun_qchem
QCMACHINEFILE:   ./qchem1306474/hostfile

#
# env setting
#
exported envs:   QC QCAUX QCSCRATCH QCRUNNAME QCFILEPREF QCPROG QCPROG_S GUIFILE

Running Job 1 of 1 Methylthiophene_Phi_30_Theta_300_Methylthiophene_Hydrogenated.qcin
qchem Methylthiophene_Phi_30_Theta_300_Methylthiophene_Hydrogenated.qcin_1306474.0 ./qchem1306474/ 0
/cm/shared/apps/spack/cpu/opt/spack/linux-centos8-zen2/gcc-10.2.0/qchem-5.4-akfmr7b3t57bfs6qan3padb2wnb2i7cl/exe/qcprog.exe_s Methylthiophene_Phi_30_Theta_300_Methylthiophene_Hydrogenated.qcin_1306474.0 ./qchem1306474/
                  Welcome to Q-Chem
     A Quantum Leap Into The Future Of Chemistry


 Q-Chem 5.4, Q-Chem, Inc., Pleasanton, CA (2021)

 License issued to: University of California, San Diego (site)

 E. Epifanovsky,  A. T. B. Gilbert,  Xintian Feng,  Joonho Lee,  Yuezhi Mao,  
 N. Mardirossian,  P. Pokhilko,  A. White,  M. Wormit,  M. P. Coons,  
 A. L. Dempwolff,  Zhengting Gan,  D. Hait,  P. R. Horn,  L. D. Jacobson,  
 I. Kaliman,  J. Kussmann,  A. W. Lange,  Ka Un Lao,  D. S. Levine,  Jie Liu,  
 S. C. McKenzie,  A. F. Morrison,  K. Nanda,  F. Plasser,  D. R. Rehn,  
 M. L. Vidal,  Zhi-Qiang You,  Ying Zhu,  B. Alam,  B. Albrecht,  
 A. Aldossary,  E. Alguire,  J. H. Andersen,  D. Barton,  K. Begam,  A. Behn,  
 Y. A. Bernard,  E. J. Berquist,  H. Burton,  A. Carreras,  K. Carter-Fenk,  
 R. Chakraborty,  A. D. Chien,  K. D. Closser,  V. Cofer-Shabica,  
 S. Dasgupta,  Jia Deng,  M. de Wergifosse,  M. Diedenhofen,  Hainam Do,  
 S. Ehlert,  Po-Tung Fang,  S. Fatehi,  Qingguo Feng,  J. Gayvert,  
 Qinghui Ge,  G. Gidofalvi,  M. Goldey,  J. Gomes,  C. Gonzalez-Espinoza,  
 S. Gulania,  A. Gunina,  M. W. D. Hanson-Heine,  P. H. P. Harbach,  
 A. W. Hauser,  M. F. Herbst,  M. Hernandez Vera,  M. Hodecker,  
 Z. C. Holden,  S. Houck,  Xunkun Huang,  Kerwin Hui,  B. C. Huynh,  
 M. Ivanov,  Hyunjun Ji,  Hanjie Jiang,  B. Kaduk,  S. Kaehler,  
 K. Khistyaev,  Jaehoon Kim,  P. Klunzinger,  Z. Koczor-Benda,  
 Joong Hoon Koh,  D. Kosenkov,  L. Koulias,  T. Kowalczyk,  C. M. Krauter,  
 K. Kue,  A. Kunitsa,  T. Kus,  A. Landau,  K. V. Lawler,  D. Lefrancois,  
 S. Lehtola,  Rain Li,  Yi-Pei Li,  Jiashu Liang,  M. Liebenthal,  
 Hung-Hsuan Lin,  You-Sheng Lin,  Fenglai Liu,  Kuan-Yu Liu,  
 M. Loipersberger,  A. Luenser,  A. Manjanath,  P. Manohar,  E. Mansoor,  
 S. F. Manzer,  Shan-Ping Mao,  A. V. Marenich,  T. Markovich,  S. Mason,  
 S. A. Maurer,  P. F. McLaughlin,  M. F. S. J. Menger,  J.-M. Mewes,  
 S. A. Mewes,  P. Morgante,  J. W. Mullinax,  T. S. Nguyen-Beck,  
 K. J. Oosterbaan,  G. Paran,  Alexander C. Paul,  Suranjan K. Paul,  
 F. Pavosevic,  Zheng Pei,  S. Prager,  E. I. Proynov,  E. Ramos,  B. Rana,  
 A. E. Rask,  A. Rettig,  R. M. Richard,  F. Rob,  E. Rossomme,  T. Scheele,  
 M. Scheurer,  M. Schneider,  N. Sergueev,  S. M. Sharada,  W. Skomorowski,  
 D. W. Small,  C. J. Stein,  Yu-Chuan Su,  E. J. Sundstrom,  Zhen Tao,  
 J. Thirman,  T. Tsuchimochi,  N. M. Tubman,  S. P. Veccham,  O. Vydrov,  
 J. Wenzel,  J. Witte,  A. Yamada,  Kun Yao,  S. Yeganeh,  S. R. Yost,  
 A. Zech,  Igor Ying Zhang,  Xing Zhang,  Yu Zhang,  D. Zuev,  
 A. Aspuru-Guzik,  A. T. Bell,  N. A. Besley,  K. B. Bravaya,  B. R. Brooks,  
 D. Casanova,  Jeng-Da Chai,  S. Coriani,  C. J. Cramer,  
 A. E. DePrince, III,  R. A. DiStasio Jr.,  A. Dreuw,  B. D. Dunietz,  
 T. R. Furlani,  W. A. Goddard III,  S. Grimme,  S. Hammes-Schiffer,  
 T. Head-Gordon,  W. J. Hehre,  Chao-Ping Hsu,  T.-C. Jagau,  Yousung Jung,  
 A. Klamt,  Jing Kong,  D. S. Lambrecht,  WanZhen Liang,  N. J. Mayhall,  
 C. W. McCurdy,  J. B. Neaton,  C. Ochsenfeld,  J. A. Parkhill,  R. Peverati,  
 V. A. Rassolov,  Yihan Shao,  L. V. Slipchenko,  T. Stauch,  R. P. Steele,  
 J. E. Subotnik,  A. J. W. Thom,  A. Tkatchenko,  D. G. Truhlar,  
 T. Van Voorhis,  T. A. Wesolowski,  K. B. Whaley,  H. L. Woodcock III,  
 P. M. Zimmerman,  S. Faraji,  P. M. W. Gill,  M. Head-Gordon,  
 J. M. Herbert,  A. I. Krylov

 Contributors to earlier versions of Q-Chem not listed above: 
 R. D. Adamson,  B. Austin,  R. Baer,  J. Baker,  G. J. O. Beran,  
 K. Brandhorst,  S. T. Brown,  E. F. C. Byrd,  A. K. Chakraborty,  
 G. K. L. Chan,  Chun-Min Chang,  Yunqing Chen,  C.-L. Cheng,  
 Siu Hung Chien,  D. M. Chipman,  D. L. Crittenden,  H. Dachsel,  
 R. J. Doerksen,  A. D. Dutoi,  R. G. Edgar,  J. Fosso-Tande,  
 L. Fusti-Molnar,  D. Ghosh,  A. Ghysels,  A. Golubeva-Zadorozhnaya,  
 J. Gonthier,  M. S. Gordon,  S. R. Gwaltney,  G. Hawkins,  J. E. Herr,  
 A. Heyden,  S. Hirata,  E. G. Hohenstein,  G. Kedziora,  F. J. Keil,  
 C. Kelley,  Jihan Kim,  R. A. King,  R. Z. Khaliullin,  P. P. Korambath,  
 W. Kurlancheek,  A. Laurent,  A. M. Lee,  M. S. Lee,  S. V. Levchenko,  
 Ching Yeh Lin,  D. Liotard,  E. Livshits,  R. C. Lochan,  I. Lotan,  
 L. A. Martinez-Martinez,  P. E. Maslen,  N. Nair,  D. P. O'Neill,  
 D. Neuhauser,  E. Neuscamman,  C. M. Oana,  R. Olivares-Amaya,  R. Olson,  
 T. M. Perrine,  B. Peters,  P. A. Pieniazek,  A. Prociuk,  Y. M. Rhee,  
 J. Ritchie,  M. A. Rohrdanz,  E. Rosta,  N. J. Russ,  H. F. Schaefer III,  
 M. W. Schmidt,  N. E. Schultz,  S. Sharma,  N. Shenvi,  C. D. Sherrill,  
 A. C. Simmonett,  A. Sodt,  T. Stein,  D. Stuck,  K. S. Thanthiriwatte,  
 V. Vanovschi,  L. Vogt,  Tao Wang,  A. Warshel,  M. A. Watson,  
 C. F. Williams,  Q. Wu,  X. Xu,  Jun Yang,  W. Zhang,  Yan Zhao

 Please cite Q-Chem as follows:
 Y. Shao et al., Mol. Phys. 113, 184-215 (2015)
 DOI: 10.1080/00268976.2014.952696

 Q-Chem 5.4.0 for Intel X86 EM64T Linux

 Parts of Q-Chem use Armadillo 9.800.1 (Horizon Scraper).
 http://arma.sourceforge.net/

 Q-Chem begins on Sun Jul 10 05:21:38 2022  

 Host: 
0

     Scratch files written to ./qchem1306474//
 May1621 |scratch|qcdevops|jenkins|workspace|build_RNUM    
 Processing $rem in /cm/shared/apps/spack/cpu/opt/spack/linux-centos8-zen2/gcc-10.2.0/qchem-5.4-akfmr7b3t57bfs6qan3padb2wnb2i7cl/config/preferences:
 Processing $rem in /home/theleonzhang/.qchemrc:
 Symmetry turned off for PCM/SM12/SMD calculation
 Core orbitals will be frozen

 Checking the input file for inconsistencies... 	...done.

--------------------------------------------------------------
User input:
--------------------------------------------------------------
$molecule
0 1
C	0.670924	-3.866725	0.388181
C	-0.530648	-3.703963	-0.306020
C	-0.923703	-2.357056	-0.533378
H	-1.128579	-4.561092	-0.651043
C	-0.000000	-1.440664	-0.000000
S	1.337567	-2.286957	0.772234
C	-2.183857	-1.978743	-1.261192
H	-2.742548	-2.878678	-1.583666
H	-1.970497	-1.376015	-2.168641
H	-2.863099	-1.375728	-0.623012
C	0.000000	0.000000	0.000000
C	0.431829	0.747884	1.099446
C	1.123799	1.946373	0.776721
H	0.247423	0.428497	2.136088
C	1.234147	2.137457	-0.612546
S	0.471221	0.816130	-1.486809
C	1.667694	2.888380	1.814609
H	1.454874	2.519768	2.836676
H	1.222009	3.901210	1.726239
H	2.767675	3.008788	1.726228
H	1.708773	2.959493	-1.161575
H	1.417779	-4.392713	-0.216843
H	0.520136	-4.392347	1.337652
H	-0.540100	-1.440391	0.935250
$end

$rem
JOBTYPE		SP
EXCHANGE	HF
CORRELATION	pRIMP2
BASIS		cc-pvtz
METHOD		rimp2
AUX_BASIS	rimp2-cc-pvtz
SOLVENT_METHOD	PCM
PURECART	11111
SYMMETRY	false
MEM_TOTAL	110000
SCF_CONVERGENCE = 6
THRESH=10
$end



$solvent
dielectric 4.90
$end
--------------------------------------------------------------
 ----------------------------------------------------------------
             Standard Nuclear Orientation (Angstroms)
    I     Atom           X                Y                Z
 ----------------------------------------------------------------
    1      C       0.6709240000    -3.8667250000     0.3881810000
    2      C      -0.5306480000    -3.7039630000    -0.3060200000
    3      C      -0.9237030000    -2.3570560000    -0.5333780000
    4      H      -1.1285790000    -4.5610920000    -0.6510430000
    5      C       0.0000000000    -1.4406640000     0.0000000000
    6      S       1.3375670000    -2.2869570000     0.7722340000
    7      C      -2.1838570000    -1.9787430000    -1.2611920000
    8      H      -2.7425480000    -2.8786780000    -1.5836660000
    9      H      -1.9704970000    -1.3760150000    -2.1686410000
   10      H      -2.8630990000    -1.3757280000    -0.6230120000
   11      C       0.0000000000     0.0000000000     0.0000000000
   12      C       0.4318290000     0.7478840000     1.0994460000
   13      C       1.1237990000     1.9463730000     0.7767210000
   14      H       0.2474230000     0.4284970000     2.1360880000
   15      C       1.2341470000     2.1374570000    -0.6125460000
   16      S       0.4712210000     0.8161300000    -1.4868090000
   17      C       1.6676940000     2.8883800000     1.8146090000
   18      H       1.4548740000     2.5197680000     2.8366760000
   19      H       1.2220090000     3.9012100000     1.7262390000
   20      H       2.7676750000     3.0087880000     1.7262280000
   21      H       1.7087730000     2.9594930000    -1.1615750000
   22      H       1.4177790000    -4.3927130000    -0.2168430000
   23      H       0.5201360000    -4.3923470000     1.3376520000
   24      H      -0.5401000000    -1.4403910000     0.9352500000
 ----------------------------------------------------------------
 Nuclear Repulsion Energy =         878.81060291 hartrees
 There are       52 alpha and       52 beta electrons

 Q-Chem warning in module forms1/BasisType.C, line 2236:

 You are not using the predefined 5D/6D in this basis set.

 Requested basis set is cc-pVTZ
 There are 196 shells and 536 basis functions

 Total QAlloc Memory Limit 110000 MB
 Mega-Array Size       188 MB
 MEM_STATIC part       192 MB
 Discretize the solute cavity surface with Lebedev spheres
	Using 110 Lebedev grid points for each H atom
	Using 194 Lebedev grid points for other atoms
	Atomic van der Waals radii will be scaled by 1.20
 Remove points where switching function is < 1.0e-08
 Keep 1606 surface tesserae and discard 2042 interior tesserae
 Molecular Surface Area = 236.719 Angst**2
 Requested basis set is rimp2-cc-pVTZ
 There are 414 shells and 1414 basis functions
 A cutoff of  1.0D-10 yielded  13976 shell pairs
 There are    101200 function pairs (    129825 Cartesian)
 Smallest overlap matrix eigenvalue = 6.94E-05

 Scale SEOQF with 1.000000e-01/1.000000e-01/1.000000e-01

 Standard Electronic Orientation quadrupole field applied
 Nucleus-field energy     =     0.0000000316 hartrees
 Guess from superposition of atomic densities
 Warning:  Energy on first SCF cycle will be non-variational
 SAD guess density has 104.000000 electrons

 -----------------------------------------------------------------------
  General SCF calculation program by
  Eric Jon Sundstrom, Paul Horn, Yuezhi Mao, Dmitri Zuev, Alec White,
  David Stuck, Shaama M.S., Shane Yost, Joonho Lee, David Small,
  Daniel Levine, Susi Lehtola, Hugh Burton, Evgeny Epifanovsky,
  Bang C. Huynh
 -----------------------------------------------------------------------
 Hartree-Fock
 A restricted SCF calculation will be
 performed using DIIS
 SCF converges when DIIS error is below 1.0e-06
 ---------------------------------------
  Cycle       Energy         DIIS error
 ---------------------------------------
    1   -1186.0391746704      2.39e-02  
    2   -1180.6061879111      1.53e-03  
    3   -1180.7297372317      5.61e-04  
    4   -1180.7427115165      3.14e-04  
    5   -1180.7471310963      5.88e-05  
    6   -1180.7473713941      2.43e-05  
    7   -1180.7474318896      9.37e-06  
    8   -1180.7474472860      4.55e-06  
    9   -1180.7474511016      1.67e-06  
   10   -1180.7474517154      5.67e-07  Convergence criterion met
 ---------------------------------------
 SCF time:   CPU 559.28s  wall 562.00s 

************** Final PCM Free Energy Summary **************
 G_electrostatic  =      -0.00904394 hartree =      -5.67515711 kcal/mol
 G_cavitation     =       0.00000000 hartree =       0.00000000 kcal/mol
 G_dispersion     =       0.00000000 hartree =       0.00000000 kcal/mol
 G_repulsion      =       0.00000000 hartree =       0.00000000 kcal/mol
 --------------------------------------------------
 Non-electrostatic Free Energy =       0.00000000 hartree =       0.00000000 kcal/mol
 Total                         =      -0.00904394 hartree =      -5.67515711 kcal/mol
 --------------------------------------------------
 SCF Energy (H0 + V/2)                       =   -1180.74745172 
 Solute Internal Energy (H0)                 =   -1180.73840778 
 Total Free Energy (H0 + V/2 + non-elec)     =   -1180.74745172 hartree
                                             = -740930.20881051 kcal/mol
***********************************************************

 SCF   energy in the final basis set =    -1180.7474517154
 Total energy in the final basis set =    -1180.7474517154


 --------------------------------------------------------------
  Generalized many-body perturbation theory program
  by Joonho Lee, Fazle Rob, Xintian Feng, Evgeny Epifanovsky

 No regularization used 
 (reg. param. = 0.0000e+00)
  (P|Q)^-1/2 Time:  CPU 1.89 s  wall 1.90 s

 In RI-MP2 calculation: 
 # of frozen core orbitals: 20

 Components of the RIMP2 correlation energy:
        aaaa    correlation energy =        -0.2519588707 a.u.
        abab    correlation energy =        -1.5052502794 a.u.
        bbbb    correlation energy =        -0.2519588707 a.u.
        non-Brillouin singles      =        -0.0000000000 a.u.
        total same-spin energy     =        -0.5039177415 a.u.
        total opposite-spin energy =        -1.5052502794 a.u.

 Total  RIMP2   correlation energy =        -2.0091680209 a.u.
        RIMP2         total energy =     -1182.7566197363 a.u.

 RI-MP2 Energy Time:  CPU 79.11 s  wall 79.36 s
 
 --------------------------------------------------------------
 
                    Orbital Energies (a.u.)
 --------------------------------------------------------------
 
 Alpha MOs
 -- Occupied --
-91.9789 -91.9409 -11.2754 -11.2686 -11.2606 -11.2539 -11.2516 -11.2462
-11.2398 -11.2314 -11.2292 -11.2181  -8.9792  -8.9456  -6.6601  -6.6594
 -6.6589  -6.6269  -6.6259  -6.6246  -1.1989  -1.1537  -1.0578  -1.0258
 -1.0066  -0.9577  -0.9125  -0.9012  -0.8138  -0.7651  -0.7323  -0.6985
 -0.6594  -0.6406  -0.6109  -0.5881  -0.5808  -0.5737  -0.5663  -0.5507
 -0.5405  -0.5334  -0.5127  -0.5075  -0.4899  -0.4747  -0.4585  -0.4486
 -0.3551  -0.3413  -0.3168  -0.2741
 -- Virtual --
  0.0816   0.1327   0.1420   0.1488   0.1579   0.1702   0.1764   0.1829
  0.1908   0.2011   0.2060   0.2094   0.2289   0.2324   0.2372   0.2440
  0.2528   0.2590   0.2774   0.2969   0.3214   0.3312   0.3387   0.3502
  0.3629   0.3753   0.3824   0.3859   0.3995   0.4098   0.4155   0.4231
  0.4258   0.4451   0.4491   0.4647   0.4664   0.4737   0.4776   0.4848
  0.4922   0.5090   0.5232   0.5268   0.5306   0.5434   0.5546   0.5563
  0.5600   0.5733   0.5842   0.5950   0.6053   0.6101   0.6115   0.6206
  0.6218   0.6280   0.6346   0.6371   0.6423   0.6449   0.6497   0.6508
  0.6683   0.6724   0.6773   0.6844   0.6931   0.7023   0.7142   0.7293
  0.7385   0.7440   0.7573   0.7787   0.7811   0.8041   0.8063   0.8221
  0.8255   0.8283   0.8406   0.8549   0.8714   0.8877   0.9079   0.9174
  0.9288   0.9480   0.9629   0.9675   0.9806   0.9876   0.9999   1.0090
  1.0105   1.0222   1.0399   1.0471   1.0535   1.0700   1.0707   1.0814
  1.0892   1.0936   1.1045   1.1242   1.1407   1.1489   1.1561   1.1687
  1.1744   1.1841   1.2004   1.2042   1.2103   1.2285   1.2386   1.2424
  1.2600   1.2663   1.2702   1.2775   1.2827   1.2898   1.3005   1.3079
  1.3199   1.3280   1.3467   1.3556   1.3766   1.3911   1.4033   1.4150
  1.4211   1.4305   1.4438   1.4494   1.4752   1.4804   1.4898   1.4974
  1.5075   1.5097   1.5181   1.5296   1.5352   1.5436   1.5494   1.5579
  1.5659   1.5805   1.5847   1.5972   1.6046   1.6071   1.6298   1.6345
  1.6504   1.6618   1.6741   1.6867   1.6930   1.7164   1.7247   1.7310
  1.7475   1.7559   1.7663   1.7789   1.8140   1.8246   1.8306   1.8587
  1.8646   1.9143   1.9384   1.9539   1.9601   1.9711   1.9958   2.0016
  2.0163   2.0307   2.0520   2.0530   2.0962   2.1156   2.1374   2.1521
  2.1832   2.1870   2.2042   2.2117   2.2387   2.2496   2.2686   2.2710
  2.2962   2.3205   2.3364   2.3595   2.4116   2.4226   2.4323   2.4668
  2.4910   2.5183   2.5415   2.5492   2.5515   2.5810   2.6043   2.6144
  2.6262   2.6358   2.6594   2.6625   2.6791   2.6868   2.6963   2.7298
  2.7449   2.7527   2.7727   2.7745   2.7862   2.7928   2.8020   2.8169
  2.8376   2.8450   2.8562   2.8717   2.9006   2.9064   2.9144   2.9390
  2.9444   2.9736   2.9852   2.9993   3.0077   3.0140   3.0263   3.0401
  3.0501   3.0546   3.0770   3.0952   3.1111   3.1133   3.1277   3.1389
  3.1407   3.1638   3.1672   3.1755   3.1853   3.1934   3.1991   3.2063
  3.2281   3.2423   3.2533   3.2582   3.2699   3.2753   3.2889   3.3002
  3.3166   3.3182   3.3322   3.3331   3.3394   3.3521   3.3631   3.3681
  3.3733   3.3903   3.3911   3.3982   3.4004   3.4145   3.4209   3.4369
  3.4404   3.4524   3.4585   3.4661   3.4830   3.5033   3.5093   3.5115
  3.5241   3.5325   3.5364   3.5412   3.5560   3.5634   3.5677   3.5845
  3.5975   3.6103   3.6179   3.6272   3.6388   3.6444   3.6460   3.6640
  3.6685   3.6903   3.6920   3.6977   3.7219   3.7282   3.7371   3.7425
  3.7510   3.7645   3.7704   3.7878   3.7932   3.7981   3.8088   3.8202
  3.8294   3.8421   3.8515   3.8572   3.8708   3.8952   3.8974   3.9133
  3.9293   3.9419   3.9577   3.9670   3.9709   3.9786   4.0037   4.0168
  4.0198   4.0290   4.0388   4.0583   4.0669   4.0881   4.0923   4.1086
  4.1233   4.1302   4.1414   4.1510   4.1619   4.1671   4.1882   4.1943
  4.2110   4.2206   4.2284   4.2418   4.2530   4.2644   4.2707   4.2838
  4.2899   4.2991   4.3056   4.3336   4.3409   4.3586   4.3644   4.3682
  4.3714   4.3781   4.4002   4.4061   4.4160   4.4210   4.4297   4.4407
  4.4545   4.4610   4.4696   4.4836   4.5160   4.5220   4.5319   4.5408
  4.5685   4.5983   4.6130   4.6240   4.6281   4.6581   4.6633   4.6782
  4.6859   4.7223   4.7299   4.7526   4.7888   4.8111   4.8242   4.8421
  4.8637   4.8725   4.8864   4.8981   4.9336   4.9507   4.9546   4.9647
  5.0094   5.0506   5.0820   5.1003   5.1137   5.1265   5.1382   5.1602
  5.1835   5.2193   5.2269   5.2686   5.2840   5.2908   5.3105   5.3127
  5.3345   5.3648   5.3828   5.3970   5.4094   5.4274   5.4400   5.4537
  5.4825   5.5077   5.5294   5.5417   5.5543   5.5620   5.5680   5.5842
  5.6229   5.6331   5.6581   5.6704   5.6938   5.6987   5.7112   5.7363
  5.7587   5.7888   5.8253   5.9778   6.0182   6.0510   6.1112   6.1344
  6.2047   6.2223   6.2270   6.2318   6.2393   6.2826   6.2915   6.3125
  6.3750   6.4593   9.5348  10.6113  12.1739  12.8893  13.1723  13.9002
 14.1209  14.2389  14.2794  14.6283
 --------------------------------------------------------------
 
          Ground-State Mulliken Net Atomic Charges

     Atom                 Charge (a.u.)
  ----------------------------------------
      1 C                    -0.078655
      2 C                    -0.323140
      3 C                    -0.039717
      4 H                     0.175392
      5 C                     0.079724
      6 S                    -0.174277
      7 C                    -0.273280
      8 H                     0.113683
      9 H                     0.105388
     10 H                     0.104532
     11 C                    -0.042740
     12 C                    -0.294600
     13 C                     0.049648
     14 H                     0.186796
     15 C                    -0.232975
     16 S                     0.006416
     17 C                    -0.269110
     18 H                     0.102553
     19 H                     0.107543
     20 H                     0.108712
     21 H                     0.197034
     22 H                     0.111497
     23 H                     0.108476
     24 H                     0.171102
  ----------------------------------------
  Sum of atomic charges =     0.000000

 -----------------------------------------------------------------
                    Cartesian Multipole Moments
 -----------------------------------------------------------------
    Charge (ESU x 10^10)
                -0.0000
    Dipole Moment (Debye)
         X      -1.4352      Y       0.5777      Z       1.1105
       Tot       1.9044
    Quadrupole Moments (Debye-Ang)
        XX     -89.1385     XY       8.6730     YY     -76.4862
        XZ       0.8578     YZ       1.5445     ZZ     -85.6568
    Octopole Moments (Debye-Ang^2)
       XXX    -105.8033    XXY      61.3764    XYY     -20.5814
       YYY     142.6354    XXZ      -5.1716    XYZ      -3.7047
       YYZ      -0.6274    XZZ     -31.9272    YZZ      62.1795
       ZZZ       5.7191
    Hexadecapole Moments (Debye-Ang^3)
      XXXX    -816.3677   XXXY    -183.6194   XXYY    -579.0696
      XYYY    -176.2034   YYYY   -2597.1998   XXXZ    -166.2481
      XXYZ     -15.5121   XYYZ     -48.7658   YYYZ     -94.9539
      XXZZ    -247.5448   XYZZ     -53.0410   YYZZ    -578.2244
      XZZZ    -173.2494   YZZZ     -81.0883   ZZZZ    -682.6159
 -----------------------------------------------------------------
 Total job time:  644.02s(wall), 639.27s(cpu) 
 Sun Jul 10 05:32:22 2022

        *************************************************************
        *                                                           *
        *  Thank you very much for using Q-Chem.  Have a nice day.  *
        *                                                           *
        *************************************************************


remove work dirs ./qchem1306474.0 -- ./qchem1306474.-1
rm -rf ./qchem1306474
