You are running Q-Chem version: 5.4.0

#
# job setting
#
local host:  exp-3-14
current dir: /expanse/lustre/scratch/theleonzhang/temp_project/Hydrogenated_Rotation_Test
input file:  Methylthiophene_Phi_25_Theta_180_Methylthiophene_Hydrogenated.qcin
output file: 
nprocs     : 0
nthreads   : 1
#
# qchem installation setting
#
QC:          /cm/shared/apps/spack/cpu/opt/spack/linux-centos8-zen2/gcc-10.2.0/qchem-5.4-akfmr7b3t57bfs6qan3padb2wnb2i7cl
QCAUX:       /cm/shared/apps/spack/cpu/opt/spack/linux-centos8-zen2/gcc-10.2.0/qchem-5.4-akfmr7b3t57bfs6qan3padb2wnb2i7cl/qcaux
QCPROG:      /cm/shared/apps/spack/cpu/opt/spack/linux-centos8-zen2/gcc-10.2.0/qchem-5.4-akfmr7b3t57bfs6qan3padb2wnb2i7cl/exe/qcprog.exe_s
QCPROG_S:    /cm/shared/apps/spack/cpu/opt/spack/linux-centos8-zen2/gcc-10.2.0/qchem-5.4-akfmr7b3t57bfs6qan3padb2wnb2i7cl/exe/qcprog.exe_s
PARALLEL:    -DSERIAL
QCMPI:       mpich
#
# qchem directory setting
#
qcrun:       qchem3396325
QCSCRATCH:   .
QCLOCALSCR:  
QCTMPDIR:    .
QCFILEPREF:  ./qchem3396325
QCSAVEDIR:   
workdirs:    ./qchem3396325
workdir0:    ./qchem3396325
partmpdirs =  
#
# parallel setting
#
QCRSH:           ssh
QCMPI:           mpich
QCMPIRUN:        /cm/shared/apps/spack/cpu/opt/spack/linux-centos8-zen2/gcc-10.2.0/qchem-5.4-akfmr7b3t57bfs6qan3padb2wnb2i7cl/bin/mpi/mpirun_qchem
QCMACHINEFILE:   ./qchem3396325/hostfile

#
# env setting
#
exported envs:   QC QCAUX QCSCRATCH QCRUNNAME QCFILEPREF QCPROG QCPROG_S GUIFILE

Running Job 1 of 1 Methylthiophene_Phi_25_Theta_180_Methylthiophene_Hydrogenated.qcin
qchem Methylthiophene_Phi_25_Theta_180_Methylthiophene_Hydrogenated.qcin_3396325.0 ./qchem3396325/ 0
/cm/shared/apps/spack/cpu/opt/spack/linux-centos8-zen2/gcc-10.2.0/qchem-5.4-akfmr7b3t57bfs6qan3padb2wnb2i7cl/exe/qcprog.exe_s Methylthiophene_Phi_25_Theta_180_Methylthiophene_Hydrogenated.qcin_3396325.0 ./qchem3396325/
                  Welcome to Q-Chem
     A Quantum Leap Into The Future Of Chemistry


 Q-Chem 5.4, Q-Chem, Inc., Pleasanton, CA (2021)

 License issued to: University of California, San Diego (site)

 E. Epifanovsky,  A. T. B. Gilbert,  Xintian Feng,  Joonho Lee,  Yuezhi Mao,  
 N. Mardirossian,  P. Pokhilko,  A. White,  M. Wormit,  M. P. Coons,  
 A. L. Dempwolff,  Zhengting Gan,  D. Hait,  P. R. Horn,  L. D. Jacobson,  
 I. Kaliman,  J. Kussmann,  A. W. Lange,  Ka Un Lao,  D. S. Levine,  Jie Liu,  
 S. C. McKenzie,  A. F. Morrison,  K. Nanda,  F. Plasser,  D. R. Rehn,  
 M. L. Vidal,  Zhi-Qiang You,  Ying Zhu,  B. Alam,  B. Albrecht,  
 A. Aldossary,  E. Alguire,  J. H. Andersen,  D. Barton,  K. Begam,  A. Behn,  
 Y. A. Bernard,  E. J. Berquist,  H. Burton,  A. Carreras,  K. Carter-Fenk,  
 R. Chakraborty,  A. D. Chien,  K. D. Closser,  V. Cofer-Shabica,  
 S. Dasgupta,  Jia Deng,  M. de Wergifosse,  M. Diedenhofen,  Hainam Do,  
 S. Ehlert,  Po-Tung Fang,  S. Fatehi,  Qingguo Feng,  J. Gayvert,  
 Qinghui Ge,  G. Gidofalvi,  M. Goldey,  J. Gomes,  C. Gonzalez-Espinoza,  
 S. Gulania,  A. Gunina,  M. W. D. Hanson-Heine,  P. H. P. Harbach,  
 A. W. Hauser,  M. F. Herbst,  M. Hernandez Vera,  M. Hodecker,  
 Z. C. Holden,  S. Houck,  Xunkun Huang,  Kerwin Hui,  B. C. Huynh,  
 M. Ivanov,  Hyunjun Ji,  Hanjie Jiang,  B. Kaduk,  S. Kaehler,  
 K. Khistyaev,  Jaehoon Kim,  P. Klunzinger,  Z. Koczor-Benda,  
 Joong Hoon Koh,  D. Kosenkov,  L. Koulias,  T. Kowalczyk,  C. M. Krauter,  
 K. Kue,  A. Kunitsa,  T. Kus,  A. Landau,  K. V. Lawler,  D. Lefrancois,  
 S. Lehtola,  Rain Li,  Yi-Pei Li,  Jiashu Liang,  M. Liebenthal,  
 Hung-Hsuan Lin,  You-Sheng Lin,  Fenglai Liu,  Kuan-Yu Liu,  
 M. Loipersberger,  A. Luenser,  A. Manjanath,  P. Manohar,  E. Mansoor,  
 S. F. Manzer,  Shan-Ping Mao,  A. V. Marenich,  T. Markovich,  S. Mason,  
 S. A. Maurer,  P. F. McLaughlin,  M. F. S. J. Menger,  J.-M. Mewes,  
 S. A. Mewes,  P. Morgante,  J. W. Mullinax,  T. S. Nguyen-Beck,  
 K. J. Oosterbaan,  G. Paran,  Alexander C. Paul,  Suranjan K. Paul,  
 F. Pavosevic,  Zheng Pei,  S. Prager,  E. I. Proynov,  E. Ramos,  B. Rana,  
 A. E. Rask,  A. Rettig,  R. M. Richard,  F. Rob,  E. Rossomme,  T. Scheele,  
 M. Scheurer,  M. Schneider,  N. Sergueev,  S. M. Sharada,  W. Skomorowski,  
 D. W. Small,  C. J. Stein,  Yu-Chuan Su,  E. J. Sundstrom,  Zhen Tao,  
 J. Thirman,  T. Tsuchimochi,  N. M. Tubman,  S. P. Veccham,  O. Vydrov,  
 J. Wenzel,  J. Witte,  A. Yamada,  Kun Yao,  S. Yeganeh,  S. R. Yost,  
 A. Zech,  Igor Ying Zhang,  Xing Zhang,  Yu Zhang,  D. Zuev,  
 A. Aspuru-Guzik,  A. T. Bell,  N. A. Besley,  K. B. Bravaya,  B. R. Brooks,  
 D. Casanova,  Jeng-Da Chai,  S. Coriani,  C. J. Cramer,  
 A. E. DePrince, III,  R. A. DiStasio Jr.,  A. Dreuw,  B. D. Dunietz,  
 T. R. Furlani,  W. A. Goddard III,  S. Grimme,  S. Hammes-Schiffer,  
 T. Head-Gordon,  W. J. Hehre,  Chao-Ping Hsu,  T.-C. Jagau,  Yousung Jung,  
 A. Klamt,  Jing Kong,  D. S. Lambrecht,  WanZhen Liang,  N. J. Mayhall,  
 C. W. McCurdy,  J. B. Neaton,  C. Ochsenfeld,  J. A. Parkhill,  R. Peverati,  
 V. A. Rassolov,  Yihan Shao,  L. V. Slipchenko,  T. Stauch,  R. P. Steele,  
 J. E. Subotnik,  A. J. W. Thom,  A. Tkatchenko,  D. G. Truhlar,  
 T. Van Voorhis,  T. A. Wesolowski,  K. B. Whaley,  H. L. Woodcock III,  
 P. M. Zimmerman,  S. Faraji,  P. M. W. Gill,  M. Head-Gordon,  
 J. M. Herbert,  A. I. Krylov

 Contributors to earlier versions of Q-Chem not listed above: 
 R. D. Adamson,  B. Austin,  R. Baer,  J. Baker,  G. J. O. Beran,  
 K. Brandhorst,  S. T. Brown,  E. F. C. Byrd,  A. K. Chakraborty,  
 G. K. L. Chan,  Chun-Min Chang,  Yunqing Chen,  C.-L. Cheng,  
 Siu Hung Chien,  D. M. Chipman,  D. L. Crittenden,  H. Dachsel,  
 R. J. Doerksen,  A. D. Dutoi,  R. G. Edgar,  J. Fosso-Tande,  
 L. Fusti-Molnar,  D. Ghosh,  A. Ghysels,  A. Golubeva-Zadorozhnaya,  
 J. Gonthier,  M. S. Gordon,  S. R. Gwaltney,  G. Hawkins,  J. E. Herr,  
 A. Heyden,  S. Hirata,  E. G. Hohenstein,  G. Kedziora,  F. J. Keil,  
 C. Kelley,  Jihan Kim,  R. A. King,  R. Z. Khaliullin,  P. P. Korambath,  
 W. Kurlancheek,  A. Laurent,  A. M. Lee,  M. S. Lee,  S. V. Levchenko,  
 Ching Yeh Lin,  D. Liotard,  E. Livshits,  R. C. Lochan,  I. Lotan,  
 L. A. Martinez-Martinez,  P. E. Maslen,  N. Nair,  D. P. O'Neill,  
 D. Neuhauser,  E. Neuscamman,  C. M. Oana,  R. Olivares-Amaya,  R. Olson,  
 T. M. Perrine,  B. Peters,  P. A. Pieniazek,  A. Prociuk,  Y. M. Rhee,  
 J. Ritchie,  M. A. Rohrdanz,  E. Rosta,  N. J. Russ,  H. F. Schaefer III,  
 M. W. Schmidt,  N. E. Schultz,  S. Sharma,  N. Shenvi,  C. D. Sherrill,  
 A. C. Simmonett,  A. Sodt,  T. Stein,  D. Stuck,  K. S. Thanthiriwatte,  
 V. Vanovschi,  L. Vogt,  Tao Wang,  A. Warshel,  M. A. Watson,  
 C. F. Williams,  Q. Wu,  X. Xu,  Jun Yang,  W. Zhang,  Yan Zhao

 Please cite Q-Chem as follows:
 Y. Shao et al., Mol. Phys. 113, 184-215 (2015)
 DOI: 10.1080/00268976.2014.952696

 Q-Chem 5.4.0 for Intel X86 EM64T Linux

 Parts of Q-Chem use Armadillo 9.800.1 (Horizon Scraper).
 http://arma.sourceforge.net/

 Q-Chem begins on Sun Jul 10 03:08:49 2022  

 Host: 
0

     Scratch files written to ./qchem3396325//
 May1621 |scratch|qcdevops|jenkins|workspace|build_RNUM    
 Processing $rem in /cm/shared/apps/spack/cpu/opt/spack/linux-centos8-zen2/gcc-10.2.0/qchem-5.4-akfmr7b3t57bfs6qan3padb2wnb2i7cl/config/preferences:
 Processing $rem in /home/theleonzhang/.qchemrc:
 Symmetry turned off for PCM/SM12/SMD calculation
 Core orbitals will be frozen

 Checking the input file for inconsistencies... 	...done.

--------------------------------------------------------------
User input:
--------------------------------------------------------------
$molecule
0 1
C	0.000713	-3.866725	-0.775127
C	0.000302	-3.703963	0.612565
C	-0.000067	-2.357056	1.066639
H	0.000470	-4.561092	1.302900
C	-0.000000	-1.440664	-0.000000
S	-0.000009	-2.286957	-1.544483
C	-0.000295	-1.978743	2.521872
H	-0.000221	-2.878678	3.166949
H	-0.892850	-1.376015	2.790821
H	0.892005	-1.375728	2.791023
C	0.000000	0.000000	0.000000
C	0.365003	0.782674	1.099446
C	0.949885	2.036912	0.776721
H	0.209135	0.448431	2.136088
C	1.043159	2.236886	-0.612546
S	0.398297	0.854094	-1.486809
C	1.409609	3.022738	1.814609
H	1.229726	2.636980	2.836676
H	0.877346	3.992870	1.726239
H	2.494910	3.238558	1.726228
H	1.444334	3.097160	-1.161575
H	-0.896681	-4.392713	-1.119411
H	0.898372	-4.392347	-1.119277
H	-1.080000	-1.440937	-0.000115
$end

$rem
JOBTYPE		SP
EXCHANGE	HF
CORRELATION	pRIMP2
BASIS		cc-pvtz
METHOD		rimp2
AUX_BASIS	rimp2-cc-pvtz
SOLVENT_METHOD	PCM
PURECART	11111
SYMMETRY	false
MEM_TOTAL	110000
SCF_CONVERGENCE = 6
THRESH=10
$end



$solvent
dielectric 4.90
$end
--------------------------------------------------------------
 ----------------------------------------------------------------
             Standard Nuclear Orientation (Angstroms)
    I     Atom           X                Y                Z
 ----------------------------------------------------------------
    1      C       0.0007130000    -3.8667250000    -0.7751270000
    2      C       0.0003020000    -3.7039630000     0.6125650000
    3      C      -0.0000670000    -2.3570560000     1.0666390000
    4      H       0.0004700000    -4.5610920000     1.3029000000
    5      C       0.0000000000    -1.4406640000     0.0000000000
    6      S      -0.0000090000    -2.2869570000    -1.5444830000
    7      C      -0.0002950000    -1.9787430000     2.5218720000
    8      H      -0.0002210000    -2.8786780000     3.1669490000
    9      H      -0.8928500000    -1.3760150000     2.7908210000
   10      H       0.8920050000    -1.3757280000     2.7910230000
   11      C       0.0000000000     0.0000000000     0.0000000000
   12      C       0.3650030000     0.7826740000     1.0994460000
   13      C       0.9498850000     2.0369120000     0.7767210000
   14      H       0.2091350000     0.4484310000     2.1360880000
   15      C       1.0431590000     2.2368860000    -0.6125460000
   16      S       0.3982970000     0.8540940000    -1.4868090000
   17      C       1.4096090000     3.0227380000     1.8146090000
   18      H       1.2297260000     2.6369800000     2.8366760000
   19      H       0.8773460000     3.9928700000     1.7262390000
   20      H       2.4949100000     3.2385580000     1.7262280000
   21      H       1.4443340000     3.0971600000    -1.1615750000
   22      H      -0.8966810000    -4.3927130000    -1.1194110000
   23      H       0.8983720000    -4.3923470000    -1.1192770000
   24      H      -1.0800000000    -1.4409370000    -0.0001150000
 ----------------------------------------------------------------
 Nuclear Repulsion Energy =         880.47121650 hartrees
 There are       52 alpha and       52 beta electrons

 Q-Chem warning in module forms1/BasisType.C, line 2236:

 You are not using the predefined 5D/6D in this basis set.

 Requested basis set is cc-pVTZ
 There are 196 shells and 536 basis functions

 Total QAlloc Memory Limit 110000 MB
 Mega-Array Size       188 MB
 MEM_STATIC part       192 MB
 Discretize the solute cavity surface with Lebedev spheres
	Using 110 Lebedev grid points for each H atom
	Using 194 Lebedev grid points for other atoms
	Atomic van der Waals radii will be scaled by 1.20
 Remove points where switching function is < 1.0e-08
 Keep 1577 surface tesserae and discard 2071 interior tesserae
 Molecular Surface Area = 230.778 Angst**2
 Requested basis set is rimp2-cc-pVTZ
 There are 414 shells and 1414 basis functions
 A cutoff of  1.0D-10 yielded  14137 shell pairs
 There are    102287 function pairs (    131034 Cartesian)
 Smallest overlap matrix eigenvalue = 6.03E-05

 Scale SEOQF with 1.000000e-01/1.000000e-01/1.000000e-01

 Standard Electronic Orientation quadrupole field applied
 Nucleus-field energy     =     0.0000000198 hartrees
 Guess from superposition of atomic densities
 Warning:  Energy on first SCF cycle will be non-variational
 SAD guess density has 104.000000 electrons

 -----------------------------------------------------------------------
  General SCF calculation program by
  Eric Jon Sundstrom, Paul Horn, Yuezhi Mao, Dmitri Zuev, Alec White,
  David Stuck, Shaama M.S., Shane Yost, Joonho Lee, David Small,
  Daniel Levine, Susi Lehtola, Hugh Burton, Evgeny Epifanovsky,
  Bang C. Huynh
 -----------------------------------------------------------------------
 Hartree-Fock
 A restricted SCF calculation will be
 performed using DIIS
 SCF converges when DIIS error is below 1.0e-06
 ---------------------------------------
  Cycle       Energy         DIIS error
 ---------------------------------------
    1   -1186.0776019878      2.39e-02  
    2   -1180.5896683166      1.58e-03  
    3   -1180.7165633128      6.49e-04  
    4   -1180.7324722504      3.43e-04  
    5   -1180.7380328196      6.16e-05  
    6   -1180.7383007175      2.56e-05  
    7   -1180.7383661017      9.44e-06  
    8   -1180.7383808313      4.48e-06  
    9   -1180.7383842757      1.58e-06  
   10   -1180.7383848028      5.42e-07  Convergence criterion met
 ---------------------------------------
 SCF time:   CPU 583.55s  wall 586.00s 

************** Final PCM Free Energy Summary **************
 G_electrostatic  =      -0.00968603 hartree =      -6.07807289 kcal/mol
 G_cavitation     =       0.00000000 hartree =       0.00000000 kcal/mol
 G_dispersion     =       0.00000000 hartree =       0.00000000 kcal/mol
 G_repulsion      =       0.00000000 hartree =       0.00000000 kcal/mol
 --------------------------------------------------
 Non-electrostatic Free Energy =       0.00000000 hartree =       0.00000000 kcal/mol
 Total                         =      -0.00968603 hartree =      -6.07807289 kcal/mol
 --------------------------------------------------
 SCF Energy (H0 + V/2)                       =   -1180.73838480 
 Solute Internal Energy (H0)                 =   -1180.72869878 
 Total Free Energy (H0 + V/2 + non-elec)     =   -1180.73838480 hartree
                                             = -740924.51923699 kcal/mol
***********************************************************

 SCF   energy in the final basis set =    -1180.7383848028
 Total energy in the final basis set =    -1180.7383848028


 --------------------------------------------------------------
  Generalized many-body perturbation theory program
  by Joonho Lee, Fazle Rob, Xintian Feng, Evgeny Epifanovsky

 No regularization used 
 (reg. param. = 0.0000e+00)
  (P|Q)^-1/2 Time:  CPU 1.89 s  wall 1.90 s

 In RI-MP2 calculation: 
 # of frozen core orbitals: 20

 Components of the RIMP2 correlation energy:
        aaaa    correlation energy =        -0.2524652694 a.u.
        abab    correlation energy =        -1.5061616780 a.u.
        bbbb    correlation energy =        -0.2524652694 a.u.
        non-Brillouin singles      =        -0.0000000000 a.u.
        total same-spin energy     =        -0.5049305387 a.u.
        total opposite-spin energy =        -1.5061616780 a.u.

 Total  RIMP2   correlation energy =        -2.0110922168 a.u.
        RIMP2         total energy =     -1182.7494770195 a.u.

 RI-MP2 Energy Time:  CPU 79.87 s  wall 80.20 s
 
 --------------------------------------------------------------
 
                    Orbital Energies (a.u.)
 --------------------------------------------------------------
 
 Alpha MOs
 -- Occupied --
-91.9826 -91.9454 -11.2841 -11.2660 -11.2582 -11.2574 -11.2498 -11.2435
-11.2340 -11.2319 -11.2282 -11.2215  -8.9825  -8.9500  -6.6634  -6.6628
 -6.6622  -6.6314  -6.6304  -6.6291  -1.2019  -1.1523  -1.0596  -1.0323
 -1.0003  -0.9625  -0.9159  -0.8995  -0.8175  -0.7623  -0.7289  -0.7073
 -0.6550  -0.6471  -0.6097  -0.5944  -0.5866  -0.5685  -0.5622  -0.5493
 -0.5460  -0.5357  -0.5238  -0.5028  -0.4836  -0.4766  -0.4694  -0.4414
 -0.3613  -0.3428  -0.3232  -0.2610
 -- Virtual --
  0.0960   0.1311   0.1409   0.1475   0.1572   0.1714   0.1756   0.1834
  0.1870   0.2044   0.2089   0.2149   0.2201   0.2306   0.2368   0.2426
  0.2578   0.2718   0.2900   0.3101   0.3142   0.3223   0.3531   0.3583
  0.3705   0.3779   0.3813   0.3951   0.4058   0.4071   0.4183   0.4254
  0.4345   0.4478   0.4657   0.4681   0.4739   0.4798   0.4829   0.4957
  0.5043   0.5196   0.5246   0.5312   0.5389   0.5476   0.5535   0.5595
  0.5681   0.5836   0.5923   0.5969   0.6016   0.6099   0.6190   0.6210
  0.6265   0.6300   0.6348   0.6380   0.6419   0.6500   0.6568   0.6649
  0.6682   0.6722   0.6799   0.6856   0.6943   0.7091   0.7248   0.7272
  0.7417   0.7521   0.7682   0.7734   0.7843   0.7952   0.7973   0.8119
  0.8371   0.8523   0.8571   0.8588   0.8890   0.8955   0.9070   0.9205
  0.9328   0.9459   0.9494   0.9514   0.9701   0.9880   0.9998   1.0138
  1.0191   1.0271   1.0370   1.0491   1.0606   1.0640   1.0690   1.0813
  1.0857   1.0965   1.1052   1.1192   1.1392   1.1433   1.1630   1.1743
  1.1818   1.1882   1.2017   1.2087   1.2153   1.2220   1.2258   1.2446
  1.2473   1.2569   1.2664   1.2706   1.2803   1.2879   1.3079   1.3136
  1.3292   1.3302   1.3336   1.3617   1.3740   1.3782   1.4083   1.4147
  1.4243   1.4366   1.4413   1.4695   1.4757   1.4801   1.4885   1.5048
  1.5109   1.5192   1.5273   1.5349   1.5390   1.5456   1.5470   1.5646
  1.5693   1.5869   1.5949   1.6097   1.6178   1.6220   1.6318   1.6496
  1.6545   1.6650   1.6826   1.7022   1.7081   1.7112   1.7177   1.7338
  1.7628   1.7648   1.7767   1.8067   1.8245   1.8282   1.8503   1.8695
  1.8806   1.8974   1.9021   1.9297   1.9594   1.9667   1.9860   1.9979
  2.0263   2.0373   2.0566   2.0831   2.0946   2.1052   2.1515   2.1608
  2.1834   2.1951   2.2096   2.2170   2.2389   2.2503   2.2684   2.2772
  2.2868   2.2981   2.3066   2.3886   2.4177   2.4334   2.4556   2.4751
  2.4924   2.5165   2.5346   2.5533   2.5732   2.5796   2.5856   2.6247
  2.6354   2.6513   2.6554   2.6605   2.6729   2.6965   2.7155   2.7311
  2.7507   2.7567   2.7612   2.7727   2.7815   2.7982   2.8046   2.8192
  2.8256   2.8474   2.8569   2.8723   2.8885   2.9088   2.9128   2.9435
  2.9547   2.9705   2.9766   2.9888   3.0184   3.0268   3.0297   3.0418
  3.0648   3.0845   3.0891   3.1046   3.1130   3.1163   3.1352   3.1419
  3.1500   3.1601   3.1704   3.1764   3.1911   3.1959   3.1977   3.2112
  3.2295   3.2397   3.2457   3.2584   3.2721   3.2823   3.2988   3.3055
  3.3138   3.3283   3.3302   3.3417   3.3483   3.3555   3.3566   3.3752
  3.3757   3.3851   3.3909   3.4034   3.4129   3.4249   3.4262   3.4295
  3.4386   3.4486   3.4574   3.4621   3.4807   3.4902   3.4994   3.5056
  3.5114   3.5255   3.5322   3.5379   3.5475   3.5621   3.5705   3.5882
  3.5970   3.5973   3.6094   3.6203   3.6315   3.6420   3.6531   3.6612
  3.6712   3.6936   3.6982   3.7000   3.7170   3.7310   3.7376   3.7467
  3.7516   3.7579   3.7729   3.7764   3.7933   3.7992   3.8005   3.8059
  3.8269   3.8434   3.8493   3.8636   3.8780   3.8821   3.9130   3.9164
  3.9252   3.9477   3.9594   3.9651   3.9764   3.9987   4.0112   4.0224
  4.0325   4.0515   4.0582   4.0667   4.0804   4.0872   4.0980   4.1126
  4.1204   4.1388   4.1498   4.1617   4.1670   4.1684   4.1760   4.2011
  4.2244   4.2257   4.2327   4.2415   4.2539   4.2572   4.2689   4.2928
  4.3010   4.3069   4.3205   4.3313   4.3495   4.3549   4.3606   4.3681
  4.3828   4.4025   4.4088   4.4167   4.4216   4.4396   4.4501   4.4505
  4.4610   4.4702   4.4840   4.4972   4.5014   4.5380   4.5633   4.5882
  4.5931   4.6018   4.6195   4.6311   4.6473   4.6538   4.6672   4.6831
  4.7038   4.7424   4.7691   4.7818   4.7954   4.8120   4.8179   4.8559
  4.8699   4.8729   4.8967   4.9241   4.9312   4.9544   4.9781   4.9941
  5.0535   5.0625   5.1005   5.1073   5.1197   5.1286   5.1510   5.1909
  5.2173   5.2285   5.2386   5.2625   5.2823   5.3039   5.3069   5.3324
  5.3531   5.3671   5.3801   5.4082   5.4151   5.4223   5.4379   5.4429
  5.4742   5.5215   5.5368   5.5457   5.5496   5.5692   5.5766   5.6034
  5.6172   5.6248   5.6304   5.6619   5.6814   5.7066   5.7111   5.7475
  5.7701   5.7978   5.8400   5.9618   6.0271   6.0791   6.1350   6.1702
  6.2215   6.2293   6.2435   6.2530   6.2671   6.2906   6.2957   6.3261
  6.4289   6.5017   9.5318  10.7643  12.0927  12.9187  13.1640  13.9077
 14.1326  14.2114  14.3697  14.9025
 --------------------------------------------------------------
 
          Ground-State Mulliken Net Atomic Charges

     Atom                 Charge (a.u.)
  ----------------------------------------
      1 C                    -0.075951
      2 C                    -0.318882
      3 C                    -0.047337
      4 H                     0.178714
      5 C                     0.118427
      6 S                    -0.180260
      7 C                    -0.302752
      8 H                     0.122310
      9 H                     0.106288
     10 H                     0.108807
     11 C                    -0.041710
     12 C                    -0.293396
     13 C                     0.050011
     14 H                     0.190213
     15 C                    -0.274647
     16 S                     0.012015
     17 C                    -0.270939
     18 H                     0.100528
     19 H                     0.108494
     20 H                     0.107960
     21 H                     0.196933
     22 H                     0.111725
     23 H                     0.113668
     24 H                     0.179779
  ----------------------------------------
  Sum of atomic charges =     0.000000

 -----------------------------------------------------------------
                    Cartesian Multipole Moments
 -----------------------------------------------------------------
    Charge (ESU x 10^10)
                -0.0000
    Dipole Moment (Debye)
         X      -0.2055      Y      -0.2799      Z       3.7903
       Tot       3.8062
    Quadrupole Moments (Debye-Ang)
        XX     -89.9626     XY       5.3089     YY     -75.0721
        XZ       0.7040     YZ      -2.4406     ZZ     -85.5842
    Octopole Moments (Debye-Ang^2)
       XXX     -89.3539    XXY      57.6721    XYY     -18.6963
       YYY     127.2063    XXZ      -3.5004    XYZ      -1.4840
       YYZ      -4.6966    XZZ     -26.2127    YZZ      54.8310
       ZZZ       8.5663
    Hexadecapole Moments (Debye-Ang^3)
      XXXX    -315.4867   XXXY    -188.4519   XXYY    -535.4984
      XYYY    -153.5316   YYYY   -2632.0366   XXXZ     -39.2079
      XXYZ     -27.7658   XYYZ     -17.3292   YYYZ     -91.9884
      XXZZ    -244.5742   XYZZ     -53.1616   YYZZ    -634.5248
      XZZZ     -39.9535   YZZZ    -123.6059   ZZZZ   -1097.3394
 -----------------------------------------------------------------
 Total job time:  668.41s(wall), 664.32s(cpu) 
 Sun Jul 10 03:19:58 2022

        *************************************************************
        *                                                           *
        *  Thank you very much for using Q-Chem.  Have a nice day.  *
        *                                                           *
        *************************************************************


remove work dirs ./qchem3396325.0 -- ./qchem3396325.-1
rm -rf ./qchem3396325
