You are running Q-Chem version: 5.4.0

#
# job setting
#
local host:  exp-7-31
current dir: /expanse/lustre/scratch/theleonzhang/temp_project/Hydrogenated_Rotation_Test
input file:  Methylthiophene_Phi_50_Theta_330_Methylthiophene_Hydrogenated_Alternate.qcin
output file: 
nprocs     : 0
nthreads   : 1
#
# qchem installation setting
#
QC:          /cm/shared/apps/spack/cpu/opt/spack/linux-centos8-zen2/gcc-10.2.0/qchem-5.4-akfmr7b3t57bfs6qan3padb2wnb2i7cl
QCAUX:       /cm/shared/apps/spack/cpu/opt/spack/linux-centos8-zen2/gcc-10.2.0/qchem-5.4-akfmr7b3t57bfs6qan3padb2wnb2i7cl/qcaux
QCPROG:      /cm/shared/apps/spack/cpu/opt/spack/linux-centos8-zen2/gcc-10.2.0/qchem-5.4-akfmr7b3t57bfs6qan3padb2wnb2i7cl/exe/qcprog.exe_s
QCPROG_S:    /cm/shared/apps/spack/cpu/opt/spack/linux-centos8-zen2/gcc-10.2.0/qchem-5.4-akfmr7b3t57bfs6qan3padb2wnb2i7cl/exe/qcprog.exe_s
PARALLEL:    -DSERIAL
QCMPI:       mpich
#
# qchem directory setting
#
qcrun:       qchem2637091
QCSCRATCH:   .
QCLOCALSCR:  
QCTMPDIR:    .
QCFILEPREF:  ./qchem2637091
QCSAVEDIR:   
workdirs:    ./qchem2637091
workdir0:    ./qchem2637091
partmpdirs =  
#
# parallel setting
#
QCRSH:           ssh
QCMPI:           mpich
QCMPIRUN:        /cm/shared/apps/spack/cpu/opt/spack/linux-centos8-zen2/gcc-10.2.0/qchem-5.4-akfmr7b3t57bfs6qan3padb2wnb2i7cl/bin/mpi/mpirun_qchem
QCMACHINEFILE:   ./qchem2637091/hostfile

#
# env setting
#
exported envs:   QC QCAUX QCSCRATCH QCRUNNAME QCFILEPREF QCPROG QCPROG_S GUIFILE

Running Job 1 of 1 Methylthiophene_Phi_50_Theta_330_Methylthiophene_Hydrogenated_Alternate.qcin
qchem Methylthiophene_Phi_50_Theta_330_Methylthiophene_Hydrogenated_Alternate.qcin_2637091.0 ./qchem2637091/ 0
/cm/shared/apps/spack/cpu/opt/spack/linux-centos8-zen2/gcc-10.2.0/qchem-5.4-akfmr7b3t57bfs6qan3padb2wnb2i7cl/exe/qcprog.exe_s Methylthiophene_Phi_50_Theta_330_Methylthiophene_Hydrogenated_Alternate.qcin_2637091.0 ./qchem2637091/
                  Welcome to Q-Chem
     A Quantum Leap Into The Future Of Chemistry


 Q-Chem 5.4, Q-Chem, Inc., Pleasanton, CA (2021)

 License issued to: University of California, San Diego (site)

 E. Epifanovsky,  A. T. B. Gilbert,  Xintian Feng,  Joonho Lee,  Yuezhi Mao,  
 N. Mardirossian,  P. Pokhilko,  A. White,  M. Wormit,  M. P. Coons,  
 A. L. Dempwolff,  Zhengting Gan,  D. Hait,  P. R. Horn,  L. D. Jacobson,  
 I. Kaliman,  J. Kussmann,  A. W. Lange,  Ka Un Lao,  D. S. Levine,  Jie Liu,  
 S. C. McKenzie,  A. F. Morrison,  K. Nanda,  F. Plasser,  D. R. Rehn,  
 M. L. Vidal,  Zhi-Qiang You,  Ying Zhu,  B. Alam,  B. Albrecht,  
 A. Aldossary,  E. Alguire,  J. H. Andersen,  D. Barton,  K. Begam,  A. Behn,  
 Y. A. Bernard,  E. J. Berquist,  H. Burton,  A. Carreras,  K. Carter-Fenk,  
 R. Chakraborty,  A. D. Chien,  K. D. Closser,  V. Cofer-Shabica,  
 S. Dasgupta,  Jia Deng,  M. de Wergifosse,  M. Diedenhofen,  Hainam Do,  
 S. Ehlert,  Po-Tung Fang,  S. Fatehi,  Qingguo Feng,  J. Gayvert,  
 Qinghui Ge,  G. Gidofalvi,  M. Goldey,  J. Gomes,  C. Gonzalez-Espinoza,  
 S. Gulania,  A. Gunina,  M. W. D. Hanson-Heine,  P. H. P. Harbach,  
 A. W. Hauser,  M. F. Herbst,  M. Hernandez Vera,  M. Hodecker,  
 Z. C. Holden,  S. Houck,  Xunkun Huang,  Kerwin Hui,  B. C. Huynh,  
 M. Ivanov,  Hyunjun Ji,  Hanjie Jiang,  B. Kaduk,  S. Kaehler,  
 K. Khistyaev,  Jaehoon Kim,  P. Klunzinger,  Z. Koczor-Benda,  
 Joong Hoon Koh,  D. Kosenkov,  L. Koulias,  T. Kowalczyk,  C. M. Krauter,  
 K. Kue,  A. Kunitsa,  T. Kus,  A. Landau,  K. V. Lawler,  D. Lefrancois,  
 S. Lehtola,  Rain Li,  Yi-Pei Li,  Jiashu Liang,  M. Liebenthal,  
 Hung-Hsuan Lin,  You-Sheng Lin,  Fenglai Liu,  Kuan-Yu Liu,  
 M. Loipersberger,  A. Luenser,  A. Manjanath,  P. Manohar,  E. Mansoor,  
 S. F. Manzer,  Shan-Ping Mao,  A. V. Marenich,  T. Markovich,  S. Mason,  
 S. A. Maurer,  P. F. McLaughlin,  M. F. S. J. Menger,  J.-M. Mewes,  
 S. A. Mewes,  P. Morgante,  J. W. Mullinax,  T. S. Nguyen-Beck,  
 K. J. Oosterbaan,  G. Paran,  Alexander C. Paul,  Suranjan K. Paul,  
 F. Pavosevic,  Zheng Pei,  S. Prager,  E. I. Proynov,  E. Ramos,  B. Rana,  
 A. E. Rask,  A. Rettig,  R. M. Richard,  F. Rob,  E. Rossomme,  T. Scheele,  
 M. Scheurer,  M. Schneider,  N. Sergueev,  S. M. Sharada,  W. Skomorowski,  
 D. W. Small,  C. J. Stein,  Yu-Chuan Su,  E. J. Sundstrom,  Zhen Tao,  
 J. Thirman,  T. Tsuchimochi,  N. M. Tubman,  S. P. Veccham,  O. Vydrov,  
 J. Wenzel,  J. Witte,  A. Yamada,  Kun Yao,  S. Yeganeh,  S. R. Yost,  
 A. Zech,  Igor Ying Zhang,  Xing Zhang,  Yu Zhang,  D. Zuev,  
 A. Aspuru-Guzik,  A. T. Bell,  N. A. Besley,  K. B. Bravaya,  B. R. Brooks,  
 D. Casanova,  Jeng-Da Chai,  S. Coriani,  C. J. Cramer,  
 A. E. DePrince, III,  R. A. DiStasio Jr.,  A. Dreuw,  B. D. Dunietz,  
 T. R. Furlani,  W. A. Goddard III,  S. Grimme,  S. Hammes-Schiffer,  
 T. Head-Gordon,  W. J. Hehre,  Chao-Ping Hsu,  T.-C. Jagau,  Yousung Jung,  
 A. Klamt,  Jing Kong,  D. S. Lambrecht,  WanZhen Liang,  N. J. Mayhall,  
 C. W. McCurdy,  J. B. Neaton,  C. Ochsenfeld,  J. A. Parkhill,  R. Peverati,  
 V. A. Rassolov,  Yihan Shao,  L. V. Slipchenko,  T. Stauch,  R. P. Steele,  
 J. E. Subotnik,  A. J. W. Thom,  A. Tkatchenko,  D. G. Truhlar,  
 T. Van Voorhis,  T. A. Wesolowski,  K. B. Whaley,  H. L. Woodcock III,  
 P. M. Zimmerman,  S. Faraji,  P. M. W. Gill,  M. Head-Gordon,  
 J. M. Herbert,  A. I. Krylov

 Contributors to earlier versions of Q-Chem not listed above: 
 R. D. Adamson,  B. Austin,  R. Baer,  J. Baker,  G. J. O. Beran,  
 K. Brandhorst,  S. T. Brown,  E. F. C. Byrd,  A. K. Chakraborty,  
 G. K. L. Chan,  Chun-Min Chang,  Yunqing Chen,  C.-L. Cheng,  
 Siu Hung Chien,  D. M. Chipman,  D. L. Crittenden,  H. Dachsel,  
 R. J. Doerksen,  A. D. Dutoi,  R. G. Edgar,  J. Fosso-Tande,  
 L. Fusti-Molnar,  D. Ghosh,  A. Ghysels,  A. Golubeva-Zadorozhnaya,  
 J. Gonthier,  M. S. Gordon,  S. R. Gwaltney,  G. Hawkins,  J. E. Herr,  
 A. Heyden,  S. Hirata,  E. G. Hohenstein,  G. Kedziora,  F. J. Keil,  
 C. Kelley,  Jihan Kim,  R. A. King,  R. Z. Khaliullin,  P. P. Korambath,  
 W. Kurlancheek,  A. Laurent,  A. M. Lee,  M. S. Lee,  S. V. Levchenko,  
 Ching Yeh Lin,  D. Liotard,  E. Livshits,  R. C. Lochan,  I. Lotan,  
 L. A. Martinez-Martinez,  P. E. Maslen,  N. Nair,  D. P. O'Neill,  
 D. Neuhauser,  E. Neuscamman,  C. M. Oana,  R. Olivares-Amaya,  R. Olson,  
 T. M. Perrine,  B. Peters,  P. A. Pieniazek,  A. Prociuk,  Y. M. Rhee,  
 J. Ritchie,  M. A. Rohrdanz,  E. Rosta,  N. J. Russ,  H. F. Schaefer III,  
 M. W. Schmidt,  N. E. Schultz,  S. Sharma,  N. Shenvi,  C. D. Sherrill,  
 A. C. Simmonett,  A. Sodt,  T. Stein,  D. Stuck,  K. S. Thanthiriwatte,  
 V. Vanovschi,  L. Vogt,  Tao Wang,  A. Warshel,  M. A. Watson,  
 C. F. Williams,  Q. Wu,  X. Xu,  Jun Yang,  W. Zhang,  Yan Zhao

 Please cite Q-Chem as follows:
 Y. Shao et al., Mol. Phys. 113, 184-215 (2015)
 DOI: 10.1080/00268976.2014.952696

 Q-Chem 5.4.0 for Intel X86 EM64T Linux

 Parts of Q-Chem use Armadillo 9.800.1 (Horizon Scraper).
 http://arma.sourceforge.net/

 Q-Chem begins on Sun Jul 10 06:48:13 2022  

 Host: 
0

     Scratch files written to ./qchem2637091//
 May1621 |scratch|qcdevops|jenkins|workspace|build_RNUM    
 Processing $rem in /cm/shared/apps/spack/cpu/opt/spack/linux-centos8-zen2/gcc-10.2.0/qchem-5.4-akfmr7b3t57bfs6qan3padb2wnb2i7cl/config/preferences:
 Processing $rem in /home/theleonzhang/.qchemrc:
 Symmetry turned off for PCM/SM12/SMD calculation
 Core orbitals will be frozen

 Checking the input file for inconsistencies... 	...done.

--------------------------------------------------------------
User input:
--------------------------------------------------------------
$molecule
0 1
C	0.386946	-3.866725	0.671636
C	-0.306544	-3.703963	-0.530345
C	-0.533261	-2.357056	-0.923770
H	-0.651857	-4.561092	-1.128109
C	0.000000	-1.440664	0.000000
S	0.772250	-2.286957	1.337557
C	-1.260680	-1.978743	-2.184153
H	-1.583283	-2.878678	-2.742769
H	-0.622180	-1.376015	-2.863347
H	-2.168011	-1.375728	-1.971094
C	0.000000	0.000000	0.000000
C	0.661577	0.555087	1.099446
C	1.721724	1.444630	0.776721
H	0.379056	0.318032	2.136088
C	1.890772	1.586449	-0.612546
S	0.721935	0.605744	-1.486809
C	2.555004	2.143805	1.814609
H	2.228946	1.870211	2.836676
H	2.482605	3.247987	1.726239
H	3.629830	1.880735	1.726228
H	2.617927	2.196579	-1.161575
H	1.336254	-4.392713	0.521098
H	-0.218374	-4.392347	1.418509
H	0.935365	-1.440937	-0.539900
$end

$rem
JOBTYPE		SP
EXCHANGE	HF
CORRELATION	pRIMP2
BASIS		cc-pvtz
METHOD		rimp2
AUX_BASIS	rimp2-cc-pvtz
SOLVENT_METHOD	PCM
PURECART	11111
SYMMETRY	false
MEM_TOTAL	110000
SCF_CONVERGENCE = 6
THRESH=10
$end



$solvent
dielectric 4.90
$end
--------------------------------------------------------------
 ----------------------------------------------------------------
             Standard Nuclear Orientation (Angstroms)
    I     Atom           X                Y                Z
 ----------------------------------------------------------------
    1      C       0.3869460000    -3.8667250000     0.6716360000
    2      C      -0.3065440000    -3.7039630000    -0.5303450000
    3      C      -0.5332610000    -2.3570560000    -0.9237700000
    4      H      -0.6518570000    -4.5610920000    -1.1281090000
    5      C       0.0000000000    -1.4406640000     0.0000000000
    6      S       0.7722500000    -2.2869570000     1.3375570000
    7      C      -1.2606800000    -1.9787430000    -2.1841530000
    8      H      -1.5832830000    -2.8786780000    -2.7427690000
    9      H      -0.6221800000    -1.3760150000    -2.8633470000
   10      H      -2.1680110000    -1.3757280000    -1.9710940000
   11      C       0.0000000000     0.0000000000     0.0000000000
   12      C       0.6615770000     0.5550870000     1.0994460000
   13      C       1.7217240000     1.4446300000     0.7767210000
   14      H       0.3790560000     0.3180320000     2.1360880000
   15      C       1.8907720000     1.5864490000    -0.6125460000
   16      S       0.7219350000     0.6057440000    -1.4868090000
   17      C       2.5550040000     2.1438050000     1.8146090000
   18      H       2.2289460000     1.8702110000     2.8366760000
   19      H       2.4826050000     3.2479870000     1.7262390000
   20      H       3.6298300000     1.8807350000     1.7262280000
   21      H       2.6179270000     2.1965790000    -1.1615750000
   22      H       1.3362540000    -4.3927130000     0.5210980000
   23      H      -0.2183740000    -4.3923470000     1.4185090000
   24      H       0.9353650000    -1.4409370000    -0.5399000000
 ----------------------------------------------------------------
 Nuclear Repulsion Energy =         895.18053537 hartrees
 There are       52 alpha and       52 beta electrons

 Q-Chem warning in module forms1/BasisType.C, line 2236:

 You are not using the predefined 5D/6D in this basis set.

 Requested basis set is cc-pVTZ
 There are 196 shells and 536 basis functions

 Total QAlloc Memory Limit 110000 MB
 Mega-Array Size       188 MB
 MEM_STATIC part       192 MB
 Discretize the solute cavity surface with Lebedev spheres
	Using 110 Lebedev grid points for each H atom
	Using 194 Lebedev grid points for other atoms
	Atomic van der Waals radii will be scaled by 1.20
 Remove points where switching function is < 1.0e-08
 Keep 1568 surface tesserae and discard 2080 interior tesserae
 Molecular Surface Area = 229.045 Angst**2
 Requested basis set is rimp2-cc-pVTZ
 There are 414 shells and 1414 basis functions
 A cutoff of  1.0D-10 yielded  14327 shell pairs
 There are    104001 function pairs (    133391 Cartesian)
 Smallest overlap matrix eigenvalue = 6.55E-05

 Scale SEOQF with 1.000000e-01/1.000000e-01/1.000000e-01

 Standard Electronic Orientation quadrupole field applied
 Nucleus-field energy     =     0.0000000209 hartrees
 Guess from superposition of atomic densities
 Warning:  Energy on first SCF cycle will be non-variational
 SAD guess density has 104.000000 electrons

 -----------------------------------------------------------------------
  General SCF calculation program by
  Eric Jon Sundstrom, Paul Horn, Yuezhi Mao, Dmitri Zuev, Alec White,
  David Stuck, Shaama M.S., Shane Yost, Joonho Lee, David Small,
  Daniel Levine, Susi Lehtola, Hugh Burton, Evgeny Epifanovsky,
  Bang C. Huynh
 -----------------------------------------------------------------------
 Hartree-Fock
 A restricted SCF calculation will be
 performed using DIIS
 SCF converges when DIIS error is below 1.0e-06
 ---------------------------------------
  Cycle       Energy         DIIS error
 ---------------------------------------
    1   -1186.1621052503      2.41e-02  
    2   -1180.5625704619      1.54e-03  
    3   -1180.6892734899      5.71e-04  
    4   -1180.7030127485      3.20e-04  
    5   -1180.7077076516      6.12e-05  
    6   -1180.7079784943      2.54e-05  
    7   -1180.7080460551      1.00e-05  
    8   -1180.7080612389      4.49e-06  
    9   -1180.7080647023      1.90e-06  
   10   -1180.7080654474      7.63e-07  Convergence criterion met
 ---------------------------------------
 SCF time:   CPU 589.26s  wall 592.00s 

************** Final PCM Free Energy Summary **************
 G_electrostatic  =      -0.00807186 hartree =      -5.06516650 kcal/mol
 G_cavitation     =       0.00000000 hartree =       0.00000000 kcal/mol
 G_dispersion     =       0.00000000 hartree =       0.00000000 kcal/mol
 G_repulsion      =       0.00000000 hartree =       0.00000000 kcal/mol
 --------------------------------------------------
 Non-electrostatic Free Energy =       0.00000000 hartree =       0.00000000 kcal/mol
 Total                         =      -0.00807186 hartree =      -5.06516650 kcal/mol
 --------------------------------------------------
 SCF Energy (H0 + V/2)                       =   -1180.70806545 
 Solute Internal Energy (H0)                 =   -1180.69999359 
 Total Free Energy (H0 + V/2 + non-elec)     =   -1180.70806545 hartree
                                             = -740905.49355431 kcal/mol
***********************************************************

 SCF   energy in the final basis set =    -1180.7080654474
 Total energy in the final basis set =    -1180.7080654474


 --------------------------------------------------------------
  Generalized many-body perturbation theory program
  by Joonho Lee, Fazle Rob, Xintian Feng, Evgeny Epifanovsky

 No regularization used 
 (reg. param. = 0.0000e+00)
  (P|Q)^-1/2 Time:  CPU 1.89 s  wall 1.89 s

 In RI-MP2 calculation: 
 # of frozen core orbitals: 20

 Components of the RIMP2 correlation energy:
        aaaa    correlation energy =        -0.2536855384 a.u.
        abab    correlation energy =        -1.5105018206 a.u.
        bbbb    correlation energy =        -0.2536855384 a.u.
        non-Brillouin singles      =        -0.0000000000 a.u.
        total same-spin energy     =        -0.5073710767 a.u.
        total opposite-spin energy =        -1.5105018206 a.u.

 Total  RIMP2   correlation energy =        -2.0178728973 a.u.
        RIMP2         total energy =     -1182.7259383447 a.u.

 RI-MP2 Energy Time:  CPU 80.25 s  wall 80.59 s
 
 --------------------------------------------------------------
 
                    Orbital Energies (a.u.)
 --------------------------------------------------------------
 
 Alpha MOs
 -- Occupied --
-91.9754 -91.9414 -11.2738 -11.2722 -11.2576 -11.2541 -11.2526 -11.2475
-11.2390 -11.2312 -11.2293 -11.2184  -8.9770  -8.9459  -6.6579  -6.6571
 -6.6566  -6.6273  -6.6262  -6.6250  -1.2075  -1.1536  -1.0613  -1.0269
 -1.0056  -0.9580  -0.9147  -0.9019  -0.8090  -0.7731  -0.7263  -0.7031
 -0.6550  -0.6435  -0.6134  -0.5902  -0.5809  -0.5754  -0.5695  -0.5519
 -0.5424  -0.5361  -0.5163  -0.5097  -0.4871  -0.4671  -0.4609  -0.4388
 -0.3577  -0.3426  -0.3276  -0.2604
 -- Virtual --
  0.0693   0.1352   0.1458   0.1531   0.1617   0.1713   0.1813   0.1828
  0.1885   0.2009   0.2019   0.2089   0.2189   0.2328   0.2401   0.2417
  0.2466   0.2698   0.2757   0.2938   0.3126   0.3225   0.3521   0.3635
  0.3661   0.3746   0.3770   0.3913   0.3988   0.4098   0.4183   0.4227
  0.4379   0.4460   0.4558   0.4649   0.4751   0.4795   0.4826   0.4872
  0.5034   0.5060   0.5149   0.5192   0.5374   0.5445   0.5523   0.5613
  0.5655   0.5751   0.5823   0.5978   0.6012   0.6119   0.6152   0.6178
  0.6230   0.6316   0.6348   0.6359   0.6417   0.6446   0.6484   0.6559
  0.6658   0.6716   0.6858   0.6970   0.7038   0.7155   0.7192   0.7288
  0.7387   0.7516   0.7621   0.7659   0.7718   0.7977   0.8069   0.8154
  0.8289   0.8462   0.8484   0.8636   0.8725   0.8874   0.9028   0.9205
  0.9238   0.9320   0.9448   0.9647   0.9678   0.9813   0.9981   1.0151
  1.0300   1.0355   1.0432   1.0517   1.0594   1.0671   1.0715   1.0821
  1.0949   1.1067   1.1173   1.1248   1.1447   1.1524   1.1645   1.1718
  1.1880   1.1945   1.2060   1.2116   1.2183   1.2239   1.2326   1.2454
  1.2534   1.2613   1.2720   1.2772   1.2794   1.2915   1.3046   1.3073
  1.3253   1.3391   1.3499   1.3641   1.3865   1.3901   1.4098   1.4229
  1.4280   1.4402   1.4479   1.4589   1.4658   1.4752   1.4872   1.4951
  1.5049   1.5076   1.5194   1.5248   1.5359   1.5430   1.5444   1.5507
  1.5647   1.5751   1.5772   1.5928   1.5993   1.6194   1.6295   1.6468
  1.6497   1.6651   1.6701   1.6758   1.7094   1.7161   1.7218   1.7284
  1.7590   1.7660   1.7718   1.7919   1.8004   1.8396   1.8421   1.8619
  1.8743   1.9021   1.9338   1.9540   1.9713   1.9739   1.9878   2.0182
  2.0349   2.0399   2.0545   2.0713   2.0785   2.1214   2.1254   2.1496
  2.1655   2.1904   2.2064   2.2105   2.2333   2.2365   2.2628   2.2817
  2.3008   2.3247   2.3357   2.3677   2.4137   2.4252   2.4650   2.4734
  2.4829   2.5053   2.5161   2.5440   2.5823   2.5829   2.6070   2.6212
  2.6285   2.6537   2.6601   2.6658   2.6680   2.6851   2.7159   2.7334
  2.7447   2.7492   2.7626   2.7755   2.7907   2.7925   2.8127   2.8241
  2.8403   2.8476   2.8708   2.8804   2.8926   2.9085   2.9228   2.9312
  2.9534   2.9600   2.9727   2.9982   3.0006   3.0176   3.0260   3.0370
  3.0644   3.0794   3.1022   3.1090   3.1209   3.1283   3.1368   3.1406
  3.1532   3.1613   3.1674   3.1807   3.1866   3.2054   3.2081   3.2201
  3.2316   3.2433   3.2475   3.2499   3.2562   3.2756   3.2841   3.3038
  3.3138   3.3262   3.3376   3.3441   3.3496   3.3531   3.3611   3.3671
  3.3709   3.3822   3.3920   3.3999   3.4055   3.4113   3.4226   3.4311
  3.4395   3.4531   3.4654   3.4734   3.4824   3.4840   3.5067   3.5096
  3.5150   3.5250   3.5423   3.5523   3.5549   3.5609   3.5688   3.5884
  3.5937   3.6141   3.6163   3.6310   3.6384   3.6584   3.6710   3.6794
  3.6927   3.6962   3.7039   3.7194   3.7234   3.7284   3.7341   3.7402
  3.7464   3.7688   3.7819   3.7902   3.8003   3.8098   3.8191   3.8263
  3.8309   3.8445   3.8638   3.8795   3.8880   3.8949   3.9014   3.9149
  3.9226   3.9422   3.9654   3.9774   3.9818   3.9914   4.0070   4.0218
  4.0365   4.0486   4.0609   4.0694   4.0798   4.0923   4.0985   4.1118
  4.1249   4.1374   4.1513   4.1610   4.1796   4.1939   4.1975   4.2032
  4.2188   4.2253   4.2310   4.2437   4.2565   4.2683   4.2701   4.2855
  4.2909   4.3098   4.3255   4.3378   4.3413   4.3548   4.3661   4.3744
  4.3792   4.3932   4.4035   4.4063   4.4171   4.4312   4.4316   4.4529
  4.4581   4.4696   4.4929   4.4973   4.5079   4.5407   4.5483   4.5639
  4.5940   4.6085   4.6151   4.6298   4.6442   4.6635   4.6735   4.6829
  4.6900   4.7269   4.7550   4.7602   4.7843   4.8186   4.8291   4.8372
  4.8541   4.8798   4.8887   4.9182   4.9251   4.9442   4.9674   4.9880
  5.0428   5.0449   5.0897   5.1055   5.1282   5.1306   5.1444   5.1745
  5.1912   5.2190   5.2281   5.2751   5.2799   5.2958   5.3094   5.3150
  5.3497   5.3601   5.3864   5.3900   5.4038   5.4328   5.4387   5.4552
  5.4813   5.5091   5.5274   5.5429   5.5524   5.5616   5.5732   5.5899
  5.6183   5.6315   5.6400   5.6506   5.6789   5.7018   5.7112   5.7264
  5.7665   5.7954   5.8183   5.9661   6.0117   6.0602   6.0930   6.1467
  6.2067   6.2184   6.2290   6.2323   6.2494   6.2749   6.2899   6.3380
  6.3993   6.4205   9.4592  10.5429  12.4050  12.8202  13.1832  13.8603
 14.1250  14.2693  14.3559  14.7416
 --------------------------------------------------------------
 
          Ground-State Mulliken Net Atomic Charges

     Atom                 Charge (a.u.)
  ----------------------------------------
      1 C                    -0.083920
      2 C                    -0.314069
      3 C                    -0.074523
      4 H                     0.174963
      5 C                     0.114276
      6 S                    -0.190668
      7 C                    -0.288929
      8 H                     0.115855
      9 H                     0.107289
     10 H                     0.112600
     11 C                    -0.054090
     12 C                    -0.254205
     13 C                     0.031472
     14 H                     0.189124
     15 C                    -0.223848
     16 S                    -0.006775
     17 C                    -0.268032
     18 H                     0.103689
     19 H                     0.109339
     20 H                     0.108356
     21 H                     0.198946
     22 H                     0.109412
     23 H                     0.109530
     24 H                     0.174208
  ----------------------------------------
  Sum of atomic charges =     0.000000

 -----------------------------------------------------------------
                    Cartesian Multipole Moments
 -----------------------------------------------------------------
    Charge (ESU x 10^10)
                -0.0000
    Dipole Moment (Debye)
         X       1.2556      Y       0.1518      Z      -0.7288
       Tot       1.4597
    Quadrupole Moments (Debye-Ang)
        XX     -84.6138     XY       6.2997     YY     -80.1357
        XZ       1.0372     YZ       4.7261     ZZ     -85.9390
    Octopole Moments (Debye-Ang^2)
       XXX    -146.0134    XXY      85.6888    XYY     -39.2269
       YYY     176.0052    XXZ      -3.4628    XYZ      -4.1225
       YYZ      -2.6660    XZZ     -51.1914    YZZ      75.1016
       ZZZ       2.7023
    Hexadecapole Moments (Debye-Ang^3)
      XXXX    -831.0067   XXXY    -208.9290   XXYY    -534.6559
      XYYY    -227.3630   YYYY   -2304.9474   XXXZ    -204.1791
      XXYZ     -20.8164   XYYZ     -56.4875   YYYZ     -62.2787
      XXZZ    -293.1872   XYZZ     -52.4818   YYZZ    -568.3972
      XZZZ    -192.1886   YZZZ     -36.3655   ZZZZ    -967.6409
 -----------------------------------------------------------------
 Total job time:  674.54s(wall), 670.39s(cpu) 
 Sun Jul 10 06:59:28 2022

        *************************************************************
        *                                                           *
        *  Thank you very much for using Q-Chem.  Have a nice day.  *
        *                                                           *
        *************************************************************


remove work dirs ./qchem2637091.0 -- ./qchem2637091.-1
rm -rf ./qchem2637091
