You are running Q-Chem version: 5.4.0

#
# job setting
#
local host:  exp-2-23
current dir: /expanse/lustre/scratch/theleonzhang/temp_project/Hydrogenated_Rotation_Test
input file:  Methylthiophene_Phi_25_Theta_190_Methylthiophene_Hydrogenated_Alternate.qcin
output file: 
nprocs     : 0
nthreads   : 1
#
# qchem installation setting
#
QC:          /cm/shared/apps/spack/cpu/opt/spack/linux-centos8-zen2/gcc-10.2.0/qchem-5.4-akfmr7b3t57bfs6qan3padb2wnb2i7cl
QCAUX:       /cm/shared/apps/spack/cpu/opt/spack/linux-centos8-zen2/gcc-10.2.0/qchem-5.4-akfmr7b3t57bfs6qan3padb2wnb2i7cl/qcaux
QCPROG:      /cm/shared/apps/spack/cpu/opt/spack/linux-centos8-zen2/gcc-10.2.0/qchem-5.4-akfmr7b3t57bfs6qan3padb2wnb2i7cl/exe/qcprog.exe_s
QCPROG_S:    /cm/shared/apps/spack/cpu/opt/spack/linux-centos8-zen2/gcc-10.2.0/qchem-5.4-akfmr7b3t57bfs6qan3padb2wnb2i7cl/exe/qcprog.exe_s
PARALLEL:    -DSERIAL
QCMPI:       mpich
#
# qchem directory setting
#
qcrun:       qchem3722982
QCSCRATCH:   .
QCLOCALSCR:  
QCTMPDIR:    .
QCFILEPREF:  ./qchem3722982
QCSAVEDIR:   
workdirs:    ./qchem3722982
workdir0:    ./qchem3722982
partmpdirs =  
#
# parallel setting
#
QCRSH:           ssh
QCMPI:           mpich
QCMPIRUN:        /cm/shared/apps/spack/cpu/opt/spack/linux-centos8-zen2/gcc-10.2.0/qchem-5.4-akfmr7b3t57bfs6qan3padb2wnb2i7cl/bin/mpi/mpirun_qchem
QCMACHINEFILE:   ./qchem3722982/hostfile

#
# env setting
#
exported envs:   QC QCAUX QCSCRATCH QCRUNNAME QCFILEPREF QCPROG QCPROG_S GUIFILE

Running Job 1 of 1 Methylthiophene_Phi_25_Theta_190_Methylthiophene_Hydrogenated_Alternate.qcin
qchem Methylthiophene_Phi_25_Theta_190_Methylthiophene_Hydrogenated_Alternate.qcin_3722982.0 ./qchem3722982/ 0
/cm/shared/apps/spack/cpu/opt/spack/linux-centos8-zen2/gcc-10.2.0/qchem-5.4-akfmr7b3t57bfs6qan3padb2wnb2i7cl/exe/qcprog.exe_s Methylthiophene_Phi_25_Theta_190_Methylthiophene_Hydrogenated_Alternate.qcin_3722982.0 ./qchem3722982/
                  Welcome to Q-Chem
     A Quantum Leap Into The Future Of Chemistry


 Q-Chem 5.4, Q-Chem, Inc., Pleasanton, CA (2021)

 License issued to: University of California, San Diego (site)

 E. Epifanovsky,  A. T. B. Gilbert,  Xintian Feng,  Joonho Lee,  Yuezhi Mao,  
 N. Mardirossian,  P. Pokhilko,  A. White,  M. Wormit,  M. P. Coons,  
 A. L. Dempwolff,  Zhengting Gan,  D. Hait,  P. R. Horn,  L. D. Jacobson,  
 I. Kaliman,  J. Kussmann,  A. W. Lange,  Ka Un Lao,  D. S. Levine,  Jie Liu,  
 S. C. McKenzie,  A. F. Morrison,  K. Nanda,  F. Plasser,  D. R. Rehn,  
 M. L. Vidal,  Zhi-Qiang You,  Ying Zhu,  B. Alam,  B. Albrecht,  
 A. Aldossary,  E. Alguire,  J. H. Andersen,  D. Barton,  K. Begam,  A. Behn,  
 Y. A. Bernard,  E. J. Berquist,  H. Burton,  A. Carreras,  K. Carter-Fenk,  
 R. Chakraborty,  A. D. Chien,  K. D. Closser,  V. Cofer-Shabica,  
 S. Dasgupta,  Jia Deng,  M. de Wergifosse,  M. Diedenhofen,  Hainam Do,  
 S. Ehlert,  Po-Tung Fang,  S. Fatehi,  Qingguo Feng,  J. Gayvert,  
 Qinghui Ge,  G. Gidofalvi,  M. Goldey,  J. Gomes,  C. Gonzalez-Espinoza,  
 S. Gulania,  A. Gunina,  M. W. D. Hanson-Heine,  P. H. P. Harbach,  
 A. W. Hauser,  M. F. Herbst,  M. Hernandez Vera,  M. Hodecker,  
 Z. C. Holden,  S. Houck,  Xunkun Huang,  Kerwin Hui,  B. C. Huynh,  
 M. Ivanov,  Hyunjun Ji,  Hanjie Jiang,  B. Kaduk,  S. Kaehler,  
 K. Khistyaev,  Jaehoon Kim,  P. Klunzinger,  Z. Koczor-Benda,  
 Joong Hoon Koh,  D. Kosenkov,  L. Koulias,  T. Kowalczyk,  C. M. Krauter,  
 K. Kue,  A. Kunitsa,  T. Kus,  A. Landau,  K. V. Lawler,  D. Lefrancois,  
 S. Lehtola,  Rain Li,  Yi-Pei Li,  Jiashu Liang,  M. Liebenthal,  
 Hung-Hsuan Lin,  You-Sheng Lin,  Fenglai Liu,  Kuan-Yu Liu,  
 M. Loipersberger,  A. Luenser,  A. Manjanath,  P. Manohar,  E. Mansoor,  
 S. F. Manzer,  Shan-Ping Mao,  A. V. Marenich,  T. Markovich,  S. Mason,  
 S. A. Maurer,  P. F. McLaughlin,  M. F. S. J. Menger,  J.-M. Mewes,  
 S. A. Mewes,  P. Morgante,  J. W. Mullinax,  T. S. Nguyen-Beck,  
 K. J. Oosterbaan,  G. Paran,  Alexander C. Paul,  Suranjan K. Paul,  
 F. Pavosevic,  Zheng Pei,  S. Prager,  E. I. Proynov,  E. Ramos,  B. Rana,  
 A. E. Rask,  A. Rettig,  R. M. Richard,  F. Rob,  E. Rossomme,  T. Scheele,  
 M. Scheurer,  M. Schneider,  N. Sergueev,  S. M. Sharada,  W. Skomorowski,  
 D. W. Small,  C. J. Stein,  Yu-Chuan Su,  E. J. Sundstrom,  Zhen Tao,  
 J. Thirman,  T. Tsuchimochi,  N. M. Tubman,  S. P. Veccham,  O. Vydrov,  
 J. Wenzel,  J. Witte,  A. Yamada,  Kun Yao,  S. Yeganeh,  S. R. Yost,  
 A. Zech,  Igor Ying Zhang,  Xing Zhang,  Yu Zhang,  D. Zuev,  
 A. Aspuru-Guzik,  A. T. Bell,  N. A. Besley,  K. B. Bravaya,  B. R. Brooks,  
 D. Casanova,  Jeng-Da Chai,  S. Coriani,  C. J. Cramer,  
 A. E. DePrince, III,  R. A. DiStasio Jr.,  A. Dreuw,  B. D. Dunietz,  
 T. R. Furlani,  W. A. Goddard III,  S. Grimme,  S. Hammes-Schiffer,  
 T. Head-Gordon,  W. J. Hehre,  Chao-Ping Hsu,  T.-C. Jagau,  Yousung Jung,  
 A. Klamt,  Jing Kong,  D. S. Lambrecht,  WanZhen Liang,  N. J. Mayhall,  
 C. W. McCurdy,  J. B. Neaton,  C. Ochsenfeld,  J. A. Parkhill,  R. Peverati,  
 V. A. Rassolov,  Yihan Shao,  L. V. Slipchenko,  T. Stauch,  R. P. Steele,  
 J. E. Subotnik,  A. J. W. Thom,  A. Tkatchenko,  D. G. Truhlar,  
 T. Van Voorhis,  T. A. Wesolowski,  K. B. Whaley,  H. L. Woodcock III,  
 P. M. Zimmerman,  S. Faraji,  P. M. W. Gill,  M. Head-Gordon,  
 J. M. Herbert,  A. I. Krylov

 Contributors to earlier versions of Q-Chem not listed above: 
 R. D. Adamson,  B. Austin,  R. Baer,  J. Baker,  G. J. O. Beran,  
 K. Brandhorst,  S. T. Brown,  E. F. C. Byrd,  A. K. Chakraborty,  
 G. K. L. Chan,  Chun-Min Chang,  Yunqing Chen,  C.-L. Cheng,  
 Siu Hung Chien,  D. M. Chipman,  D. L. Crittenden,  H. Dachsel,  
 R. J. Doerksen,  A. D. Dutoi,  R. G. Edgar,  J. Fosso-Tande,  
 L. Fusti-Molnar,  D. Ghosh,  A. Ghysels,  A. Golubeva-Zadorozhnaya,  
 J. Gonthier,  M. S. Gordon,  S. R. Gwaltney,  G. Hawkins,  J. E. Herr,  
 A. Heyden,  S. Hirata,  E. G. Hohenstein,  G. Kedziora,  F. J. Keil,  
 C. Kelley,  Jihan Kim,  R. A. King,  R. Z. Khaliullin,  P. P. Korambath,  
 W. Kurlancheek,  A. Laurent,  A. M. Lee,  M. S. Lee,  S. V. Levchenko,  
 Ching Yeh Lin,  D. Liotard,  E. Livshits,  R. C. Lochan,  I. Lotan,  
 L. A. Martinez-Martinez,  P. E. Maslen,  N. Nair,  D. P. O'Neill,  
 D. Neuhauser,  E. Neuscamman,  C. M. Oana,  R. Olivares-Amaya,  R. Olson,  
 T. M. Perrine,  B. Peters,  P. A. Pieniazek,  A. Prociuk,  Y. M. Rhee,  
 J. Ritchie,  M. A. Rohrdanz,  E. Rosta,  N. J. Russ,  H. F. Schaefer III,  
 M. W. Schmidt,  N. E. Schultz,  S. Sharma,  N. Shenvi,  C. D. Sherrill,  
 A. C. Simmonett,  A. Sodt,  T. Stein,  D. Stuck,  K. S. Thanthiriwatte,  
 V. Vanovschi,  L. Vogt,  Tao Wang,  A. Warshel,  M. A. Watson,  
 C. F. Williams,  Q. Wu,  X. Xu,  Jun Yang,  W. Zhang,  Yan Zhao

 Please cite Q-Chem as follows:
 Y. Shao et al., Mol. Phys. 113, 184-215 (2015)
 DOI: 10.1080/00268976.2014.952696

 Q-Chem 5.4.0 for Intel X86 EM64T Linux

 Parts of Q-Chem use Armadillo 9.800.1 (Horizon Scraper).
 http://arma.sourceforge.net/

 Q-Chem begins on Sun Jul 10 04:18:03 2022  

 Host: 
0

     Scratch files written to ./qchem3722982//
 May1621 |scratch|qcdevops|jenkins|workspace|build_RNUM    
 Processing $rem in /cm/shared/apps/spack/cpu/opt/spack/linux-centos8-zen2/gcc-10.2.0/qchem-5.4-akfmr7b3t57bfs6qan3padb2wnb2i7cl/config/preferences:
 Processing $rem in /home/theleonzhang/.qchemrc:
 Symmetry turned off for PCM/SM12/SMD calculation
 Core orbitals will be frozen

 Checking the input file for inconsistencies... 	...done.

--------------------------------------------------------------
User input:
--------------------------------------------------------------
$molecule
0 1
C	0.135301	-3.866725	-0.763228
C	-0.106073	-3.703963	0.603311
C	-0.185286	-2.357056	1.050423
H	-0.225783	-4.561092	1.283188
C	-0.000000	-1.440664	-0.000000
S	0.268187	-2.286957	-1.521021
C	-0.438209	-1.978743	2.483507
H	-0.550153	-2.878678	3.118798
H	-1.363906	-1.376015	2.593381
H	0.393798	-1.375728	2.903516
C	0.000000	0.000000	0.000000
C	0.365003	0.782674	1.099446
C	0.949885	2.036912	0.776721
H	0.209135	0.448431	2.136088
C	1.043159	2.236886	-0.612546
S	0.398297	0.854094	-1.486809
C	1.409609	3.022738	1.814609
H	1.229726	2.636980	2.836676
H	0.877346	3.992870	1.726239
H	2.494910	3.238558	1.726228
H	1.444334	3.097160	-1.161575
H	-0.688674	-4.392713	-1.258111
H	1.079084	-4.392347	-0.946272
H	1.063572	-1.440391	0.187654
$end

$rem
JOBTYPE		SP
EXCHANGE	HF
CORRELATION	pRIMP2
BASIS		cc-pvtz
METHOD		rimp2
AUX_BASIS	rimp2-cc-pvtz
SOLVENT_METHOD	PCM
PURECART	11111
SYMMETRY	false
MEM_TOTAL	110000
SCF_CONVERGENCE = 6
THRESH=10
$end



$solvent
dielectric 4.90
$end
--------------------------------------------------------------
 ----------------------------------------------------------------
             Standard Nuclear Orientation (Angstroms)
    I     Atom           X                Y                Z
 ----------------------------------------------------------------
    1      C       0.1353010000    -3.8667250000    -0.7632280000
    2      C      -0.1060730000    -3.7039630000     0.6033110000
    3      C      -0.1852860000    -2.3570560000     1.0504230000
    4      H      -0.2257830000    -4.5610920000     1.2831880000
    5      C       0.0000000000    -1.4406640000     0.0000000000
    6      S       0.2681870000    -2.2869570000    -1.5210210000
    7      C      -0.4382090000    -1.9787430000     2.4835070000
    8      H      -0.5501530000    -2.8786780000     3.1187980000
    9      H      -1.3639060000    -1.3760150000     2.5933810000
   10      H       0.3937980000    -1.3757280000     2.9035160000
   11      C       0.0000000000     0.0000000000     0.0000000000
   12      C       0.3650030000     0.7826740000     1.0994460000
   13      C       0.9498850000     2.0369120000     0.7767210000
   14      H       0.2091350000     0.4484310000     2.1360880000
   15      C       1.0431590000     2.2368860000    -0.6125460000
   16      S       0.3982970000     0.8540940000    -1.4868090000
   17      C       1.4096090000     3.0227380000     1.8146090000
   18      H       1.2297260000     2.6369800000     2.8366760000
   19      H       0.8773460000     3.9928700000     1.7262390000
   20      H       2.4949100000     3.2385580000     1.7262280000
   21      H       1.4443340000     3.0971600000    -1.1615750000
   22      H      -0.6886740000    -4.3927130000    -1.2581110000
   23      H       1.0790840000    -4.3923470000    -0.9462720000
   24      H       1.0635720000    -1.4403910000     0.1876540000
 ----------------------------------------------------------------
 Nuclear Repulsion Energy =         881.03828852 hartrees
 There are       52 alpha and       52 beta electrons

 Q-Chem warning in module forms1/BasisType.C, line 2236:

 You are not using the predefined 5D/6D in this basis set.

 Requested basis set is cc-pVTZ
 There are 196 shells and 536 basis functions

 Total QAlloc Memory Limit 110000 MB
 Mega-Array Size       188 MB
 MEM_STATIC part       192 MB
 Discretize the solute cavity surface with Lebedev spheres
	Using 110 Lebedev grid points for each H atom
	Using 194 Lebedev grid points for other atoms
	Atomic van der Waals radii will be scaled by 1.20
 Remove points where switching function is < 1.0e-08
 Keep 1585 surface tesserae and discard 2063 interior tesserae
 Molecular Surface Area = 230.313 Angst**2
 Requested basis set is rimp2-cc-pVTZ
 There are 414 shells and 1414 basis functions
 A cutoff of  1.0D-10 yielded  14140 shell pairs
 There are    102360 function pairs (    131171 Cartesian)
 Smallest overlap matrix eigenvalue = 6.33E-05

 Scale SEOQF with 1.000000e-01/1.000000e-01/1.000000e-01

 Standard Electronic Orientation quadrupole field applied
 Nucleus-field energy     =     0.0000000203 hartrees
 Guess from superposition of atomic densities
 Warning:  Energy on first SCF cycle will be non-variational
 SAD guess density has 104.000000 electrons

 -----------------------------------------------------------------------
  General SCF calculation program by
  Eric Jon Sundstrom, Paul Horn, Yuezhi Mao, Dmitri Zuev, Alec White,
  David Stuck, Shaama M.S., Shane Yost, Joonho Lee, David Small,
  Daniel Levine, Susi Lehtola, Hugh Burton, Evgeny Epifanovsky,
  Bang C. Huynh
 -----------------------------------------------------------------------
 Hartree-Fock
 A restricted SCF calculation will be
 performed using DIIS
 SCF converges when DIIS error is below 1.0e-06
 ---------------------------------------
  Cycle       Energy         DIIS error
 ---------------------------------------
    1   -1186.0852131974      2.39e-02  
    2   -1180.5959974240      1.59e-03  
    3   -1180.7232175384      6.58e-04  
    4   -1180.7394648139      3.48e-04  
    5   -1180.7451487687      6.06e-05  
    6   -1180.7454082920      2.54e-05  
    7   -1180.7454704660      8.89e-06  
    8   -1180.7454834496      4.21e-06  
    9   -1180.7454862556      1.45e-06  
   10   -1180.7454867076      4.97e-07  Convergence criterion met
 ---------------------------------------
 SCF time:   CPU 581.09s  wall 583.00s 

************** Final PCM Free Energy Summary **************
 G_electrostatic  =      -0.00952666 hartree =      -5.97807155 kcal/mol
 G_cavitation     =       0.00000000 hartree =       0.00000000 kcal/mol
 G_dispersion     =       0.00000000 hartree =       0.00000000 kcal/mol
 G_repulsion      =       0.00000000 hartree =       0.00000000 kcal/mol
 --------------------------------------------------
 Non-electrostatic Free Energy =       0.00000000 hartree =       0.00000000 kcal/mol
 Total                         =      -0.00952666 hartree =      -5.97807155 kcal/mol
 --------------------------------------------------
 SCF Energy (H0 + V/2)                       =   -1180.74548671 
 Solute Internal Energy (H0)                 =   -1180.73596004 
 Total Free Energy (H0 + V/2 + non-elec)     =   -1180.74548671 hartree
                                             = -740928.97574950 kcal/mol
***********************************************************

 SCF   energy in the final basis set =    -1180.7454867076
 Total energy in the final basis set =    -1180.7454867076


 --------------------------------------------------------------
  Generalized many-body perturbation theory program
  by Joonho Lee, Fazle Rob, Xintian Feng, Evgeny Epifanovsky

 No regularization used 
 (reg. param. = 0.0000e+00)
  (P|Q)^-1/2 Time:  CPU 1.88 s  wall 1.89 s

 In RI-MP2 calculation: 
 # of frozen core orbitals: 20

 Components of the RIMP2 correlation energy:
        aaaa    correlation energy =        -0.2522052105 a.u.
        abab    correlation energy =        -1.5049127518 a.u.
        bbbb    correlation energy =        -0.2522052105 a.u.
        non-Brillouin singles      =        -0.0000000000 a.u.
        total same-spin energy     =        -0.5044104210 a.u.
        total opposite-spin energy =        -1.5049127518 a.u.

 Total  RIMP2   correlation energy =        -2.0093231728 a.u.
        RIMP2         total energy =     -1182.7548098803 a.u.

 RI-MP2 Energy Time:  CPU 79.45 s  wall 79.73 s
 
 --------------------------------------------------------------
 
                    Orbital Energies (a.u.)
 --------------------------------------------------------------
 
 Alpha MOs
 -- Occupied --
-91.9840 -91.9444 -11.2884 -11.2653 -11.2616 -11.2550 -11.2503 -11.2434
-11.2341 -11.2283 -11.2282 -11.2237  -8.9838  -8.9491  -6.6647  -6.6641
 -6.6635  -6.6305  -6.6295  -6.6282  -1.2039  -1.1523  -1.0605  -1.0325
 -1.0004  -0.9615  -0.9157  -0.8997  -0.8172  -0.7628  -0.7266  -0.7054
 -0.6605  -0.6487  -0.6109  -0.5935  -0.5860  -0.5695  -0.5590  -0.5537
 -0.5441  -0.5359  -0.5232  -0.5027  -0.4847  -0.4814  -0.4691  -0.4405
 -0.3614  -0.3440  -0.3234  -0.2623
 -- Virtual --
  0.0951   0.1293   0.1451   0.1506   0.1562   0.1686   0.1738   0.1864
  0.1899   0.2026   0.2086   0.2149   0.2247   0.2333   0.2381   0.2425
  0.2585   0.2729   0.2872   0.3083   0.3154   0.3200   0.3492   0.3614
  0.3708   0.3754   0.3840   0.3883   0.4002   0.4076   0.4210   0.4265
  0.4333   0.4443   0.4592   0.4693   0.4738   0.4795   0.4857   0.4924
  0.5051   0.5130   0.5276   0.5352   0.5397   0.5466   0.5522   0.5642
  0.5714   0.5817   0.5863   0.5984   0.6013   0.6086   0.6156   0.6224
  0.6229   0.6319   0.6336   0.6383   0.6390   0.6503   0.6545   0.6611
  0.6710   0.6730   0.6813   0.6901   0.6917   0.7101   0.7261   0.7298
  0.7386   0.7520   0.7648   0.7737   0.7861   0.7882   0.7993   0.8220
  0.8362   0.8452   0.8513   0.8685   0.8850   0.8923   0.9036   0.9209
  0.9400   0.9460   0.9522   0.9540   0.9728   0.9833   0.9941   1.0041
  1.0228   1.0253   1.0360   1.0507   1.0561   1.0564   1.0657   1.0740
  1.0885   1.0971   1.0982   1.1247   1.1434   1.1509   1.1607   1.1756
  1.1833   1.1927   1.1950   1.2075   1.2128   1.2168   1.2274   1.2436
  1.2464   1.2581   1.2657   1.2677   1.2779   1.2908   1.3034   1.3126
  1.3211   1.3289   1.3326   1.3653   1.3756   1.3886   1.4007   1.4189
  1.4269   1.4378   1.4498   1.4577   1.4718   1.4842   1.4906   1.4990
  1.5089   1.5201   1.5294   1.5344   1.5393   1.5473   1.5524   1.5645
  1.5747   1.5861   1.5935   1.6173   1.6219   1.6287   1.6350   1.6446
  1.6581   1.6609   1.6736   1.6845   1.6875   1.7153   1.7194   1.7341
  1.7464   1.7645   1.7845   1.8014   1.8298   1.8342   1.8350   1.8663
  1.8878   1.9037   1.9154   1.9471   1.9515   1.9852   1.9990   2.0036
  2.0172   2.0374   2.0622   2.0670   2.0988   2.1106   2.1499   2.1637
  2.1748   2.1900   2.2167   2.2215   2.2342   2.2470   2.2686   2.2752
  2.3000   2.3047   2.3131   2.3884   2.4167   2.4384   2.4455   2.4723
  2.4913   2.5164   2.5287   2.5528   2.5660   2.5765   2.5955   2.6048
  2.6341   2.6483   2.6618   2.6743   2.6773   2.7103   2.7195   2.7322
  2.7441   2.7507   2.7659   2.7718   2.7798   2.7928   2.8106   2.8168
  2.8286   2.8465   2.8591   2.8804   2.8953   2.9027   2.9170   2.9351
  2.9533   2.9721   2.9803   2.9928   3.0042   3.0268   3.0400   3.0438
  3.0638   3.0935   3.1016   3.1106   3.1154   3.1258   3.1385   3.1405
  3.1445   3.1563   3.1632   3.1706   3.1885   3.1977   3.2066   3.2091
  3.2327   3.2371   3.2524   3.2554   3.2618   3.2847   3.2904   3.2998
  3.3132   3.3162   3.3299   3.3382   3.3464   3.3507   3.3558   3.3732
  3.3756   3.3865   3.3939   3.4034   3.4123   3.4192   3.4248   3.4357
  3.4475   3.4487   3.4631   3.4700   3.4731   3.4850   3.4940   3.5092
  3.5138   3.5258   3.5340   3.5456   3.5476   3.5610   3.5705   3.5822
  3.5973   3.6071   3.6137   3.6256   3.6338   3.6488   3.6519   3.6636
  3.6817   3.6942   3.6964   3.7035   3.7120   3.7261   3.7327   3.7445
  3.7517   3.7606   3.7683   3.7752   3.7862   3.7879   3.8076   3.8201
  3.8275   3.8306   3.8547   3.8678   3.8716   3.8865   3.8947   3.9114
  3.9217   3.9445   3.9576   3.9659   3.9816   3.9975   4.0056   4.0242
  4.0372   4.0429   4.0586   4.0735   4.0745   4.0900   4.0958   4.1117
  4.1203   4.1436   4.1493   4.1538   4.1585   4.1722   4.1977   4.2075
  4.2124   4.2249   4.2308   4.2395   4.2632   4.2682   4.2788   4.2953
  4.3073   4.3147   4.3296   4.3447   4.3500   4.3600   4.3718   4.3781
  4.3840   4.3976   4.4034   4.4115   4.4160   4.4396   4.4426   4.4496
  4.4636   4.4776   4.4859   4.4961   4.5090   4.5262   4.5404   4.5689
  4.5944   4.5967   4.6050   4.6359   4.6454   4.6636   4.6650   4.6947
  4.7155   4.7373   4.7403   4.7823   4.7878   4.8252   4.8337   4.8525
  4.8753   4.8772   4.8924   4.9206   4.9448   4.9705   4.9801   5.0129
  5.0490   5.0815   5.0824   5.1069   5.1192   5.1297   5.1450   5.2033
  5.2167   5.2224   5.2544   5.2636   5.2772   5.2993   5.3124   5.3188
  5.3518   5.3727   5.3815   5.3977   5.4118   5.4240   5.4328   5.4429
  5.4779   5.5186   5.5318   5.5457   5.5521   5.5701   5.5835   5.5890
  5.6216   5.6286   5.6334   5.6490   5.6792   5.7023   5.7056   5.7412
  5.7751   5.8170   5.8363   5.9441   6.0163   6.0819   6.1365   6.1721
  6.2191   6.2284   6.2337   6.2590   6.2710   6.2888   6.3062   6.3345
  6.4283   6.4909   9.4897  10.8429  12.1123  12.9158  13.1651  13.8866
 14.1230  14.2124  14.3752  14.9785
 --------------------------------------------------------------
 
          Ground-State Mulliken Net Atomic Charges

     Atom                 Charge (a.u.)
  ----------------------------------------
      1 C                    -0.078726
      2 C                    -0.301603
      3 C                    -0.071473
      4 H                     0.177911
      5 C                     0.111551
      6 S                    -0.183580
      7 C                    -0.299815
      8 H                     0.121031
      9 H                     0.115852
     10 H                     0.100676
     11 C                    -0.009924
     12 C                    -0.305765
     13 C                     0.049746
     14 H                     0.184082
     15 C                    -0.284698
     16 S                     0.011711
     17 C                    -0.271036
     18 H                     0.100689
     19 H                     0.108785
     20 H                     0.107803
     21 H                     0.197360
     22 H                     0.111828
     23 H                     0.112411
     24 H                     0.195185
  ----------------------------------------
  Sum of atomic charges =     0.000000

 -----------------------------------------------------------------
                    Cartesian Multipole Moments
 -----------------------------------------------------------------
    Charge (ESU x 10^10)
                -0.0000
    Dipole Moment (Debye)
         X       1.0518      Y      -0.5271      Z       3.8478
       Tot       4.0236
    Quadrupole Moments (Debye-Ang)
        XX     -89.8026     XY       2.9211     YY     -74.8321
        XZ       0.1713     YZ      -2.8167     ZZ     -85.7867
    Octopole Moments (Debye-Ang^2)
       XXX     -89.6065    XXY      56.4825    XYY     -14.6732
       YYY     125.2295    XXZ      -3.0726    XYZ       1.0096
       YYZ      -3.4844    XZZ     -28.2361    YZZ      55.3154
       ZZZ       7.5590
    Hexadecapole Moments (Debye-Ang^3)
      XXXX    -333.1834   XXXY    -190.0422   XXYY    -536.4580
      XYYY    -160.1227   YYYY   -2624.6948   XXXZ      10.5495
      XXYZ     -28.8053   XYYZ     -10.4373   YYYZ     -93.8947
      XXZZ    -243.0195   XYZZ     -47.1179   YYZZ    -633.3050
      XZZZ       1.4197   YZZZ    -122.9839   ZZZZ   -1083.2095
 -----------------------------------------------------------------
 Total job time:  665.12s(wall), 661.43s(cpu) 
 Sun Jul 10 04:29:08 2022

        *************************************************************
        *                                                           *
        *  Thank you very much for using Q-Chem.  Have a nice day.  *
        *                                                           *
        *************************************************************


remove work dirs ./qchem3722982.0 -- ./qchem3722982.-1
rm -rf ./qchem3722982
