You are running Q-Chem version: 5.4.0

#
# job setting
#
local host:  exp-1-17
current dir: /expanse/lustre/scratch/theleonzhang/temp_project/Hydrogenated_Rotation_Test
input file:  Methylthiophene_Phi_0_Theta_290_Methylthiophene_Hydrogenated.qcin
output file: 
nprocs     : 0
nthreads   : 1
#
# qchem installation setting
#
QC:          /cm/shared/apps/spack/cpu/opt/spack/linux-centos8-zen2/gcc-10.2.0/qchem-5.4-akfmr7b3t57bfs6qan3padb2wnb2i7cl
QCAUX:       /cm/shared/apps/spack/cpu/opt/spack/linux-centos8-zen2/gcc-10.2.0/qchem-5.4-akfmr7b3t57bfs6qan3padb2wnb2i7cl/qcaux
QCPROG:      /cm/shared/apps/spack/cpu/opt/spack/linux-centos8-zen2/gcc-10.2.0/qchem-5.4-akfmr7b3t57bfs6qan3padb2wnb2i7cl/exe/qcprog.exe_s
QCPROG_S:    /cm/shared/apps/spack/cpu/opt/spack/linux-centos8-zen2/gcc-10.2.0/qchem-5.4-akfmr7b3t57bfs6qan3padb2wnb2i7cl/exe/qcprog.exe_s
PARALLEL:    -DSERIAL
QCMPI:       mpich
#
# qchem directory setting
#
qcrun:       qchem3572802
QCSCRATCH:   .
QCLOCALSCR:  
QCTMPDIR:    .
QCFILEPREF:  ./qchem3572802
QCSAVEDIR:   
workdirs:    ./qchem3572802
workdir0:    ./qchem3572802
partmpdirs =  
#
# parallel setting
#
QCRSH:           ssh
QCMPI:           mpich
QCMPIRUN:        /cm/shared/apps/spack/cpu/opt/spack/linux-centos8-zen2/gcc-10.2.0/qchem-5.4-akfmr7b3t57bfs6qan3padb2wnb2i7cl/bin/mpi/mpirun_qchem
QCMACHINEFILE:   ./qchem3572802/hostfile

#
# env setting
#
exported envs:   QC QCAUX QCSCRATCH QCRUNNAME QCFILEPREF QCPROG QCPROG_S GUIFILE

Running Job 1 of 1 Methylthiophene_Phi_0_Theta_290_Methylthiophene_Hydrogenated.qcin
qchem Methylthiophene_Phi_0_Theta_290_Methylthiophene_Hydrogenated.qcin_3572802.0 ./qchem3572802/ 0
/cm/shared/apps/spack/cpu/opt/spack/linux-centos8-zen2/gcc-10.2.0/qchem-5.4-akfmr7b3t57bfs6qan3padb2wnb2i7cl/exe/qcprog.exe_s Methylthiophene_Phi_0_Theta_290_Methylthiophene_Hydrogenated.qcin_3572802.0 ./qchem3572802/
                  Welcome to Q-Chem
     A Quantum Leap Into The Future Of Chemistry


 Q-Chem 5.4, Q-Chem, Inc., Pleasanton, CA (2021)

 License issued to: University of California, San Diego (site)

 E. Epifanovsky,  A. T. B. Gilbert,  Xintian Feng,  Joonho Lee,  Yuezhi Mao,  
 N. Mardirossian,  P. Pokhilko,  A. White,  M. Wormit,  M. P. Coons,  
 A. L. Dempwolff,  Zhengting Gan,  D. Hait,  P. R. Horn,  L. D. Jacobson,  
 I. Kaliman,  J. Kussmann,  A. W. Lange,  Ka Un Lao,  D. S. Levine,  Jie Liu,  
 S. C. McKenzie,  A. F. Morrison,  K. Nanda,  F. Plasser,  D. R. Rehn,  
 M. L. Vidal,  Zhi-Qiang You,  Ying Zhu,  B. Alam,  B. Albrecht,  
 A. Aldossary,  E. Alguire,  J. H. Andersen,  D. Barton,  K. Begam,  A. Behn,  
 Y. A. Bernard,  E. J. Berquist,  H. Burton,  A. Carreras,  K. Carter-Fenk,  
 R. Chakraborty,  A. D. Chien,  K. D. Closser,  V. Cofer-Shabica,  
 S. Dasgupta,  Jia Deng,  M. de Wergifosse,  M. Diedenhofen,  Hainam Do,  
 S. Ehlert,  Po-Tung Fang,  S. Fatehi,  Qingguo Feng,  J. Gayvert,  
 Qinghui Ge,  G. Gidofalvi,  M. Goldey,  J. Gomes,  C. Gonzalez-Espinoza,  
 S. Gulania,  A. Gunina,  M. W. D. Hanson-Heine,  P. H. P. Harbach,  
 A. W. Hauser,  M. F. Herbst,  M. Hernandez Vera,  M. Hodecker,  
 Z. C. Holden,  S. Houck,  Xunkun Huang,  Kerwin Hui,  B. C. Huynh,  
 M. Ivanov,  Hyunjun Ji,  Hanjie Jiang,  B. Kaduk,  S. Kaehler,  
 K. Khistyaev,  Jaehoon Kim,  P. Klunzinger,  Z. Koczor-Benda,  
 Joong Hoon Koh,  D. Kosenkov,  L. Koulias,  T. Kowalczyk,  C. M. Krauter,  
 K. Kue,  A. Kunitsa,  T. Kus,  A. Landau,  K. V. Lawler,  D. Lefrancois,  
 S. Lehtola,  Rain Li,  Yi-Pei Li,  Jiashu Liang,  M. Liebenthal,  
 Hung-Hsuan Lin,  You-Sheng Lin,  Fenglai Liu,  Kuan-Yu Liu,  
 M. Loipersberger,  A. Luenser,  A. Manjanath,  P. Manohar,  E. Mansoor,  
 S. F. Manzer,  Shan-Ping Mao,  A. V. Marenich,  T. Markovich,  S. Mason,  
 S. A. Maurer,  P. F. McLaughlin,  M. F. S. J. Menger,  J.-M. Mewes,  
 S. A. Mewes,  P. Morgante,  J. W. Mullinax,  T. S. Nguyen-Beck,  
 K. J. Oosterbaan,  G. Paran,  Alexander C. Paul,  Suranjan K. Paul,  
 F. Pavosevic,  Zheng Pei,  S. Prager,  E. I. Proynov,  E. Ramos,  B. Rana,  
 A. E. Rask,  A. Rettig,  R. M. Richard,  F. Rob,  E. Rossomme,  T. Scheele,  
 M. Scheurer,  M. Schneider,  N. Sergueev,  S. M. Sharada,  W. Skomorowski,  
 D. W. Small,  C. J. Stein,  Yu-Chuan Su,  E. J. Sundstrom,  Zhen Tao,  
 J. Thirman,  T. Tsuchimochi,  N. M. Tubman,  S. P. Veccham,  O. Vydrov,  
 J. Wenzel,  J. Witte,  A. Yamada,  Kun Yao,  S. Yeganeh,  S. R. Yost,  
 A. Zech,  Igor Ying Zhang,  Xing Zhang,  Yu Zhang,  D. Zuev,  
 A. Aspuru-Guzik,  A. T. Bell,  N. A. Besley,  K. B. Bravaya,  B. R. Brooks,  
 D. Casanova,  Jeng-Da Chai,  S. Coriani,  C. J. Cramer,  
 A. E. DePrince, III,  R. A. DiStasio Jr.,  A. Dreuw,  B. D. Dunietz,  
 T. R. Furlani,  W. A. Goddard III,  S. Grimme,  S. Hammes-Schiffer,  
 T. Head-Gordon,  W. J. Hehre,  Chao-Ping Hsu,  T.-C. Jagau,  Yousung Jung,  
 A. Klamt,  Jing Kong,  D. S. Lambrecht,  WanZhen Liang,  N. J. Mayhall,  
 C. W. McCurdy,  J. B. Neaton,  C. Ochsenfeld,  J. A. Parkhill,  R. Peverati,  
 V. A. Rassolov,  Yihan Shao,  L. V. Slipchenko,  T. Stauch,  R. P. Steele,  
 J. E. Subotnik,  A. J. W. Thom,  A. Tkatchenko,  D. G. Truhlar,  
 T. Van Voorhis,  T. A. Wesolowski,  K. B. Whaley,  H. L. Woodcock III,  
 P. M. Zimmerman,  S. Faraji,  P. M. W. Gill,  M. Head-Gordon,  
 J. M. Herbert,  A. I. Krylov

 Contributors to earlier versions of Q-Chem not listed above: 
 R. D. Adamson,  B. Austin,  R. Baer,  J. Baker,  G. J. O. Beran,  
 K. Brandhorst,  S. T. Brown,  E. F. C. Byrd,  A. K. Chakraborty,  
 G. K. L. Chan,  Chun-Min Chang,  Yunqing Chen,  C.-L. Cheng,  
 Siu Hung Chien,  D. M. Chipman,  D. L. Crittenden,  H. Dachsel,  
 R. J. Doerksen,  A. D. Dutoi,  R. G. Edgar,  J. Fosso-Tande,  
 L. Fusti-Molnar,  D. Ghosh,  A. Ghysels,  A. Golubeva-Zadorozhnaya,  
 J. Gonthier,  M. S. Gordon,  S. R. Gwaltney,  G. Hawkins,  J. E. Herr,  
 A. Heyden,  S. Hirata,  E. G. Hohenstein,  G. Kedziora,  F. J. Keil,  
 C. Kelley,  Jihan Kim,  R. A. King,  R. Z. Khaliullin,  P. P. Korambath,  
 W. Kurlancheek,  A. Laurent,  A. M. Lee,  M. S. Lee,  S. V. Levchenko,  
 Ching Yeh Lin,  D. Liotard,  E. Livshits,  R. C. Lochan,  I. Lotan,  
 L. A. Martinez-Martinez,  P. E. Maslen,  N. Nair,  D. P. O'Neill,  
 D. Neuhauser,  E. Neuscamman,  C. M. Oana,  R. Olivares-Amaya,  R. Olson,  
 T. M. Perrine,  B. Peters,  P. A. Pieniazek,  A. Prociuk,  Y. M. Rhee,  
 J. Ritchie,  M. A. Rohrdanz,  E. Rosta,  N. J. Russ,  H. F. Schaefer III,  
 M. W. Schmidt,  N. E. Schultz,  S. Sharma,  N. Shenvi,  C. D. Sherrill,  
 A. C. Simmonett,  A. Sodt,  T. Stein,  D. Stuck,  K. S. Thanthiriwatte,  
 V. Vanovschi,  L. Vogt,  Tao Wang,  A. Warshel,  M. A. Watson,  
 C. F. Williams,  Q. Wu,  X. Xu,  Jun Yang,  W. Zhang,  Yan Zhao

 Please cite Q-Chem as follows:
 Y. Shao et al., Mol. Phys. 113, 184-215 (2015)
 DOI: 10.1080/00268976.2014.952696

 Q-Chem 5.4.0 for Intel X86 EM64T Linux

 Parts of Q-Chem use Armadillo 9.800.1 (Horizon Scraper).
 http://arma.sourceforge.net/

 Q-Chem begins on Sun Jul 10 04:10:29 2022  

 Host: 
0

     Scratch files written to ./qchem3572802//
 May1621 |scratch|qcdevops|jenkins|workspace|build_RNUM    
 Processing $rem in /cm/shared/apps/spack/cpu/opt/spack/linux-centos8-zen2/gcc-10.2.0/qchem-5.4-akfmr7b3t57bfs6qan3padb2wnb2i7cl/config/preferences:
 Processing $rem in /home/theleonzhang/.qchemrc:
 Symmetry turned off for PCM/SM12/SMD calculation
 Core orbitals will be frozen

 Checking the input file for inconsistencies... 	...done.

--------------------------------------------------------------
User input:
--------------------------------------------------------------
$molecule
0 1
C	0.728138	-3.866725	0.265779
C	-0.575726	-3.703963	-0.209225
C	-1.002290	-2.357056	-0.364875
H	-1.224486	-4.561092	-0.445176
C	0.000000	-1.440664	0.000000
S	1.451343	-2.286957	0.528236
C	-2.369683	-1.978743	-0.862808
H	-2.975883	-2.878678	-1.083368
H	-2.317142	-1.376015	-1.793522
H	-2.927787	-1.375728	-0.116375
C	0.000000	0.000000	0.000000
C	0.000033	0.863600	1.099446
C	0.000052	2.247508	0.776721
H	0.000026	0.494801	2.136088
C	0.000074	2.468165	-0.612546
S	0.000024	0.942399	-1.486809
C	0.000075	3.335257	1.814609
H	0.000074	2.909620	2.836676
H	-0.892314	3.989552	1.726239
H	0.892483	3.989525	1.726228
H	0.000094	3.417382	-1.161575
H	1.358585	-4.392713	-0.459743
H	0.744515	-4.392347	1.227009
H	-0.369490	-1.440391	1.014829
$end

$rem
JOBTYPE		SP
EXCHANGE	HF
CORRELATION	pRIMP2
BASIS		cc-pvtz
METHOD		rimp2
AUX_BASIS	rimp2-cc-pvtz
SOLVENT_METHOD	PCM
PURECART	11111
SYMMETRY	false
MEM_TOTAL	110000
SCF_CONVERGENCE = 6
THRESH=10
$end



$solvent
dielectric 4.90
$end
--------------------------------------------------------------
 ----------------------------------------------------------------
             Standard Nuclear Orientation (Angstroms)
    I     Atom           X                Y                Z
 ----------------------------------------------------------------
    1      C       0.7281380000    -3.8667250000     0.2657790000
    2      C      -0.5757260000    -3.7039630000    -0.2092250000
    3      C      -1.0022900000    -2.3570560000    -0.3648750000
    4      H      -1.2244860000    -4.5610920000    -0.4451760000
    5      C       0.0000000000    -1.4406640000     0.0000000000
    6      S       1.4513430000    -2.2869570000     0.5282360000
    7      C      -2.3696830000    -1.9787430000    -0.8628080000
    8      H      -2.9758830000    -2.8786780000    -1.0833680000
    9      H      -2.3171420000    -1.3760150000    -1.7935220000
   10      H      -2.9277870000    -1.3757280000    -0.1163750000
   11      C       0.0000000000     0.0000000000     0.0000000000
   12      C       0.0000330000     0.8636000000     1.0994460000
   13      C       0.0000520000     2.2475080000     0.7767210000
   14      H       0.0000260000     0.4948010000     2.1360880000
   15      C       0.0000740000     2.4681650000    -0.6125460000
   16      S       0.0000240000     0.9423990000    -1.4868090000
   17      C       0.0000750000     3.3352570000     1.8146090000
   18      H       0.0000740000     2.9096200000     2.8366760000
   19      H      -0.8923140000     3.9895520000     1.7262390000
   20      H       0.8924830000     3.9895250000     1.7262280000
   21      H       0.0000940000     3.4173820000    -1.1615750000
   22      H       1.3585850000    -4.3927130000    -0.4597430000
   23      H       0.7445150000    -4.3923470000     1.2270090000
   24      H      -0.3694900000    -1.4403910000     1.0148290000
 ----------------------------------------------------------------
 Nuclear Repulsion Energy =         871.60096711 hartrees
 There are       52 alpha and       52 beta electrons

 Q-Chem warning in module forms1/BasisType.C, line 2236:

 You are not using the predefined 5D/6D in this basis set.

 Requested basis set is cc-pVTZ
 There are 196 shells and 536 basis functions

 Total QAlloc Memory Limit 110000 MB
 Mega-Array Size       188 MB
 MEM_STATIC part       192 MB
 Discretize the solute cavity surface with Lebedev spheres
	Using 110 Lebedev grid points for each H atom
	Using 194 Lebedev grid points for other atoms
	Atomic van der Waals radii will be scaled by 1.20
 Remove points where switching function is < 1.0e-08
 Keep 1620 surface tesserae and discard 2028 interior tesserae
 Molecular Surface Area = 238.724 Angst**2
 Requested basis set is rimp2-cc-pVTZ
 There are 414 shells and 1414 basis functions
 A cutoff of  1.0D-10 yielded  13892 shell pairs
 There are    100830 function pairs (    129404 Cartesian)
 Smallest overlap matrix eigenvalue = 6.06E-05

 Scale SEOQF with 1.000000e-01/1.000000e-01/1.000000e-01

 Standard Electronic Orientation quadrupole field applied
 Nucleus-field energy     =     0.0000000355 hartrees
 Guess from superposition of atomic densities
 Warning:  Energy on first SCF cycle will be non-variational
 SAD guess density has 104.000000 electrons

 -----------------------------------------------------------------------
  General SCF calculation program by
  Eric Jon Sundstrom, Paul Horn, Yuezhi Mao, Dmitri Zuev, Alec White,
  David Stuck, Shaama M.S., Shane Yost, Joonho Lee, David Small,
  Daniel Levine, Susi Lehtola, Hugh Burton, Evgeny Epifanovsky,
  Bang C. Huynh
 -----------------------------------------------------------------------
 Hartree-Fock
 A restricted SCF calculation will be
 performed using DIIS
 SCF converges when DIIS error is below 1.0e-06
 ---------------------------------------
  Cycle       Energy         DIIS error
 ---------------------------------------
    1   -1186.0171682509      2.39e-02  
    2   -1180.6214351914      1.55e-03  
    3   -1180.7449742321      5.93e-04  
    4   -1180.7586270120      3.33e-04  
    5   -1180.7636217956      5.81e-05  
    6   -1180.7638602979      2.40e-05  
    7   -1180.7639178030      8.87e-06  
    8   -1180.7639314945      4.30e-06  
    9   -1180.7639345923      1.48e-06  
   10   -1180.7639350618      4.99e-07  Convergence criterion met
 ---------------------------------------
 SCF time:   CPU 560.33s  wall 563.00s 

************** Final PCM Free Energy Summary **************
 G_electrostatic  =      -0.00900667 hartree =      -5.65177057 kcal/mol
 G_cavitation     =       0.00000000 hartree =       0.00000000 kcal/mol
 G_dispersion     =       0.00000000 hartree =       0.00000000 kcal/mol
 G_repulsion      =       0.00000000 hartree =       0.00000000 kcal/mol
 --------------------------------------------------
 Non-electrostatic Free Energy =       0.00000000 hartree =       0.00000000 kcal/mol
 Total                         =      -0.00900667 hartree =      -5.65177057 kcal/mol
 --------------------------------------------------
 SCF Energy (H0 + V/2)                       =   -1180.76393506 
 Solute Internal Energy (H0)                 =   -1180.75492839 
 Total Free Energy (H0 + V/2 + non-elec)     =   -1180.76393506 hartree
                                             = -740940.55226649 kcal/mol
***********************************************************

 SCF   energy in the final basis set =    -1180.7639350618
 Total energy in the final basis set =    -1180.7639350618


 --------------------------------------------------------------
  Generalized many-body perturbation theory program
  by Joonho Lee, Fazle Rob, Xintian Feng, Evgeny Epifanovsky

 No regularization used 
 (reg. param. = 0.0000e+00)
  (P|Q)^-1/2 Time:  CPU 1.89 s  wall 1.89 s

 In RI-MP2 calculation: 
 # of frozen core orbitals: 20

 Components of the RIMP2 correlation energy:
        aaaa    correlation energy =        -0.2510959215 a.u.
        abab    correlation energy =        -1.5023817531 a.u.
        bbbb    correlation energy =        -0.2510959215 a.u.
        non-Brillouin singles      =        -0.0000000000 a.u.
        total same-spin energy     =        -0.5021918429 a.u.
        total opposite-spin energy =        -1.5023817531 a.u.

 Total  RIMP2   correlation energy =        -2.0045735960 a.u.
        RIMP2         total energy =     -1182.7685086578 a.u.

 RI-MP2 Energy Time:  CPU 79.28 s  wall 79.59 s
 
 --------------------------------------------------------------
 
                    Orbital Energies (a.u.)
 --------------------------------------------------------------
 
 Alpha MOs
 -- Occupied --
-91.9809 -91.9415 -11.2827 -11.2633 -11.2631 -11.2559 -11.2508 -11.2423
-11.2410 -11.2315 -11.2291 -11.2199  -8.9808  -8.9462  -6.6618  -6.6612
 -6.6607  -6.6276  -6.6266  -6.6253  -1.1984  -1.1535  -1.0584  -1.0257
 -1.0069  -0.9589  -0.9126  -0.9011  -0.8149  -0.7643  -0.7331  -0.7008
 -0.6615  -0.6415  -0.6105  -0.5882  -0.5798  -0.5723  -0.5669  -0.5509
 -0.5418  -0.5312  -0.5139  -0.5058  -0.4923  -0.4817  -0.4592  -0.4490
 -0.3558  -0.3423  -0.3144  -0.2784
 -- Virtual --
  0.0963   0.1325   0.1423   0.1498   0.1577   0.1703   0.1774   0.1805
  0.1898   0.1978   0.2041   0.2103   0.2295   0.2329   0.2371   0.2457
  0.2497   0.2601   0.2671   0.2949   0.3105   0.3380   0.3466   0.3535
  0.3675   0.3700   0.3781   0.3949   0.3975   0.4014   0.4134   0.4265
  0.4285   0.4467   0.4545   0.4600   0.4667   0.4701   0.4833   0.4875
  0.5050   0.5124   0.5191   0.5283   0.5319   0.5409   0.5471   0.5521
  0.5656   0.5757   0.5815   0.5878   0.6027   0.6054   0.6152   0.6182
  0.6230   0.6250   0.6351   0.6404   0.6437   0.6467   0.6502   0.6572
  0.6617   0.6641   0.6812   0.6863   0.6966   0.7003   0.7090   0.7297
  0.7300   0.7493   0.7548   0.7717   0.7877   0.8016   0.8070   0.8256
  0.8276   0.8350   0.8436   0.8557   0.8740   0.8837   0.8973   0.9139
  0.9237   0.9478   0.9510   0.9692   0.9770   0.9890   0.9969   1.0077
  1.0103   1.0299   1.0321   1.0479   1.0549   1.0728   1.0764   1.0852
  1.0908   1.0972   1.1096   1.1152   1.1296   1.1503   1.1566   1.1661
  1.1759   1.1902   1.2021   1.2060   1.2185   1.2340   1.2361   1.2449
  1.2496   1.2548   1.2653   1.2754   1.2816   1.2881   1.3039   1.3178
  1.3269   1.3344   1.3393   1.3529   1.3613   1.3953   1.4024   1.4174
  1.4255   1.4389   1.4513   1.4545   1.4689   1.4837   1.4940   1.4973
  1.5002   1.5124   1.5211   1.5343   1.5383   1.5433   1.5474   1.5547
  1.5689   1.5757   1.5849   1.6008   1.6039   1.6104   1.6202   1.6362
  1.6447   1.6678   1.6816   1.6854   1.7015   1.7198   1.7281   1.7350
  1.7511   1.7560   1.7771   1.7873   1.8007   1.8283   1.8343   1.8644
  1.8689   1.8968   1.9278   1.9327   1.9572   1.9678   1.9943   2.0038
  2.0127   2.0185   2.0345   2.0662   2.0700   2.1258   2.1374   2.1566
  2.1820   2.1939   2.2108   2.2201   2.2317   2.2606   2.2673   2.2748
  2.3177   2.3304   2.3438   2.3634   2.4103   2.4337   2.4410   2.4708
  2.4811   2.5107   2.5339   2.5421   2.5626   2.5791   2.6142   2.6181
  2.6314   2.6446   2.6579   2.6657   2.6738   2.6886   2.7045   2.7221
  2.7379   2.7447   2.7546   2.7661   2.7754   2.7820   2.7918   2.8151
  2.8313   2.8438   2.8563   2.8765   2.8882   2.8994   2.9111   2.9187
  2.9232   2.9581   2.9756   2.9814   3.0118   3.0220   3.0235   3.0390
  3.0406   3.0809   3.0904   3.1020   3.1117   3.1193   3.1288   3.1399
  3.1493   3.1536   3.1665   3.1717   3.1809   3.1908   3.1946   3.2142
  3.2282   3.2391   3.2562   3.2628   3.2818   3.2908   3.2978   3.3037
  3.3093   3.3203   3.3316   3.3363   3.3392   3.3533   3.3600   3.3775
  3.3819   3.3888   3.3903   3.3974   3.4038   3.4069   3.4184   3.4391
  3.4412   3.4468   3.4516   3.4618   3.4723   3.4886   3.5049   3.5101
  3.5165   3.5242   3.5286   3.5349   3.5460   3.5583   3.5667   3.5791
  3.5920   3.5982   3.6085   3.6174   3.6275   3.6318   3.6430   3.6641
  3.6759   3.6799   3.6866   3.7064   3.7079   3.7229   3.7263   3.7350
  3.7390   3.7553   3.7698   3.7839   3.7874   3.7976   3.8014   3.8052
  3.8326   3.8350   3.8518   3.8663   3.8795   3.8810   3.8946   3.9105
  3.9275   3.9446   3.9556   3.9697   3.9738   3.9899   3.9987   4.0110
  4.0241   4.0391   4.0449   4.0532   4.0760   4.0820   4.0911   4.1107
  4.1226   4.1347   4.1389   4.1609   4.1717   4.1729   4.1833   4.1949
  4.2023   4.2209   4.2362   4.2434   4.2519   4.2652   4.2709   4.2791
  4.2959   4.3076   4.3176   4.3316   4.3356   4.3505   4.3601   4.3673
  4.3793   4.3891   4.4011   4.4090   4.4130   4.4150   4.4324   4.4448
  4.4602   4.4735   4.4783   4.4863   4.4934   4.5115   4.5429   4.5504
  4.5706   4.5921   4.6096   4.6270   4.6352   4.6546   4.6602   4.6627
  4.7093   4.7257   4.7305   4.7554   4.7811   4.8057   4.8198   4.8379
  4.8550   4.8619   4.8882   4.8936   4.9439   4.9482   4.9804   4.9954
  5.0180   5.0393   5.0905   5.1006   5.1127   5.1242   5.1518   5.1833
  5.1870   5.2173   5.2322   5.2713   5.2829   5.2902   5.3109   5.3173
  5.3437   5.3676   5.3827   5.4022   5.4089   5.4276   5.4406   5.4540
  5.4768   5.5182   5.5243   5.5434   5.5484   5.5620   5.5758   5.5920
  5.6236   5.6294   5.6469   5.6666   5.6782   5.7004   5.7088   5.7279
  5.7756   5.7973   5.8342   5.9840   5.9993   6.0983   6.1181   6.1490
  6.2069   6.2165   6.2267   6.2395   6.2474   6.2773   6.3059   6.3296
  6.3834   6.4983   9.5282  10.6139  12.0137  12.9575  13.1750  13.9549
 14.1153  14.2207  14.3035  14.7040
 --------------------------------------------------------------
 
          Ground-State Mulliken Net Atomic Charges

     Atom                 Charge (a.u.)
  ----------------------------------------
      1 C                    -0.078711
      2 C                    -0.326556
      3 C                    -0.022749
      4 H                     0.177039
      5 C                     0.094656
      6 S                    -0.176849
      7 C                    -0.266749
      8 H                     0.113286
      9 H                     0.105956
     10 H                     0.103464
     11 C                    -0.084247
     12 C                    -0.247136
     13 C                     0.022585
     14 H                     0.183207
     15 C                    -0.240386
     16 S                     0.006336
     17 C                    -0.271618
     18 H                     0.102312
     19 H                     0.107855
     20 H                     0.108749
     21 H                     0.196563
     22 H                     0.113145
     23 H                     0.110980
     24 H                     0.168868
  ----------------------------------------
  Sum of atomic charges =     0.000000

 -----------------------------------------------------------------
                    Cartesian Multipole Moments
 -----------------------------------------------------------------
    Charge (ESU x 10^10)
                -0.0000
    Dipole Moment (Debye)
         X      -2.5552      Y       0.4636      Z       1.4254
       Tot       2.9624
    Quadrupole Moments (Debye-Ang)
        XX     -91.9221     XY       3.9437     YY     -73.6252
        XZ       0.3040     YZ       1.0867     ZZ     -85.8336
    Octopole Moments (Debye-Ang^2)
       XXX      -4.1001    XXY      40.8816    XYY       0.0627
       YYY     124.2160    XXZ      -4.1804    XYZ      -2.1733
       YYZ      -0.9996    XZZ       0.6376    YZZ      54.3100
       ZZZ       5.0293
    Hexadecapole Moments (Debye-Ang^3)
      XXXX    -641.5182   XXXY      29.6346   XXYY    -613.3989
      XYYY       1.4730   YYYY   -2784.5237   XXXZ     -85.2910
      XXYZ     -18.3159   XYYZ     -18.5352   YYYZ    -112.4088
      XXZZ    -215.9949   XYZZ       2.2658   YYZZ    -604.2676
      XZZZ     -94.0903   YZZZ     -97.0480   ZZZZ    -605.8133
 -----------------------------------------------------------------
 Total job time:  645.05s(wall), 640.51s(cpu) 
 Sun Jul 10 04:21:14 2022

        *************************************************************
        *                                                           *
        *  Thank you very much for using Q-Chem.  Have a nice day.  *
        *                                                           *
        *************************************************************


remove work dirs ./qchem3572802.0 -- ./qchem3572802.-1
rm -rf ./qchem3572802
You are running Q-Chem version: 5.4.0

#
# job setting
#
local host:  exp-2-18
current dir: /expanse/lustre/scratch/theleonzhang/temp_project/Hydrogenated_Rotation_Test
input file:  Methylthiophene_Phi_0_Theta_290_Methylthiophene_Hydrogenated.qcin
output file: 
nprocs     : 0
nthreads   : 1
#
# qchem installation setting
#
QC:          /cm/shared/apps/spack/cpu/opt/spack/linux-centos8-zen2/gcc-10.2.0/qchem-5.4-akfmr7b3t57bfs6qan3padb2wnb2i7cl
QCAUX:       /cm/shared/apps/spack/cpu/opt/spack/linux-centos8-zen2/gcc-10.2.0/qchem-5.4-akfmr7b3t57bfs6qan3padb2wnb2i7cl/qcaux
QCPROG:      /cm/shared/apps/spack/cpu/opt/spack/linux-centos8-zen2/gcc-10.2.0/qchem-5.4-akfmr7b3t57bfs6qan3padb2wnb2i7cl/exe/qcprog.exe_s
QCPROG_S:    /cm/shared/apps/spack/cpu/opt/spack/linux-centos8-zen2/gcc-10.2.0/qchem-5.4-akfmr7b3t57bfs6qan3padb2wnb2i7cl/exe/qcprog.exe_s
PARALLEL:    -DSERIAL
QCMPI:       mpich
#
# qchem directory setting
#
qcrun:       qchem1951381
QCSCRATCH:   .
QCLOCALSCR:  
QCTMPDIR:    .
QCFILEPREF:  ./qchem1951381
QCSAVEDIR:   
workdirs:    ./qchem1951381
workdir0:    ./qchem1951381
partmpdirs =  
#
# parallel setting
#
QCRSH:           ssh
QCMPI:           mpich
QCMPIRUN:        /cm/shared/apps/spack/cpu/opt/spack/linux-centos8-zen2/gcc-10.2.0/qchem-5.4-akfmr7b3t57bfs6qan3padb2wnb2i7cl/bin/mpi/mpirun_qchem
QCMACHINEFILE:   ./qchem1951381/hostfile

#
# env setting
#
exported envs:   QC QCAUX QCSCRATCH QCRUNNAME QCFILEPREF QCPROG QCPROG_S GUIFILE

Running Job 1 of 1 Methylthiophene_Phi_0_Theta_290_Methylthiophene_Hydrogenated.qcin
qchem Methylthiophene_Phi_0_Theta_290_Methylthiophene_Hydrogenated.qcin_1951381.0 ./qchem1951381/ 0
/cm/shared/apps/spack/cpu/opt/spack/linux-centos8-zen2/gcc-10.2.0/qchem-5.4-akfmr7b3t57bfs6qan3padb2wnb2i7cl/exe/qcprog.exe_s Methylthiophene_Phi_0_Theta_290_Methylthiophene_Hydrogenated.qcin_1951381.0 ./qchem1951381/
                  Welcome to Q-Chem
     A Quantum Leap Into The Future Of Chemistry


 Q-Chem 5.4, Q-Chem, Inc., Pleasanton, CA (2021)

 License issued to: University of California, San Diego (site)

 E. Epifanovsky,  A. T. B. Gilbert,  Xintian Feng,  Joonho Lee,  Yuezhi Mao,  
 N. Mardirossian,  P. Pokhilko,  A. White,  M. Wormit,  M. P. Coons,  
 A. L. Dempwolff,  Zhengting Gan,  D. Hait,  P. R. Horn,  L. D. Jacobson,  
 I. Kaliman,  J. Kussmann,  A. W. Lange,  Ka Un Lao,  D. S. Levine,  Jie Liu,  
 S. C. McKenzie,  A. F. Morrison,  K. Nanda,  F. Plasser,  D. R. Rehn,  
 M. L. Vidal,  Zhi-Qiang You,  Ying Zhu,  B. Alam,  B. Albrecht,  
 A. Aldossary,  E. Alguire,  J. H. Andersen,  D. Barton,  K. Begam,  A. Behn,  
 Y. A. Bernard,  E. J. Berquist,  H. Burton,  A. Carreras,  K. Carter-Fenk,  
 R. Chakraborty,  A. D. Chien,  K. D. Closser,  V. Cofer-Shabica,  
 S. Dasgupta,  Jia Deng,  M. de Wergifosse,  M. Diedenhofen,  Hainam Do,  
 S. Ehlert,  Po-Tung Fang,  S. Fatehi,  Qingguo Feng,  J. Gayvert,  
 Qinghui Ge,  G. Gidofalvi,  M. Goldey,  J. Gomes,  C. Gonzalez-Espinoza,  
 S. Gulania,  A. Gunina,  M. W. D. Hanson-Heine,  P. H. P. Harbach,  
 A. W. Hauser,  M. F. Herbst,  M. Hernandez Vera,  M. Hodecker,  
 Z. C. Holden,  S. Houck,  Xunkun Huang,  Kerwin Hui,  B. C. Huynh,  
 M. Ivanov,  Hyunjun Ji,  Hanjie Jiang,  B. Kaduk,  S. Kaehler,  
 K. Khistyaev,  Jaehoon Kim,  P. Klunzinger,  Z. Koczor-Benda,  
 Joong Hoon Koh,  D. Kosenkov,  L. Koulias,  T. Kowalczyk,  C. M. Krauter,  
 K. Kue,  A. Kunitsa,  T. Kus,  A. Landau,  K. V. Lawler,  D. Lefrancois,  
 S. Lehtola,  Rain Li,  Yi-Pei Li,  Jiashu Liang,  M. Liebenthal,  
 Hung-Hsuan Lin,  You-Sheng Lin,  Fenglai Liu,  Kuan-Yu Liu,  
 M. Loipersberger,  A. Luenser,  A. Manjanath,  P. Manohar,  E. Mansoor,  
 S. F. Manzer,  Shan-Ping Mao,  A. V. Marenich,  T. Markovich,  S. Mason,  
 S. A. Maurer,  P. F. McLaughlin,  M. F. S. J. Menger,  J.-M. Mewes,  
 S. A. Mewes,  P. Morgante,  J. W. Mullinax,  T. S. Nguyen-Beck,  
 K. J. Oosterbaan,  G. Paran,  Alexander C. Paul,  Suranjan K. Paul,  
 F. Pavosevic,  Zheng Pei,  S. Prager,  E. I. Proynov,  E. Ramos,  B. Rana,  
 A. E. Rask,  A. Rettig,  R. M. Richard,  F. Rob,  E. Rossomme,  T. Scheele,  
 M. Scheurer,  M. Schneider,  N. Sergueev,  S. M. Sharada,  W. Skomorowski,  
 D. W. Small,  C. J. Stein,  Yu-Chuan Su,  E. J. Sundstrom,  Zhen Tao,  
 J. Thirman,  T. Tsuchimochi,  N. M. Tubman,  S. P. Veccham,  O. Vydrov,  
 J. Wenzel,  J. Witte,  A. Yamada,  Kun Yao,  S. Yeganeh,  S. R. Yost,  
 A. Zech,  Igor Ying Zhang,  Xing Zhang,  Yu Zhang,  D. Zuev,  
 A. Aspuru-Guzik,  A. T. Bell,  N. A. Besley,  K. B. Bravaya,  B. R. Brooks,  
 D. Casanova,  Jeng-Da Chai,  S. Coriani,  C. J. Cramer,  
 A. E. DePrince, III,  R. A. DiStasio Jr.,  A. Dreuw,  B. D. Dunietz,  
 T. R. Furlani,  W. A. Goddard III,  S. Grimme,  S. Hammes-Schiffer,  
 T. Head-Gordon,  W. J. Hehre,  Chao-Ping Hsu,  T.-C. Jagau,  Yousung Jung,  
 A. Klamt,  Jing Kong,  D. S. Lambrecht,  WanZhen Liang,  N. J. Mayhall,  
 C. W. McCurdy,  J. B. Neaton,  C. Ochsenfeld,  J. A. Parkhill,  R. Peverati,  
 V. A. Rassolov,  Yihan Shao,  L. V. Slipchenko,  T. Stauch,  R. P. Steele,  
 J. E. Subotnik,  A. J. W. Thom,  A. Tkatchenko,  D. G. Truhlar,  
 T. Van Voorhis,  T. A. Wesolowski,  K. B. Whaley,  H. L. Woodcock III,  
 P. M. Zimmerman,  S. Faraji,  P. M. W. Gill,  M. Head-Gordon,  
 J. M. Herbert,  A. I. Krylov

 Contributors to earlier versions of Q-Chem not listed above: 
 R. D. Adamson,  B. Austin,  R. Baer,  J. Baker,  G. J. O. Beran,  
 K. Brandhorst,  S. T. Brown,  E. F. C. Byrd,  A. K. Chakraborty,  
 G. K. L. Chan,  Chun-Min Chang,  Yunqing Chen,  C.-L. Cheng,  
 Siu Hung Chien,  D. M. Chipman,  D. L. Crittenden,  H. Dachsel,  
 R. J. Doerksen,  A. D. Dutoi,  R. G. Edgar,  J. Fosso-Tande,  
 L. Fusti-Molnar,  D. Ghosh,  A. Ghysels,  A. Golubeva-Zadorozhnaya,  
 J. Gonthier,  M. S. Gordon,  S. R. Gwaltney,  G. Hawkins,  J. E. Herr,  
 A. Heyden,  S. Hirata,  E. G. Hohenstein,  G. Kedziora,  F. J. Keil,  
 C. Kelley,  Jihan Kim,  R. A. King,  R. Z. Khaliullin,  P. P. Korambath,  
 W. Kurlancheek,  A. Laurent,  A. M. Lee,  M. S. Lee,  S. V. Levchenko,  
 Ching Yeh Lin,  D. Liotard,  E. Livshits,  R. C. Lochan,  I. Lotan,  
 L. A. Martinez-Martinez,  P. E. Maslen,  N. Nair,  D. P. O'Neill,  
 D. Neuhauser,  E. Neuscamman,  C. M. Oana,  R. Olivares-Amaya,  R. Olson,  
 T. M. Perrine,  B. Peters,  P. A. Pieniazek,  A. Prociuk,  Y. M. Rhee,  
 J. Ritchie,  M. A. Rohrdanz,  E. Rosta,  N. J. Russ,  H. F. Schaefer III,  
 M. W. Schmidt,  N. E. Schultz,  S. Sharma,  N. Shenvi,  C. D. Sherrill,  
 A. C. Simmonett,  A. Sodt,  T. Stein,  D. Stuck,  K. S. Thanthiriwatte,  
 V. Vanovschi,  L. Vogt,  Tao Wang,  A. Warshel,  M. A. Watson,  
 C. F. Williams,  Q. Wu,  X. Xu,  Jun Yang,  W. Zhang,  Yan Zhao

 Please cite Q-Chem as follows:
 Y. Shao et al., Mol. Phys. 113, 184-215 (2015)
 DOI: 10.1080/00268976.2014.952696

 Q-Chem 5.4.0 for Intel X86 EM64T Linux

 Parts of Q-Chem use Armadillo 9.800.1 (Horizon Scraper).
 http://arma.sourceforge.net/

 Q-Chem begins on Sun Jul 10 04:43:11 2022  

 Host: 
0

     Scratch files written to ./qchem1951381//
 May1621 |scratch|qcdevops|jenkins|workspace|build_RNUM    
 Processing $rem in /cm/shared/apps/spack/cpu/opt/spack/linux-centos8-zen2/gcc-10.2.0/qchem-5.4-akfmr7b3t57bfs6qan3padb2wnb2i7cl/config/preferences:
 Processing $rem in /home/theleonzhang/.qchemrc:
 Symmetry turned off for PCM/SM12/SMD calculation
 Core orbitals will be frozen

 Checking the input file for inconsistencies... 	...done.

--------------------------------------------------------------
User input:
--------------------------------------------------------------
$molecule
0 1
C	0.728138	-3.866725	0.265779
C	-0.575726	-3.703963	-0.209225
C	-1.002290	-2.357056	-0.364875
H	-1.224486	-4.561092	-0.445176
C	0.000000	-1.440664	0.000000
S	1.451343	-2.286957	0.528236
C	-2.369683	-1.978743	-0.862808
H	-2.975883	-2.878678	-1.083368
H	-2.317142	-1.376015	-1.793522
H	-2.927787	-1.375728	-0.116375
C	0.000000	0.000000	0.000000
C	0.000033	0.863600	1.099446
C	0.000052	2.247508	0.776721
H	0.000026	0.494801	2.136088
C	0.000074	2.468165	-0.612546
S	0.000024	0.942399	-1.486809
C	0.000075	3.335257	1.814609
H	0.000074	2.909620	2.836676
H	-0.892314	3.989552	1.726239
H	0.892483	3.989525	1.726228
H	0.000094	3.417382	-1.161575
H	1.358585	-4.392713	-0.459743
H	0.744515	-4.392347	1.227009
H	-0.369490	-1.440391	1.014829
$end

$rem
JOBTYPE		SP
EXCHANGE	HF
CORRELATION	pRIMP2
BASIS		cc-pvtz
METHOD		rimp2
AUX_BASIS	rimp2-cc-pvtz
SOLVENT_METHOD	PCM
PURECART	11111
SYMMETRY	false
MEM_TOTAL	110000
SCF_CONVERGENCE = 6
THRESH=10
$end



$solvent
dielectric 4.90
$end
--------------------------------------------------------------
 ----------------------------------------------------------------
             Standard Nuclear Orientation (Angstroms)
    I     Atom           X                Y                Z
 ----------------------------------------------------------------
    1      C       0.7281380000    -3.8667250000     0.2657790000
    2      C      -0.5757260000    -3.7039630000    -0.2092250000
    3      C      -1.0022900000    -2.3570560000    -0.3648750000
    4      H      -1.2244860000    -4.5610920000    -0.4451760000
    5      C       0.0000000000    -1.4406640000     0.0000000000
    6      S       1.4513430000    -2.2869570000     0.5282360000
    7      C      -2.3696830000    -1.9787430000    -0.8628080000
    8      H      -2.9758830000    -2.8786780000    -1.0833680000
    9      H      -2.3171420000    -1.3760150000    -1.7935220000
   10      H      -2.9277870000    -1.3757280000    -0.1163750000
   11      C       0.0000000000     0.0000000000     0.0000000000
   12      C       0.0000330000     0.8636000000     1.0994460000
   13      C       0.0000520000     2.2475080000     0.7767210000
   14      H       0.0000260000     0.4948010000     2.1360880000
   15      C       0.0000740000     2.4681650000    -0.6125460000
   16      S       0.0000240000     0.9423990000    -1.4868090000
   17      C       0.0000750000     3.3352570000     1.8146090000
   18      H       0.0000740000     2.9096200000     2.8366760000
   19      H      -0.8923140000     3.9895520000     1.7262390000
   20      H       0.8924830000     3.9895250000     1.7262280000
   21      H       0.0000940000     3.4173820000    -1.1615750000
   22      H       1.3585850000    -4.3927130000    -0.4597430000
   23      H       0.7445150000    -4.3923470000     1.2270090000
   24      H      -0.3694900000    -1.4403910000     1.0148290000
 ----------------------------------------------------------------
 Nuclear Repulsion Energy =         871.60096711 hartrees
 There are       52 alpha and       52 beta electrons

 Q-Chem warning in module forms1/BasisType.C, line 2236:

 You are not using the predefined 5D/6D in this basis set.

 Requested basis set is cc-pVTZ
 There are 196 shells and 536 basis functions

 Total QAlloc Memory Limit 110000 MB
 Mega-Array Size       188 MB
 MEM_STATIC part       192 MB
 Discretize the solute cavity surface with Lebedev spheres
	Using 110 Lebedev grid points for each H atom
	Using 194 Lebedev grid points for other atoms
	Atomic van der Waals radii will be scaled by 1.20
 Remove points where switching function is < 1.0e-08
 Keep 1620 surface tesserae and discard 2028 interior tesserae
 Molecular Surface Area = 238.724 Angst**2
 Requested basis set is rimp2-cc-pVTZ
 There are 414 shells and 1414 basis functions
 A cutoff of  1.0D-10 yielded  13892 shell pairs
 There are    100830 function pairs (    129404 Cartesian)
 Smallest overlap matrix eigenvalue = 6.06E-05

 Scale SEOQF with 1.000000e-01/1.000000e-01/1.000000e-01

 Standard Electronic Orientation quadrupole field applied
 Nucleus-field energy     =     0.0000000355 hartrees
 Guess from superposition of atomic densities
 Warning:  Energy on first SCF cycle will be non-variational
 SAD guess density has 104.000000 electrons

 -----------------------------------------------------------------------
  General SCF calculation program by
  Eric Jon Sundstrom, Paul Horn, Yuezhi Mao, Dmitri Zuev, Alec White,
  David Stuck, Shaama M.S., Shane Yost, Joonho Lee, David Small,
  Daniel Levine, Susi Lehtola, Hugh Burton, Evgeny Epifanovsky,
  Bang C. Huynh
 -----------------------------------------------------------------------
 Hartree-Fock
 A restricted SCF calculation will be
 performed using DIIS
 SCF converges when DIIS error is below 1.0e-06
 ---------------------------------------
  Cycle       Energy         DIIS error
 ---------------------------------------
    1   -1186.0171682509      2.39e-02  
    2   -1180.6214351914      1.55e-03  
    3   -1180.7449742321      5.93e-04  
    4   -1180.7586270120      3.33e-04  
    5   -1180.7636217956      5.81e-05  
    6   -1180.7638602979      2.40e-05  
    7   -1180.7639178030      8.87e-06  
    8   -1180.7639314945      4.30e-06  
    9   -1180.7639345923      1.48e-06  
   10   -1180.7639350618      4.99e-07  Convergence criterion met
 ---------------------------------------
 SCF time:   CPU 564.04s  wall 566.00s 

************** Final PCM Free Energy Summary **************
 G_electrostatic  =      -0.00900667 hartree =      -5.65177057 kcal/mol
 G_cavitation     =       0.00000000 hartree =       0.00000000 kcal/mol
 G_dispersion     =       0.00000000 hartree =       0.00000000 kcal/mol
 G_repulsion      =       0.00000000 hartree =       0.00000000 kcal/mol
 --------------------------------------------------
 Non-electrostatic Free Energy =       0.00000000 hartree =       0.00000000 kcal/mol
 Total                         =      -0.00900667 hartree =      -5.65177057 kcal/mol
 --------------------------------------------------
 SCF Energy (H0 + V/2)                       =   -1180.76393506 
 Solute Internal Energy (H0)                 =   -1180.75492839 
 Total Free Energy (H0 + V/2 + non-elec)     =   -1180.76393506 hartree
                                             = -740940.55226649 kcal/mol
***********************************************************

 SCF   energy in the final basis set =    -1180.7639350618
 Total energy in the final basis set =    -1180.7639350618


 --------------------------------------------------------------
  Generalized many-body perturbation theory program
  by Joonho Lee, Fazle Rob, Xintian Feng, Evgeny Epifanovsky

 No regularization used 
 (reg. param. = 0.0000e+00)
  (P|Q)^-1/2 Time:  CPU 1.90 s  wall 1.91 s

 In RI-MP2 calculation: 
 # of frozen core orbitals: 20

 Components of the RIMP2 correlation energy:
        aaaa    correlation energy =        -0.2510959215 a.u.
        abab    correlation energy =        -1.5023817531 a.u.
        bbbb    correlation energy =        -0.2510959215 a.u.
        non-Brillouin singles      =        -0.0000000000 a.u.
        total same-spin energy     =        -0.5021918429 a.u.
        total opposite-spin energy =        -1.5023817531 a.u.

 Total  RIMP2   correlation energy =        -2.0045735960 a.u.
        RIMP2         total energy =     -1182.7685086578 a.u.

 RI-MP2 Energy Time:  CPU 80.05 s  wall 80.33 s
 
 --------------------------------------------------------------
 
                    Orbital Energies (a.u.)
 --------------------------------------------------------------
 
 Alpha MOs
 -- Occupied --
-91.9809 -91.9415 -11.2827 -11.2633 -11.2631 -11.2559 -11.2508 -11.2423
-11.2410 -11.2315 -11.2291 -11.2199  -8.9808  -8.9462  -6.6618  -6.6612
 -6.6607  -6.6276  -6.6266  -6.6253  -1.1984  -1.1535  -1.0584  -1.0257
 -1.0069  -0.9589  -0.9126  -0.9011  -0.8149  -0.7643  -0.7331  -0.7008
 -0.6615  -0.6415  -0.6105  -0.5882  -0.5798  -0.5723  -0.5669  -0.5509
 -0.5418  -0.5312  -0.5139  -0.5058  -0.4923  -0.4817  -0.4592  -0.4490
 -0.3558  -0.3423  -0.3144  -0.2784
 -- Virtual --
  0.0963   0.1325   0.1423   0.1498   0.1577   0.1703   0.1774   0.1805
  0.1898   0.1978   0.2041   0.2103   0.2295   0.2329   0.2371   0.2457
  0.2497   0.2601   0.2671   0.2949   0.3105   0.3380   0.3466   0.3535
  0.3675   0.3700   0.3781   0.3949   0.3975   0.4014   0.4134   0.4265
  0.4285   0.4467   0.4545   0.4600   0.4667   0.4701   0.4833   0.4875
  0.5050   0.5124   0.5191   0.5283   0.5319   0.5409   0.5471   0.5521
  0.5656   0.5757   0.5815   0.5878   0.6027   0.6054   0.6152   0.6182
  0.6230   0.6250   0.6351   0.6404   0.6437   0.6467   0.6502   0.6572
  0.6617   0.6641   0.6812   0.6863   0.6966   0.7003   0.7090   0.7297
  0.7300   0.7493   0.7548   0.7717   0.7877   0.8016   0.8070   0.8256
  0.8276   0.8350   0.8436   0.8557   0.8740   0.8837   0.8973   0.9139
  0.9237   0.9478   0.9510   0.9692   0.9770   0.9890   0.9969   1.0077
  1.0103   1.0299   1.0321   1.0479   1.0549   1.0728   1.0764   1.0852
  1.0908   1.0972   1.1096   1.1152   1.1296   1.1503   1.1566   1.1661
  1.1759   1.1902   1.2021   1.2060   1.2185   1.2340   1.2361   1.2449
  1.2496   1.2548   1.2653   1.2754   1.2816   1.2881   1.3039   1.3178
  1.3269   1.3344   1.3393   1.3529   1.3613   1.3953   1.4024   1.4174
  1.4255   1.4389   1.4513   1.4545   1.4689   1.4837   1.4940   1.4973
  1.5002   1.5124   1.5211   1.5343   1.5383   1.5433   1.5474   1.5547
  1.5689   1.5757   1.5849   1.6008   1.6039   1.6104   1.6202   1.6362
  1.6447   1.6678   1.6816   1.6854   1.7015   1.7198   1.7281   1.7350
  1.7511   1.7560   1.7771   1.7873   1.8007   1.8283   1.8343   1.8644
  1.8689   1.8968   1.9278   1.9327   1.9572   1.9678   1.9943   2.0038
  2.0127   2.0185   2.0345   2.0662   2.0700   2.1258   2.1374   2.1566
  2.1820   2.1939   2.2108   2.2201   2.2317   2.2606   2.2673   2.2748
  2.3177   2.3304   2.3438   2.3634   2.4103   2.4337   2.4410   2.4708
  2.4811   2.5107   2.5339   2.5421   2.5626   2.5791   2.6142   2.6181
  2.6314   2.6446   2.6579   2.6657   2.6738   2.6886   2.7045   2.7221
  2.7379   2.7447   2.7546   2.7661   2.7754   2.7820   2.7918   2.8151
  2.8313   2.8438   2.8563   2.8765   2.8882   2.8994   2.9111   2.9187
  2.9232   2.9581   2.9756   2.9814   3.0118   3.0220   3.0235   3.0390
  3.0406   3.0809   3.0904   3.1020   3.1117   3.1193   3.1288   3.1399
  3.1493   3.1536   3.1665   3.1717   3.1809   3.1908   3.1946   3.2142
  3.2282   3.2391   3.2562   3.2628   3.2818   3.2908   3.2978   3.3037
  3.3093   3.3203   3.3316   3.3363   3.3392   3.3533   3.3600   3.3775
  3.3819   3.3888   3.3903   3.3974   3.4038   3.4069   3.4184   3.4391
  3.4412   3.4468   3.4516   3.4618   3.4723   3.4886   3.5049   3.5101
  3.5165   3.5242   3.5286   3.5349   3.5460   3.5583   3.5667   3.5791
  3.5920   3.5982   3.6085   3.6174   3.6275   3.6318   3.6430   3.6641
  3.6759   3.6799   3.6866   3.7064   3.7079   3.7229   3.7263   3.7350
  3.7390   3.7553   3.7698   3.7839   3.7874   3.7976   3.8014   3.8052
  3.8326   3.8350   3.8518   3.8663   3.8795   3.8810   3.8946   3.9105
  3.9275   3.9446   3.9556   3.9697   3.9738   3.9899   3.9987   4.0110
  4.0241   4.0391   4.0449   4.0532   4.0760   4.0820   4.0911   4.1107
  4.1226   4.1347   4.1389   4.1609   4.1717   4.1729   4.1833   4.1949
  4.2023   4.2209   4.2362   4.2434   4.2519   4.2652   4.2709   4.2791
  4.2959   4.3076   4.3176   4.3316   4.3356   4.3505   4.3601   4.3673
  4.3793   4.3891   4.4011   4.4090   4.4130   4.4150   4.4324   4.4448
  4.4602   4.4735   4.4783   4.4863   4.4934   4.5115   4.5429   4.5504
  4.5706   4.5921   4.6096   4.6270   4.6352   4.6546   4.6602   4.6627
  4.7093   4.7257   4.7305   4.7554   4.7811   4.8057   4.8198   4.8379
  4.8550   4.8619   4.8882   4.8936   4.9439   4.9482   4.9804   4.9954
  5.0180   5.0393   5.0905   5.1006   5.1127   5.1242   5.1518   5.1833
  5.1870   5.2173   5.2322   5.2713   5.2829   5.2902   5.3109   5.3173
  5.3437   5.3676   5.3827   5.4022   5.4089   5.4276   5.4406   5.4540
  5.4768   5.5182   5.5243   5.5434   5.5484   5.5620   5.5758   5.5920
  5.6236   5.6294   5.6469   5.6666   5.6782   5.7004   5.7088   5.7279
  5.7756   5.7973   5.8342   5.9840   5.9993   6.0983   6.1181   6.1490
  6.2069   6.2165   6.2267   6.2395   6.2474   6.2773   6.3059   6.3296
  6.3834   6.4983   9.5282  10.6139  12.0137  12.9575  13.1750  13.9549
 14.1153  14.2207  14.3035  14.7040
 --------------------------------------------------------------
 
          Ground-State Mulliken Net Atomic Charges

     Atom                 Charge (a.u.)
  ----------------------------------------
      1 C                    -0.078711
      2 C                    -0.326556
      3 C                    -0.022749
      4 H                     0.177039
      5 C                     0.094656
      6 S                    -0.176849
      7 C                    -0.266749
      8 H                     0.113286
      9 H                     0.105956
     10 H                     0.103464
     11 C                    -0.084247
     12 C                    -0.247136
     13 C                     0.022585
     14 H                     0.183207
     15 C                    -0.240386
     16 S                     0.006336
     17 C                    -0.271618
     18 H                     0.102312
     19 H                     0.107855
     20 H                     0.108749
     21 H                     0.196563
     22 H                     0.113145
     23 H                     0.110980
     24 H                     0.168868
  ----------------------------------------
  Sum of atomic charges =     0.000000

 -----------------------------------------------------------------
                    Cartesian Multipole Moments
 -----------------------------------------------------------------
    Charge (ESU x 10^10)
                -0.0000
    Dipole Moment (Debye)
         X      -2.5552      Y       0.4636      Z       1.4254
       Tot       2.9624
    Quadrupole Moments (Debye-Ang)
        XX     -91.9221     XY       3.9437     YY     -73.6252
        XZ       0.3040     YZ       1.0867     ZZ     -85.8336
    Octopole Moments (Debye-Ang^2)
       XXX      -4.1001    XXY      40.8816    XYY       0.0627
       YYY     124.2160    XXZ      -4.1804    XYZ      -2.1733
       YYZ      -0.9996    XZZ       0.6376    YZZ      54.3100
       ZZZ       5.0293
    Hexadecapole Moments (Debye-Ang^3)
      XXXX    -641.5182   XXXY      29.6346   XXYY    -613.3989
      XYYY       1.4730   YYYY   -2784.5237   XXXZ     -85.2910
      XXYZ     -18.3159   XYYZ     -18.5352   YYYZ    -112.4088
      XXZZ    -215.9949   XYZZ       2.2658   YYZZ    -604.2676
      XZZZ     -94.0903   YZZZ     -97.0480   ZZZZ    -605.8133
 -----------------------------------------------------------------
 Total job time:  649.03s(wall), 645.00s(cpu) 
 Sun Jul 10 04:54:00 2022

        *************************************************************
        *                                                           *
        *  Thank you very much for using Q-Chem.  Have a nice day.  *
        *                                                           *
        *************************************************************


remove work dirs ./qchem1951381.0 -- ./qchem1951381.-1
rm -rf ./qchem1951381
