You are running Q-Chem version: 5.4.0

#
# job setting
#
local host:  exp-1-10
current dir: /expanse/lustre/scratch/theleonzhang/temp_project/Hydrogenated_Rotation_Test
input file:  Methylthiophene_Phi_10_Theta_130_Methylthiophene_Hydrogenated.qcin
output file: 
nprocs     : 0
nthreads   : 1
#
# qchem installation setting
#
QC:          /cm/shared/apps/spack/cpu/opt/spack/linux-centos8-zen2/gcc-10.2.0/qchem-5.4-akfmr7b3t57bfs6qan3padb2wnb2i7cl
QCAUX:       /cm/shared/apps/spack/cpu/opt/spack/linux-centos8-zen2/gcc-10.2.0/qchem-5.4-akfmr7b3t57bfs6qan3padb2wnb2i7cl/qcaux
QCPROG:      /cm/shared/apps/spack/cpu/opt/spack/linux-centos8-zen2/gcc-10.2.0/qchem-5.4-akfmr7b3t57bfs6qan3padb2wnb2i7cl/exe/qcprog.exe_s
QCPROG_S:    /cm/shared/apps/spack/cpu/opt/spack/linux-centos8-zen2/gcc-10.2.0/qchem-5.4-akfmr7b3t57bfs6qan3padb2wnb2i7cl/exe/qcprog.exe_s
PARALLEL:    -DSERIAL
QCMPI:       mpich
#
# qchem directory setting
#
qcrun:       qchem3993496
QCSCRATCH:   .
QCLOCALSCR:  
QCTMPDIR:    .
QCFILEPREF:  ./qchem3993496
QCSAVEDIR:   
workdirs:    ./qchem3993496
workdir0:    ./qchem3993496
partmpdirs =  
#
# parallel setting
#
QCRSH:           ssh
QCMPI:           mpich
QCMPIRUN:        /cm/shared/apps/spack/cpu/opt/spack/linux-centos8-zen2/gcc-10.2.0/qchem-5.4-akfmr7b3t57bfs6qan3padb2wnb2i7cl/bin/mpi/mpirun_qchem
QCMACHINEFILE:   ./qchem3993496/hostfile

#
# env setting
#
exported envs:   QC QCAUX QCSCRATCH QCRUNNAME QCFILEPREF QCPROG QCPROG_S GUIFILE

Running Job 1 of 1 Methylthiophene_Phi_10_Theta_130_Methylthiophene_Hydrogenated.qcin
qchem Methylthiophene_Phi_10_Theta_130_Methylthiophene_Hydrogenated.qcin_3993496.0 ./qchem3993496/ 0
/cm/shared/apps/spack/cpu/opt/spack/linux-centos8-zen2/gcc-10.2.0/qchem-5.4-akfmr7b3t57bfs6qan3padb2wnb2i7cl/exe/qcprog.exe_s Methylthiophene_Phi_10_Theta_130_Methylthiophene_Hydrogenated.qcin_3993496.0 ./qchem3993496/
                  Welcome to Q-Chem
     A Quantum Leap Into The Future Of Chemistry


 Q-Chem 5.4, Q-Chem, Inc., Pleasanton, CA (2021)

 License issued to: University of California, San Diego (site)

 E. Epifanovsky,  A. T. B. Gilbert,  Xintian Feng,  Joonho Lee,  Yuezhi Mao,  
 N. Mardirossian,  P. Pokhilko,  A. White,  M. Wormit,  M. P. Coons,  
 A. L. Dempwolff,  Zhengting Gan,  D. Hait,  P. R. Horn,  L. D. Jacobson,  
 I. Kaliman,  J. Kussmann,  A. W. Lange,  Ka Un Lao,  D. S. Levine,  Jie Liu,  
 S. C. McKenzie,  A. F. Morrison,  K. Nanda,  F. Plasser,  D. R. Rehn,  
 M. L. Vidal,  Zhi-Qiang You,  Ying Zhu,  B. Alam,  B. Albrecht,  
 A. Aldossary,  E. Alguire,  J. H. Andersen,  D. Barton,  K. Begam,  A. Behn,  
 Y. A. Bernard,  E. J. Berquist,  H. Burton,  A. Carreras,  K. Carter-Fenk,  
 R. Chakraborty,  A. D. Chien,  K. D. Closser,  V. Cofer-Shabica,  
 S. Dasgupta,  Jia Deng,  M. de Wergifosse,  M. Diedenhofen,  Hainam Do,  
 S. Ehlert,  Po-Tung Fang,  S. Fatehi,  Qingguo Feng,  J. Gayvert,  
 Qinghui Ge,  G. Gidofalvi,  M. Goldey,  J. Gomes,  C. Gonzalez-Espinoza,  
 S. Gulania,  A. Gunina,  M. W. D. Hanson-Heine,  P. H. P. Harbach,  
 A. W. Hauser,  M. F. Herbst,  M. Hernandez Vera,  M. Hodecker,  
 Z. C. Holden,  S. Houck,  Xunkun Huang,  Kerwin Hui,  B. C. Huynh,  
 M. Ivanov,  Hyunjun Ji,  Hanjie Jiang,  B. Kaduk,  S. Kaehler,  
 K. Khistyaev,  Jaehoon Kim,  P. Klunzinger,  Z. Koczor-Benda,  
 Joong Hoon Koh,  D. Kosenkov,  L. Koulias,  T. Kowalczyk,  C. M. Krauter,  
 K. Kue,  A. Kunitsa,  T. Kus,  A. Landau,  K. V. Lawler,  D. Lefrancois,  
 S. Lehtola,  Rain Li,  Yi-Pei Li,  Jiashu Liang,  M. Liebenthal,  
 Hung-Hsuan Lin,  You-Sheng Lin,  Fenglai Liu,  Kuan-Yu Liu,  
 M. Loipersberger,  A. Luenser,  A. Manjanath,  P. Manohar,  E. Mansoor,  
 S. F. Manzer,  Shan-Ping Mao,  A. V. Marenich,  T. Markovich,  S. Mason,  
 S. A. Maurer,  P. F. McLaughlin,  M. F. S. J. Menger,  J.-M. Mewes,  
 S. A. Mewes,  P. Morgante,  J. W. Mullinax,  T. S. Nguyen-Beck,  
 K. J. Oosterbaan,  G. Paran,  Alexander C. Paul,  Suranjan K. Paul,  
 F. Pavosevic,  Zheng Pei,  S. Prager,  E. I. Proynov,  E. Ramos,  B. Rana,  
 A. E. Rask,  A. Rettig,  R. M. Richard,  F. Rob,  E. Rossomme,  T. Scheele,  
 M. Scheurer,  M. Schneider,  N. Sergueev,  S. M. Sharada,  W. Skomorowski,  
 D. W. Small,  C. J. Stein,  Yu-Chuan Su,  E. J. Sundstrom,  Zhen Tao,  
 J. Thirman,  T. Tsuchimochi,  N. M. Tubman,  S. P. Veccham,  O. Vydrov,  
 J. Wenzel,  J. Witte,  A. Yamada,  Kun Yao,  S. Yeganeh,  S. R. Yost,  
 A. Zech,  Igor Ying Zhang,  Xing Zhang,  Yu Zhang,  D. Zuev,  
 A. Aspuru-Guzik,  A. T. Bell,  N. A. Besley,  K. B. Bravaya,  B. R. Brooks,  
 D. Casanova,  Jeng-Da Chai,  S. Coriani,  C. J. Cramer,  
 A. E. DePrince, III,  R. A. DiStasio Jr.,  A. Dreuw,  B. D. Dunietz,  
 T. R. Furlani,  W. A. Goddard III,  S. Grimme,  S. Hammes-Schiffer,  
 T. Head-Gordon,  W. J. Hehre,  Chao-Ping Hsu,  T.-C. Jagau,  Yousung Jung,  
 A. Klamt,  Jing Kong,  D. S. Lambrecht,  WanZhen Liang,  N. J. Mayhall,  
 C. W. McCurdy,  J. B. Neaton,  C. Ochsenfeld,  J. A. Parkhill,  R. Peverati,  
 V. A. Rassolov,  Yihan Shao,  L. V. Slipchenko,  T. Stauch,  R. P. Steele,  
 J. E. Subotnik,  A. J. W. Thom,  A. Tkatchenko,  D. G. Truhlar,  
 T. Van Voorhis,  T. A. Wesolowski,  K. B. Whaley,  H. L. Woodcock III,  
 P. M. Zimmerman,  S. Faraji,  P. M. W. Gill,  M. Head-Gordon,  
 J. M. Herbert,  A. I. Krylov

 Contributors to earlier versions of Q-Chem not listed above: 
 R. D. Adamson,  B. Austin,  R. Baer,  J. Baker,  G. J. O. Beran,  
 K. Brandhorst,  S. T. Brown,  E. F. C. Byrd,  A. K. Chakraborty,  
 G. K. L. Chan,  Chun-Min Chang,  Yunqing Chen,  C.-L. Cheng,  
 Siu Hung Chien,  D. M. Chipman,  D. L. Crittenden,  H. Dachsel,  
 R. J. Doerksen,  A. D. Dutoi,  R. G. Edgar,  J. Fosso-Tande,  
 L. Fusti-Molnar,  D. Ghosh,  A. Ghysels,  A. Golubeva-Zadorozhnaya,  
 J. Gonthier,  M. S. Gordon,  S. R. Gwaltney,  G. Hawkins,  J. E. Herr,  
 A. Heyden,  S. Hirata,  E. G. Hohenstein,  G. Kedziora,  F. J. Keil,  
 C. Kelley,  Jihan Kim,  R. A. King,  R. Z. Khaliullin,  P. P. Korambath,  
 W. Kurlancheek,  A. Laurent,  A. M. Lee,  M. S. Lee,  S. V. Levchenko,  
 Ching Yeh Lin,  D. Liotard,  E. Livshits,  R. C. Lochan,  I. Lotan,  
 L. A. Martinez-Martinez,  P. E. Maslen,  N. Nair,  D. P. O'Neill,  
 D. Neuhauser,  E. Neuscamman,  C. M. Oana,  R. Olivares-Amaya,  R. Olson,  
 T. M. Perrine,  B. Peters,  P. A. Pieniazek,  A. Prociuk,  Y. M. Rhee,  
 J. Ritchie,  M. A. Rohrdanz,  E. Rosta,  N. J. Russ,  H. F. Schaefer III,  
 M. W. Schmidt,  N. E. Schultz,  S. Sharma,  N. Shenvi,  C. D. Sherrill,  
 A. C. Simmonett,  A. Sodt,  T. Stein,  D. Stuck,  K. S. Thanthiriwatte,  
 V. Vanovschi,  L. Vogt,  Tao Wang,  A. Warshel,  M. A. Watson,  
 C. F. Williams,  Q. Wu,  X. Xu,  Jun Yang,  W. Zhang,  Yan Zhao

 Please cite Q-Chem as follows:
 Y. Shao et al., Mol. Phys. 113, 184-215 (2015)
 DOI: 10.1080/00268976.2014.952696

 Q-Chem 5.4.0 for Intel X86 EM64T Linux

 Parts of Q-Chem use Armadillo 9.800.1 (Horizon Scraper).
 http://arma.sourceforge.net/

 Q-Chem begins on Sat Jul  9 21:11:54 2022  

 Host: 
0

     Scratch files written to ./qchem3993496//
 May1621 |scratch|qcdevops|jenkins|workspace|build_RNUM    
 Processing $rem in /cm/shared/apps/spack/cpu/opt/spack/linux-centos8-zen2/gcc-10.2.0/qchem-5.4-akfmr7b3t57bfs6qan3padb2wnb2i7cl/config/preferences:
 Processing $rem in /home/theleonzhang/.qchemrc:
 Symmetry turned off for PCM/SM12/SMD calculation
 Core orbitals will be frozen

 Checking the input file for inconsistencies... 	...done.

--------------------------------------------------------------
User input:
--------------------------------------------------------------
$molecule
0 1
C	-0.593324	-3.866725	-0.498788
C	0.469446	-3.703963	0.393517
C	0.817050	-2.357056	0.685674
H	0.998381	-4.561092	0.837128
C	-0.000000	-1.440664	-0.000000
S	-1.183149	-2.286957	-0.992768
C	1.931676	-1.978743	1.621254
H	2.425882	-2.878678	2.035845
H	1.563980	-1.376015	2.477868
H	2.711417	-1.375728	1.110719
C	0.000000	0.000000	0.000000
C	0.149995	0.850475	1.099446
C	0.390327	2.213354	0.776721
H	0.085947	0.487279	2.136088
C	0.428665	2.430655	-0.612546
S	0.163670	0.928078	-1.486809
C	0.579235	3.284574	1.814609
H	0.505323	2.865404	2.836676
H	-0.185980	4.083890	1.726239
H	1.571698	3.773937	1.726228
H	0.593515	3.365448	-1.161575
H	-1.433894	-4.392713	-0.032646
H	-0.279954	-4.392347	-1.407651
H	-0.694299	-1.440937	0.827254
$end

$rem
JOBTYPE		SP
EXCHANGE	HF
CORRELATION	pRIMP2
BASIS		cc-pvtz
METHOD		rimp2
AUX_BASIS	rimp2-cc-pvtz
SOLVENT_METHOD	PCM
PURECART	11111
SYMMETRY	false
MEM_TOTAL	110000
SCF_CONVERGENCE = 6
THRESH=10
$end



$solvent
dielectric 4.90
$end
--------------------------------------------------------------
 ----------------------------------------------------------------
             Standard Nuclear Orientation (Angstroms)
    I     Atom           X                Y                Z
 ----------------------------------------------------------------
    1      C      -0.5933240000    -3.8667250000    -0.4987880000
    2      C       0.4694460000    -3.7039630000     0.3935170000
    3      C       0.8170500000    -2.3570560000     0.6856740000
    4      H       0.9983810000    -4.5610920000     0.8371280000
    5      C       0.0000000000    -1.4406640000     0.0000000000
    6      S      -1.1831490000    -2.2869570000    -0.9927680000
    7      C       1.9316760000    -1.9787430000     1.6212540000
    8      H       2.4258820000    -2.8786780000     2.0358450000
    9      H       1.5639800000    -1.3760150000     2.4778680000
   10      H       2.7114170000    -1.3757280000     1.1107190000
   11      C       0.0000000000     0.0000000000     0.0000000000
   12      C       0.1499950000     0.8504750000     1.0994460000
   13      C       0.3903270000     2.2133540000     0.7767210000
   14      H       0.0859470000     0.4872790000     2.1360880000
   15      C       0.4286650000     2.4306550000    -0.6125460000
   16      S       0.1636700000     0.9280780000    -1.4868090000
   17      C       0.5792350000     3.2845740000     1.8146090000
   18      H       0.5053230000     2.8654040000     2.8366760000
   19      H      -0.1859800000     4.0838900000     1.7262390000
   20      H       1.5716980000     3.7739370000     1.7262280000
   21      H       0.5935150000     3.3654480000    -1.1615750000
   22      H      -1.4338940000    -4.3927130000    -0.0326460000
   23      H      -0.2799540000    -4.3923470000    -1.4076510000
   24      H      -0.6942990000    -1.4409370000     0.8272540000
 ----------------------------------------------------------------
 Nuclear Repulsion Energy =         873.75384969 hartrees
 There are       52 alpha and       52 beta electrons

 Q-Chem warning in module forms1/BasisType.C, line 2236:

 You are not using the predefined 5D/6D in this basis set.

 Requested basis set is cc-pVTZ
 There are 196 shells and 536 basis functions

 Total QAlloc Memory Limit 110000 MB
 Mega-Array Size       188 MB
 MEM_STATIC part       192 MB
 Discretize the solute cavity surface with Lebedev spheres
	Using 110 Lebedev grid points for each H atom
	Using 194 Lebedev grid points for other atoms
	Atomic van der Waals radii will be scaled by 1.20
 Remove points where switching function is < 1.0e-08
 Keep 1605 surface tesserae and discard 2043 interior tesserae
 Molecular Surface Area = 235.560 Angst**2
 Requested basis set is rimp2-cc-pVTZ
 There are 414 shells and 1414 basis functions
 A cutoff of  1.0D-10 yielded  14046 shell pairs
 There are    101884 function pairs (    130623 Cartesian)
 Smallest overlap matrix eigenvalue = 5.45E-05

 Scale SEOQF with 1.000000e-01/1.000000e-01/1.000000e-01

 Standard Electronic Orientation quadrupole field applied
 Nucleus-field energy     =     0.0000000305 hartrees
 Guess from superposition of atomic densities
 Warning:  Energy on first SCF cycle will be non-variational
 SAD guess density has 104.000000 electrons

 -----------------------------------------------------------------------
  General SCF calculation program by
  Eric Jon Sundstrom, Paul Horn, Yuezhi Mao, Dmitri Zuev, Alec White,
  David Stuck, Shaama M.S., Shane Yost, Joonho Lee, David Small,
  Daniel Levine, Susi Lehtola, Hugh Burton, Evgeny Epifanovsky,
  Bang C. Huynh
 -----------------------------------------------------------------------
 Hartree-Fock
 A restricted SCF calculation will be
 performed using DIIS
 SCF converges when DIIS error is below 1.0e-06
 ---------------------------------------
  Cycle       Energy         DIIS error
 ---------------------------------------
    1   -1186.0245946390      2.39e-02  
    2   -1180.6158831982      1.56e-03  
    3   -1180.7402186075      6.09e-04  
    4   -1180.7544502603      3.38e-04  
    5   -1180.7596258195      5.86e-05  
    6   -1180.7598617181      2.39e-05  
    7   -1180.7599159099      8.53e-06  
    8   -1180.7599277883      4.09e-06  
    9   -1180.7599304560      1.43e-06  
   10   -1180.7599308951      5.06e-07  Convergence criterion met
 ---------------------------------------
 SCF time:   CPU 568.52s  wall 572.00s 

************** Final PCM Free Energy Summary **************
 G_electrostatic  =      -0.00953011 hartree =      -5.98023376 kcal/mol
 G_cavitation     =       0.00000000 hartree =       0.00000000 kcal/mol
 G_dispersion     =       0.00000000 hartree =       0.00000000 kcal/mol
 G_repulsion      =       0.00000000 hartree =       0.00000000 kcal/mol
 --------------------------------------------------
 Non-electrostatic Free Energy =       0.00000000 hartree =       0.00000000 kcal/mol
 Total                         =      -0.00953011 hartree =      -5.98023376 kcal/mol
 --------------------------------------------------
 SCF Energy (H0 + V/2)                       =   -1180.75993090 
 Solute Internal Energy (H0)                 =   -1180.75040079 
 Total Free Energy (H0 + V/2 + non-elec)     =   -1180.75993090 hartree
                                             = -740938.03961397 kcal/mol
***********************************************************

 SCF   energy in the final basis set =    -1180.7599308951
 Total energy in the final basis set =    -1180.7599308951


 --------------------------------------------------------------
  Generalized many-body perturbation theory program
  by Joonho Lee, Fazle Rob, Xintian Feng, Evgeny Epifanovsky

 No regularization used 
 (reg. param. = 0.0000e+00)
  (P|Q)^-1/2 Time:  CPU 1.90 s  wall 1.90 s

 In RI-MP2 calculation: 
 # of frozen core orbitals: 20

 Components of the RIMP2 correlation energy:
        aaaa    correlation energy =        -0.2514413159 a.u.
        abab    correlation energy =        -1.5032280132 a.u.
        bbbb    correlation energy =        -0.2514413159 a.u.
        non-Brillouin singles      =        -0.0000000000 a.u.
        total same-spin energy     =        -0.5028826318 a.u.
        total opposite-spin energy =        -1.5032280132 a.u.

 Total  RIMP2   correlation energy =        -2.0061106450 a.u.
        RIMP2         total energy =     -1182.7660415401 a.u.

 RI-MP2 Energy Time:  CPU 79.53 s  wall 79.83 s
 
 --------------------------------------------------------------
 
                    Orbital Energies (a.u.)
 --------------------------------------------------------------
 
 Alpha MOs
 -- Occupied --
-91.9814 -91.9432 -11.2840 -11.2644 -11.2609 -11.2575 -11.2510 -11.2420
-11.2392 -11.2322 -11.2292 -11.2207  -8.9812  -8.9478  -6.6621  -6.6616
 -6.6610  -6.6292  -6.6282  -6.6269  -1.1996  -1.1532  -1.0589  -1.0282
 -1.0036  -0.9614  -0.9128  -0.9007  -0.8167  -0.7611  -0.7310  -0.7058
 -0.6598  -0.6440  -0.6107  -0.5907  -0.5838  -0.5707  -0.5614  -0.5536
 -0.5421  -0.5317  -0.5174  -0.5063  -0.4862  -0.4814  -0.4632  -0.4470
 -0.3562  -0.3424  -0.3194  -0.2732
 -- Virtual --
  0.0984   0.1314   0.1434   0.1493   0.1574   0.1701   0.1729   0.1859
  0.1937   0.1984   0.2027   0.2163   0.2200   0.2344   0.2364   0.2428
  0.2543   0.2635   0.2785   0.2980   0.3143   0.3381   0.3466   0.3595
  0.3658   0.3723   0.3850   0.3928   0.3989   0.4116   0.4127   0.4158
  0.4296   0.4419   0.4479   0.4625   0.4702   0.4797   0.4865   0.4937
  0.4958   0.5114   0.5148   0.5253   0.5390   0.5404   0.5475   0.5560
  0.5650   0.5793   0.5871   0.5935   0.5975   0.6065   0.6113   0.6187
  0.6210   0.6275   0.6329   0.6408   0.6434   0.6493   0.6513   0.6557
  0.6617   0.6698   0.6828   0.6919   0.6989   0.7050   0.7152   0.7251
  0.7318   0.7458   0.7592   0.7742   0.7821   0.7839   0.8099   0.8220
  0.8279   0.8316   0.8638   0.8677   0.8778   0.8882   0.9040   0.9161
  0.9296   0.9427   0.9443   0.9587   0.9751   0.9907   1.0028   1.0084
  1.0145   1.0334   1.0389   1.0459   1.0536   1.0616   1.0796   1.0879
  1.0897   1.0956   1.1196   1.1253   1.1347   1.1484   1.1592   1.1720
  1.1828   1.1914   1.2031   1.2090   1.2136   1.2170   1.2336   1.2438
  1.2541   1.2581   1.2659   1.2728   1.2798   1.2866   1.3076   1.3235
  1.3339   1.3445   1.3575   1.3717   1.3791   1.3844   1.3937   1.4095
  1.4186   1.4350   1.4517   1.4584   1.4725   1.4778   1.4802   1.4974
  1.5069   1.5169   1.5192   1.5218   1.5379   1.5393   1.5447   1.5550
  1.5772   1.5880   1.5963   1.6073   1.6135   1.6203   1.6379   1.6413
  1.6540   1.6629   1.6735   1.6868   1.7064   1.7088   1.7310   1.7332
  1.7468   1.7537   1.7746   1.7843   1.8083   1.8141   1.8552   1.8767
  1.8834   1.9088   1.9284   1.9386   1.9456   1.9579   1.9974   2.0070
  2.0174   2.0350   2.0412   2.0590   2.0657   2.1227   2.1370   2.1586
  2.1848   2.2010   2.2098   2.2260   2.2442   2.2520   2.2676   2.2811
  2.2937   2.3095   2.3152   2.3609   2.3984   2.4387   2.4661   2.4735
  2.4919   2.5167   2.5364   2.5558   2.5702   2.5910   2.6029   2.6317
  2.6366   2.6512   2.6543   2.6665   2.6743   2.6872   2.6988   2.7340
  2.7422   2.7456   2.7615   2.7662   2.7748   2.7882   2.8055   2.8194
  2.8425   2.8495   2.8549   2.8630   2.8862   2.9016   2.9121   2.9190
  2.9278   2.9608   2.9646   2.9760   3.0004   3.0134   3.0301   3.0416
  3.0423   3.0652   3.0885   3.0967   3.1116   3.1180   3.1349   3.1361
  3.1499   3.1619   3.1680   3.1782   3.1904   3.1934   3.2006   3.2222
  3.2282   3.2401   3.2504   3.2614   3.2807   3.2938   3.2960   3.3005
  3.3041   3.3247   3.3305   3.3330   3.3475   3.3541   3.3609   3.3631
  3.3758   3.3881   3.3892   3.3977   3.4118   3.4162   3.4275   3.4397
  3.4460   3.4513   3.4590   3.4657   3.4766   3.4879   3.4892   3.5036
  3.5218   3.5228   3.5268   3.5410   3.5496   3.5582   3.5681   3.5801
  3.5837   3.5948   3.6139   3.6201   3.6338   3.6381   3.6509   3.6566
  3.6706   3.6729   3.6938   3.6989   3.7052   3.7234   3.7334   3.7416
  3.7481   3.7535   3.7820   3.7841   3.7925   3.7967   3.8115   3.8176
  3.8361   3.8481   3.8630   3.8659   3.8787   3.8886   3.9017   3.9184
  3.9255   3.9330   3.9422   3.9679   3.9693   3.9982   4.0112   4.0173
  4.0267   4.0401   4.0488   4.0552   4.0626   4.0739   4.0819   4.1004
  4.1206   4.1294   4.1436   4.1557   4.1622   4.1793   4.1879   4.1942
  4.2092   4.2177   4.2261   4.2299   4.2382   4.2627   4.2769   4.2845
  4.2963   4.3031   4.3097   4.3301   4.3388   4.3585   4.3678   4.3722
  4.3767   4.3943   4.4023   4.4102   4.4206   4.4272   4.4377   4.4477
  4.4555   4.4697   4.4796   4.4925   4.5125   4.5249   4.5289   4.5424
  4.5646   4.5973   4.6131   4.6307   4.6316   4.6491   4.6558   4.6764
  4.6824   4.7189   4.7419   4.7462   4.7863   4.8063   4.8284   4.8408
  4.8552   4.8833   4.8920   4.9252   4.9404   4.9513   4.9717   4.9831
  5.0220   5.0721   5.0844   5.1104   5.1233   5.1309   5.1381   5.1825
  5.2016   5.2130   5.2422   5.2634   5.2723   5.2861   5.3008   5.3280
  5.3365   5.3566   5.3820   5.3917   5.4106   5.4305   5.4346   5.4461
  5.4616   5.5227   5.5276   5.5405   5.5478   5.5641   5.5702   5.6026
  5.6148   5.6221   5.6368   5.6441   5.6647   5.6985   5.7138   5.7416
  5.7727   5.7951   5.8298   5.9689   6.0374   6.1043   6.1271   6.1770
  6.2094   6.2256   6.2299   6.2336   6.2622   6.2731   6.3051   6.3179
  6.3885   6.5691   9.3635  10.6167  12.0360  12.9558  13.1787  13.8847
 14.0978  14.2004  14.3743  15.0528
 --------------------------------------------------------------
 
          Ground-State Mulliken Net Atomic Charges

     Atom                 Charge (a.u.)
  ----------------------------------------
      1 C                    -0.075553
      2 C                    -0.323605
      3 C                    -0.043678
      4 H                     0.177301
      5 C                     0.104675
      6 S                    -0.175461
      7 C                    -0.271354
      8 H                     0.117297
      9 H                     0.097328
     10 H                     0.112758
     11 C                    -0.070152
     12 C                    -0.268716
     13 C                     0.025767
     14 H                     0.190380
     15 C                    -0.250425
     16 S                     0.008955
     17 C                    -0.272688
     18 H                     0.101389
     19 H                     0.108810
     20 H                     0.108373
     21 H                     0.196308
     22 H                     0.111920
     23 H                     0.111463
     24 H                     0.178906
  ----------------------------------------
  Sum of atomic charges =     0.000000

 -----------------------------------------------------------------
                    Cartesian Multipole Moments
 -----------------------------------------------------------------
    Charge (ESU x 10^10)
                -0.0000
    Dipole Moment (Debye)
         X       1.6256      Y       0.2051      Z       3.6560
       Tot       4.0064
    Quadrupole Moments (Debye-Ang)
        XX     -91.0651     XY       0.1132     YY     -73.7367
        XZ       0.2511     YZ      -2.2202     ZZ     -86.3357
    Octopole Moments (Debye-Ang^2)
       XXX     -36.8123    XXY      43.0810    XYY      -7.9063
       YYY     122.8870    XXZ       1.8436    XYZ      -2.8115
       YYZ      -2.3111    XZZ      -8.6945    YZZ      54.7011
       ZZZ       2.2881
    Hexadecapole Moments (Debye-Ang^3)
      XXXX    -503.1815   XXXY    -100.0940   XXYY    -586.0011
      XYYY     -61.6728   YYYY   -2755.3662   XXXZ    -153.0256
      XXYZ     -44.9271   XYYZ     -39.7193   YYYZ    -107.5036
      XXZZ    -216.2880   XYZZ     -35.4897   YYZZ    -622.4288
      XZZZ    -158.6240   YZZZ    -102.1609   ZZZZ    -781.8493
 -----------------------------------------------------------------
 Total job time:  654.38s(wall), 648.95s(cpu) 
 Sat Jul  9 21:22:48 2022

        *************************************************************
        *                                                           *
        *  Thank you very much for using Q-Chem.  Have a nice day.  *
        *                                                           *
        *************************************************************


remove work dirs ./qchem3993496.0 -- ./qchem3993496.-1
rm -rf ./qchem3993496
