You are running Q-Chem version: 5.4.0

#
# job setting
#
local host:  exp-2-27
current dir: /expanse/lustre/scratch/theleonzhang/temp_project/Hydrogenated_Rotation_Test
input file:  Methylthiophene_Phi_15_Theta_70_Methylthiophene_Hydrogenated.qcin
output file: 
nprocs     : 0
nthreads   : 1
#
# qchem installation setting
#
QC:          /cm/shared/apps/spack/cpu/opt/spack/linux-centos8-zen2/gcc-10.2.0/qchem-5.4-akfmr7b3t57bfs6qan3padb2wnb2i7cl
QCAUX:       /cm/shared/apps/spack/cpu/opt/spack/linux-centos8-zen2/gcc-10.2.0/qchem-5.4-akfmr7b3t57bfs6qan3padb2wnb2i7cl/qcaux
QCPROG:      /cm/shared/apps/spack/cpu/opt/spack/linux-centos8-zen2/gcc-10.2.0/qchem-5.4-akfmr7b3t57bfs6qan3padb2wnb2i7cl/exe/qcprog.exe_s
QCPROG_S:    /cm/shared/apps/spack/cpu/opt/spack/linux-centos8-zen2/gcc-10.2.0/qchem-5.4-akfmr7b3t57bfs6qan3padb2wnb2i7cl/exe/qcprog.exe_s
PARALLEL:    -DSERIAL
QCMPI:       mpich
#
# qchem directory setting
#
qcrun:       qchem1577606
QCSCRATCH:   .
QCLOCALSCR:  
QCTMPDIR:    .
QCFILEPREF:  ./qchem1577606
QCSAVEDIR:   
workdirs:    ./qchem1577606
workdir0:    ./qchem1577606
partmpdirs =  
#
# parallel setting
#
QCRSH:           ssh
QCMPI:           mpich
QCMPIRUN:        /cm/shared/apps/spack/cpu/opt/spack/linux-centos8-zen2/gcc-10.2.0/qchem-5.4-akfmr7b3t57bfs6qan3padb2wnb2i7cl/bin/mpi/mpirun_qchem
QCMACHINEFILE:   ./qchem1577606/hostfile

#
# env setting
#
exported envs:   QC QCAUX QCSCRATCH QCRUNNAME QCFILEPREF QCPROG QCPROG_S GUIFILE

Running Job 1 of 1 Methylthiophene_Phi_15_Theta_70_Methylthiophene_Hydrogenated.qcin
qchem Methylthiophene_Phi_15_Theta_70_Methylthiophene_Hydrogenated.qcin_1577606.0 ./qchem1577606/ 0
/cm/shared/apps/spack/cpu/opt/spack/linux-centos8-zen2/gcc-10.2.0/qchem-5.4-akfmr7b3t57bfs6qan3padb2wnb2i7cl/exe/qcprog.exe_s Methylthiophene_Phi_15_Theta_70_Methylthiophene_Hydrogenated.qcin_1577606.0 ./qchem1577606/
                  Welcome to Q-Chem
     A Quantum Leap Into The Future Of Chemistry


 Q-Chem 5.4, Q-Chem, Inc., Pleasanton, CA (2021)

 License issued to: University of California, San Diego (site)

 E. Epifanovsky,  A. T. B. Gilbert,  Xintian Feng,  Joonho Lee,  Yuezhi Mao,  
 N. Mardirossian,  P. Pokhilko,  A. White,  M. Wormit,  M. P. Coons,  
 A. L. Dempwolff,  Zhengting Gan,  D. Hait,  P. R. Horn,  L. D. Jacobson,  
 I. Kaliman,  J. Kussmann,  A. W. Lange,  Ka Un Lao,  D. S. Levine,  Jie Liu,  
 S. C. McKenzie,  A. F. Morrison,  K. Nanda,  F. Plasser,  D. R. Rehn,  
 M. L. Vidal,  Zhi-Qiang You,  Ying Zhu,  B. Alam,  B. Albrecht,  
 A. Aldossary,  E. Alguire,  J. H. Andersen,  D. Barton,  K. Begam,  A. Behn,  
 Y. A. Bernard,  E. J. Berquist,  H. Burton,  A. Carreras,  K. Carter-Fenk,  
 R. Chakraborty,  A. D. Chien,  K. D. Closser,  V. Cofer-Shabica,  
 S. Dasgupta,  Jia Deng,  M. de Wergifosse,  M. Diedenhofen,  Hainam Do,  
 S. Ehlert,  Po-Tung Fang,  S. Fatehi,  Qingguo Feng,  J. Gayvert,  
 Qinghui Ge,  G. Gidofalvi,  M. Goldey,  J. Gomes,  C. Gonzalez-Espinoza,  
 S. Gulania,  A. Gunina,  M. W. D. Hanson-Heine,  P. H. P. Harbach,  
 A. W. Hauser,  M. F. Herbst,  M. Hernandez Vera,  M. Hodecker,  
 Z. C. Holden,  S. Houck,  Xunkun Huang,  Kerwin Hui,  B. C. Huynh,  
 M. Ivanov,  Hyunjun Ji,  Hanjie Jiang,  B. Kaduk,  S. Kaehler,  
 K. Khistyaev,  Jaehoon Kim,  P. Klunzinger,  Z. Koczor-Benda,  
 Joong Hoon Koh,  D. Kosenkov,  L. Koulias,  T. Kowalczyk,  C. M. Krauter,  
 K. Kue,  A. Kunitsa,  T. Kus,  A. Landau,  K. V. Lawler,  D. Lefrancois,  
 S. Lehtola,  Rain Li,  Yi-Pei Li,  Jiashu Liang,  M. Liebenthal,  
 Hung-Hsuan Lin,  You-Sheng Lin,  Fenglai Liu,  Kuan-Yu Liu,  
 M. Loipersberger,  A. Luenser,  A. Manjanath,  P. Manohar,  E. Mansoor,  
 S. F. Manzer,  Shan-Ping Mao,  A. V. Marenich,  T. Markovich,  S. Mason,  
 S. A. Maurer,  P. F. McLaughlin,  M. F. S. J. Menger,  J.-M. Mewes,  
 S. A. Mewes,  P. Morgante,  J. W. Mullinax,  T. S. Nguyen-Beck,  
 K. J. Oosterbaan,  G. Paran,  Alexander C. Paul,  Suranjan K. Paul,  
 F. Pavosevic,  Zheng Pei,  S. Prager,  E. I. Proynov,  E. Ramos,  B. Rana,  
 A. E. Rask,  A. Rettig,  R. M. Richard,  F. Rob,  E. Rossomme,  T. Scheele,  
 M. Scheurer,  M. Schneider,  N. Sergueev,  S. M. Sharada,  W. Skomorowski,  
 D. W. Small,  C. J. Stein,  Yu-Chuan Su,  E. J. Sundstrom,  Zhen Tao,  
 J. Thirman,  T. Tsuchimochi,  N. M. Tubman,  S. P. Veccham,  O. Vydrov,  
 J. Wenzel,  J. Witte,  A. Yamada,  Kun Yao,  S. Yeganeh,  S. R. Yost,  
 A. Zech,  Igor Ying Zhang,  Xing Zhang,  Yu Zhang,  D. Zuev,  
 A. Aspuru-Guzik,  A. T. Bell,  N. A. Besley,  K. B. Bravaya,  B. R. Brooks,  
 D. Casanova,  Jeng-Da Chai,  S. Coriani,  C. J. Cramer,  
 A. E. DePrince, III,  R. A. DiStasio Jr.,  A. Dreuw,  B. D. Dunietz,  
 T. R. Furlani,  W. A. Goddard III,  S. Grimme,  S. Hammes-Schiffer,  
 T. Head-Gordon,  W. J. Hehre,  Chao-Ping Hsu,  T.-C. Jagau,  Yousung Jung,  
 A. Klamt,  Jing Kong,  D. S. Lambrecht,  WanZhen Liang,  N. J. Mayhall,  
 C. W. McCurdy,  J. B. Neaton,  C. Ochsenfeld,  J. A. Parkhill,  R. Peverati,  
 V. A. Rassolov,  Yihan Shao,  L. V. Slipchenko,  T. Stauch,  R. P. Steele,  
 J. E. Subotnik,  A. J. W. Thom,  A. Tkatchenko,  D. G. Truhlar,  
 T. Van Voorhis,  T. A. Wesolowski,  K. B. Whaley,  H. L. Woodcock III,  
 P. M. Zimmerman,  S. Faraji,  P. M. W. Gill,  M. Head-Gordon,  
 J. M. Herbert,  A. I. Krylov

 Contributors to earlier versions of Q-Chem not listed above: 
 R. D. Adamson,  B. Austin,  R. Baer,  J. Baker,  G. J. O. Beran,  
 K. Brandhorst,  S. T. Brown,  E. F. C. Byrd,  A. K. Chakraborty,  
 G. K. L. Chan,  Chun-Min Chang,  Yunqing Chen,  C.-L. Cheng,  
 Siu Hung Chien,  D. M. Chipman,  D. L. Crittenden,  H. Dachsel,  
 R. J. Doerksen,  A. D. Dutoi,  R. G. Edgar,  J. Fosso-Tande,  
 L. Fusti-Molnar,  D. Ghosh,  A. Ghysels,  A. Golubeva-Zadorozhnaya,  
 J. Gonthier,  M. S. Gordon,  S. R. Gwaltney,  G. Hawkins,  J. E. Herr,  
 A. Heyden,  S. Hirata,  E. G. Hohenstein,  G. Kedziora,  F. J. Keil,  
 C. Kelley,  Jihan Kim,  R. A. King,  R. Z. Khaliullin,  P. P. Korambath,  
 W. Kurlancheek,  A. Laurent,  A. M. Lee,  M. S. Lee,  S. V. Levchenko,  
 Ching Yeh Lin,  D. Liotard,  E. Livshits,  R. C. Lochan,  I. Lotan,  
 L. A. Martinez-Martinez,  P. E. Maslen,  N. Nair,  D. P. O'Neill,  
 D. Neuhauser,  E. Neuscamman,  C. M. Oana,  R. Olivares-Amaya,  R. Olson,  
 T. M. Perrine,  B. Peters,  P. A. Pieniazek,  A. Prociuk,  Y. M. Rhee,  
 J. Ritchie,  M. A. Rohrdanz,  E. Rosta,  N. J. Russ,  H. F. Schaefer III,  
 M. W. Schmidt,  N. E. Schultz,  S. Sharma,  N. Shenvi,  C. D. Sherrill,  
 A. C. Simmonett,  A. Sodt,  T. Stein,  D. Stuck,  K. S. Thanthiriwatte,  
 V. Vanovschi,  L. Vogt,  Tao Wang,  A. Warshel,  M. A. Watson,  
 C. F. Williams,  Q. Wu,  X. Xu,  Jun Yang,  W. Zhang,  Yan Zhao

 Please cite Q-Chem as follows:
 Y. Shao et al., Mol. Phys. 113, 184-215 (2015)
 DOI: 10.1080/00268976.2014.952696

 Q-Chem 5.4.0 for Intel X86 EM64T Linux

 Parts of Q-Chem use Armadillo 9.800.1 (Horizon Scraper).
 http://arma.sourceforge.net/

 Q-Chem begins on Sun Jul 10 00:55:59 2022  

 Host: 
0

     Scratch files written to ./qchem1577606//
 May1621 |scratch|qcdevops|jenkins|workspace|build_RNUM    
 Processing $rem in /cm/shared/apps/spack/cpu/opt/spack/linux-centos8-zen2/gcc-10.2.0/qchem-5.4-akfmr7b3t57bfs6qan3padb2wnb2i7cl/config/preferences:
 Processing $rem in /home/theleonzhang/.qchemrc:
 Symmetry turned off for PCM/SM12/SMD calculation
 Core orbitals will be frozen

 Checking the input file for inconsistencies... 	...done.

--------------------------------------------------------------
User input:
--------------------------------------------------------------
$molecule
0 1
C	-0.728625	-3.866725	0.264439
C	0.575519	-3.703963	-0.209794
C	1.002336	-2.357056	-0.364749
H	1.224165	-4.561092	-0.446060
C	0.000000	-1.440664	0.000000
S	-1.451336	-2.286957	0.528253
C	2.369885	-1.978743	-0.862253
H	2.976034	-2.878678	-1.082953
H	2.927887	-1.376015	-0.115513
H	2.317620	-1.375728	-1.792797
C	0.000000	0.000000	0.000000
C	0.223548	0.834165	1.099446
C	0.581748	2.170912	0.776721
H	0.128089	0.477934	2.136088
C	0.638880	2.384045	-0.612546
S	0.243934	0.910282	-1.486809
C	0.863301	3.221592	1.814609
H	0.753137	2.810458	2.836676
H	0.170663	4.084559	1.726239
H	1.894637	3.622593	1.726228
H	0.884575	3.300913	-1.161575
H	-0.745219	-4.392713	1.225465
H	-1.359038	-4.392347	-0.461378
H	0.369273	-1.440937	1.014907
$end

$rem
JOBTYPE		SP
EXCHANGE	HF
CORRELATION	pRIMP2
BASIS		cc-pvtz
METHOD		rimp2
AUX_BASIS	rimp2-cc-pvtz
SOLVENT_METHOD	PCM
PURECART	11111
SYMMETRY	false
MEM_TOTAL	110000
SCF_CONVERGENCE = 6
THRESH=10
$end



$solvent
dielectric 4.90
$end
--------------------------------------------------------------
 ----------------------------------------------------------------
             Standard Nuclear Orientation (Angstroms)
    I     Atom           X                Y                Z
 ----------------------------------------------------------------
    1      C      -0.7286250000    -3.8667250000     0.2644390000
    2      C       0.5755190000    -3.7039630000    -0.2097940000
    3      C       1.0023360000    -2.3570560000    -0.3647490000
    4      H       1.2241650000    -4.5610920000    -0.4460600000
    5      C       0.0000000000    -1.4406640000     0.0000000000
    6      S      -1.4513360000    -2.2869570000     0.5282530000
    7      C       2.3698850000    -1.9787430000    -0.8622530000
    8      H       2.9760340000    -2.8786780000    -1.0829530000
    9      H       2.9278870000    -1.3760150000    -0.1155130000
   10      H       2.3176200000    -1.3757280000    -1.7927970000
   11      C       0.0000000000     0.0000000000     0.0000000000
   12      C       0.2235480000     0.8341650000     1.0994460000
   13      C       0.5817480000     2.1709120000     0.7767210000
   14      H       0.1280890000     0.4779340000     2.1360880000
   15      C       0.6388800000     2.3840450000    -0.6125460000
   16      S       0.2439340000     0.9102820000    -1.4868090000
   17      C       0.8633010000     3.2215920000     1.8146090000
   18      H       0.7531370000     2.8104580000     2.8366760000
   19      H       0.1706630000     4.0845590000     1.7262390000
   20      H       1.8946370000     3.6225930000     1.7262280000
   21      H       0.8845750000     3.3009130000    -1.1615750000
   22      H      -0.7452190000    -4.3927130000     1.2254650000
   23      H      -1.3590380000    -4.3923470000    -0.4613780000
   24      H       0.3692730000    -1.4409370000     1.0149070000
 ----------------------------------------------------------------
 Nuclear Repulsion Energy =         873.90125888 hartrees
 There are       52 alpha and       52 beta electrons

 Q-Chem warning in module forms1/BasisType.C, line 2236:

 You are not using the predefined 5D/6D in this basis set.

 Requested basis set is cc-pVTZ
 There are 196 shells and 536 basis functions

 Total QAlloc Memory Limit 110000 MB
 Mega-Array Size       188 MB
 MEM_STATIC part       192 MB
 Discretize the solute cavity surface with Lebedev spheres
	Using 110 Lebedev grid points for each H atom
	Using 194 Lebedev grid points for other atoms
	Atomic van der Waals radii will be scaled by 1.20
 Remove points where switching function is < 1.0e-08
 Keep 1606 surface tesserae and discard 2042 interior tesserae
 Molecular Surface Area = 236.678 Angst**2
 Requested basis set is rimp2-cc-pVTZ
 There are 414 shells and 1414 basis functions
 A cutoff of  1.0D-10 yielded  14035 shell pairs
 There are    101839 function pairs (    130676 Cartesian)
 Smallest overlap matrix eigenvalue = 5.97E-05

 Scale SEOQF with 1.000000e-01/1.000000e-01/1.000000e-01

 Standard Electronic Orientation quadrupole field applied
 Nucleus-field energy     =     0.0000000351 hartrees
 Guess from superposition of atomic densities
 Warning:  Energy on first SCF cycle will be non-variational
 SAD guess density has 104.000000 electrons

 -----------------------------------------------------------------------
  General SCF calculation program by
  Eric Jon Sundstrom, Paul Horn, Yuezhi Mao, Dmitri Zuev, Alec White,
  David Stuck, Shaama M.S., Shane Yost, Joonho Lee, David Small,
  Daniel Levine, Susi Lehtola, Hugh Burton, Evgeny Epifanovsky,
  Bang C. Huynh
 -----------------------------------------------------------------------
 Hartree-Fock
 A restricted SCF calculation will be
 performed using DIIS
 SCF converges when DIIS error is below 1.0e-06
 ---------------------------------------
  Cycle       Energy         DIIS error
 ---------------------------------------
    1   -1186.0285896087      2.39e-02  
    2   -1180.6147546548      1.55e-03  
    3   -1180.7386065263      5.91e-04  
    4   -1180.7522437239      3.33e-04  
    5   -1180.7572324569      5.88e-05  
    6   -1180.7574766879      2.42e-05  
    7   -1180.7575356999      9.11e-06  
    8   -1180.7575499631      4.35e-06  
    9   -1180.7575532380      1.54e-06  
   10   -1180.7575537475      5.14e-07  Convergence criterion met
 ---------------------------------------
 SCF time:   CPU 572.49s  wall 576.00s 

************** Final PCM Free Energy Summary **************
 G_electrostatic  =      -0.00890003 hartree =      -5.58485602 kcal/mol
 G_cavitation     =       0.00000000 hartree =       0.00000000 kcal/mol
 G_dispersion     =       0.00000000 hartree =       0.00000000 kcal/mol
 G_repulsion      =       0.00000000 hartree =       0.00000000 kcal/mol
 --------------------------------------------------
 Non-electrostatic Free Energy =       0.00000000 hartree =       0.00000000 kcal/mol
 Total                         =      -0.00890003 hartree =      -5.58485602 kcal/mol
 --------------------------------------------------
 SCF Energy (H0 + V/2)                       =   -1180.75755375 
 Solute Internal Energy (H0)                 =   -1180.74865371 
 Total Free Energy (H0 + V/2 + non-elec)     =   -1180.75755375 hartree
                                             = -740936.54793134 kcal/mol
***********************************************************

 SCF   energy in the final basis set =    -1180.7575537475
 Total energy in the final basis set =    -1180.7575537475


 --------------------------------------------------------------
  Generalized many-body perturbation theory program
  by Joonho Lee, Fazle Rob, Xintian Feng, Evgeny Epifanovsky

 No regularization used 
 (reg. param. = 0.0000e+00)
  (P|Q)^-1/2 Time:  CPU 1.92 s  wall 1.92 s

 In RI-MP2 calculation: 
 # of frozen core orbitals: 20

 Components of the RIMP2 correlation energy:
        aaaa    correlation energy =        -0.2514593008 a.u.
        abab    correlation energy =        -1.5034869670 a.u.
        bbbb    correlation energy =        -0.2514593008 a.u.
        non-Brillouin singles      =        -0.0000000000 a.u.
        total same-spin energy     =        -0.5029186017 a.u.
        total opposite-spin energy =        -1.5034869670 a.u.

 Total  RIMP2   correlation energy =        -2.0064055686 a.u.
        RIMP2         total energy =     -1182.7639593161 a.u.

 RI-MP2 Energy Time:  CPU 80.27 s  wall 80.52 s
 
 --------------------------------------------------------------
 
                    Orbital Energies (a.u.)
 --------------------------------------------------------------
 
 Alpha MOs
 -- Occupied --
-91.9814 -91.9399 -11.2813 -11.2645 -11.2633 -11.2550 -11.2511 -11.2429
-11.2404 -11.2308 -11.2294 -11.2195  -8.9813  -8.9447  -6.6623  -6.6617
 -6.6612  -6.6261  -6.6251  -6.6238  -1.1986  -1.1536  -1.0584  -1.0249
 -1.0072  -0.9591  -0.9120  -0.9014  -0.8136  -0.7642  -0.7340  -0.7010
 -0.6613  -0.6409  -0.6104  -0.5880  -0.5795  -0.5728  -0.5671  -0.5511
 -0.5419  -0.5302  -0.5156  -0.5051  -0.4933  -0.4783  -0.4592  -0.4479
 -0.3549  -0.3432  -0.3149  -0.2766
 -- Virtual --
  0.0933   0.1336   0.1410   0.1518   0.1581   0.1704   0.1778   0.1797
  0.1906   0.1960   0.2037   0.2092   0.2292   0.2333   0.2391   0.2441
  0.2504   0.2603   0.2639   0.2925   0.3087   0.3362   0.3473   0.3537
  0.3654   0.3720   0.3770   0.3962   0.3964   0.4017   0.4145   0.4273
  0.4335   0.4451   0.4501   0.4600   0.4655   0.4710   0.4826   0.4898
  0.5087   0.5118   0.5170   0.5334   0.5374   0.5420   0.5484   0.5532
  0.5653   0.5684   0.5793   0.5894   0.5979   0.6072   0.6151   0.6201
  0.6235   0.6303   0.6324   0.6410   0.6434   0.6483   0.6513   0.6538
  0.6632   0.6690   0.6819   0.6867   0.6919   0.7054   0.7087   0.7264
  0.7328   0.7479   0.7524   0.7624   0.7915   0.7936   0.8048   0.8246
  0.8316   0.8371   0.8486   0.8553   0.8674   0.8797   0.8920   0.9130
  0.9320   0.9476   0.9549   0.9653   0.9772   0.9860   1.0009   1.0057
  1.0154   1.0241   1.0287   1.0346   1.0510   1.0730   1.0750   1.0831
  1.0948   1.0959   1.1073   1.1237   1.1285   1.1540   1.1569   1.1716
  1.1772   1.1970   1.2014   1.2053   1.2157   1.2221   1.2309   1.2440
  1.2518   1.2569   1.2642   1.2740   1.2823   1.2844   1.3068   1.3113
  1.3208   1.3335   1.3375   1.3551   1.3679   1.4000   1.4046   1.4164
  1.4207   1.4370   1.4454   1.4512   1.4730   1.4805   1.4941   1.4982
  1.5062   1.5112   1.5187   1.5309   1.5344   1.5432   1.5485   1.5535
  1.5664   1.5754   1.5843   1.5927   1.6051   1.6174   1.6194   1.6440
  1.6464   1.6592   1.6848   1.6913   1.6985   1.7087   1.7183   1.7319
  1.7438   1.7586   1.7815   1.7908   1.8039   1.8272   1.8434   1.8653
  1.8698   1.9074   1.9303   1.9351   1.9543   1.9633   1.9945   1.9961
  2.0153   2.0257   2.0406   2.0557   2.0832   2.1216   2.1322   2.1582
  2.1825   2.1910   2.2106   2.2164   2.2366   2.2583   2.2685   2.2818
  2.3242   2.3332   2.3410   2.3592   2.4016   2.4217   2.4388   2.4621
  2.4963   2.5025   2.5356   2.5503   2.5676   2.5794   2.6075   2.6206
  2.6359   2.6477   2.6563   2.6638   2.6769   2.6955   2.7159   2.7225
  2.7374   2.7497   2.7567   2.7645   2.7769   2.7861   2.7899   2.8097
  2.8297   2.8464   2.8522   2.8783   2.8822   2.9093   2.9138   2.9296
  2.9426   2.9530   2.9603   2.9719   3.0117   3.0229   3.0354   3.0372
  3.0428   3.0881   3.0943   3.1052   3.1115   3.1210   3.1229   3.1381
  3.1475   3.1562   3.1612   3.1709   3.1852   3.1891   3.1972   3.2051
  3.2249   3.2404   3.2523   3.2689   3.2783   3.2882   3.2946   3.3065
  3.3170   3.3189   3.3271   3.3385   3.3485   3.3560   3.3596   3.3671
  3.3741   3.3896   3.3969   3.3973   3.4029   3.4112   3.4230   3.4308
  3.4424   3.4466   3.4613   3.4692   3.4798   3.4828   3.4966   3.5027
  3.5164   3.5234   3.5320   3.5397   3.5463   3.5530   3.5768   3.5782
  3.5935   3.6002   3.6104   3.6271   3.6317   3.6337   3.6455   3.6607
  3.6674   3.6780   3.6869   3.6944   3.7017   3.7230   3.7332   3.7390
  3.7462   3.7557   3.7656   3.7762   3.7838   3.7967   3.8018   3.8115
  3.8248   3.8368   3.8512   3.8671   3.8679   3.8812   3.8959   3.9135
  3.9296   3.9447   3.9493   3.9700   3.9706   3.9803   4.0001   4.0084
  4.0295   4.0424   4.0493   4.0576   4.0736   4.0814   4.0913   4.1115
  4.1235   4.1272   4.1417   4.1598   4.1704   4.1746   4.1863   4.2000
  4.2110   4.2163   4.2294   4.2493   4.2545   4.2622   4.2669   4.2850
  4.2928   4.3018   4.3170   4.3305   4.3337   4.3506   4.3592   4.3608
  4.3767   4.3989   4.4011   4.4161   4.4193   4.4212   4.4281   4.4455
  4.4605   4.4722   4.4792   4.4868   4.4990   4.5069   4.5323   4.5486
  4.5689   4.5858   4.6062   4.6306   4.6382   4.6508   4.6644   4.6804
  4.6934   4.7193   4.7321   4.7647   4.7901   4.8056   4.8142   4.8420
  4.8581   4.8654   4.8885   4.9024   4.9414   4.9495   4.9809   4.9938
  5.0267   5.0418   5.0936   5.1006   5.1169   5.1300   5.1414   5.1750
  5.1856   5.2076   5.2297   5.2718   5.2818   5.2860   5.3131   5.3177
  5.3414   5.3624   5.3818   5.3991   5.4111   5.4290   5.4408   5.4540
  5.4716   5.5168   5.5242   5.5397   5.5502   5.5606   5.5695   5.5986
  5.6222   5.6268   5.6386   5.6444   5.6749   5.6953   5.7064   5.7322
  5.7772   5.8117   5.8323   5.9817   5.9925   6.0898   6.1226   6.1362
  6.2103   6.2159   6.2262   6.2389   6.2496   6.2845   6.2967   6.3259
  6.3856   6.4792   9.4953  10.4581  12.0674  12.9459  13.1549  13.9669
 14.0993  14.2132  14.3055  14.7487
 --------------------------------------------------------------
 
          Ground-State Mulliken Net Atomic Charges

     Atom                 Charge (a.u.)
  ----------------------------------------
      1 C                    -0.077310
      2 C                    -0.327024
      3 C                    -0.016276
      4 H                     0.176747
      5 C                     0.069957
      6 S                    -0.180644
      7 C                    -0.269728
      8 H                     0.114200
      9 H                     0.104884
     10 H                     0.107830
     11 C                    -0.065892
     12 C                    -0.252050
     13 C                     0.027441
     14 H                     0.182247
     15 C                    -0.240824
     16 S                     0.007610
     17 C                    -0.271494
     18 H                     0.102326
     19 H                     0.108655
     20 H                     0.107813
     21 H                     0.196543
     22 H                     0.110274
     23 H                     0.111988
     24 H                     0.172725
  ----------------------------------------
  Sum of atomic charges =     0.000000

 -----------------------------------------------------------------
                    Cartesian Multipole Moments
 -----------------------------------------------------------------
    Charge (ESU x 10^10)
                -0.0000
    Dipole Moment (Debye)
         X       3.0734      Y       0.5385      Z       1.3924
       Tot       3.4168
    Quadrupole Moments (Debye-Ang)
        XX     -91.3200     XY      -1.3231     YY     -74.6251
        XZ       0.0165     YZ       1.0745     ZZ     -85.7419
    Octopole Moments (Debye-Ang^2)
       XXX     -51.7684    XXY      46.5158    XYY      -8.5211
       YYY     129.2663    XXZ      -4.4366    XYZ       1.4685
       YYZ      -1.0497    XZZ     -16.7490    YZZ      56.5655
       ZZZ       4.9143
    Hexadecapole Moments (Debye-Ang^3)
      XXXX    -711.0241   XXXY    -155.9063   XXYY    -606.2482
      XYYY     -98.5904   YYYY   -2738.4808   XXXZ      61.4485
      XXYZ     -18.5511   XYYZ       6.5092   YYYZ    -107.3742
      XXZZ    -225.2654   XYZZ     -37.0292   YYZZ    -595.3540
      XZZZ      68.8331   YZZZ     -93.6849   ZZZZ    -605.1316
 -----------------------------------------------------------------
 Total job time:  659.80s(wall), 653.67s(cpu) 
 Sun Jul 10 01:06:58 2022

        *************************************************************
        *                                                           *
        *  Thank you very much for using Q-Chem.  Have a nice day.  *
        *                                                           *
        *************************************************************


remove work dirs ./qchem1577606.0 -- ./qchem1577606.-1
rm -rf ./qchem1577606
