You are running Q-Chem version: 5.4.0

#
# job setting
#
local host:  exp-2-29
current dir: /expanse/lustre/scratch/theleonzhang/temp_project/Hydrogenated_Rotation_Test
input file:  Methylthiophene_Phi_5_Theta_180_Methylthiophene_Hydrogenated.qcin
output file: 
nprocs     : 0
nthreads   : 1
#
# qchem installation setting
#
QC:          /cm/shared/apps/spack/cpu/opt/spack/linux-centos8-zen2/gcc-10.2.0/qchem-5.4-akfmr7b3t57bfs6qan3padb2wnb2i7cl
QCAUX:       /cm/shared/apps/spack/cpu/opt/spack/linux-centos8-zen2/gcc-10.2.0/qchem-5.4-akfmr7b3t57bfs6qan3padb2wnb2i7cl/qcaux
QCPROG:      /cm/shared/apps/spack/cpu/opt/spack/linux-centos8-zen2/gcc-10.2.0/qchem-5.4-akfmr7b3t57bfs6qan3padb2wnb2i7cl/exe/qcprog.exe_s
QCPROG_S:    /cm/shared/apps/spack/cpu/opt/spack/linux-centos8-zen2/gcc-10.2.0/qchem-5.4-akfmr7b3t57bfs6qan3padb2wnb2i7cl/exe/qcprog.exe_s
PARALLEL:    -DSERIAL
QCMPI:       mpich
#
# qchem directory setting
#
qcrun:       qchem357864
QCSCRATCH:   .
QCLOCALSCR:  
QCTMPDIR:    .
QCFILEPREF:  ./qchem357864
QCSAVEDIR:   
workdirs:    ./qchem357864
workdir0:    ./qchem357864
partmpdirs =  
#
# parallel setting
#
QCRSH:           ssh
QCMPI:           mpich
QCMPIRUN:        /cm/shared/apps/spack/cpu/opt/spack/linux-centos8-zen2/gcc-10.2.0/qchem-5.4-akfmr7b3t57bfs6qan3padb2wnb2i7cl/bin/mpi/mpirun_qchem
QCMACHINEFILE:   ./qchem357864/hostfile

#
# env setting
#
exported envs:   QC QCAUX QCSCRATCH QCRUNNAME QCFILEPREF QCPROG QCPROG_S GUIFILE

Running Job 1 of 1 Methylthiophene_Phi_5_Theta_180_Methylthiophene_Hydrogenated.qcin
qchem Methylthiophene_Phi_5_Theta_180_Methylthiophene_Hydrogenated.qcin_357864.0 ./qchem357864/ 0
/cm/shared/apps/spack/cpu/opt/spack/linux-centos8-zen2/gcc-10.2.0/qchem-5.4-akfmr7b3t57bfs6qan3padb2wnb2i7cl/exe/qcprog.exe_s Methylthiophene_Phi_5_Theta_180_Methylthiophene_Hydrogenated.qcin_357864.0 ./qchem357864/
                  Welcome to Q-Chem
     A Quantum Leap Into The Future Of Chemistry


 Q-Chem 5.4, Q-Chem, Inc., Pleasanton, CA (2021)

 License issued to: University of California, San Diego (site)

 E. Epifanovsky,  A. T. B. Gilbert,  Xintian Feng,  Joonho Lee,  Yuezhi Mao,  
 N. Mardirossian,  P. Pokhilko,  A. White,  M. Wormit,  M. P. Coons,  
 A. L. Dempwolff,  Zhengting Gan,  D. Hait,  P. R. Horn,  L. D. Jacobson,  
 I. Kaliman,  J. Kussmann,  A. W. Lange,  Ka Un Lao,  D. S. Levine,  Jie Liu,  
 S. C. McKenzie,  A. F. Morrison,  K. Nanda,  F. Plasser,  D. R. Rehn,  
 M. L. Vidal,  Zhi-Qiang You,  Ying Zhu,  B. Alam,  B. Albrecht,  
 A. Aldossary,  E. Alguire,  J. H. Andersen,  D. Barton,  K. Begam,  A. Behn,  
 Y. A. Bernard,  E. J. Berquist,  H. Burton,  A. Carreras,  K. Carter-Fenk,  
 R. Chakraborty,  A. D. Chien,  K. D. Closser,  V. Cofer-Shabica,  
 S. Dasgupta,  Jia Deng,  M. de Wergifosse,  M. Diedenhofen,  Hainam Do,  
 S. Ehlert,  Po-Tung Fang,  S. Fatehi,  Qingguo Feng,  J. Gayvert,  
 Qinghui Ge,  G. Gidofalvi,  M. Goldey,  J. Gomes,  C. Gonzalez-Espinoza,  
 S. Gulania,  A. Gunina,  M. W. D. Hanson-Heine,  P. H. P. Harbach,  
 A. W. Hauser,  M. F. Herbst,  M. Hernandez Vera,  M. Hodecker,  
 Z. C. Holden,  S. Houck,  Xunkun Huang,  Kerwin Hui,  B. C. Huynh,  
 M. Ivanov,  Hyunjun Ji,  Hanjie Jiang,  B. Kaduk,  S. Kaehler,  
 K. Khistyaev,  Jaehoon Kim,  P. Klunzinger,  Z. Koczor-Benda,  
 Joong Hoon Koh,  D. Kosenkov,  L. Koulias,  T. Kowalczyk,  C. M. Krauter,  
 K. Kue,  A. Kunitsa,  T. Kus,  A. Landau,  K. V. Lawler,  D. Lefrancois,  
 S. Lehtola,  Rain Li,  Yi-Pei Li,  Jiashu Liang,  M. Liebenthal,  
 Hung-Hsuan Lin,  You-Sheng Lin,  Fenglai Liu,  Kuan-Yu Liu,  
 M. Loipersberger,  A. Luenser,  A. Manjanath,  P. Manohar,  E. Mansoor,  
 S. F. Manzer,  Shan-Ping Mao,  A. V. Marenich,  T. Markovich,  S. Mason,  
 S. A. Maurer,  P. F. McLaughlin,  M. F. S. J. Menger,  J.-M. Mewes,  
 S. A. Mewes,  P. Morgante,  J. W. Mullinax,  T. S. Nguyen-Beck,  
 K. J. Oosterbaan,  G. Paran,  Alexander C. Paul,  Suranjan K. Paul,  
 F. Pavosevic,  Zheng Pei,  S. Prager,  E. I. Proynov,  E. Ramos,  B. Rana,  
 A. E. Rask,  A. Rettig,  R. M. Richard,  F. Rob,  E. Rossomme,  T. Scheele,  
 M. Scheurer,  M. Schneider,  N. Sergueev,  S. M. Sharada,  W. Skomorowski,  
 D. W. Small,  C. J. Stein,  Yu-Chuan Su,  E. J. Sundstrom,  Zhen Tao,  
 J. Thirman,  T. Tsuchimochi,  N. M. Tubman,  S. P. Veccham,  O. Vydrov,  
 J. Wenzel,  J. Witte,  A. Yamada,  Kun Yao,  S. Yeganeh,  S. R. Yost,  
 A. Zech,  Igor Ying Zhang,  Xing Zhang,  Yu Zhang,  D. Zuev,  
 A. Aspuru-Guzik,  A. T. Bell,  N. A. Besley,  K. B. Bravaya,  B. R. Brooks,  
 D. Casanova,  Jeng-Da Chai,  S. Coriani,  C. J. Cramer,  
 A. E. DePrince, III,  R. A. DiStasio Jr.,  A. Dreuw,  B. D. Dunietz,  
 T. R. Furlani,  W. A. Goddard III,  S. Grimme,  S. Hammes-Schiffer,  
 T. Head-Gordon,  W. J. Hehre,  Chao-Ping Hsu,  T.-C. Jagau,  Yousung Jung,  
 A. Klamt,  Jing Kong,  D. S. Lambrecht,  WanZhen Liang,  N. J. Mayhall,  
 C. W. McCurdy,  J. B. Neaton,  C. Ochsenfeld,  J. A. Parkhill,  R. Peverati,  
 V. A. Rassolov,  Yihan Shao,  L. V. Slipchenko,  T. Stauch,  R. P. Steele,  
 J. E. Subotnik,  A. J. W. Thom,  A. Tkatchenko,  D. G. Truhlar,  
 T. Van Voorhis,  T. A. Wesolowski,  K. B. Whaley,  H. L. Woodcock III,  
 P. M. Zimmerman,  S. Faraji,  P. M. W. Gill,  M. Head-Gordon,  
 J. M. Herbert,  A. I. Krylov

 Contributors to earlier versions of Q-Chem not listed above: 
 R. D. Adamson,  B. Austin,  R. Baer,  J. Baker,  G. J. O. Beran,  
 K. Brandhorst,  S. T. Brown,  E. F. C. Byrd,  A. K. Chakraborty,  
 G. K. L. Chan,  Chun-Min Chang,  Yunqing Chen,  C.-L. Cheng,  
 Siu Hung Chien,  D. M. Chipman,  D. L. Crittenden,  H. Dachsel,  
 R. J. Doerksen,  A. D. Dutoi,  R. G. Edgar,  J. Fosso-Tande,  
 L. Fusti-Molnar,  D. Ghosh,  A. Ghysels,  A. Golubeva-Zadorozhnaya,  
 J. Gonthier,  M. S. Gordon,  S. R. Gwaltney,  G. Hawkins,  J. E. Herr,  
 A. Heyden,  S. Hirata,  E. G. Hohenstein,  G. Kedziora,  F. J. Keil,  
 C. Kelley,  Jihan Kim,  R. A. King,  R. Z. Khaliullin,  P. P. Korambath,  
 W. Kurlancheek,  A. Laurent,  A. M. Lee,  M. S. Lee,  S. V. Levchenko,  
 Ching Yeh Lin,  D. Liotard,  E. Livshits,  R. C. Lochan,  I. Lotan,  
 L. A. Martinez-Martinez,  P. E. Maslen,  N. Nair,  D. P. O'Neill,  
 D. Neuhauser,  E. Neuscamman,  C. M. Oana,  R. Olivares-Amaya,  R. Olson,  
 T. M. Perrine,  B. Peters,  P. A. Pieniazek,  A. Prociuk,  Y. M. Rhee,  
 J. Ritchie,  M. A. Rohrdanz,  E. Rosta,  N. J. Russ,  H. F. Schaefer III,  
 M. W. Schmidt,  N. E. Schultz,  S. Sharma,  N. Shenvi,  C. D. Sherrill,  
 A. C. Simmonett,  A. Sodt,  T. Stein,  D. Stuck,  K. S. Thanthiriwatte,  
 V. Vanovschi,  L. Vogt,  Tao Wang,  A. Warshel,  M. A. Watson,  
 C. F. Williams,  Q. Wu,  X. Xu,  Jun Yang,  W. Zhang,  Yan Zhao

 Please cite Q-Chem as follows:
 Y. Shao et al., Mol. Phys. 113, 184-215 (2015)
 DOI: 10.1080/00268976.2014.952696

 Q-Chem 5.4.0 for Intel X86 EM64T Linux

 Parts of Q-Chem use Armadillo 9.800.1 (Horizon Scraper).
 http://arma.sourceforge.net/

 Q-Chem begins on Sun Jul 10 02:46:56 2022  

 Host: 
0

     Scratch files written to ./qchem357864//
 May1621 |scratch|qcdevops|jenkins|workspace|build_RNUM    
 Processing $rem in /cm/shared/apps/spack/cpu/opt/spack/linux-centos8-zen2/gcc-10.2.0/qchem-5.4-akfmr7b3t57bfs6qan3padb2wnb2i7cl/config/preferences:
 Processing $rem in /home/theleonzhang/.qchemrc:
 Symmetry turned off for PCM/SM12/SMD calculation
 Core orbitals will be frozen

 Checking the input file for inconsistencies... 	...done.

--------------------------------------------------------------
User input:
--------------------------------------------------------------
$molecule
0 1
C	0.000713	-3.866725	-0.775127
C	0.000302	-3.703963	0.612565
C	-0.000067	-2.357056	1.066639
H	0.000470	-4.561092	1.302900
C	-0.000000	-1.440664	-0.000000
S	-0.000009	-2.286957	-1.544483
C	-0.000295	-1.978743	2.521872
H	-0.000221	-2.878678	3.166949
H	-0.892850	-1.376015	2.790821
H	0.892005	-1.375728	2.791023
C	0.000000	0.000000	0.000000
C	0.075300	0.860311	1.099446
C	0.195935	2.238951	0.776721
H	0.043151	0.492916	2.136088
C	0.215188	2.458766	-0.612546
S	0.082160	0.938811	-1.486809
C	0.290762	3.322559	1.814609
H	0.253664	2.898542	2.836676
H	-0.541206	4.052140	1.726239
H	1.236797	3.896558	1.726228
H	0.297938	3.404370	-1.161575
H	-0.896681	-4.392713	-1.119411
H	0.898372	-4.392347	-1.119277
H	-1.080000	-1.440937	-0.000115
$end

$rem
JOBTYPE		SP
EXCHANGE	HF
CORRELATION	pRIMP2
BASIS		cc-pvtz
METHOD		rimp2
AUX_BASIS	rimp2-cc-pvtz
SOLVENT_METHOD	PCM
PURECART	11111
SYMMETRY	false
MEM_TOTAL	110000
SCF_CONVERGENCE = 6
THRESH=10
$end



$solvent
dielectric 4.90
$end
--------------------------------------------------------------
 ----------------------------------------------------------------
             Standard Nuclear Orientation (Angstroms)
    I     Atom           X                Y                Z
 ----------------------------------------------------------------
    1      C       0.0007130000    -3.8667250000    -0.7751270000
    2      C       0.0003020000    -3.7039630000     0.6125650000
    3      C      -0.0000670000    -2.3570560000     1.0666390000
    4      H       0.0004700000    -4.5610920000     1.3029000000
    5      C       0.0000000000    -1.4406640000     0.0000000000
    6      S      -0.0000090000    -2.2869570000    -1.5444830000
    7      C      -0.0002950000    -1.9787430000     2.5218720000
    8      H      -0.0002210000    -2.8786780000     3.1669490000
    9      H      -0.8928500000    -1.3760150000     2.7908210000
   10      H       0.8920050000    -1.3757280000     2.7910230000
   11      C       0.0000000000     0.0000000000     0.0000000000
   12      C       0.0753000000     0.8603110000     1.0994460000
   13      C       0.1959350000     2.2389510000     0.7767210000
   14      H       0.0431510000     0.4929160000     2.1360880000
   15      C       0.2151880000     2.4587660000    -0.6125460000
   16      S       0.0821600000     0.9388110000    -1.4868090000
   17      C       0.2907620000     3.3225590000     1.8146090000
   18      H       0.2536640000     2.8985420000     2.8366760000
   19      H      -0.5412060000     4.0521400000     1.7262390000
   20      H       1.2367970000     3.8965580000     1.7262280000
   21      H       0.2979380000     3.4043700000    -1.1615750000
   22      H      -0.8966810000    -4.3927130000    -1.1194110000
   23      H       0.8983720000    -4.3923470000    -1.1192770000
   24      H      -1.0800000000    -1.4409370000    -0.0001150000
 ----------------------------------------------------------------
 Nuclear Repulsion Energy =         876.13275435 hartrees
 There are       52 alpha and       52 beta electrons

 Q-Chem warning in module forms1/BasisType.C, line 2236:

 You are not using the predefined 5D/6D in this basis set.

 Requested basis set is cc-pVTZ
 There are 196 shells and 536 basis functions

 Total QAlloc Memory Limit 110000 MB
 Mega-Array Size       188 MB
 MEM_STATIC part       192 MB
 Discretize the solute cavity surface with Lebedev spheres
	Using 110 Lebedev grid points for each H atom
	Using 194 Lebedev grid points for other atoms
	Atomic van der Waals radii will be scaled by 1.20
 Remove points where switching function is < 1.0e-08
 Keep 1579 surface tesserae and discard 2069 interior tesserae
 Molecular Surface Area = 232.027 Angst**2
 Requested basis set is rimp2-cc-pVTZ
 There are 414 shells and 1414 basis functions
 A cutoff of  1.0D-10 yielded  14032 shell pairs
 There are    101602 function pairs (    130178 Cartesian)
 Smallest overlap matrix eigenvalue = 4.18E-05

 Scale SEOQF with 1.000000e+00/1.000000e-01/1.000000e-01

 Standard Electronic Orientation quadrupole field applied
 Nucleus-field energy     =     0.0000000235 hartrees
 Guess from superposition of atomic densities
 Warning:  Energy on first SCF cycle will be non-variational
 SAD guess density has 104.000000 electrons

 -----------------------------------------------------------------------
  General SCF calculation program by
  Eric Jon Sundstrom, Paul Horn, Yuezhi Mao, Dmitri Zuev, Alec White,
  David Stuck, Shaama M.S., Shane Yost, Joonho Lee, David Small,
  Daniel Levine, Susi Lehtola, Hugh Burton, Evgeny Epifanovsky,
  Bang C. Huynh
 -----------------------------------------------------------------------
 Hartree-Fock
 A restricted SCF calculation will be
 performed using DIIS
 SCF converges when DIIS error is below 1.0e-06
 ---------------------------------------
  Cycle       Energy         DIIS error
 ---------------------------------------
    1   -1186.0577680390      2.39e-02  
    2   -1180.6061718458      1.60e-03  
    3   -1180.7331828407      6.72e-04  
    4   -1180.7499538022      3.48e-04  
    5   -1180.7556677941      5.96e-05  
    6   -1180.7559191388      2.50e-05  
    7   -1180.7559787114      8.77e-06  
    8   -1180.7559912576      4.22e-06  
    9   -1180.7559940081      1.42e-06  
   10   -1180.7559944264      5.12e-07  Convergence criterion met
 ---------------------------------------
 SCF time:   CPU 579.66s  wall 581.00s 

************** Final PCM Free Energy Summary **************
 G_electrostatic  =      -0.00962981 hartree =      -6.04279806 kcal/mol
 G_cavitation     =       0.00000000 hartree =       0.00000000 kcal/mol
 G_dispersion     =       0.00000000 hartree =       0.00000000 kcal/mol
 G_repulsion      =       0.00000000 hartree =       0.00000000 kcal/mol
 --------------------------------------------------
 Non-electrostatic Free Energy =       0.00000000 hartree =       0.00000000 kcal/mol
 Total                         =      -0.00962981 hartree =      -6.04279806 kcal/mol
 --------------------------------------------------
 SCF Energy (H0 + V/2)                       =   -1180.75599443 
 Solute Internal Energy (H0)                 =   -1180.74636461 
 Total Free Energy (H0 + V/2 + non-elec)     =   -1180.75599443 hartree
                                             = -740935.56944260 kcal/mol
***********************************************************

 SCF   energy in the final basis set =    -1180.7559944264
 Total energy in the final basis set =    -1180.7559944264


 --------------------------------------------------------------
  Generalized many-body perturbation theory program
  by Joonho Lee, Fazle Rob, Xintian Feng, Evgeny Epifanovsky

 No regularization used 
 (reg. param. = 0.0000e+00)
  (P|Q)^-1/2 Time:  CPU 1.90 s  wall 1.91 s

 In RI-MP2 calculation: 
 # of frozen core orbitals: 20

 Components of the RIMP2 correlation energy:
        aaaa    correlation energy =        -0.2515068601 a.u.
        abab    correlation energy =        -1.5028732828 a.u.
        bbbb    correlation energy =        -0.2515068601 a.u.
        non-Brillouin singles      =        -0.0000000000 a.u.
        total same-spin energy     =        -0.5030137202 a.u.
        total opposite-spin energy =        -1.5028732828 a.u.

 Total  RIMP2   correlation energy =        -2.0058870030 a.u.
        RIMP2         total energy =     -1182.7618814294 a.u.

 RI-MP2 Energy Time:  CPU 80.39 s  wall 80.62 s
 
 --------------------------------------------------------------
 
                    Orbital Energies (a.u.)
 --------------------------------------------------------------
 
 Alpha MOs
 -- Occupied --
-91.9840 -91.9467 -11.2905 -11.2670 -11.2622 -11.2527 -11.2496 -11.2450
-11.2345 -11.2279 -11.2275 -11.2243  -8.9836  -8.9514  -6.6646  -6.6640
 -6.6634  -6.6328  -6.6318  -6.6305  -1.2029  -1.1521  -1.0607  -1.0326
 -1.0012  -0.9616  -0.9168  -0.8993  -0.8188  -0.7638  -0.7279  -0.7059
 -0.6578  -0.6490  -0.6103  -0.5947  -0.5855  -0.5686  -0.5611  -0.5511
 -0.5460  -0.5362  -0.5242  -0.5011  -0.4866  -0.4818  -0.4701  -0.4431
 -0.3617  -0.3439  -0.3240  -0.2637
 -- Virtual --
  0.1071   0.1308   0.1394   0.1480   0.1564   0.1708   0.1749   0.1859
  0.1885   0.2032   0.2081   0.2140   0.2176   0.2324   0.2377   0.2418
  0.2634   0.2722   0.2915   0.3077   0.3141   0.3227   0.3549   0.3640
  0.3713   0.3763   0.3876   0.3935   0.4026   0.4065   0.4157   0.4242
  0.4336   0.4609   0.4626   0.4711   0.4745   0.4795   0.4858   0.4963
  0.5127   0.5217   0.5284   0.5326   0.5368   0.5467   0.5496   0.5637
  0.5752   0.5839   0.5879   0.5952   0.6017   0.6133   0.6185   0.6233
  0.6254   0.6301   0.6317   0.6380   0.6415   0.6501   0.6545   0.6609
  0.6694   0.6735   0.6778   0.6929   0.6972   0.7186   0.7235   0.7317
  0.7484   0.7585   0.7666   0.7697   0.7889   0.8062   0.8159   0.8199
  0.8369   0.8421   0.8544   0.8779   0.8851   0.8953   0.9034   0.9122
  0.9463   0.9503   0.9578   0.9632   0.9831   0.9880   1.0027   1.0100
  1.0248   1.0392   1.0457   1.0526   1.0563   1.0682   1.0751   1.0822
  1.0866   1.0930   1.1090   1.1253   1.1427   1.1468   1.1575   1.1732
  1.1831   1.1862   1.2041   1.2103   1.2154   1.2238   1.2295   1.2395
  1.2469   1.2574   1.2639   1.2734   1.2833   1.2914   1.3035   1.3173
  1.3190   1.3330   1.3497   1.3625   1.3667   1.3785   1.4164   1.4193
  1.4356   1.4380   1.4499   1.4702   1.4739   1.4845   1.4915   1.4967
  1.5127   1.5201   1.5261   1.5320   1.5368   1.5416   1.5493   1.5654
  1.5719   1.6014   1.6044   1.6132   1.6186   1.6293   1.6417   1.6503
  1.6541   1.6628   1.6820   1.6982   1.7022   1.7163   1.7194   1.7354
  1.7525   1.7637   1.7799   1.7941   1.8382   1.8431   1.8666   1.8728
  1.8803   1.8988   1.9042   1.9243   1.9501   1.9716   1.9885   1.9986
  2.0213   2.0407   2.0552   2.0647   2.0971   2.1115   2.1331   2.1786
  2.1842   2.2007   2.2084   2.2190   2.2359   2.2499   2.2673   2.2809
  2.2966   2.3041   2.3384   2.3890   2.4072   2.4440   2.4618   2.4723
  2.4964   2.5153   2.5310   2.5433   2.5630   2.5947   2.5988   2.6141
  2.6331   2.6559   2.6605   2.6691   2.6838   2.6969   2.7254   2.7374
  2.7512   2.7641   2.7655   2.7711   2.7853   2.7999   2.8053   2.8121
  2.8274   2.8574   2.8598   2.8788   2.8948   2.8989   2.9152   2.9234
  2.9377   2.9563   2.9783   2.9992   3.0048   3.0288   3.0382   3.0530
  3.0766   3.0856   3.0923   3.1079   3.1143   3.1200   3.1238   3.1423
  3.1451   3.1567   3.1629   3.1773   3.1821   3.1942   3.2047   3.2119
  3.2188   3.2378   3.2454   3.2670   3.2703   3.2804   3.2964   3.3034
  3.3078   3.3254   3.3336   3.3446   3.3466   3.3586   3.3674   3.3745
  3.3779   3.3836   3.3878   3.3929   3.4123   3.4189   3.4263   3.4288
  3.4361   3.4518   3.4566   3.4638   3.4880   3.4897   3.4973   3.5077
  3.5156   3.5252   3.5317   3.5386   3.5432   3.5598   3.5638   3.5754
  3.5806   3.6016   3.6089   3.6129   3.6322   3.6405   3.6533   3.6538
  3.6646   3.6827   3.6932   3.7070   3.7106   3.7220   3.7331   3.7439
  3.7495   3.7628   3.7674   3.7747   3.7887   3.7909   3.8079   3.8172
  3.8268   3.8303   3.8623   3.8705   3.8754   3.8856   3.8962   3.9085
  3.9257   3.9462   3.9588   3.9686   3.9831   3.9898   4.0144   4.0267
  4.0384   4.0477   4.0560   4.0588   4.0747   4.0826   4.0941   4.0979
  4.1276   4.1422   4.1515   4.1612   4.1638   4.1769   4.1828   4.1905
  4.2118   4.2197   4.2297   4.2427   4.2559   4.2642   4.2750   4.2880
  4.3053   4.3099   4.3272   4.3365   4.3419   4.3557   4.3667   4.3734
  4.3821   4.4020   4.4039   4.4195   4.4243   4.4410   4.4464   4.4512
  4.4649   4.4777   4.4894   4.5006   4.5165   4.5287   4.5662   4.5818
  4.5894   4.6010   4.6128   4.6144   4.6429   4.6511   4.6553   4.6871
  4.6939   4.7283   4.7709   4.7765   4.8019   4.8055   4.8230   4.8519
  4.8638   4.8715   4.8892   4.9194   4.9417   4.9683   4.9867   5.0041
  5.0548   5.0738   5.1086   5.1184   5.1205   5.1280   5.1643   5.1933
  5.2249   5.2408   5.2585   5.2684   5.2949   5.3049   5.3147   5.3396
  5.3562   5.3710   5.3755   5.4008   5.4172   5.4240   5.4388   5.4444
  5.4643   5.5270   5.5332   5.5500   5.5507   5.5646   5.5776   5.6010
  5.6162   5.6249   5.6323   5.6522   5.6871   5.7063   5.7144   5.7473
  5.7720   5.7945   5.8473   5.9715   6.0298   6.0946   6.1373   6.1850
  6.2179   6.2271   6.2455   6.2565   6.2738   6.2885   6.3253   6.4319
  6.4691   6.6036   9.5872  11.1207  12.0416  12.9729  13.1938  13.9799
 14.1337  14.2183  14.4169  15.2283
 --------------------------------------------------------------
 
          Ground-State Mulliken Net Atomic Charges

     Atom                 Charge (a.u.)
  ----------------------------------------
      1 C                    -0.072075
      2 C                    -0.313542
      3 C                    -0.055178
      4 H                     0.179538
      5 C                     0.144596
      6 S                    -0.179830
      7 C                    -0.305284
      8 H                     0.123720
      9 H                     0.106157
     10 H                     0.110765
     11 C                    -0.066659
     12 C                    -0.270531
     13 C                     0.035229
     14 H                     0.189739
     15 C                    -0.285748
     16 S                     0.005445
     17 C                    -0.273209
     18 H                     0.100329
     19 H                     0.108364
     20 H                     0.108571
     21 H                     0.196813
     22 H                     0.111772
     23 H                     0.114144
     24 H                     0.186873
  ----------------------------------------
  Sum of atomic charges =     0.000000

 -----------------------------------------------------------------
                    Cartesian Multipole Moments
 -----------------------------------------------------------------
    Charge (ESU x 10^10)
                -0.0000
    Dipole Moment (Debye)
         X      -0.7756      Y      -0.5963      Z       3.7472
       Tot       3.8728
    Quadrupole Moments (Debye-Ang)
        XX     -91.7149     XY       2.3388     YY     -72.7578
        XZ       0.3498     YZ      -2.3299     ZZ     -85.6775
    Octopole Moments (Debye-Ang^2)
       XXX     -18.8322    XXY      44.0942    XYY      -4.8349
       YYY     112.0825    XXZ      -3.1376    XYZ      -0.8390
       YYZ      -4.4468    XZZ      -5.2465    YZZ      48.6662
       ZZZ       8.3207
    Hexadecapole Moments (Debye-Ang^3)
      XXXX    -143.4492   XXXY     -44.9655   XXYY    -553.8410
      XYYY     -30.2805   YYYY   -2751.7663   XXXZ      -7.3025
      XXYZ     -27.5752   XYYZ      -2.0655   YYYZ    -103.6523
      XXZZ    -220.8939   XYZZ     -11.7150   YYZZ    -656.4370
      XZZZ      -6.6914   YZZZ    -133.1504   ZZZZ   -1097.3857
 -----------------------------------------------------------------
 Total job time:  664.76s(wall), 660.93s(cpu) 
 Sun Jul 10 02:58:01 2022

        *************************************************************
        *                                                           *
        *  Thank you very much for using Q-Chem.  Have a nice day.  *
        *                                                           *
        *************************************************************


remove work dirs ./qchem357864.0 -- ./qchem357864.-1
rm -rf ./qchem357864
