You are running Q-Chem version: 5.4.0

#
# job setting
#
local host:  exp-3-35
current dir: /expanse/lustre/scratch/theleonzhang/temp_project/Hydrogenated_Rotation_Test
input file:  Methylthiophene_Phi_0_Theta_150_Methylthiophene_Hydrogenated_Alternate.qcin
output file: 
nprocs     : 0
nthreads   : 1
#
# qchem installation setting
#
QC:          /cm/shared/apps/spack/cpu/opt/spack/linux-centos8-zen2/gcc-10.2.0/qchem-5.4-akfmr7b3t57bfs6qan3padb2wnb2i7cl
QCAUX:       /cm/shared/apps/spack/cpu/opt/spack/linux-centos8-zen2/gcc-10.2.0/qchem-5.4-akfmr7b3t57bfs6qan3padb2wnb2i7cl/qcaux
QCPROG:      /cm/shared/apps/spack/cpu/opt/spack/linux-centos8-zen2/gcc-10.2.0/qchem-5.4-akfmr7b3t57bfs6qan3padb2wnb2i7cl/exe/qcprog.exe_s
QCPROG_S:    /cm/shared/apps/spack/cpu/opt/spack/linux-centos8-zen2/gcc-10.2.0/qchem-5.4-akfmr7b3t57bfs6qan3padb2wnb2i7cl/exe/qcprog.exe_s
PARALLEL:    -DSERIAL
QCMPI:       mpich
#
# qchem directory setting
#
qcrun:       qchem3972149
QCSCRATCH:   .
QCLOCALSCR:  
QCTMPDIR:    .
QCFILEPREF:  ./qchem3972149
QCSAVEDIR:   
workdirs:    ./qchem3972149
workdir0:    ./qchem3972149
partmpdirs =  
#
# parallel setting
#
QCRSH:           ssh
QCMPI:           mpich
QCMPIRUN:        /cm/shared/apps/spack/cpu/opt/spack/linux-centos8-zen2/gcc-10.2.0/qchem-5.4-akfmr7b3t57bfs6qan3padb2wnb2i7cl/bin/mpi/mpirun_qchem
QCMACHINEFILE:   ./qchem3972149/hostfile

#
# env setting
#
exported envs:   QC QCAUX QCSCRATCH QCRUNNAME QCFILEPREF QCPROG QCPROG_S GUIFILE

Running Job 1 of 1 Methylthiophene_Phi_0_Theta_150_Methylthiophene_Hydrogenated_Alternate.qcin
qchem Methylthiophene_Phi_0_Theta_150_Methylthiophene_Hydrogenated_Alternate.qcin_3972149.0 ./qchem3972149/ 0
/cm/shared/apps/spack/cpu/opt/spack/linux-centos8-zen2/gcc-10.2.0/qchem-5.4-akfmr7b3t57bfs6qan3padb2wnb2i7cl/exe/qcprog.exe_s Methylthiophene_Phi_0_Theta_150_Methylthiophene_Hydrogenated_Alternate.qcin_3972149.0 ./qchem3972149/
                  Welcome to Q-Chem
     A Quantum Leap Into The Future Of Chemistry


 Q-Chem 5.4, Q-Chem, Inc., Pleasanton, CA (2021)

 License issued to: University of California, San Diego (site)

 E. Epifanovsky,  A. T. B. Gilbert,  Xintian Feng,  Joonho Lee,  Yuezhi Mao,  
 N. Mardirossian,  P. Pokhilko,  A. White,  M. Wormit,  M. P. Coons,  
 A. L. Dempwolff,  Zhengting Gan,  D. Hait,  P. R. Horn,  L. D. Jacobson,  
 I. Kaliman,  J. Kussmann,  A. W. Lange,  Ka Un Lao,  D. S. Levine,  Jie Liu,  
 S. C. McKenzie,  A. F. Morrison,  K. Nanda,  F. Plasser,  D. R. Rehn,  
 M. L. Vidal,  Zhi-Qiang You,  Ying Zhu,  B. Alam,  B. Albrecht,  
 A. Aldossary,  E. Alguire,  J. H. Andersen,  D. Barton,  K. Begam,  A. Behn,  
 Y. A. Bernard,  E. J. Berquist,  H. Burton,  A. Carreras,  K. Carter-Fenk,  
 R. Chakraborty,  A. D. Chien,  K. D. Closser,  V. Cofer-Shabica,  
 S. Dasgupta,  Jia Deng,  M. de Wergifosse,  M. Diedenhofen,  Hainam Do,  
 S. Ehlert,  Po-Tung Fang,  S. Fatehi,  Qingguo Feng,  J. Gayvert,  
 Qinghui Ge,  G. Gidofalvi,  M. Goldey,  J. Gomes,  C. Gonzalez-Espinoza,  
 S. Gulania,  A. Gunina,  M. W. D. Hanson-Heine,  P. H. P. Harbach,  
 A. W. Hauser,  M. F. Herbst,  M. Hernandez Vera,  M. Hodecker,  
 Z. C. Holden,  S. Houck,  Xunkun Huang,  Kerwin Hui,  B. C. Huynh,  
 M. Ivanov,  Hyunjun Ji,  Hanjie Jiang,  B. Kaduk,  S. Kaehler,  
 K. Khistyaev,  Jaehoon Kim,  P. Klunzinger,  Z. Koczor-Benda,  
 Joong Hoon Koh,  D. Kosenkov,  L. Koulias,  T. Kowalczyk,  C. M. Krauter,  
 K. Kue,  A. Kunitsa,  T. Kus,  A. Landau,  K. V. Lawler,  D. Lefrancois,  
 S. Lehtola,  Rain Li,  Yi-Pei Li,  Jiashu Liang,  M. Liebenthal,  
 Hung-Hsuan Lin,  You-Sheng Lin,  Fenglai Liu,  Kuan-Yu Liu,  
 M. Loipersberger,  A. Luenser,  A. Manjanath,  P. Manohar,  E. Mansoor,  
 S. F. Manzer,  Shan-Ping Mao,  A. V. Marenich,  T. Markovich,  S. Mason,  
 S. A. Maurer,  P. F. McLaughlin,  M. F. S. J. Menger,  J.-M. Mewes,  
 S. A. Mewes,  P. Morgante,  J. W. Mullinax,  T. S. Nguyen-Beck,  
 K. J. Oosterbaan,  G. Paran,  Alexander C. Paul,  Suranjan K. Paul,  
 F. Pavosevic,  Zheng Pei,  S. Prager,  E. I. Proynov,  E. Ramos,  B. Rana,  
 A. E. Rask,  A. Rettig,  R. M. Richard,  F. Rob,  E. Rossomme,  T. Scheele,  
 M. Scheurer,  M. Schneider,  N. Sergueev,  S. M. Sharada,  W. Skomorowski,  
 D. W. Small,  C. J. Stein,  Yu-Chuan Su,  E. J. Sundstrom,  Zhen Tao,  
 J. Thirman,  T. Tsuchimochi,  N. M. Tubman,  S. P. Veccham,  O. Vydrov,  
 J. Wenzel,  J. Witte,  A. Yamada,  Kun Yao,  S. Yeganeh,  S. R. Yost,  
 A. Zech,  Igor Ying Zhang,  Xing Zhang,  Yu Zhang,  D. Zuev,  
 A. Aspuru-Guzik,  A. T. Bell,  N. A. Besley,  K. B. Bravaya,  B. R. Brooks,  
 D. Casanova,  Jeng-Da Chai,  S. Coriani,  C. J. Cramer,  
 A. E. DePrince, III,  R. A. DiStasio Jr.,  A. Dreuw,  B. D. Dunietz,  
 T. R. Furlani,  W. A. Goddard III,  S. Grimme,  S. Hammes-Schiffer,  
 T. Head-Gordon,  W. J. Hehre,  Chao-Ping Hsu,  T.-C. Jagau,  Yousung Jung,  
 A. Klamt,  Jing Kong,  D. S. Lambrecht,  WanZhen Liang,  N. J. Mayhall,  
 C. W. McCurdy,  J. B. Neaton,  C. Ochsenfeld,  J. A. Parkhill,  R. Peverati,  
 V. A. Rassolov,  Yihan Shao,  L. V. Slipchenko,  T. Stauch,  R. P. Steele,  
 J. E. Subotnik,  A. J. W. Thom,  A. Tkatchenko,  D. G. Truhlar,  
 T. Van Voorhis,  T. A. Wesolowski,  K. B. Whaley,  H. L. Woodcock III,  
 P. M. Zimmerman,  S. Faraji,  P. M. W. Gill,  M. Head-Gordon,  
 J. M. Herbert,  A. I. Krylov

 Contributors to earlier versions of Q-Chem not listed above: 
 R. D. Adamson,  B. Austin,  R. Baer,  J. Baker,  G. J. O. Beran,  
 K. Brandhorst,  S. T. Brown,  E. F. C. Byrd,  A. K. Chakraborty,  
 G. K. L. Chan,  Chun-Min Chang,  Yunqing Chen,  C.-L. Cheng,  
 Siu Hung Chien,  D. M. Chipman,  D. L. Crittenden,  H. Dachsel,  
 R. J. Doerksen,  A. D. Dutoi,  R. G. Edgar,  J. Fosso-Tande,  
 L. Fusti-Molnar,  D. Ghosh,  A. Ghysels,  A. Golubeva-Zadorozhnaya,  
 J. Gonthier,  M. S. Gordon,  S. R. Gwaltney,  G. Hawkins,  J. E. Herr,  
 A. Heyden,  S. Hirata,  E. G. Hohenstein,  G. Kedziora,  F. J. Keil,  
 C. Kelley,  Jihan Kim,  R. A. King,  R. Z. Khaliullin,  P. P. Korambath,  
 W. Kurlancheek,  A. Laurent,  A. M. Lee,  M. S. Lee,  S. V. Levchenko,  
 Ching Yeh Lin,  D. Liotard,  E. Livshits,  R. C. Lochan,  I. Lotan,  
 L. A. Martinez-Martinez,  P. E. Maslen,  N. Nair,  D. P. O'Neill,  
 D. Neuhauser,  E. Neuscamman,  C. M. Oana,  R. Olivares-Amaya,  R. Olson,  
 T. M. Perrine,  B. Peters,  P. A. Pieniazek,  A. Prociuk,  Y. M. Rhee,  
 J. Ritchie,  M. A. Rohrdanz,  E. Rosta,  N. J. Russ,  H. F. Schaefer III,  
 M. W. Schmidt,  N. E. Schultz,  S. Sharma,  N. Shenvi,  C. D. Sherrill,  
 A. C. Simmonett,  A. Sodt,  T. Stein,  D. Stuck,  K. S. Thanthiriwatte,  
 V. Vanovschi,  L. Vogt,  Tao Wang,  A. Warshel,  M. A. Watson,  
 C. F. Williams,  Q. Wu,  X. Xu,  Jun Yang,  W. Zhang,  Yan Zhao

 Please cite Q-Chem as follows:
 Y. Shao et al., Mol. Phys. 113, 184-215 (2015)
 DOI: 10.1080/00268976.2014.952696

 Q-Chem 5.4.0 for Intel X86 EM64T Linux

 Parts of Q-Chem use Armadillo 9.800.1 (Horizon Scraper).
 http://arma.sourceforge.net/

 Q-Chem begins on Sun Jul 10 02:38:27 2022  

 Host: 
0

     Scratch files written to ./qchem3972149//
 May1621 |scratch|qcdevops|jenkins|workspace|build_RNUM    
 Processing $rem in /cm/shared/apps/spack/cpu/opt/spack/linux-centos8-zen2/gcc-10.2.0/qchem-5.4-akfmr7b3t57bfs6qan3padb2wnb2i7cl/config/preferences:
 Processing $rem in /home/theleonzhang/.qchemrc:
 Symmetry turned off for PCM/SM12/SMD calculation
 Core orbitals will be frozen

 Checking the input file for inconsistencies... 	...done.

--------------------------------------------------------------
User input:
--------------------------------------------------------------
$molecule
0 1
C	-0.386946	-3.866725	-0.671636
C	0.306544	-3.703963	0.530345
C	0.533261	-2.357056	0.923770
H	0.651857	-4.561092	1.128109
C	0.000000	-1.440664	0.000000
S	-0.772250	-2.286957	-1.337557
C	1.260680	-1.978743	2.184153
H	1.583283	-2.878678	2.742769
H	0.622180	-1.376015	2.863347
H	2.168011	-1.375728	1.971094
C	0.000000	0.000000	0.000000
C	0.000033	0.863600	1.099446
C	0.000052	2.247508	0.776721
H	0.000026	0.494801	2.136088
C	0.000074	2.468165	-0.612546
S	0.000024	0.942399	-1.486809
C	0.000075	3.335257	1.814609
H	0.000074	2.909620	2.836676
H	-0.892314	3.989552	1.726239
H	0.892483	3.989525	1.726228
H	0.000094	3.417382	-1.161575
H	-1.336254	-4.392713	-0.521098
H	0.218374	-4.392347	-1.418509
H	0.935365	-1.440391	-0.539900
$end

$rem
JOBTYPE		SP
EXCHANGE	HF
CORRELATION	pRIMP2
BASIS		cc-pvtz
METHOD		rimp2
AUX_BASIS	rimp2-cc-pvtz
SOLVENT_METHOD	PCM
PURECART	11111
SYMMETRY	false
MEM_TOTAL	110000
SCF_CONVERGENCE = 6
THRESH=10
$end



$solvent
dielectric 4.90
$end
--------------------------------------------------------------
 ----------------------------------------------------------------
             Standard Nuclear Orientation (Angstroms)
    I     Atom           X                Y                Z
 ----------------------------------------------------------------
    1      C      -0.3869460000    -3.8667250000    -0.6716360000
    2      C       0.3065440000    -3.7039630000     0.5303450000
    3      C       0.5332610000    -2.3570560000     0.9237700000
    4      H       0.6518570000    -4.5610920000     1.1281090000
    5      C       0.0000000000    -1.4406640000     0.0000000000
    6      S      -0.7722500000    -2.2869570000    -1.3375570000
    7      C       1.2606800000    -1.9787430000     2.1841530000
    8      H       1.5832830000    -2.8786780000     2.7427690000
    9      H       0.6221800000    -1.3760150000     2.8633470000
   10      H       2.1680110000    -1.3757280000     1.9710940000
   11      C       0.0000000000     0.0000000000     0.0000000000
   12      C       0.0000330000     0.8636000000     1.0994460000
   13      C       0.0000520000     2.2475080000     0.7767210000
   14      H       0.0000260000     0.4948010000     2.1360880000
   15      C       0.0000740000     2.4681650000    -0.6125460000
   16      S       0.0000240000     0.9423990000    -1.4868090000
   17      C       0.0000750000     3.3352570000     1.8146090000
   18      H       0.0000740000     2.9096200000     2.8366760000
   19      H      -0.8923140000     3.9895520000     1.7262390000
   20      H       0.8924830000     3.9895250000     1.7262280000
   21      H       0.0000940000     3.4173820000    -1.1615750000
   22      H      -1.3362540000    -4.3927130000    -0.5210980000
   23      H       0.2183740000    -4.3923470000    -1.4185090000
   24      H       0.9353650000    -1.4403910000    -0.5399000000
 ----------------------------------------------------------------
 Nuclear Repulsion Energy =         874.86420107 hartrees
 There are       52 alpha and       52 beta electrons

 Q-Chem warning in module forms1/BasisType.C, line 2236:

 You are not using the predefined 5D/6D in this basis set.

 Requested basis set is cc-pVTZ
 There are 196 shells and 536 basis functions

 Total QAlloc Memory Limit 110000 MB
 Mega-Array Size       188 MB
 MEM_STATIC part       192 MB
 Discretize the solute cavity surface with Lebedev spheres
	Using 110 Lebedev grid points for each H atom
	Using 194 Lebedev grid points for other atoms
	Atomic van der Waals radii will be scaled by 1.20
 Remove points where switching function is < 1.0e-08
 Keep 1596 surface tesserae and discard 2052 interior tesserae
 Molecular Surface Area = 233.971 Angst**2
 Requested basis set is rimp2-cc-pVTZ
 There are 414 shells and 1414 basis functions
 A cutoff of  1.0D-10 yielded  14009 shell pairs
 There are    101435 function pairs (    129988 Cartesian)
 Smallest overlap matrix eigenvalue = 5.32E-05

 Scale SEOQF with 1.000000e-01/1.000000e-01/1.000000e-01

 Standard Electronic Orientation quadrupole field applied
 Nucleus-field energy     =     0.0000000252 hartrees
 Guess from superposition of atomic densities
 Warning:  Energy on first SCF cycle will be non-variational
 SAD guess density has 104.000000 electrons

 -----------------------------------------------------------------------
  General SCF calculation program by
  Eric Jon Sundstrom, Paul Horn, Yuezhi Mao, Dmitri Zuev, Alec White,
  David Stuck, Shaama M.S., Shane Yost, Joonho Lee, David Small,
  Daniel Levine, Susi Lehtola, Hugh Burton, Evgeny Epifanovsky,
  Bang C. Huynh
 -----------------------------------------------------------------------
 Hartree-Fock
 A restricted SCF calculation will be
 performed using DIIS
 SCF converges when DIIS error is below 1.0e-06
 ---------------------------------------
  Cycle       Energy         DIIS error
 ---------------------------------------
    1   -1186.0402384860      2.39e-02  
    2   -1180.6115805019      1.58e-03  
    3   -1180.7377352187      6.47e-04  
    4   -1180.7534629952      3.43e-04  
    5   -1180.7589329232      5.92e-05  
    6   -1180.7591827438      2.48e-05  
    7   -1180.7592429288      8.90e-06  
    8   -1180.7592562092      4.34e-06  
    9   -1180.7592591185      1.43e-06  
   10   -1180.7592595548      5.14e-07  Convergence criterion met
 ---------------------------------------
 SCF time:   CPU 568.99s  wall 570.00s 

************** Final PCM Free Energy Summary **************
 G_electrostatic  =      -0.00948222 hartree =      -5.95018575 kcal/mol
 G_cavitation     =       0.00000000 hartree =       0.00000000 kcal/mol
 G_dispersion     =       0.00000000 hartree =       0.00000000 kcal/mol
 G_repulsion      =       0.00000000 hartree =       0.00000000 kcal/mol
 --------------------------------------------------
 Non-electrostatic Free Energy =       0.00000000 hartree =       0.00000000 kcal/mol
 Total                         =      -0.00948222 hartree =      -5.95018575 kcal/mol
 --------------------------------------------------
 SCF Energy (H0 + V/2)                       =   -1180.75925955 
 Solute Internal Energy (H0)                 =   -1180.74977733 
 Total Free Energy (H0 + V/2 + non-elec)     =   -1180.75925955 hartree
                                             = -740937.61834156 kcal/mol
***********************************************************

 SCF   energy in the final basis set =    -1180.7592595548
 Total energy in the final basis set =    -1180.7592595548


 --------------------------------------------------------------
  Generalized many-body perturbation theory program
  by Joonho Lee, Fazle Rob, Xintian Feng, Evgeny Epifanovsky

 No regularization used 
 (reg. param. = 0.0000e+00)
  (P|Q)^-1/2 Time:  CPU 1.90 s  wall 1.90 s

 In RI-MP2 calculation: 
 # of frozen core orbitals: 20

 Components of the RIMP2 correlation energy:
        aaaa    correlation energy =        -0.2511070562 a.u.
        abab    correlation energy =        -1.5023257934 a.u.
        bbbb    correlation energy =        -0.2511070562 a.u.
        non-Brillouin singles      =        -0.0000000000 a.u.
        total same-spin energy     =        -0.5022141123 a.u.
        total opposite-spin energy =        -1.5023257934 a.u.

 Total  RIMP2   correlation energy =        -2.0045399057 a.u.
        RIMP2         total energy =     -1182.7637994605 a.u.

 RI-MP2 Energy Time:  CPU 79.55 s  wall 79.71 s
 
 --------------------------------------------------------------
 
                    Orbital Energies (a.u.)
 --------------------------------------------------------------
 
 Alpha MOs
 -- Occupied --
-91.9837 -91.9452 -11.2878 -11.2659 -11.2603 -11.2567 -11.2501 -11.2438
-11.2335 -11.2316 -11.2282 -11.2231  -8.9835  -8.9499  -6.6645  -6.6639
 -6.6633  -6.6313  -6.6303  -6.6290  -1.2016  -1.1528  -1.0602  -1.0310
 -1.0010  -0.9627  -0.9151  -0.8998  -0.8172  -0.7625  -0.7359  -0.7035
 -0.6555  -0.6439  -0.6104  -0.5928  -0.5822  -0.5688  -0.5651  -0.5530
 -0.5461  -0.5343  -0.5201  -0.5036  -0.4879  -0.4821  -0.4668  -0.4468
 -0.3582  -0.3433  -0.3240  -0.2674
 -- Virtual --
  0.1018   0.1331   0.1399   0.1472   0.1575   0.1705   0.1787   0.1863
  0.1919   0.2029   0.2062   0.2149   0.2270   0.2297   0.2395   0.2409
  0.2539   0.2728   0.2799   0.3020   0.3189   0.3303   0.3497   0.3633
  0.3691   0.3757   0.3816   0.3947   0.4001   0.4095   0.4157   0.4227
  0.4382   0.4487   0.4640   0.4665   0.4775   0.4790   0.4867   0.4947
  0.5016   0.5096   0.5151   0.5275   0.5395   0.5438   0.5476   0.5593
  0.5640   0.5835   0.5855   0.5938   0.5997   0.6045   0.6126   0.6205
  0.6232   0.6284   0.6316   0.6349   0.6424   0.6505   0.6544   0.6583
  0.6661   0.6795   0.6863   0.6942   0.7040   0.7127   0.7214   0.7234
  0.7402   0.7468   0.7616   0.7715   0.7849   0.7962   0.8033   0.8247
  0.8336   0.8441   0.8636   0.8681   0.8824   0.8957   0.8994   0.9172
  0.9286   0.9406   0.9480   0.9664   0.9719   0.9823   1.0050   1.0178
  1.0241   1.0294   1.0429   1.0445   1.0574   1.0634   1.0762   1.0850
  1.0887   1.0937   1.1032   1.1320   1.1367   1.1470   1.1609   1.1724
  1.1878   1.1964   1.2050   1.2062   1.2107   1.2274   1.2353   1.2419
  1.2488   1.2586   1.2647   1.2799   1.2858   1.2925   1.2973   1.3139
  1.3197   1.3227   1.3560   1.3671   1.3716   1.3849   1.4035   1.4183
  1.4230   1.4349   1.4391   1.4583   1.4694   1.4805   1.4895   1.4947
  1.5035   1.5120   1.5160   1.5318   1.5380   1.5455   1.5499   1.5538
  1.5742   1.5871   1.5891   1.5977   1.6244   1.6312   1.6348   1.6436
  1.6536   1.6671   1.6785   1.6924   1.7094   1.7208   1.7327   1.7369
  1.7482   1.7573   1.7796   1.8045   1.8198   1.8306   1.8490   1.8669
  1.8726   1.9044   1.9073   1.9258   1.9347   1.9770   1.9855   2.0026
  2.0194   2.0426   2.0551   2.0567   2.0737   2.1162   2.1268   2.1620
  2.1872   2.2028   2.2120   2.2292   2.2316   2.2490   2.2684   2.2819
  2.3029   2.3197   2.3279   2.3763   2.4189   2.4468   2.4582   2.4714
  2.5091   2.5141   2.5293   2.5372   2.5639   2.5731   2.5963   2.6079
  2.6222   2.6555   2.6594   2.6719   2.6873   2.7024   2.7176   2.7316
  2.7434   2.7571   2.7654   2.7721   2.7773   2.7830   2.8084   2.8238
  2.8394   2.8488   2.8579   2.8610   2.8832   2.8961   2.9058   2.9284
  2.9366   2.9566   2.9698   2.9868   3.0011   3.0185   3.0309   3.0414
  3.0539   3.0701   3.0922   3.1102   3.1127   3.1203   3.1245   3.1336
  3.1386   3.1507   3.1586   3.1770   3.1819   3.1888   3.2071   3.2159
  3.2333   3.2436   3.2439   3.2565   3.2852   3.2872   3.2976   3.3120
  3.3163   3.3244   3.3331   3.3433   3.3475   3.3559   3.3599   3.3717
  3.3788   3.3815   3.3879   3.3955   3.4029   3.4108   3.4241   3.4275
  3.4410   3.4535   3.4553   3.4710   3.4741   3.4815   3.4947   3.5079
  3.5133   3.5220   3.5292   3.5349   3.5422   3.5591   3.5670   3.5866
  3.5900   3.6059   3.6158   3.6250   3.6292   3.6368   3.6427   3.6609
  3.6699   3.6724   3.6886   3.6932   3.7001   3.7208   3.7386   3.7449
  3.7498   3.7617   3.7726   3.7808   3.7832   3.7897   3.8050   3.8158
  3.8257   3.8408   3.8590   3.8698   3.8742   3.8884   3.8984   3.9190
  3.9342   3.9445   3.9557   3.9645   3.9727   3.9872   4.0011   4.0181
  4.0330   4.0458   4.0494   4.0600   4.0663   4.0830   4.0938   4.1049
  4.1239   4.1300   4.1473   4.1530   4.1644   4.1783   4.1822   4.2025
  4.2104   4.2159   4.2269   4.2440   4.2485   4.2587   4.2666   4.2912
  4.3014   4.3126   4.3162   4.3263   4.3501   4.3551   4.3632   4.3762
  4.3824   4.3940   4.3998   4.4079   4.4181   4.4279   4.4448   4.4584
  4.4640   4.4779   4.4858   4.4996   4.5063   4.5150   4.5332   4.5679
  4.5893   4.5944   4.6137   4.6220   4.6296   4.6478   4.6548   4.6816
  4.7067   4.7359   4.7605   4.7783   4.7827   4.7923   4.8171   4.8446
  4.8612   4.8692   4.8916   4.9157   4.9466   4.9603   4.9966   5.0048
  5.0288   5.0466   5.0998   5.1063   5.1155   5.1260   5.1580   5.1813
  5.2069   5.2365   5.2470   5.2606   5.2846   5.2975   5.3066   5.3276
  5.3528   5.3729   5.3788   5.4027   5.4124   5.4143   5.4392   5.4443
  5.4648   5.5177   5.5272   5.5401   5.5531   5.5653   5.5737   5.6008
  5.6133   5.6226   5.6312   5.6669   5.6838   5.7037   5.7096   5.7340
  5.7625   5.7873   5.8367   5.9861   6.0461   6.0732   6.1257   6.1731
  6.2067   6.2280   6.2429   6.2463   6.2758   6.2949   6.3109   6.3826
  6.4167   6.5875   9.4973  10.9493  12.0290  12.9582  13.2055  13.9578
 14.0899  14.2002  14.3738  14.9706
 --------------------------------------------------------------
 
          Ground-State Mulliken Net Atomic Charges

     Atom                 Charge (a.u.)
  ----------------------------------------
      1 C                    -0.074519
      2 C                    -0.321801
      3 C                    -0.028499
      4 H                     0.178355
      5 C                     0.121840
      6 S                    -0.175722
      7 C                    -0.290638
      8 H                     0.118612
      9 H                     0.104336
     10 H                     0.111913
     11 C                    -0.088520
     12 C                    -0.254588
     13 C                     0.026668
     14 H                     0.191992
     15 C                    -0.265750
     16 S                     0.002256
     17 C                    -0.273556
     18 H                     0.101102
     19 H                     0.109015
     20 H                     0.108356
     21 H                     0.196938
     22 H                     0.115072
     23 H                     0.111027
     24 H                     0.176108
  ----------------------------------------
  Sum of atomic charges =     0.000000

 -----------------------------------------------------------------
                    Cartesian Multipole Moments
 -----------------------------------------------------------------
    Charge (ESU x 10^10)
                -0.0000
    Dipole Moment (Debye)
         X       1.9447      Y      -0.2120      Z       3.0538
       Tot       3.6266
    Quadrupole Moments (Debye-Ang)
        XX     -91.9799     XY      -2.9584     YY     -72.7423
        XZ       0.0318     YZ      -1.1755     ZZ     -85.6648
    Octopole Moments (Debye-Ang^2)
       XXX      -2.0209    XXY      43.1054    XYY       0.9862
       YYY     115.7753    XXZ      -0.2133    XYZ      -2.1384
       YYZ      -5.5059    XZZ       3.1949    YZZ      50.0934
       ZZZ       5.5653
    Hexadecapole Moments (Debye-Ang^3)
      XXXX    -284.7510   XXXY      -1.3582   XXYY    -572.0973
      XYYY      -1.3829   YYYY   -2762.5663   XXXZ    -126.5456
      XXYZ     -37.6365   XYYZ     -27.7905   YYYZ    -105.1093
      XXZZ    -214.1809   XYZZ     -14.7555   YYZZ    -641.4893
      XZZZ    -118.4719   YZZZ    -118.5011   ZZZZ    -962.7764
 -----------------------------------------------------------------
 Total job time:  653.16s(wall), 649.43s(cpu) 
 Sun Jul 10 02:49:20 2022

        *************************************************************
        *                                                           *
        *  Thank you very much for using Q-Chem.  Have a nice day.  *
        *                                                           *
        *************************************************************


remove work dirs ./qchem3972149.0 -- ./qchem3972149.-1
rm -rf ./qchem3972149
You are running Q-Chem version: 5.4.0

#
# job setting
#
local host:  exp-4-15
current dir: /expanse/lustre/scratch/theleonzhang/temp_project/Hydrogenated_Rotation_Test
input file:  Methylthiophene_Phi_0_Theta_150_Methylthiophene_Hydrogenated_Alternate.qcin
output file: 
nprocs     : 0
nthreads   : 1
#
# qchem installation setting
#
QC:          /cm/shared/apps/spack/cpu/opt/spack/linux-centos8-zen2/gcc-10.2.0/qchem-5.4-akfmr7b3t57bfs6qan3padb2wnb2i7cl
QCAUX:       /cm/shared/apps/spack/cpu/opt/spack/linux-centos8-zen2/gcc-10.2.0/qchem-5.4-akfmr7b3t57bfs6qan3padb2wnb2i7cl/qcaux
QCPROG:      /cm/shared/apps/spack/cpu/opt/spack/linux-centos8-zen2/gcc-10.2.0/qchem-5.4-akfmr7b3t57bfs6qan3padb2wnb2i7cl/exe/qcprog.exe_s
QCPROG_S:    /cm/shared/apps/spack/cpu/opt/spack/linux-centos8-zen2/gcc-10.2.0/qchem-5.4-akfmr7b3t57bfs6qan3padb2wnb2i7cl/exe/qcprog.exe_s
PARALLEL:    -DSERIAL
QCMPI:       mpich
#
# qchem directory setting
#
qcrun:       qchem225033
QCSCRATCH:   .
QCLOCALSCR:  
QCTMPDIR:    .
QCFILEPREF:  ./qchem225033
QCSAVEDIR:   
workdirs:    ./qchem225033
workdir0:    ./qchem225033
partmpdirs =  
#
# parallel setting
#
QCRSH:           ssh
QCMPI:           mpich
QCMPIRUN:        /cm/shared/apps/spack/cpu/opt/spack/linux-centos8-zen2/gcc-10.2.0/qchem-5.4-akfmr7b3t57bfs6qan3padb2wnb2i7cl/bin/mpi/mpirun_qchem
QCMACHINEFILE:   ./qchem225033/hostfile

#
# env setting
#
exported envs:   QC QCAUX QCSCRATCH QCRUNNAME QCFILEPREF QCPROG QCPROG_S GUIFILE

Running Job 1 of 1 Methylthiophene_Phi_0_Theta_150_Methylthiophene_Hydrogenated_Alternate.qcin
qchem Methylthiophene_Phi_0_Theta_150_Methylthiophene_Hydrogenated_Alternate.qcin_225033.0 ./qchem225033/ 0
/cm/shared/apps/spack/cpu/opt/spack/linux-centos8-zen2/gcc-10.2.0/qchem-5.4-akfmr7b3t57bfs6qan3padb2wnb2i7cl/exe/qcprog.exe_s Methylthiophene_Phi_0_Theta_150_Methylthiophene_Hydrogenated_Alternate.qcin_225033.0 ./qchem225033/
                  Welcome to Q-Chem
     A Quantum Leap Into The Future Of Chemistry


 Q-Chem 5.4, Q-Chem, Inc., Pleasanton, CA (2021)

 License issued to: University of California, San Diego (site)

 E. Epifanovsky,  A. T. B. Gilbert,  Xintian Feng,  Joonho Lee,  Yuezhi Mao,  
 N. Mardirossian,  P. Pokhilko,  A. White,  M. Wormit,  M. P. Coons,  
 A. L. Dempwolff,  Zhengting Gan,  D. Hait,  P. R. Horn,  L. D. Jacobson,  
 I. Kaliman,  J. Kussmann,  A. W. Lange,  Ka Un Lao,  D. S. Levine,  Jie Liu,  
 S. C. McKenzie,  A. F. Morrison,  K. Nanda,  F. Plasser,  D. R. Rehn,  
 M. L. Vidal,  Zhi-Qiang You,  Ying Zhu,  B. Alam,  B. Albrecht,  
 A. Aldossary,  E. Alguire,  J. H. Andersen,  D. Barton,  K. Begam,  A. Behn,  
 Y. A. Bernard,  E. J. Berquist,  H. Burton,  A. Carreras,  K. Carter-Fenk,  
 R. Chakraborty,  A. D. Chien,  K. D. Closser,  V. Cofer-Shabica,  
 S. Dasgupta,  Jia Deng,  M. de Wergifosse,  M. Diedenhofen,  Hainam Do,  
 S. Ehlert,  Po-Tung Fang,  S. Fatehi,  Qingguo Feng,  J. Gayvert,  
 Qinghui Ge,  G. Gidofalvi,  M. Goldey,  J. Gomes,  C. Gonzalez-Espinoza,  
 S. Gulania,  A. Gunina,  M. W. D. Hanson-Heine,  P. H. P. Harbach,  
 A. W. Hauser,  M. F. Herbst,  M. Hernandez Vera,  M. Hodecker,  
 Z. C. Holden,  S. Houck,  Xunkun Huang,  Kerwin Hui,  B. C. Huynh,  
 M. Ivanov,  Hyunjun Ji,  Hanjie Jiang,  B. Kaduk,  S. Kaehler,  
 K. Khistyaev,  Jaehoon Kim,  P. Klunzinger,  Z. Koczor-Benda,  
 Joong Hoon Koh,  D. Kosenkov,  L. Koulias,  T. Kowalczyk,  C. M. Krauter,  
 K. Kue,  A. Kunitsa,  T. Kus,  A. Landau,  K. V. Lawler,  D. Lefrancois,  
 S. Lehtola,  Rain Li,  Yi-Pei Li,  Jiashu Liang,  M. Liebenthal,  
 Hung-Hsuan Lin,  You-Sheng Lin,  Fenglai Liu,  Kuan-Yu Liu,  
 M. Loipersberger,  A. Luenser,  A. Manjanath,  P. Manohar,  E. Mansoor,  
 S. F. Manzer,  Shan-Ping Mao,  A. V. Marenich,  T. Markovich,  S. Mason,  
 S. A. Maurer,  P. F. McLaughlin,  M. F. S. J. Menger,  J.-M. Mewes,  
 S. A. Mewes,  P. Morgante,  J. W. Mullinax,  T. S. Nguyen-Beck,  
 K. J. Oosterbaan,  G. Paran,  Alexander C. Paul,  Suranjan K. Paul,  
 F. Pavosevic,  Zheng Pei,  S. Prager,  E. I. Proynov,  E. Ramos,  B. Rana,  
 A. E. Rask,  A. Rettig,  R. M. Richard,  F. Rob,  E. Rossomme,  T. Scheele,  
 M. Scheurer,  M. Schneider,  N. Sergueev,  S. M. Sharada,  W. Skomorowski,  
 D. W. Small,  C. J. Stein,  Yu-Chuan Su,  E. J. Sundstrom,  Zhen Tao,  
 J. Thirman,  T. Tsuchimochi,  N. M. Tubman,  S. P. Veccham,  O. Vydrov,  
 J. Wenzel,  J. Witte,  A. Yamada,  Kun Yao,  S. Yeganeh,  S. R. Yost,  
 A. Zech,  Igor Ying Zhang,  Xing Zhang,  Yu Zhang,  D. Zuev,  
 A. Aspuru-Guzik,  A. T. Bell,  N. A. Besley,  K. B. Bravaya,  B. R. Brooks,  
 D. Casanova,  Jeng-Da Chai,  S. Coriani,  C. J. Cramer,  
 A. E. DePrince, III,  R. A. DiStasio Jr.,  A. Dreuw,  B. D. Dunietz,  
 T. R. Furlani,  W. A. Goddard III,  S. Grimme,  S. Hammes-Schiffer,  
 T. Head-Gordon,  W. J. Hehre,  Chao-Ping Hsu,  T.-C. Jagau,  Yousung Jung,  
 A. Klamt,  Jing Kong,  D. S. Lambrecht,  WanZhen Liang,  N. J. Mayhall,  
 C. W. McCurdy,  J. B. Neaton,  C. Ochsenfeld,  J. A. Parkhill,  R. Peverati,  
 V. A. Rassolov,  Yihan Shao,  L. V. Slipchenko,  T. Stauch,  R. P. Steele,  
 J. E. Subotnik,  A. J. W. Thom,  A. Tkatchenko,  D. G. Truhlar,  
 T. Van Voorhis,  T. A. Wesolowski,  K. B. Whaley,  H. L. Woodcock III,  
 P. M. Zimmerman,  S. Faraji,  P. M. W. Gill,  M. Head-Gordon,  
 J. M. Herbert,  A. I. Krylov

 Contributors to earlier versions of Q-Chem not listed above: 
 R. D. Adamson,  B. Austin,  R. Baer,  J. Baker,  G. J. O. Beran,  
 K. Brandhorst,  S. T. Brown,  E. F. C. Byrd,  A. K. Chakraborty,  
 G. K. L. Chan,  Chun-Min Chang,  Yunqing Chen,  C.-L. Cheng,  
 Siu Hung Chien,  D. M. Chipman,  D. L. Crittenden,  H. Dachsel,  
 R. J. Doerksen,  A. D. Dutoi,  R. G. Edgar,  J. Fosso-Tande,  
 L. Fusti-Molnar,  D. Ghosh,  A. Ghysels,  A. Golubeva-Zadorozhnaya,  
 J. Gonthier,  M. S. Gordon,  S. R. Gwaltney,  G. Hawkins,  J. E. Herr,  
 A. Heyden,  S. Hirata,  E. G. Hohenstein,  G. Kedziora,  F. J. Keil,  
 C. Kelley,  Jihan Kim,  R. A. King,  R. Z. Khaliullin,  P. P. Korambath,  
 W. Kurlancheek,  A. Laurent,  A. M. Lee,  M. S. Lee,  S. V. Levchenko,  
 Ching Yeh Lin,  D. Liotard,  E. Livshits,  R. C. Lochan,  I. Lotan,  
 L. A. Martinez-Martinez,  P. E. Maslen,  N. Nair,  D. P. O'Neill,  
 D. Neuhauser,  E. Neuscamman,  C. M. Oana,  R. Olivares-Amaya,  R. Olson,  
 T. M. Perrine,  B. Peters,  P. A. Pieniazek,  A. Prociuk,  Y. M. Rhee,  
 J. Ritchie,  M. A. Rohrdanz,  E. Rosta,  N. J. Russ,  H. F. Schaefer III,  
 M. W. Schmidt,  N. E. Schultz,  S. Sharma,  N. Shenvi,  C. D. Sherrill,  
 A. C. Simmonett,  A. Sodt,  T. Stein,  D. Stuck,  K. S. Thanthiriwatte,  
 V. Vanovschi,  L. Vogt,  Tao Wang,  A. Warshel,  M. A. Watson,  
 C. F. Williams,  Q. Wu,  X. Xu,  Jun Yang,  W. Zhang,  Yan Zhao

 Please cite Q-Chem as follows:
 Y. Shao et al., Mol. Phys. 113, 184-215 (2015)
 DOI: 10.1080/00268976.2014.952696

 Q-Chem 5.4.0 for Intel X86 EM64T Linux

 Parts of Q-Chem use Armadillo 9.800.1 (Horizon Scraper).
 http://arma.sourceforge.net/

 Q-Chem begins on Sun Jul 10 03:10:46 2022  

 Host: 
0

     Scratch files written to ./qchem225033//
 May1621 |scratch|qcdevops|jenkins|workspace|build_RNUM    
 Processing $rem in /cm/shared/apps/spack/cpu/opt/spack/linux-centos8-zen2/gcc-10.2.0/qchem-5.4-akfmr7b3t57bfs6qan3padb2wnb2i7cl/config/preferences:
 Processing $rem in /home/theleonzhang/.qchemrc:
 Symmetry turned off for PCM/SM12/SMD calculation
 Core orbitals will be frozen

 Checking the input file for inconsistencies... 	...done.

--------------------------------------------------------------
User input:
--------------------------------------------------------------
$molecule
0 1
C	-0.386946	-3.866725	-0.671636
C	0.306544	-3.703963	0.530345
C	0.533261	-2.357056	0.923770
H	0.651857	-4.561092	1.128109
C	0.000000	-1.440664	0.000000
S	-0.772250	-2.286957	-1.337557
C	1.260680	-1.978743	2.184153
H	1.583283	-2.878678	2.742769
H	0.622180	-1.376015	2.863347
H	2.168011	-1.375728	1.971094
C	0.000000	0.000000	0.000000
C	0.000033	0.863600	1.099446
C	0.000052	2.247508	0.776721
H	0.000026	0.494801	2.136088
C	0.000074	2.468165	-0.612546
S	0.000024	0.942399	-1.486809
C	0.000075	3.335257	1.814609
H	0.000074	2.909620	2.836676
H	-0.892314	3.989552	1.726239
H	0.892483	3.989525	1.726228
H	0.000094	3.417382	-1.161575
H	-1.336254	-4.392713	-0.521098
H	0.218374	-4.392347	-1.418509
H	0.935365	-1.440391	-0.539900
$end

$rem
JOBTYPE		SP
EXCHANGE	HF
CORRELATION	pRIMP2
BASIS		cc-pvtz
METHOD		rimp2
AUX_BASIS	rimp2-cc-pvtz
SOLVENT_METHOD	PCM
PURECART	11111
SYMMETRY	false
MEM_TOTAL	110000
SCF_CONVERGENCE = 6
THRESH=10
$end



$solvent
dielectric 4.90
$end
--------------------------------------------------------------
 ----------------------------------------------------------------
             Standard Nuclear Orientation (Angstroms)
    I     Atom           X                Y                Z
 ----------------------------------------------------------------
    1      C      -0.3869460000    -3.8667250000    -0.6716360000
    2      C       0.3065440000    -3.7039630000     0.5303450000
    3      C       0.5332610000    -2.3570560000     0.9237700000
    4      H       0.6518570000    -4.5610920000     1.1281090000
    5      C       0.0000000000    -1.4406640000     0.0000000000
    6      S      -0.7722500000    -2.2869570000    -1.3375570000
    7      C       1.2606800000    -1.9787430000     2.1841530000
    8      H       1.5832830000    -2.8786780000     2.7427690000
    9      H       0.6221800000    -1.3760150000     2.8633470000
   10      H       2.1680110000    -1.3757280000     1.9710940000
   11      C       0.0000000000     0.0000000000     0.0000000000
   12      C       0.0000330000     0.8636000000     1.0994460000
   13      C       0.0000520000     2.2475080000     0.7767210000
   14      H       0.0000260000     0.4948010000     2.1360880000
   15      C       0.0000740000     2.4681650000    -0.6125460000
   16      S       0.0000240000     0.9423990000    -1.4868090000
   17      C       0.0000750000     3.3352570000     1.8146090000
   18      H       0.0000740000     2.9096200000     2.8366760000
   19      H      -0.8923140000     3.9895520000     1.7262390000
   20      H       0.8924830000     3.9895250000     1.7262280000
   21      H       0.0000940000     3.4173820000    -1.1615750000
   22      H      -1.3362540000    -4.3927130000    -0.5210980000
   23      H       0.2183740000    -4.3923470000    -1.4185090000
   24      H       0.9353650000    -1.4403910000    -0.5399000000
 ----------------------------------------------------------------
 Nuclear Repulsion Energy =         874.86420107 hartrees
 There are       52 alpha and       52 beta electrons

 Q-Chem warning in module forms1/BasisType.C, line 2236:

 You are not using the predefined 5D/6D in this basis set.

 Requested basis set is cc-pVTZ
 There are 196 shells and 536 basis functions

 Total QAlloc Memory Limit 110000 MB
 Mega-Array Size       188 MB
 MEM_STATIC part       192 MB
 Discretize the solute cavity surface with Lebedev spheres
	Using 110 Lebedev grid points for each H atom
	Using 194 Lebedev grid points for other atoms
	Atomic van der Waals radii will be scaled by 1.20
 Remove points where switching function is < 1.0e-08
 Keep 1596 surface tesserae and discard 2052 interior tesserae
 Molecular Surface Area = 233.971 Angst**2
 Requested basis set is rimp2-cc-pVTZ
 There are 414 shells and 1414 basis functions
 A cutoff of  1.0D-10 yielded  14009 shell pairs
 There are    101435 function pairs (    129988 Cartesian)
 Smallest overlap matrix eigenvalue = 5.32E-05

 Scale SEOQF with 1.000000e-01/1.000000e-01/1.000000e-01

 Standard Electronic Orientation quadrupole field applied
 Nucleus-field energy     =     0.0000000252 hartrees
 Guess from superposition of atomic densities
 Warning:  Energy on first SCF cycle will be non-variational
 SAD guess density has 104.000000 electrons

 -----------------------------------------------------------------------
  General SCF calculation program by
  Eric Jon Sundstrom, Paul Horn, Yuezhi Mao, Dmitri Zuev, Alec White,
  David Stuck, Shaama M.S., Shane Yost, Joonho Lee, David Small,
  Daniel Levine, Susi Lehtola, Hugh Burton, Evgeny Epifanovsky,
  Bang C. Huynh
 -----------------------------------------------------------------------
 Hartree-Fock
 A restricted SCF calculation will be
 performed using DIIS
 SCF converges when DIIS error is below 1.0e-06
 ---------------------------------------
  Cycle       Energy         DIIS error
 ---------------------------------------
    1   -1186.0402384860      2.39e-02  
    2   -1180.6115805019      1.58e-03  
    3   -1180.7377352187      6.47e-04  
    4   -1180.7534629952      3.43e-04  
    5   -1180.7589329232      5.92e-05  
    6   -1180.7591827438      2.48e-05  
    7   -1180.7592429288      8.90e-06  
    8   -1180.7592562092      4.34e-06  
    9   -1180.7592591185      1.43e-06  
   10   -1180.7592595548      5.14e-07  Convergence criterion met
 ---------------------------------------
 SCF time:   CPU 580.83s  wall 582.00s 

************** Final PCM Free Energy Summary **************
 G_electrostatic  =      -0.00948222 hartree =      -5.95018575 kcal/mol
 G_cavitation     =       0.00000000 hartree =       0.00000000 kcal/mol
 G_dispersion     =       0.00000000 hartree =       0.00000000 kcal/mol
 G_repulsion      =       0.00000000 hartree =       0.00000000 kcal/mol
 --------------------------------------------------
 Non-electrostatic Free Energy =       0.00000000 hartree =       0.00000000 kcal/mol
 Total                         =      -0.00948222 hartree =      -5.95018575 kcal/mol
 --------------------------------------------------
 SCF Energy (H0 + V/2)                       =   -1180.75925955 
 Solute Internal Energy (H0)                 =   -1180.74977733 
 Total Free Energy (H0 + V/2 + non-elec)     =   -1180.75925955 hartree
                                             = -740937.61834156 kcal/mol
***********************************************************

 SCF   energy in the final basis set =    -1180.7592595548
 Total energy in the final basis set =    -1180.7592595548


 --------------------------------------------------------------
  Generalized many-body perturbation theory program
  by Joonho Lee, Fazle Rob, Xintian Feng, Evgeny Epifanovsky

 No regularization used 
 (reg. param. = 0.0000e+00)
  (P|Q)^-1/2 Time:  CPU 1.90 s  wall 1.90 s

 In RI-MP2 calculation: 
 # of frozen core orbitals: 20

 Components of the RIMP2 correlation energy:
        aaaa    correlation energy =        -0.2511070562 a.u.
        abab    correlation energy =        -1.5023257934 a.u.
        bbbb    correlation energy =        -0.2511070562 a.u.
        non-Brillouin singles      =        -0.0000000000 a.u.
        total same-spin energy     =        -0.5022141123 a.u.
        total opposite-spin energy =        -1.5023257934 a.u.

 Total  RIMP2   correlation energy =        -2.0045399057 a.u.
        RIMP2         total energy =     -1182.7637994605 a.u.

 RI-MP2 Energy Time:  CPU 80.22 s  wall 80.42 s
 
 --------------------------------------------------------------
 
                    Orbital Energies (a.u.)
 --------------------------------------------------------------
 
 Alpha MOs
 -- Occupied --
-91.9837 -91.9452 -11.2878 -11.2659 -11.2603 -11.2567 -11.2501 -11.2438
-11.2335 -11.2316 -11.2282 -11.2231  -8.9835  -8.9499  -6.6645  -6.6639
 -6.6633  -6.6313  -6.6303  -6.6290  -1.2016  -1.1528  -1.0602  -1.0310
 -1.0010  -0.9627  -0.9151  -0.8998  -0.8172  -0.7625  -0.7359  -0.7035
 -0.6555  -0.6439  -0.6104  -0.5928  -0.5822  -0.5688  -0.5651  -0.5530
 -0.5461  -0.5343  -0.5201  -0.5036  -0.4879  -0.4821  -0.4668  -0.4468
 -0.3582  -0.3433  -0.3240  -0.2674
 -- Virtual --
  0.1018   0.1331   0.1399   0.1472   0.1575   0.1705   0.1787   0.1863
  0.1919   0.2029   0.2062   0.2149   0.2270   0.2297   0.2395   0.2409
  0.2539   0.2728   0.2799   0.3020   0.3189   0.3303   0.3497   0.3633
  0.3691   0.3757   0.3816   0.3947   0.4001   0.4095   0.4157   0.4227
  0.4382   0.4487   0.4640   0.4665   0.4775   0.4790   0.4867   0.4947
  0.5016   0.5096   0.5151   0.5275   0.5395   0.5438   0.5476   0.5593
  0.5640   0.5835   0.5855   0.5938   0.5997   0.6045   0.6126   0.6205
  0.6232   0.6284   0.6316   0.6349   0.6424   0.6505   0.6544   0.6583
  0.6661   0.6795   0.6863   0.6942   0.7040   0.7127   0.7214   0.7234
  0.7402   0.7468   0.7616   0.7715   0.7849   0.7962   0.8033   0.8247
  0.8336   0.8441   0.8636   0.8681   0.8824   0.8957   0.8994   0.9172
  0.9286   0.9406   0.9480   0.9664   0.9719   0.9823   1.0050   1.0178
  1.0241   1.0294   1.0429   1.0445   1.0574   1.0634   1.0762   1.0850
  1.0887   1.0937   1.1032   1.1320   1.1367   1.1470   1.1609   1.1724
  1.1878   1.1964   1.2050   1.2062   1.2107   1.2274   1.2353   1.2419
  1.2488   1.2586   1.2647   1.2799   1.2858   1.2925   1.2973   1.3139
  1.3197   1.3227   1.3560   1.3671   1.3716   1.3849   1.4035   1.4183
  1.4230   1.4349   1.4391   1.4583   1.4694   1.4805   1.4895   1.4947
  1.5035   1.5120   1.5160   1.5318   1.5380   1.5455   1.5499   1.5538
  1.5742   1.5871   1.5891   1.5977   1.6244   1.6312   1.6348   1.6436
  1.6536   1.6671   1.6785   1.6924   1.7094   1.7208   1.7327   1.7369
  1.7482   1.7573   1.7796   1.8045   1.8198   1.8306   1.8490   1.8669
  1.8726   1.9044   1.9073   1.9258   1.9347   1.9770   1.9855   2.0026
  2.0194   2.0426   2.0551   2.0567   2.0737   2.1162   2.1268   2.1620
  2.1872   2.2028   2.2120   2.2292   2.2316   2.2490   2.2684   2.2819
  2.3029   2.3197   2.3279   2.3763   2.4189   2.4468   2.4582   2.4714
  2.5091   2.5141   2.5293   2.5372   2.5639   2.5731   2.5963   2.6079
  2.6222   2.6555   2.6594   2.6719   2.6873   2.7024   2.7176   2.7316
  2.7434   2.7571   2.7654   2.7721   2.7773   2.7830   2.8084   2.8238
  2.8394   2.8488   2.8579   2.8610   2.8832   2.8961   2.9058   2.9284
  2.9366   2.9566   2.9698   2.9868   3.0011   3.0185   3.0309   3.0414
  3.0539   3.0701   3.0922   3.1102   3.1127   3.1203   3.1245   3.1336
  3.1386   3.1507   3.1586   3.1770   3.1819   3.1888   3.2071   3.2159
  3.2333   3.2436   3.2439   3.2565   3.2852   3.2872   3.2976   3.3120
  3.3163   3.3244   3.3331   3.3433   3.3475   3.3559   3.3599   3.3717
  3.3788   3.3815   3.3879   3.3955   3.4029   3.4108   3.4241   3.4275
  3.4410   3.4535   3.4553   3.4710   3.4741   3.4815   3.4947   3.5079
  3.5133   3.5220   3.5292   3.5349   3.5422   3.5591   3.5670   3.5866
  3.5900   3.6059   3.6158   3.6250   3.6292   3.6368   3.6427   3.6609
  3.6699   3.6724   3.6886   3.6932   3.7001   3.7208   3.7386   3.7449
  3.7498   3.7617   3.7726   3.7808   3.7832   3.7897   3.8050   3.8158
  3.8257   3.8408   3.8590   3.8698   3.8742   3.8884   3.8984   3.9190
  3.9342   3.9445   3.9557   3.9645   3.9727   3.9872   4.0011   4.0181
  4.0330   4.0458   4.0494   4.0600   4.0663   4.0830   4.0938   4.1049
  4.1239   4.1300   4.1473   4.1530   4.1644   4.1783   4.1822   4.2025
  4.2104   4.2159   4.2269   4.2440   4.2485   4.2587   4.2666   4.2912
  4.3014   4.3126   4.3162   4.3263   4.3501   4.3551   4.3632   4.3762
  4.3824   4.3940   4.3998   4.4079   4.4181   4.4279   4.4448   4.4584
  4.4640   4.4779   4.4858   4.4996   4.5063   4.5150   4.5332   4.5679
  4.5893   4.5944   4.6137   4.6220   4.6296   4.6478   4.6548   4.6816
  4.7067   4.7359   4.7605   4.7783   4.7827   4.7923   4.8171   4.8446
  4.8612   4.8692   4.8916   4.9157   4.9466   4.9603   4.9966   5.0048
  5.0288   5.0466   5.0998   5.1063   5.1155   5.1260   5.1580   5.1813
  5.2069   5.2365   5.2470   5.2606   5.2846   5.2975   5.3066   5.3276
  5.3528   5.3729   5.3788   5.4027   5.4124   5.4143   5.4392   5.4443
  5.4648   5.5177   5.5272   5.5401   5.5531   5.5653   5.5737   5.6008
  5.6133   5.6226   5.6312   5.6669   5.6838   5.7037   5.7096   5.7340
  5.7625   5.7873   5.8367   5.9861   6.0461   6.0732   6.1257   6.1731
  6.2067   6.2280   6.2429   6.2463   6.2758   6.2949   6.3109   6.3826
  6.4167   6.5875   9.4973  10.9493  12.0290  12.9582  13.2055  13.9578
 14.0899  14.2002  14.3738  14.9706
 --------------------------------------------------------------
 
          Ground-State Mulliken Net Atomic Charges

     Atom                 Charge (a.u.)
  ----------------------------------------
      1 C                    -0.074519
      2 C                    -0.321801
      3 C                    -0.028499
      4 H                     0.178355
      5 C                     0.121840
      6 S                    -0.175722
      7 C                    -0.290638
      8 H                     0.118612
      9 H                     0.104336
     10 H                     0.111913
     11 C                    -0.088520
     12 C                    -0.254588
     13 C                     0.026668
     14 H                     0.191992
     15 C                    -0.265750
     16 S                     0.002256
     17 C                    -0.273556
     18 H                     0.101102
     19 H                     0.109015
     20 H                     0.108356
     21 H                     0.196938
     22 H                     0.115072
     23 H                     0.111027
     24 H                     0.176108
  ----------------------------------------
  Sum of atomic charges =     0.000000

 -----------------------------------------------------------------
                    Cartesian Multipole Moments
 -----------------------------------------------------------------
    Charge (ESU x 10^10)
                -0.0000
    Dipole Moment (Debye)
         X       1.9447      Y      -0.2120      Z       3.0538
       Tot       3.6266
    Quadrupole Moments (Debye-Ang)
        XX     -91.9799     XY      -2.9584     YY     -72.7423
        XZ       0.0318     YZ      -1.1755     ZZ     -85.6648
    Octopole Moments (Debye-Ang^2)
       XXX      -2.0209    XXY      43.1054    XYY       0.9862
       YYY     115.7753    XXZ      -0.2133    XYZ      -2.1384
       YYZ      -5.5059    XZZ       3.1949    YZZ      50.0934
       ZZZ       5.5653
    Hexadecapole Moments (Debye-Ang^3)
      XXXX    -284.7510   XXXY      -1.3582   XXYY    -572.0973
      XYYY      -1.3829   YYYY   -2762.5663   XXXZ    -126.5456
      XXYZ     -37.6365   XYYZ     -27.7905   YYYZ    -105.1093
      XXZZ    -214.1809   XYZZ     -14.7555   YYZZ    -641.4893
      XZZZ    -118.4719   YZZZ    -118.5011   ZZZZ    -962.7764
 -----------------------------------------------------------------
 Total job time:  664.28s(wall), 661.94s(cpu) 
 Sun Jul 10 03:21:51 2022

        *************************************************************
        *                                                           *
        *  Thank you very much for using Q-Chem.  Have a nice day.  *
        *                                                           *
        *************************************************************


remove work dirs ./qchem225033.0 -- ./qchem225033.-1
rm -rf ./qchem225033
