You are running Q-Chem version: 5.4.0

#
# job setting
#
local host:  exp-7-31
current dir: /expanse/lustre/scratch/theleonzhang/temp_project/Hydrogenated_Rotation_Test
input file:  Methylthiophene_Phi_50_Theta_190_Methylthiophene_Hydrogenated_Alternate.qcin
output file: 
nprocs     : 0
nthreads   : 1
#
# qchem installation setting
#
QC:          /cm/shared/apps/spack/cpu/opt/spack/linux-centos8-zen2/gcc-10.2.0/qchem-5.4-akfmr7b3t57bfs6qan3padb2wnb2i7cl
QCAUX:       /cm/shared/apps/spack/cpu/opt/spack/linux-centos8-zen2/gcc-10.2.0/qchem-5.4-akfmr7b3t57bfs6qan3padb2wnb2i7cl/qcaux
QCPROG:      /cm/shared/apps/spack/cpu/opt/spack/linux-centos8-zen2/gcc-10.2.0/qchem-5.4-akfmr7b3t57bfs6qan3padb2wnb2i7cl/exe/qcprog.exe_s
QCPROG_S:    /cm/shared/apps/spack/cpu/opt/spack/linux-centos8-zen2/gcc-10.2.0/qchem-5.4-akfmr7b3t57bfs6qan3padb2wnb2i7cl/exe/qcprog.exe_s
PARALLEL:    -DSERIAL
QCMPI:       mpich
#
# qchem directory setting
#
qcrun:       qchem2571398
QCSCRATCH:   .
QCLOCALSCR:  
QCTMPDIR:    .
QCFILEPREF:  ./qchem2571398
QCSAVEDIR:   
workdirs:    ./qchem2571398
workdir0:    ./qchem2571398
partmpdirs =  
#
# parallel setting
#
QCRSH:           ssh
QCMPI:           mpich
QCMPIRUN:        /cm/shared/apps/spack/cpu/opt/spack/linux-centos8-zen2/gcc-10.2.0/qchem-5.4-akfmr7b3t57bfs6qan3padb2wnb2i7cl/bin/mpi/mpirun_qchem
QCMACHINEFILE:   ./qchem2571398/hostfile

#
# env setting
#
exported envs:   QC QCAUX QCSCRATCH QCRUNNAME QCFILEPREF QCPROG QCPROG_S GUIFILE

Running Job 1 of 1 Methylthiophene_Phi_50_Theta_190_Methylthiophene_Hydrogenated_Alternate.qcin
qchem Methylthiophene_Phi_50_Theta_190_Methylthiophene_Hydrogenated_Alternate.qcin_2571398.0 ./qchem2571398/ 0
/cm/shared/apps/spack/cpu/opt/spack/linux-centos8-zen2/gcc-10.2.0/qchem-5.4-akfmr7b3t57bfs6qan3padb2wnb2i7cl/exe/qcprog.exe_s Methylthiophene_Phi_50_Theta_190_Methylthiophene_Hydrogenated_Alternate.qcin_2571398.0 ./qchem2571398/
                  Welcome to Q-Chem
     A Quantum Leap Into The Future Of Chemistry


 Q-Chem 5.4, Q-Chem, Inc., Pleasanton, CA (2021)

 License issued to: University of California, San Diego (site)

 E. Epifanovsky,  A. T. B. Gilbert,  Xintian Feng,  Joonho Lee,  Yuezhi Mao,  
 N. Mardirossian,  P. Pokhilko,  A. White,  M. Wormit,  M. P. Coons,  
 A. L. Dempwolff,  Zhengting Gan,  D. Hait,  P. R. Horn,  L. D. Jacobson,  
 I. Kaliman,  J. Kussmann,  A. W. Lange,  Ka Un Lao,  D. S. Levine,  Jie Liu,  
 S. C. McKenzie,  A. F. Morrison,  K. Nanda,  F. Plasser,  D. R. Rehn,  
 M. L. Vidal,  Zhi-Qiang You,  Ying Zhu,  B. Alam,  B. Albrecht,  
 A. Aldossary,  E. Alguire,  J. H. Andersen,  D. Barton,  K. Begam,  A. Behn,  
 Y. A. Bernard,  E. J. Berquist,  H. Burton,  A. Carreras,  K. Carter-Fenk,  
 R. Chakraborty,  A. D. Chien,  K. D. Closser,  V. Cofer-Shabica,  
 S. Dasgupta,  Jia Deng,  M. de Wergifosse,  M. Diedenhofen,  Hainam Do,  
 S. Ehlert,  Po-Tung Fang,  S. Fatehi,  Qingguo Feng,  J. Gayvert,  
 Qinghui Ge,  G. Gidofalvi,  M. Goldey,  J. Gomes,  C. Gonzalez-Espinoza,  
 S. Gulania,  A. Gunina,  M. W. D. Hanson-Heine,  P. H. P. Harbach,  
 A. W. Hauser,  M. F. Herbst,  M. Hernandez Vera,  M. Hodecker,  
 Z. C. Holden,  S. Houck,  Xunkun Huang,  Kerwin Hui,  B. C. Huynh,  
 M. Ivanov,  Hyunjun Ji,  Hanjie Jiang,  B. Kaduk,  S. Kaehler,  
 K. Khistyaev,  Jaehoon Kim,  P. Klunzinger,  Z. Koczor-Benda,  
 Joong Hoon Koh,  D. Kosenkov,  L. Koulias,  T. Kowalczyk,  C. M. Krauter,  
 K. Kue,  A. Kunitsa,  T. Kus,  A. Landau,  K. V. Lawler,  D. Lefrancois,  
 S. Lehtola,  Rain Li,  Yi-Pei Li,  Jiashu Liang,  M. Liebenthal,  
 Hung-Hsuan Lin,  You-Sheng Lin,  Fenglai Liu,  Kuan-Yu Liu,  
 M. Loipersberger,  A. Luenser,  A. Manjanath,  P. Manohar,  E. Mansoor,  
 S. F. Manzer,  Shan-Ping Mao,  A. V. Marenich,  T. Markovich,  S. Mason,  
 S. A. Maurer,  P. F. McLaughlin,  M. F. S. J. Menger,  J.-M. Mewes,  
 S. A. Mewes,  P. Morgante,  J. W. Mullinax,  T. S. Nguyen-Beck,  
 K. J. Oosterbaan,  G. Paran,  Alexander C. Paul,  Suranjan K. Paul,  
 F. Pavosevic,  Zheng Pei,  S. Prager,  E. I. Proynov,  E. Ramos,  B. Rana,  
 A. E. Rask,  A. Rettig,  R. M. Richard,  F. Rob,  E. Rossomme,  T. Scheele,  
 M. Scheurer,  M. Schneider,  N. Sergueev,  S. M. Sharada,  W. Skomorowski,  
 D. W. Small,  C. J. Stein,  Yu-Chuan Su,  E. J. Sundstrom,  Zhen Tao,  
 J. Thirman,  T. Tsuchimochi,  N. M. Tubman,  S. P. Veccham,  O. Vydrov,  
 J. Wenzel,  J. Witte,  A. Yamada,  Kun Yao,  S. Yeganeh,  S. R. Yost,  
 A. Zech,  Igor Ying Zhang,  Xing Zhang,  Yu Zhang,  D. Zuev,  
 A. Aspuru-Guzik,  A. T. Bell,  N. A. Besley,  K. B. Bravaya,  B. R. Brooks,  
 D. Casanova,  Jeng-Da Chai,  S. Coriani,  C. J. Cramer,  
 A. E. DePrince, III,  R. A. DiStasio Jr.,  A. Dreuw,  B. D. Dunietz,  
 T. R. Furlani,  W. A. Goddard III,  S. Grimme,  S. Hammes-Schiffer,  
 T. Head-Gordon,  W. J. Hehre,  Chao-Ping Hsu,  T.-C. Jagau,  Yousung Jung,  
 A. Klamt,  Jing Kong,  D. S. Lambrecht,  WanZhen Liang,  N. J. Mayhall,  
 C. W. McCurdy,  J. B. Neaton,  C. Ochsenfeld,  J. A. Parkhill,  R. Peverati,  
 V. A. Rassolov,  Yihan Shao,  L. V. Slipchenko,  T. Stauch,  R. P. Steele,  
 J. E. Subotnik,  A. J. W. Thom,  A. Tkatchenko,  D. G. Truhlar,  
 T. Van Voorhis,  T. A. Wesolowski,  K. B. Whaley,  H. L. Woodcock III,  
 P. M. Zimmerman,  S. Faraji,  P. M. W. Gill,  M. Head-Gordon,  
 J. M. Herbert,  A. I. Krylov

 Contributors to earlier versions of Q-Chem not listed above: 
 R. D. Adamson,  B. Austin,  R. Baer,  J. Baker,  G. J. O. Beran,  
 K. Brandhorst,  S. T. Brown,  E. F. C. Byrd,  A. K. Chakraborty,  
 G. K. L. Chan,  Chun-Min Chang,  Yunqing Chen,  C.-L. Cheng,  
 Siu Hung Chien,  D. M. Chipman,  D. L. Crittenden,  H. Dachsel,  
 R. J. Doerksen,  A. D. Dutoi,  R. G. Edgar,  J. Fosso-Tande,  
 L. Fusti-Molnar,  D. Ghosh,  A. Ghysels,  A. Golubeva-Zadorozhnaya,  
 J. Gonthier,  M. S. Gordon,  S. R. Gwaltney,  G. Hawkins,  J. E. Herr,  
 A. Heyden,  S. Hirata,  E. G. Hohenstein,  G. Kedziora,  F. J. Keil,  
 C. Kelley,  Jihan Kim,  R. A. King,  R. Z. Khaliullin,  P. P. Korambath,  
 W. Kurlancheek,  A. Laurent,  A. M. Lee,  M. S. Lee,  S. V. Levchenko,  
 Ching Yeh Lin,  D. Liotard,  E. Livshits,  R. C. Lochan,  I. Lotan,  
 L. A. Martinez-Martinez,  P. E. Maslen,  N. Nair,  D. P. O'Neill,  
 D. Neuhauser,  E. Neuscamman,  C. M. Oana,  R. Olivares-Amaya,  R. Olson,  
 T. M. Perrine,  B. Peters,  P. A. Pieniazek,  A. Prociuk,  Y. M. Rhee,  
 J. Ritchie,  M. A. Rohrdanz,  E. Rosta,  N. J. Russ,  H. F. Schaefer III,  
 M. W. Schmidt,  N. E. Schultz,  S. Sharma,  N. Shenvi,  C. D. Sherrill,  
 A. C. Simmonett,  A. Sodt,  T. Stein,  D. Stuck,  K. S. Thanthiriwatte,  
 V. Vanovschi,  L. Vogt,  Tao Wang,  A. Warshel,  M. A. Watson,  
 C. F. Williams,  Q. Wu,  X. Xu,  Jun Yang,  W. Zhang,  Yan Zhao

 Please cite Q-Chem as follows:
 Y. Shao et al., Mol. Phys. 113, 184-215 (2015)
 DOI: 10.1080/00268976.2014.952696

 Q-Chem 5.4.0 for Intel X86 EM64T Linux

 Parts of Q-Chem use Armadillo 9.800.1 (Horizon Scraper).
 http://arma.sourceforge.net/

 Q-Chem begins on Sun Jul 10 04:06:26 2022  

 Host: 
0

     Scratch files written to ./qchem2571398//
 May1621 |scratch|qcdevops|jenkins|workspace|build_RNUM    
 Processing $rem in /cm/shared/apps/spack/cpu/opt/spack/linux-centos8-zen2/gcc-10.2.0/qchem-5.4-akfmr7b3t57bfs6qan3padb2wnb2i7cl/config/preferences:
 Processing $rem in /home/theleonzhang/.qchemrc:
 Symmetry turned off for PCM/SM12/SMD calculation
 Core orbitals will be frozen

 Checking the input file for inconsistencies... 	...done.

--------------------------------------------------------------
User input:
--------------------------------------------------------------
$molecule
0 1
C	0.135301	-3.866725	-0.763228
C	-0.106073	-3.703963	0.603311
C	-0.185286	-2.357056	1.050423
H	-0.225783	-4.561092	1.283188
C	0.000000	-1.440664	0.000000
S	0.268187	-2.286957	-1.521021
C	-0.438209	-1.978743	2.483507
H	-0.550153	-2.878678	3.118798
H	-1.363906	-1.376015	2.593381
H	0.393798	-1.375728	2.903516
C	0.000000	0.000000	0.000000
C	0.661577	0.555087	1.099446
C	1.721724	1.444630	0.776721
H	0.379056	0.318032	2.136088
C	1.890772	1.586449	-0.612546
S	0.721935	0.605744	-1.486809
C	2.555004	2.143805	1.814609
H	2.228946	1.870211	2.836676
H	2.482605	3.247987	1.726239
H	3.629830	1.880735	1.726228
H	2.617927	2.196579	-1.161575
H	-0.688674	-4.392713	-1.258111
H	1.079084	-4.392347	-0.946272
H	1.063572	-1.440391	0.187654
$end

$rem
JOBTYPE		SP
EXCHANGE	HF
CORRELATION	pRIMP2
BASIS		cc-pvtz
METHOD		rimp2
AUX_BASIS	rimp2-cc-pvtz
SOLVENT_METHOD	PCM
PURECART	11111
SYMMETRY	false
MEM_TOTAL	110000
SCF_CONVERGENCE = 6
THRESH=10
$end



$solvent
dielectric 4.90
$end
--------------------------------------------------------------
 ----------------------------------------------------------------
             Standard Nuclear Orientation (Angstroms)
    I     Atom           X                Y                Z
 ----------------------------------------------------------------
    1      C       0.1353010000    -3.8667250000    -0.7632280000
    2      C      -0.1060730000    -3.7039630000     0.6033110000
    3      C      -0.1852860000    -2.3570560000     1.0504230000
    4      H      -0.2257830000    -4.5610920000     1.2831880000
    5      C       0.0000000000    -1.4406640000     0.0000000000
    6      S       0.2681870000    -2.2869570000    -1.5210210000
    7      C      -0.4382090000    -1.9787430000     2.4835070000
    8      H      -0.5501530000    -2.8786780000     3.1187980000
    9      H      -1.3639060000    -1.3760150000     2.5933810000
   10      H       0.3937980000    -1.3757280000     2.9035160000
   11      C       0.0000000000     0.0000000000     0.0000000000
   12      C       0.6615770000     0.5550870000     1.0994460000
   13      C       1.7217240000     1.4446300000     0.7767210000
   14      H       0.3790560000     0.3180320000     2.1360880000
   15      C       1.8907720000     1.5864490000    -0.6125460000
   16      S       0.7219350000     0.6057440000    -1.4868090000
   17      C       2.5550040000     2.1438050000     1.8146090000
   18      H       2.2289460000     1.8702110000     2.8366760000
   19      H       2.4826050000     3.2479870000     1.7262390000
   20      H       3.6298300000     1.8807350000     1.7262280000
   21      H       2.6179270000     2.1965790000    -1.1615750000
   22      H      -0.6886740000    -4.3927130000    -1.2581110000
   23      H       1.0790840000    -4.3923470000    -0.9462720000
   24      H       1.0635720000    -1.4403910000     0.1876540000
 ----------------------------------------------------------------
 Nuclear Repulsion Energy =         896.74243644 hartrees
 There are       52 alpha and       52 beta electrons

 Q-Chem warning in module forms1/BasisType.C, line 2236:

 You are not using the predefined 5D/6D in this basis set.

 Requested basis set is cc-pVTZ
 There are 196 shells and 536 basis functions

 Total QAlloc Memory Limit 110000 MB
 Mega-Array Size       188 MB
 MEM_STATIC part       192 MB
 Discretize the solute cavity surface with Lebedev spheres
	Using 110 Lebedev grid points for each H atom
	Using 194 Lebedev grid points for other atoms
	Atomic van der Waals radii will be scaled by 1.20
 Remove points where switching function is < 1.0e-08
 Keep 1560 surface tesserae and discard 2088 interior tesserae
 Molecular Surface Area = 226.826 Angst**2
 Requested basis set is rimp2-cc-pVTZ
 There are 414 shells and 1414 basis functions
 A cutoff of  1.0D-10 yielded  14543 shell pairs
 There are    105453 function pairs (    135119 Cartesian)
 Smallest overlap matrix eigenvalue = 6.74E-05

 Scale SEOQF with 1.000000e-01/1.000000e-01/1.000000e-01

 Standard Electronic Orientation quadrupole field applied
 Nucleus-field energy     =     0.0000000173 hartrees
 Guess from superposition of atomic densities
 Warning:  Energy on first SCF cycle will be non-variational
 SAD guess density has 104.000000 electrons

 -----------------------------------------------------------------------
  General SCF calculation program by
  Eric Jon Sundstrom, Paul Horn, Yuezhi Mao, Dmitri Zuev, Alec White,
  David Stuck, Shaama M.S., Shane Yost, Joonho Lee, David Small,
  Daniel Levine, Susi Lehtola, Hugh Burton, Evgeny Epifanovsky,
  Bang C. Huynh
 -----------------------------------------------------------------------
 Hartree-Fock
 A restricted SCF calculation will be
 performed using DIIS
 SCF converges when DIIS error is below 1.0e-06
 ---------------------------------------
  Cycle       Energy         DIIS error
 ---------------------------------------
    1   -1186.1942074075      2.41e-02  
    2   -1180.5504776538      1.56e-03  
    3   -1180.6786493215      5.95e-04  
    4   -1180.6932919291      3.25e-04  
    5   -1180.6983361498      6.58e-05  
    6   -1180.6986645254      2.84e-05  
    7   -1180.6987633807      1.24e-05  
    8   -1180.6987924702      6.12e-06  
    9   -1180.6988009718      2.82e-06  
   10   -1180.6988028374      1.15e-06  
   11   -1180.6988031545      5.27e-07  Convergence criterion met
 ---------------------------------------
 SCF time:   CPU 663.82s  wall 666.00s 

************** Final PCM Free Energy Summary **************
 G_electrostatic  =      -0.00983805 hartree =      -6.17347221 kcal/mol
 G_cavitation     =       0.00000000 hartree =       0.00000000 kcal/mol
 G_dispersion     =       0.00000000 hartree =       0.00000000 kcal/mol
 G_repulsion      =       0.00000000 hartree =       0.00000000 kcal/mol
 --------------------------------------------------
 Non-electrostatic Free Energy =       0.00000000 hartree =       0.00000000 kcal/mol
 Total                         =      -0.00983805 hartree =      -6.17347221 kcal/mol
 --------------------------------------------------
 SCF Energy (H0 + V/2)                       =   -1180.69880315 
 Solute Internal Energy (H0)                 =   -1180.68896510 
 Total Free Energy (H0 + V/2 + non-elec)     =   -1180.69880315 hartree
                                             = -740899.68137782 kcal/mol
***********************************************************

 SCF   energy in the final basis set =    -1180.6988031545
 Total energy in the final basis set =    -1180.6988031545


 --------------------------------------------------------------
  Generalized many-body perturbation theory program
  by Joonho Lee, Fazle Rob, Xintian Feng, Evgeny Epifanovsky

 No regularization used 
 (reg. param. = 0.0000e+00)
  (P|Q)^-1/2 Time:  CPU 1.89 s  wall 1.90 s

 In RI-MP2 calculation: 
 # of frozen core orbitals: 20

 Components of the RIMP2 correlation energy:
        aaaa    correlation energy =        -0.2549081877 a.u.
        abab    correlation energy =        -1.5131306165 a.u.
        bbbb    correlation energy =        -0.2549081877 a.u.
        non-Brillouin singles      =        -0.0000000000 a.u.
        total same-spin energy     =        -0.5098163753 a.u.
        total opposite-spin energy =        -1.5131306165 a.u.

 Total  RIMP2   correlation energy =        -2.0229469918 a.u.
        RIMP2         total energy =     -1182.7217501463 a.u.

 RI-MP2 Energy Time:  CPU 80.65 s  wall 80.88 s
 
 --------------------------------------------------------------
 
                    Orbital Energies (a.u.)
 --------------------------------------------------------------
 
 Alpha MOs
 -- Occupied --
-91.9830 -91.9387 -11.2743 -11.2701 -11.2611 -11.2569 -11.2522 -11.2388
-11.2371 -11.2328 -11.2297 -11.2200  -8.9835  -8.9437  -6.6643  -6.6636
 -6.6632  -6.6250  -6.6239  -6.6226  -1.2080  -1.1528  -1.0603  -1.0330
 -0.9985  -0.9630  -0.9133  -0.9012  -0.8138  -0.7610  -0.7296  -0.7059
 -0.6610  -0.6465  -0.6114  -0.5947  -0.5858  -0.5710  -0.5589  -0.5535
 -0.5428  -0.5362  -0.5232  -0.5052  -0.4835  -0.4790  -0.4596  -0.4331
 -0.3626  -0.3412  -0.3218  -0.2570
 -- Virtual --
  0.0697   0.1270   0.1496   0.1517   0.1576   0.1667   0.1771   0.1848
  0.1878   0.2023   0.2095   0.2164   0.2278   0.2310   0.2394   0.2434
  0.2550   0.2679   0.2817   0.3106   0.3132   0.3187   0.3386   0.3611
  0.3664   0.3678   0.3749   0.3948   0.4021   0.4035   0.4229   0.4279
  0.4305   0.4356   0.4595   0.4655   0.4740   0.4791   0.4856   0.4946
  0.4991   0.5083   0.5241   0.5306   0.5397   0.5416   0.5550   0.5628
  0.5754   0.5781   0.5928   0.5944   0.6054   0.6088   0.6140   0.6210
  0.6227   0.6270   0.6319   0.6372   0.6383   0.6485   0.6547   0.6643
  0.6718   0.6808   0.6854   0.6899   0.7006   0.7099   0.7176   0.7259
  0.7392   0.7470   0.7560   0.7760   0.7834   0.7927   0.8048   0.8173
  0.8311   0.8498   0.8631   0.8651   0.8704   0.8903   0.8996   0.9169
  0.9181   0.9400   0.9548   0.9639   0.9719   0.9722   0.9969   1.0071
  1.0255   1.0311   1.0392   1.0534   1.0566   1.0671   1.0767   1.0865
  1.0890   1.0942   1.1153   1.1350   1.1552   1.1608   1.1621   1.1754
  1.1888   1.1916   1.1957   1.2093   1.2136   1.2233   1.2407   1.2499
  1.2532   1.2565   1.2643   1.2709   1.2798   1.3041   1.3082   1.3179
  1.3256   1.3341   1.3441   1.3671   1.3785   1.3882   1.4070   1.4203
  1.4276   1.4362   1.4481   1.4608   1.4700   1.4784   1.4931   1.4992
  1.5178   1.5196   1.5295   1.5326   1.5386   1.5458   1.5501   1.5650
  1.5736   1.5897   1.6033   1.6173   1.6213   1.6319   1.6380   1.6492
  1.6585   1.6654   1.6785   1.6892   1.6960   1.7099   1.7200   1.7392
  1.7506   1.7556   1.7756   1.8006   1.8082   1.8288   1.8400   1.8722
  1.8834   1.9019   1.9227   1.9386   1.9599   1.9852   1.9913   2.0125
  2.0229   2.0413   2.0620   2.0813   2.1000   2.1097   2.1325   2.1648
  2.1845   2.2008   2.2166   2.2264   2.2329   2.2423   2.2575   2.2826
  2.3096   2.3367   2.3472   2.4149   2.4285   2.4319   2.4475   2.4710
  2.4818   2.5183   2.5365   2.5514   2.5520   2.5925   2.6112   2.6223
  2.6361   2.6507   2.6614   2.6684   2.6746   2.6856   2.7176   2.7322
  2.7374   2.7464   2.7660   2.7695   2.7793   2.8038   2.8180   2.8316
  2.8379   2.8493   2.8621   2.8774   2.8886   2.9164   2.9278   2.9468
  2.9596   2.9679   2.9796   2.9968   3.0077   3.0280   3.0327   3.0456
  3.0738   3.0805   3.1016   3.1110   3.1208   3.1241   3.1385   3.1423
  3.1550   3.1604   3.1690   3.1716   3.1842   3.1952   3.2134   3.2203
  3.2285   3.2374   3.2546   3.2585   3.2655   3.2677   3.2913   3.2987
  3.3089   3.3184   3.3331   3.3414   3.3494   3.3559   3.3602   3.3660
  3.3736   3.3867   3.3948   3.4125   3.4147   3.4215   3.4308   3.4387
  3.4413   3.4482   3.4652   3.4714   3.4817   3.4870   3.4962   3.5137
  3.5150   3.5304   3.5382   3.5432   3.5538   3.5681   3.5762   3.5795
  3.5947   3.6013   3.6179   3.6264   3.6358   3.6520   3.6685   3.6805
  3.6861   3.7044   3.7085   3.7161   3.7189   3.7324   3.7419   3.7570
  3.7624   3.7755   3.7825   3.7964   3.7996   3.8078   3.8276   3.8335
  3.8450   3.8469   3.8650   3.8724   3.8972   3.9000   3.9088   3.9269
  3.9418   3.9533   3.9640   3.9856   3.9937   4.0020   4.0222   4.0283
  4.0480   4.0551   4.0603   4.0677   4.0744   4.0843   4.1048   4.1266
  4.1284   4.1407   4.1520   4.1579   4.1665   4.1886   4.2060   4.2163
  4.2240   4.2360   4.2409   4.2500   4.2595   4.2707   4.2767   4.2950
  4.3055   4.3154   4.3338   4.3499   4.3592   4.3646   4.3699   4.3810
  4.4011   4.4041   4.4070   4.4169   4.4265   4.4401   4.4524   4.4558
  4.4655   4.4802   4.4970   4.5126   4.5314   4.5385   4.5731   4.5801
  4.5869   4.6012   4.6217   4.6327   4.6513   4.6644   4.6775   4.7052
  4.7213   4.7341   4.7483   4.7848   4.8018   4.8062   4.8404   4.8620
  4.8844   4.9103   4.9193   4.9260   4.9354   4.9737   4.9995   5.0076
  5.0274   5.0666   5.0782   5.1028   5.1216   5.1269   5.1331   5.1870
  5.2002   5.2274   5.2421   5.2705   5.2799   5.2972   5.3130   5.3216
  5.3523   5.3745   5.3916   5.4092   5.4176   5.4393   5.4436   5.4621
  5.4848   5.5093   5.5365   5.5454   5.5525   5.5771   5.5785   5.6073
  5.6204   5.6308   5.6399   5.6584   5.6856   5.7024   5.7160   5.7306
  5.7728   5.8111   5.8253   5.9521   6.0085   6.0464   6.1170   6.1663
  6.2146   6.2283   6.2418   6.2515   6.2636   6.2857   6.2983   6.3128
  6.3890   6.4386   9.5192  10.5573  12.5414  12.8458  13.1666  13.9073
 14.1437  14.2190  14.3611  14.9255
 --------------------------------------------------------------
 
          Ground-State Mulliken Net Atomic Charges

     Atom                 Charge (a.u.)
  ----------------------------------------
      1 C                    -0.083459
      2 C                    -0.305353
      3 C                    -0.070796
      4 H                     0.175307
      5 C                     0.110707
      6 S                    -0.188066
      7 C                    -0.290273
      8 H                     0.117848
      9 H                     0.114830
     10 H                     0.096889
     11 C                    -0.074148
     12 C                    -0.237476
     13 C                     0.019470
     14 H                     0.187868
     15 C                    -0.245779
     16 S                     0.032610
     17 C                    -0.268698
     18 H                     0.101639
     19 H                     0.108821
     20 H                     0.106031
     21 H                     0.199836
     22 H                     0.110052
     23 H                     0.109369
     24 H                     0.172772
  ----------------------------------------
  Sum of atomic charges =     0.000000

 -----------------------------------------------------------------
                    Cartesian Multipole Moments
 -----------------------------------------------------------------
    Charge (ESU x 10^10)
                -0.0000
    Dipole Moment (Debye)
         X       2.0617      Y      -0.0593      Z       3.8285
       Tot       4.3488
    Quadrupole Moments (Debye-Ang)
        XX     -85.0746     XY       4.7086     YY     -80.2288
        XZ       0.2044     YZ      -3.3705     ZZ     -85.4547
    Octopole Moments (Debye-Ang^2)
       XXX    -147.7741    XXY      86.5180    XYY     -39.5628
       YYY     174.8557    XXZ      -4.7360    XYZ       0.2463
       YYZ      -2.7571    XZZ     -49.0102    YZZ      73.5190
       ZZZ       7.5972
    Hexadecapole Moments (Debye-Ang^3)
      XXXX    -706.8392   XXXY    -212.9019   XXYY    -522.9804
      XYYY    -228.5771   YYYY   -2302.8498   XXXZ     -29.7157
      XXYZ     -25.8689   XYYZ     -21.5522   YYYZ     -65.3837
      XXZZ    -298.7236   XYZZ     -62.6059   YYZZ    -581.3217
      XZZZ     -32.6607   YZZZ     -96.1049   ZZZZ   -1082.6198
 -----------------------------------------------------------------
 Total job time:  749.67s(wall), 745.38s(cpu) 
 Sun Jul 10 04:18:55 2022

        *************************************************************
        *                                                           *
        *  Thank you very much for using Q-Chem.  Have a nice day.  *
        *                                                           *
        *************************************************************


remove work dirs ./qchem2571398.0 -- ./qchem2571398.-1
rm -rf ./qchem2571398
