You are running Q-Chem version: 5.4.0

#
# job setting
#
local host:  exp-5-17
current dir: /expanse/lustre/scratch/theleonzhang/temp_project/Hydrogenated_Rotation_Test
input file:  Methylthiophene_Phi_15_Theta_170_Methylthiophene_Hydrogenated_Alternate.qcin
output file: 
nprocs     : 0
nthreads   : 1
#
# qchem installation setting
#
QC:          /cm/shared/apps/spack/cpu/opt/spack/linux-centos8-zen2/gcc-10.2.0/qchem-5.4-akfmr7b3t57bfs6qan3padb2wnb2i7cl
QCAUX:       /cm/shared/apps/spack/cpu/opt/spack/linux-centos8-zen2/gcc-10.2.0/qchem-5.4-akfmr7b3t57bfs6qan3padb2wnb2i7cl/qcaux
QCPROG:      /cm/shared/apps/spack/cpu/opt/spack/linux-centos8-zen2/gcc-10.2.0/qchem-5.4-akfmr7b3t57bfs6qan3padb2wnb2i7cl/exe/qcprog.exe_s
QCPROG_S:    /cm/shared/apps/spack/cpu/opt/spack/linux-centos8-zen2/gcc-10.2.0/qchem-5.4-akfmr7b3t57bfs6qan3padb2wnb2i7cl/exe/qcprog.exe_s
PARALLEL:    -DSERIAL
QCMPI:       mpich
#
# qchem directory setting
#
qcrun:       qchem626921
QCSCRATCH:   .
QCLOCALSCR:  
QCTMPDIR:    .
QCFILEPREF:  ./qchem626921
QCSAVEDIR:   
workdirs:    ./qchem626921
workdir0:    ./qchem626921
partmpdirs =  
#
# parallel setting
#
QCRSH:           ssh
QCMPI:           mpich
QCMPIRUN:        /cm/shared/apps/spack/cpu/opt/spack/linux-centos8-zen2/gcc-10.2.0/qchem-5.4-akfmr7b3t57bfs6qan3padb2wnb2i7cl/bin/mpi/mpirun_qchem
QCMACHINEFILE:   ./qchem626921/hostfile

#
# env setting
#
exported envs:   QC QCAUX QCSCRATCH QCRUNNAME QCFILEPREF QCPROG QCPROG_S GUIFILE

Running Job 1 of 1 Methylthiophene_Phi_15_Theta_170_Methylthiophene_Hydrogenated_Alternate.qcin
qchem Methylthiophene_Phi_15_Theta_170_Methylthiophene_Hydrogenated_Alternate.qcin_626921.0 ./qchem626921/ 0
/cm/shared/apps/spack/cpu/opt/spack/linux-centos8-zen2/gcc-10.2.0/qchem-5.4-akfmr7b3t57bfs6qan3padb2wnb2i7cl/exe/qcprog.exe_s Methylthiophene_Phi_15_Theta_170_Methylthiophene_Hydrogenated_Alternate.qcin_626921.0 ./qchem626921/
                  Welcome to Q-Chem
     A Quantum Leap Into The Future Of Chemistry


 Q-Chem 5.4, Q-Chem, Inc., Pleasanton, CA (2021)

 License issued to: University of California, San Diego (site)

 E. Epifanovsky,  A. T. B. Gilbert,  Xintian Feng,  Joonho Lee,  Yuezhi Mao,  
 N. Mardirossian,  P. Pokhilko,  A. White,  M. Wormit,  M. P. Coons,  
 A. L. Dempwolff,  Zhengting Gan,  D. Hait,  P. R. Horn,  L. D. Jacobson,  
 I. Kaliman,  J. Kussmann,  A. W. Lange,  Ka Un Lao,  D. S. Levine,  Jie Liu,  
 S. C. McKenzie,  A. F. Morrison,  K. Nanda,  F. Plasser,  D. R. Rehn,  
 M. L. Vidal,  Zhi-Qiang You,  Ying Zhu,  B. Alam,  B. Albrecht,  
 A. Aldossary,  E. Alguire,  J. H. Andersen,  D. Barton,  K. Begam,  A. Behn,  
 Y. A. Bernard,  E. J. Berquist,  H. Burton,  A. Carreras,  K. Carter-Fenk,  
 R. Chakraborty,  A. D. Chien,  K. D. Closser,  V. Cofer-Shabica,  
 S. Dasgupta,  Jia Deng,  M. de Wergifosse,  M. Diedenhofen,  Hainam Do,  
 S. Ehlert,  Po-Tung Fang,  S. Fatehi,  Qingguo Feng,  J. Gayvert,  
 Qinghui Ge,  G. Gidofalvi,  M. Goldey,  J. Gomes,  C. Gonzalez-Espinoza,  
 S. Gulania,  A. Gunina,  M. W. D. Hanson-Heine,  P. H. P. Harbach,  
 A. W. Hauser,  M. F. Herbst,  M. Hernandez Vera,  M. Hodecker,  
 Z. C. Holden,  S. Houck,  Xunkun Huang,  Kerwin Hui,  B. C. Huynh,  
 M. Ivanov,  Hyunjun Ji,  Hanjie Jiang,  B. Kaduk,  S. Kaehler,  
 K. Khistyaev,  Jaehoon Kim,  P. Klunzinger,  Z. Koczor-Benda,  
 Joong Hoon Koh,  D. Kosenkov,  L. Koulias,  T. Kowalczyk,  C. M. Krauter,  
 K. Kue,  A. Kunitsa,  T. Kus,  A. Landau,  K. V. Lawler,  D. Lefrancois,  
 S. Lehtola,  Rain Li,  Yi-Pei Li,  Jiashu Liang,  M. Liebenthal,  
 Hung-Hsuan Lin,  You-Sheng Lin,  Fenglai Liu,  Kuan-Yu Liu,  
 M. Loipersberger,  A. Luenser,  A. Manjanath,  P. Manohar,  E. Mansoor,  
 S. F. Manzer,  Shan-Ping Mao,  A. V. Marenich,  T. Markovich,  S. Mason,  
 S. A. Maurer,  P. F. McLaughlin,  M. F. S. J. Menger,  J.-M. Mewes,  
 S. A. Mewes,  P. Morgante,  J. W. Mullinax,  T. S. Nguyen-Beck,  
 K. J. Oosterbaan,  G. Paran,  Alexander C. Paul,  Suranjan K. Paul,  
 F. Pavosevic,  Zheng Pei,  S. Prager,  E. I. Proynov,  E. Ramos,  B. Rana,  
 A. E. Rask,  A. Rettig,  R. M. Richard,  F. Rob,  E. Rossomme,  T. Scheele,  
 M. Scheurer,  M. Schneider,  N. Sergueev,  S. M. Sharada,  W. Skomorowski,  
 D. W. Small,  C. J. Stein,  Yu-Chuan Su,  E. J. Sundstrom,  Zhen Tao,  
 J. Thirman,  T. Tsuchimochi,  N. M. Tubman,  S. P. Veccham,  O. Vydrov,  
 J. Wenzel,  J. Witte,  A. Yamada,  Kun Yao,  S. Yeganeh,  S. R. Yost,  
 A. Zech,  Igor Ying Zhang,  Xing Zhang,  Yu Zhang,  D. Zuev,  
 A. Aspuru-Guzik,  A. T. Bell,  N. A. Besley,  K. B. Bravaya,  B. R. Brooks,  
 D. Casanova,  Jeng-Da Chai,  S. Coriani,  C. J. Cramer,  
 A. E. DePrince, III,  R. A. DiStasio Jr.,  A. Dreuw,  B. D. Dunietz,  
 T. R. Furlani,  W. A. Goddard III,  S. Grimme,  S. Hammes-Schiffer,  
 T. Head-Gordon,  W. J. Hehre,  Chao-Ping Hsu,  T.-C. Jagau,  Yousung Jung,  
 A. Klamt,  Jing Kong,  D. S. Lambrecht,  WanZhen Liang,  N. J. Mayhall,  
 C. W. McCurdy,  J. B. Neaton,  C. Ochsenfeld,  J. A. Parkhill,  R. Peverati,  
 V. A. Rassolov,  Yihan Shao,  L. V. Slipchenko,  T. Stauch,  R. P. Steele,  
 J. E. Subotnik,  A. J. W. Thom,  A. Tkatchenko,  D. G. Truhlar,  
 T. Van Voorhis,  T. A. Wesolowski,  K. B. Whaley,  H. L. Woodcock III,  
 P. M. Zimmerman,  S. Faraji,  P. M. W. Gill,  M. Head-Gordon,  
 J. M. Herbert,  A. I. Krylov

 Contributors to earlier versions of Q-Chem not listed above: 
 R. D. Adamson,  B. Austin,  R. Baer,  J. Baker,  G. J. O. Beran,  
 K. Brandhorst,  S. T. Brown,  E. F. C. Byrd,  A. K. Chakraborty,  
 G. K. L. Chan,  Chun-Min Chang,  Yunqing Chen,  C.-L. Cheng,  
 Siu Hung Chien,  D. M. Chipman,  D. L. Crittenden,  H. Dachsel,  
 R. J. Doerksen,  A. D. Dutoi,  R. G. Edgar,  J. Fosso-Tande,  
 L. Fusti-Molnar,  D. Ghosh,  A. Ghysels,  A. Golubeva-Zadorozhnaya,  
 J. Gonthier,  M. S. Gordon,  S. R. Gwaltney,  G. Hawkins,  J. E. Herr,  
 A. Heyden,  S. Hirata,  E. G. Hohenstein,  G. Kedziora,  F. J. Keil,  
 C. Kelley,  Jihan Kim,  R. A. King,  R. Z. Khaliullin,  P. P. Korambath,  
 W. Kurlancheek,  A. Laurent,  A. M. Lee,  M. S. Lee,  S. V. Levchenko,  
 Ching Yeh Lin,  D. Liotard,  E. Livshits,  R. C. Lochan,  I. Lotan,  
 L. A. Martinez-Martinez,  P. E. Maslen,  N. Nair,  D. P. O'Neill,  
 D. Neuhauser,  E. Neuscamman,  C. M. Oana,  R. Olivares-Amaya,  R. Olson,  
 T. M. Perrine,  B. Peters,  P. A. Pieniazek,  A. Prociuk,  Y. M. Rhee,  
 J. Ritchie,  M. A. Rohrdanz,  E. Rosta,  N. J. Russ,  H. F. Schaefer III,  
 M. W. Schmidt,  N. E. Schultz,  S. Sharma,  N. Shenvi,  C. D. Sherrill,  
 A. C. Simmonett,  A. Sodt,  T. Stein,  D. Stuck,  K. S. Thanthiriwatte,  
 V. Vanovschi,  L. Vogt,  Tao Wang,  A. Warshel,  M. A. Watson,  
 C. F. Williams,  Q. Wu,  X. Xu,  Jun Yang,  W. Zhang,  Yan Zhao

 Please cite Q-Chem as follows:
 Y. Shao et al., Mol. Phys. 113, 184-215 (2015)
 DOI: 10.1080/00268976.2014.952696

 Q-Chem 5.4.0 for Intel X86 EM64T Linux

 Parts of Q-Chem use Armadillo 9.800.1 (Horizon Scraper).
 http://arma.sourceforge.net/

 Q-Chem begins on Sun Jul 10 03:44:04 2022  

 Host: 
0

     Scratch files written to ./qchem626921//
 May1621 |scratch|qcdevops|jenkins|workspace|build_RNUM    
 Processing $rem in /cm/shared/apps/spack/cpu/opt/spack/linux-centos8-zen2/gcc-10.2.0/qchem-5.4-akfmr7b3t57bfs6qan3padb2wnb2i7cl/config/preferences:
 Processing $rem in /home/theleonzhang/.qchemrc:
 Symmetry turned off for PCM/SM12/SMD calculation
 Core orbitals will be frozen

 Checking the input file for inconsistencies... 	...done.

--------------------------------------------------------------
User input:
--------------------------------------------------------------
$molecule
0 1
C	-0.133897	-3.866725	-0.763475
C	0.106669	-3.703963	0.603206
C	0.185154	-2.357056	1.050446
H	0.226709	-4.561092	1.283024
C	0.000000	-1.440664	0.000000
S	-0.268206	-2.286957	-1.521018
C	0.437628	-1.978743	2.483610
H	0.549717	-2.878678	3.118875
H	-0.394664	-1.376015	2.903464
H	1.363110	-1.375728	2.593726
C	0.000000	0.000000	0.000000
C	0.223548	0.834165	1.099446
C	0.581748	2.170912	0.776721
H	0.128089	0.477934	2.136088
C	0.638880	2.384045	-0.612546
S	0.243934	0.910282	-1.486809
C	0.863301	3.221592	1.814609
H	0.753137	2.810458	2.836676
H	0.170663	4.084559	1.726239
H	1.894637	3.622593	1.726228
H	0.884575	3.300913	-1.161575
H	-1.077442	-4.392713	-0.946698
H	0.690363	-4.392347	-1.258274
H	1.063612	-1.440391	-0.187427
$end

$rem
JOBTYPE		SP
EXCHANGE	HF
CORRELATION	pRIMP2
BASIS		cc-pvtz
METHOD		rimp2
AUX_BASIS	rimp2-cc-pvtz
SOLVENT_METHOD	PCM
PURECART	11111
SYMMETRY	false
MEM_TOTAL	110000
SCF_CONVERGENCE = 6
THRESH=10
$end



$solvent
dielectric 4.90
$end
--------------------------------------------------------------
 ----------------------------------------------------------------
             Standard Nuclear Orientation (Angstroms)
    I     Atom           X                Y                Z
 ----------------------------------------------------------------
    1      C      -0.1338970000    -3.8667250000    -0.7634750000
    2      C       0.1066690000    -3.7039630000     0.6032060000
    3      C       0.1851540000    -2.3570560000     1.0504460000
    4      H       0.2267090000    -4.5610920000     1.2830240000
    5      C       0.0000000000    -1.4406640000     0.0000000000
    6      S      -0.2682060000    -2.2869570000    -1.5210180000
    7      C       0.4376280000    -1.9787430000     2.4836100000
    8      H       0.5497170000    -2.8786780000     3.1188750000
    9      H      -0.3946640000    -1.3760150000     2.9034640000
   10      H       1.3631100000    -1.3757280000     2.5937260000
   11      C       0.0000000000     0.0000000000     0.0000000000
   12      C       0.2235480000     0.8341650000     1.0994460000
   13      C       0.5817480000     2.1709120000     0.7767210000
   14      H       0.1280890000     0.4779340000     2.1360880000
   15      C       0.6388800000     2.3840450000    -0.6125460000
   16      S       0.2439340000     0.9102820000    -1.4868090000
   17      C       0.8633010000     3.2215920000     1.8146090000
   18      H       0.7531370000     2.8104580000     2.8366760000
   19      H       0.1706630000     4.0845590000     1.7262390000
   20      H       1.8946370000     3.6225930000     1.7262280000
   21      H       0.8845750000     3.3009130000    -1.1615750000
   22      H      -1.0774420000    -4.3927130000    -0.9466980000
   23      H       0.6903630000    -4.3923470000    -1.2582740000
   24      H       1.0636120000    -1.4403910000    -0.1874270000
 ----------------------------------------------------------------
 Nuclear Repulsion Energy =         877.86361564 hartrees
 There are       52 alpha and       52 beta electrons

 Q-Chem warning in module forms1/BasisType.C, line 2236:

 You are not using the predefined 5D/6D in this basis set.

 Requested basis set is cc-pVTZ
 There are 196 shells and 536 basis functions

 Total QAlloc Memory Limit 110000 MB
 Mega-Array Size       188 MB
 MEM_STATIC part       192 MB
 Discretize the solute cavity surface with Lebedev spheres
	Using 110 Lebedev grid points for each H atom
	Using 194 Lebedev grid points for other atoms
	Atomic van der Waals radii will be scaled by 1.20
 Remove points where switching function is < 1.0e-08
 Keep 1575 surface tesserae and discard 2073 interior tesserae
 Molecular Surface Area = 230.463 Angst**2
 Requested basis set is rimp2-cc-pVTZ
 There are 414 shells and 1414 basis functions
 A cutoff of  1.0D-10 yielded  14103 shell pairs
 There are    102099 function pairs (    130818 Cartesian)
 Smallest overlap matrix eigenvalue = 4.78E-05

 Scale SEOQF with 1.000000e-01/1.000000e-01/1.000000e-01

 Standard Electronic Orientation quadrupole field applied
 Nucleus-field energy     =     0.0000000211 hartrees
 Guess from superposition of atomic densities
 Warning:  Energy on first SCF cycle will be non-variational
 SAD guess density has 104.000000 electrons

 -----------------------------------------------------------------------
  General SCF calculation program by
  Eric Jon Sundstrom, Paul Horn, Yuezhi Mao, Dmitri Zuev, Alec White,
  David Stuck, Shaama M.S., Shane Yost, Joonho Lee, David Small,
  Daniel Levine, Susi Lehtola, Hugh Burton, Evgeny Epifanovsky,
  Bang C. Huynh
 -----------------------------------------------------------------------
 Hartree-Fock
 A restricted SCF calculation will be
 performed using DIIS
 SCF converges when DIIS error is below 1.0e-06
 ---------------------------------------
  Cycle       Energy         DIIS error
 ---------------------------------------
    1   -1186.0687210901      2.39e-02  
    2   -1180.6053840398      1.59e-03  
    3   -1180.7324372852      6.65e-04  
    4   -1180.7489194307      3.47e-04  
    5   -1180.7545848584      5.95e-05  
    6   -1180.7548365293      2.51e-05  
    7   -1180.7548966994      8.77e-06  
    8   -1180.7549093676      4.22e-06  
    9   -1180.7549120864      1.41e-06  
   10   -1180.7549125063      4.99e-07  Convergence criterion met
 ---------------------------------------
 SCF time:   CPU 581.38s  wall 583.00s 

************** Final PCM Free Energy Summary **************
 G_electrostatic  =      -0.00951004 hartree =      -5.96763764 kcal/mol
 G_cavitation     =       0.00000000 hartree =       0.00000000 kcal/mol
 G_dispersion     =       0.00000000 hartree =       0.00000000 kcal/mol
 G_repulsion      =       0.00000000 hartree =       0.00000000 kcal/mol
 --------------------------------------------------
 Non-electrostatic Free Energy =       0.00000000 hartree =       0.00000000 kcal/mol
 Total                         =      -0.00951004 hartree =      -5.96763764 kcal/mol
 --------------------------------------------------
 SCF Energy (H0 + V/2)                       =   -1180.75491251 
 Solute Internal Energy (H0)                 =   -1180.74540247 
 Total Free Energy (H0 + V/2 + non-elec)     =   -1180.75491251 hartree
                                             = -740934.89052747 kcal/mol
***********************************************************

 SCF   energy in the final basis set =    -1180.7549125063
 Total energy in the final basis set =    -1180.7549125063


 --------------------------------------------------------------
  Generalized many-body perturbation theory program
  by Joonho Lee, Fazle Rob, Xintian Feng, Evgeny Epifanovsky

 No regularization used 
 (reg. param. = 0.0000e+00)
  (P|Q)^-1/2 Time:  CPU 1.88 s  wall 1.89 s

 In RI-MP2 calculation: 
 # of frozen core orbitals: 20

 Components of the RIMP2 correlation energy:
        aaaa    correlation energy =        -0.2515608098 a.u.
        abab    correlation energy =        -1.5031568887 a.u.
        bbbb    correlation energy =        -0.2515608098 a.u.
        non-Brillouin singles      =        -0.0000000000 a.u.
        total same-spin energy     =        -0.5031216196 a.u.
        total opposite-spin energy =        -1.5031568887 a.u.

 Total  RIMP2   correlation energy =        -2.0062785083 a.u.
        RIMP2         total energy =     -1182.7611910146 a.u.

 RI-MP2 Energy Time:  CPU 79.47 s  wall 79.66 s
 
 --------------------------------------------------------------
 
                    Orbital Energies (a.u.)
 --------------------------------------------------------------
 
 Alpha MOs
 -- Occupied --
-91.9832 -91.9454 -11.2898 -11.2665 -11.2630 -11.2541 -11.2498 -11.2448
-11.2342 -11.2281 -11.2280 -11.2245  -8.9830  -8.9503  -6.6639  -6.6634
 -6.6627  -6.6317  -6.6306  -6.6294  -1.2035  -1.1524  -1.0609  -1.0325
 -1.0006  -0.9619  -0.9165  -0.8995  -0.8175  -0.7638  -0.7302  -0.7049
 -0.6576  -0.6485  -0.6107  -0.5945  -0.5840  -0.5691  -0.5614  -0.5516
 -0.5469  -0.5363  -0.5242  -0.5022  -0.4849  -0.4825  -0.4685  -0.4435
 -0.3609  -0.3437  -0.3246  -0.2645
 -- Virtual --
  0.1019   0.1319   0.1411   0.1474   0.1560   0.1708   0.1777   0.1849
  0.1877   0.2030   0.2084   0.2155   0.2238   0.2319   0.2389   0.2408
  0.2595   0.2734   0.2904   0.3097   0.3142   0.3245   0.3513   0.3620
  0.3721   0.3785   0.3833   0.3927   0.3996   0.4071   0.4198   0.4251
  0.4362   0.4528   0.4601   0.4698   0.4760   0.4784   0.4838   0.4964
  0.5085   0.5163   0.5242   0.5310   0.5420   0.5453   0.5487   0.5571
  0.5725   0.5844   0.5882   0.5954   0.6071   0.6084   0.6171   0.6198
  0.6251   0.6266   0.6310   0.6368   0.6439   0.6493   0.6558   0.6587
  0.6703   0.6790   0.6808   0.6943   0.7002   0.7181   0.7228   0.7356
  0.7441   0.7518   0.7615   0.7714   0.7877   0.8000   0.8050   0.8210
  0.8340   0.8430   0.8550   0.8621   0.8845   0.9030   0.9096   0.9123
  0.9330   0.9478   0.9554   0.9605   0.9801   0.9949   1.0013   1.0076
  1.0269   1.0308   1.0352   1.0450   1.0608   1.0653   1.0747   1.0845
  1.0912   1.0976   1.1053   1.1254   1.1431   1.1497   1.1598   1.1663
  1.1799   1.1865   1.1972   1.2125   1.2172   1.2294   1.2332   1.2399
  1.2444   1.2574   1.2604   1.2754   1.2810   1.2837   1.2986   1.3159
  1.3238   1.3291   1.3422   1.3617   1.3750   1.3839   1.4086   1.4148
  1.4253   1.4457   1.4527   1.4660   1.4713   1.4824   1.4844   1.5016
  1.5177   1.5231   1.5246   1.5304   1.5363   1.5433   1.5502   1.5691
  1.5715   1.5841   1.5944   1.6061   1.6164   1.6265   1.6360   1.6497
  1.6588   1.6641   1.6853   1.6936   1.6971   1.7117   1.7279   1.7328
  1.7459   1.7605   1.7793   1.7975   1.8356   1.8384   1.8463   1.8759
  1.8824   1.8890   1.9093   1.9328   1.9558   1.9689   1.9940   2.0064
  2.0198   2.0354   2.0498   2.0636   2.1003   2.1084   2.1451   2.1647
  2.1850   2.1980   2.2123   2.2205   2.2366   2.2577   2.2598   2.2803
  2.2972   2.3042   2.3285   2.3824   2.4147   2.4399   2.4532   2.4711
  2.4970   2.5182   2.5276   2.5536   2.5607   2.5910   2.5952   2.6082
  2.6230   2.6529   2.6619   2.6773   2.6824   2.6972   2.7237   2.7479
  2.7490   2.7561   2.7638   2.7750   2.7775   2.7895   2.8100   2.8152
  2.8273   2.8541   2.8615   2.8733   2.8949   2.8958   2.9271   2.9303
  2.9451   2.9542   2.9777   2.9986   3.0133   3.0240   3.0361   3.0449
  3.0663   3.0903   3.1077   3.1115   3.1175   3.1194   3.1286   3.1359
  3.1493   3.1512   3.1660   3.1672   3.1848   3.1960   3.1989   3.2143
  3.2251   3.2399   3.2435   3.2574   3.2713   3.2830   3.2948   3.3018
  3.3108   3.3213   3.3342   3.3417   3.3446   3.3506   3.3661   3.3697
  3.3753   3.3786   3.3870   3.4046   3.4136   3.4179   3.4230   3.4331
  3.4394   3.4534   3.4598   3.4745   3.4777   3.4884   3.4996   3.5076
  3.5164   3.5183   3.5293   3.5326   3.5433   3.5598   3.5702   3.5746
  3.6005   3.6070   3.6132   3.6150   3.6262   3.6367   3.6545   3.6602
  3.6686   3.6766   3.6861   3.6908   3.7109   3.7219   3.7279   3.7416
  3.7575   3.7661   3.7697   3.7783   3.7888   3.7899   3.8071   3.8214
  3.8334   3.8380   3.8625   3.8755   3.8812   3.8887   3.9020   3.9040
  3.9335   3.9422   3.9558   3.9660   3.9834   3.9939   4.0015   4.0217
  4.0367   4.0463   4.0500   4.0543   4.0743   4.0877   4.0962   4.1133
  4.1326   4.1409   4.1494   4.1506   4.1685   4.1744   4.1904   4.1979
  4.2145   4.2266   4.2287   4.2440   4.2517   4.2603   4.2716   4.2885
  4.3073   4.3130   4.3221   4.3407   4.3455   4.3570   4.3677   4.3835
  4.3893   4.3934   4.4026   4.4085   4.4219   4.4255   4.4373   4.4552
  4.4605   4.4738   4.4980   4.5027   4.5059   4.5222   4.5772   4.5816
  4.5901   4.6037   4.6131   4.6287   4.6424   4.6548   4.6560   4.6934
  4.7085   4.7161   4.7531   4.7783   4.8012   4.8059   4.8220   4.8534
  4.8676   4.8769   4.8928   4.9219   4.9424   4.9684   4.9921   5.0063
  5.0520   5.0859   5.0958   5.1154   5.1190   5.1240   5.1599   5.1933
  5.2031   5.2226   5.2551   5.2658   5.2797   5.3011   5.3077   5.3240
  5.3517   5.3743   5.3801   5.3962   5.4117   5.4257   5.4380   5.4446
  5.4657   5.5233   5.5310   5.5424   5.5523   5.5667   5.5791   5.5962
  5.6188   5.6245   5.6324   5.6489   5.6732   5.7037   5.7126   5.7426
  5.7724   5.8002   5.8386   5.9647   6.0304   6.0773   6.1324   6.1842
  6.2166   6.2303   6.2456   6.2496   6.2742   6.2934   6.3247   6.3830
  6.4297   6.5743   9.5640  10.9293  12.0287  12.9362  13.1715  13.9386
 14.1260  14.2113  14.4081  15.1321
 --------------------------------------------------------------
 
          Ground-State Mulliken Net Atomic Charges

     Atom                 Charge (a.u.)
  ----------------------------------------
      1 C                    -0.076256
      2 C                    -0.304685
      3 C                    -0.068499
      4 H                     0.179424
      5 C                     0.122866
      6 S                    -0.178738
      7 C                    -0.303910
      8 H                     0.121656
      9 H                     0.107387
     10 H                     0.110159
     11 C                    -0.011168
     12 C                    -0.319353
     13 C                     0.056320
     14 H                     0.189549
     15 C                    -0.290728
     16 S                     0.005844
     17 C                    -0.271696
     18 H                     0.100655
     19 H                     0.108612
     20 H                     0.108579
     21 H                     0.196455
     22 H                     0.113985
     23 H                     0.112187
     24 H                     0.191355
  ----------------------------------------
  Sum of atomic charges =     0.000000

 -----------------------------------------------------------------
                    Cartesian Multipole Moments
 -----------------------------------------------------------------
    Charge (ESU x 10^10)
                -0.0000
    Dipole Moment (Debye)
         X       1.6409      Y      -0.5768      Z       3.6154
       Tot       4.0121
    Quadrupole Moments (Debye-Ang)
        XX     -91.1664     XY       0.4249     YY     -73.2820
        XZ       0.1458     YZ      -2.1022     ZZ     -85.6969
    Octopole Moments (Debye-Ang^2)
       XXX     -57.8575    XXY      48.6300    XYY      -7.4948
       YYY     116.0655    XXZ      -2.7674    XYZ      -0.7576
       YYZ      -4.6377    XZZ     -14.7602    YZZ      50.8198
       ZZZ       8.2020
    Hexadecapole Moments (Debye-Ang^3)
      XXXX    -222.6003   XXXY    -125.7858   XXYY    -549.0331
      XYYY    -100.9804   YYYY   -2704.8099   XXXZ     -75.2059
      XXYZ     -29.1810   XYYZ     -24.5399   YYYZ     -99.9201
      XXZZ    -228.6402   XYZZ     -41.9996   YYZZ    -646.3454
      XZZZ     -72.6068   YZZZ    -127.7834   ZZZZ   -1081.2512
 -----------------------------------------------------------------
 Total job time:  664.53s(wall), 661.72s(cpu) 
 Sun Jul 10 03:55:09 2022

        *************************************************************
        *                                                           *
        *  Thank you very much for using Q-Chem.  Have a nice day.  *
        *                                                           *
        *************************************************************


remove work dirs ./qchem626921.0 -- ./qchem626921.-1
rm -rf ./qchem626921
