You are running Q-Chem version: 5.4.0

#
# job setting
#
local host:  exp-4-52
current dir: /expanse/lustre/scratch/theleonzhang/temp_project/Hydrogenated_Rotation_Test
input file:  Methylthiophene_Phi_5_Theta_320_Methylthiophene_Hydrogenated_Alternate.qcin
output file: 
nprocs     : 0
nthreads   : 1
#
# qchem installation setting
#
QC:          /cm/shared/apps/spack/cpu/opt/spack/linux-centos8-zen2/gcc-10.2.0/qchem-5.4-akfmr7b3t57bfs6qan3padb2wnb2i7cl
QCAUX:       /cm/shared/apps/spack/cpu/opt/spack/linux-centos8-zen2/gcc-10.2.0/qchem-5.4-akfmr7b3t57bfs6qan3padb2wnb2i7cl/qcaux
QCPROG:      /cm/shared/apps/spack/cpu/opt/spack/linux-centos8-zen2/gcc-10.2.0/qchem-5.4-akfmr7b3t57bfs6qan3padb2wnb2i7cl/exe/qcprog.exe_s
QCPROG_S:    /cm/shared/apps/spack/cpu/opt/spack/linux-centos8-zen2/gcc-10.2.0/qchem-5.4-akfmr7b3t57bfs6qan3padb2wnb2i7cl/exe/qcprog.exe_s
PARALLEL:    -DSERIAL
QCMPI:       mpich
#
# qchem directory setting
#
qcrun:       qchem2105228
QCSCRATCH:   .
QCLOCALSCR:  
QCTMPDIR:    .
QCFILEPREF:  ./qchem2105228
QCSAVEDIR:   
workdirs:    ./qchem2105228
workdir0:    ./qchem2105228
partmpdirs =  
#
# parallel setting
#
QCRSH:           ssh
QCMPI:           mpich
QCMPIRUN:        /cm/shared/apps/spack/cpu/opt/spack/linux-centos8-zen2/gcc-10.2.0/qchem-5.4-akfmr7b3t57bfs6qan3padb2wnb2i7cl/bin/mpi/mpirun_qchem
QCMACHINEFILE:   ./qchem2105228/hostfile

#
# env setting
#
exported envs:   QC QCAUX QCSCRATCH QCRUNNAME QCFILEPREF QCPROG QCPROG_S GUIFILE

Running Job 1 of 1 Methylthiophene_Phi_5_Theta_320_Methylthiophene_Hydrogenated_Alternate.qcin
qchem Methylthiophene_Phi_5_Theta_320_Methylthiophene_Hydrogenated_Alternate.qcin_2105228.0 ./qchem2105228/ 0
/cm/shared/apps/spack/cpu/opt/spack/linux-centos8-zen2/gcc-10.2.0/qchem-5.4-akfmr7b3t57bfs6qan3padb2wnb2i7cl/exe/qcprog.exe_s Methylthiophene_Phi_5_Theta_320_Methylthiophene_Hydrogenated_Alternate.qcin_2105228.0 ./qchem2105228/
                  Welcome to Q-Chem
     A Quantum Leap Into The Future Of Chemistry


 Q-Chem 5.4, Q-Chem, Inc., Pleasanton, CA (2021)

 License issued to: University of California, San Diego (site)

 E. Epifanovsky,  A. T. B. Gilbert,  Xintian Feng,  Joonho Lee,  Yuezhi Mao,  
 N. Mardirossian,  P. Pokhilko,  A. White,  M. Wormit,  M. P. Coons,  
 A. L. Dempwolff,  Zhengting Gan,  D. Hait,  P. R. Horn,  L. D. Jacobson,  
 I. Kaliman,  J. Kussmann,  A. W. Lange,  Ka Un Lao,  D. S. Levine,  Jie Liu,  
 S. C. McKenzie,  A. F. Morrison,  K. Nanda,  F. Plasser,  D. R. Rehn,  
 M. L. Vidal,  Zhi-Qiang You,  Ying Zhu,  B. Alam,  B. Albrecht,  
 A. Aldossary,  E. Alguire,  J. H. Andersen,  D. Barton,  K. Begam,  A. Behn,  
 Y. A. Bernard,  E. J. Berquist,  H. Burton,  A. Carreras,  K. Carter-Fenk,  
 R. Chakraborty,  A. D. Chien,  K. D. Closser,  V. Cofer-Shabica,  
 S. Dasgupta,  Jia Deng,  M. de Wergifosse,  M. Diedenhofen,  Hainam Do,  
 S. Ehlert,  Po-Tung Fang,  S. Fatehi,  Qingguo Feng,  J. Gayvert,  
 Qinghui Ge,  G. Gidofalvi,  M. Goldey,  J. Gomes,  C. Gonzalez-Espinoza,  
 S. Gulania,  A. Gunina,  M. W. D. Hanson-Heine,  P. H. P. Harbach,  
 A. W. Hauser,  M. F. Herbst,  M. Hernandez Vera,  M. Hodecker,  
 Z. C. Holden,  S. Houck,  Xunkun Huang,  Kerwin Hui,  B. C. Huynh,  
 M. Ivanov,  Hyunjun Ji,  Hanjie Jiang,  B. Kaduk,  S. Kaehler,  
 K. Khistyaev,  Jaehoon Kim,  P. Klunzinger,  Z. Koczor-Benda,  
 Joong Hoon Koh,  D. Kosenkov,  L. Koulias,  T. Kowalczyk,  C. M. Krauter,  
 K. Kue,  A. Kunitsa,  T. Kus,  A. Landau,  K. V. Lawler,  D. Lefrancois,  
 S. Lehtola,  Rain Li,  Yi-Pei Li,  Jiashu Liang,  M. Liebenthal,  
 Hung-Hsuan Lin,  You-Sheng Lin,  Fenglai Liu,  Kuan-Yu Liu,  
 M. Loipersberger,  A. Luenser,  A. Manjanath,  P. Manohar,  E. Mansoor,  
 S. F. Manzer,  Shan-Ping Mao,  A. V. Marenich,  T. Markovich,  S. Mason,  
 S. A. Maurer,  P. F. McLaughlin,  M. F. S. J. Menger,  J.-M. Mewes,  
 S. A. Mewes,  P. Morgante,  J. W. Mullinax,  T. S. Nguyen-Beck,  
 K. J. Oosterbaan,  G. Paran,  Alexander C. Paul,  Suranjan K. Paul,  
 F. Pavosevic,  Zheng Pei,  S. Prager,  E. I. Proynov,  E. Ramos,  B. Rana,  
 A. E. Rask,  A. Rettig,  R. M. Richard,  F. Rob,  E. Rossomme,  T. Scheele,  
 M. Scheurer,  M. Schneider,  N. Sergueev,  S. M. Sharada,  W. Skomorowski,  
 D. W. Small,  C. J. Stein,  Yu-Chuan Su,  E. J. Sundstrom,  Zhen Tao,  
 J. Thirman,  T. Tsuchimochi,  N. M. Tubman,  S. P. Veccham,  O. Vydrov,  
 J. Wenzel,  J. Witte,  A. Yamada,  Kun Yao,  S. Yeganeh,  S. R. Yost,  
 A. Zech,  Igor Ying Zhang,  Xing Zhang,  Yu Zhang,  D. Zuev,  
 A. Aspuru-Guzik,  A. T. Bell,  N. A. Besley,  K. B. Bravaya,  B. R. Brooks,  
 D. Casanova,  Jeng-Da Chai,  S. Coriani,  C. J. Cramer,  
 A. E. DePrince, III,  R. A. DiStasio Jr.,  A. Dreuw,  B. D. Dunietz,  
 T. R. Furlani,  W. A. Goddard III,  S. Grimme,  S. Hammes-Schiffer,  
 T. Head-Gordon,  W. J. Hehre,  Chao-Ping Hsu,  T.-C. Jagau,  Yousung Jung,  
 A. Klamt,  Jing Kong,  D. S. Lambrecht,  WanZhen Liang,  N. J. Mayhall,  
 C. W. McCurdy,  J. B. Neaton,  C. Ochsenfeld,  J. A. Parkhill,  R. Peverati,  
 V. A. Rassolov,  Yihan Shao,  L. V. Slipchenko,  T. Stauch,  R. P. Steele,  
 J. E. Subotnik,  A. J. W. Thom,  A. Tkatchenko,  D. G. Truhlar,  
 T. Van Voorhis,  T. A. Wesolowski,  K. B. Whaley,  H. L. Woodcock III,  
 P. M. Zimmerman,  S. Faraji,  P. M. W. Gill,  M. Head-Gordon,  
 J. M. Herbert,  A. I. Krylov

 Contributors to earlier versions of Q-Chem not listed above: 
 R. D. Adamson,  B. Austin,  R. Baer,  J. Baker,  G. J. O. Beran,  
 K. Brandhorst,  S. T. Brown,  E. F. C. Byrd,  A. K. Chakraborty,  
 G. K. L. Chan,  Chun-Min Chang,  Yunqing Chen,  C.-L. Cheng,  
 Siu Hung Chien,  D. M. Chipman,  D. L. Crittenden,  H. Dachsel,  
 R. J. Doerksen,  A. D. Dutoi,  R. G. Edgar,  J. Fosso-Tande,  
 L. Fusti-Molnar,  D. Ghosh,  A. Ghysels,  A. Golubeva-Zadorozhnaya,  
 J. Gonthier,  M. S. Gordon,  S. R. Gwaltney,  G. Hawkins,  J. E. Herr,  
 A. Heyden,  S. Hirata,  E. G. Hohenstein,  G. Kedziora,  F. J. Keil,  
 C. Kelley,  Jihan Kim,  R. A. King,  R. Z. Khaliullin,  P. P. Korambath,  
 W. Kurlancheek,  A. Laurent,  A. M. Lee,  M. S. Lee,  S. V. Levchenko,  
 Ching Yeh Lin,  D. Liotard,  E. Livshits,  R. C. Lochan,  I. Lotan,  
 L. A. Martinez-Martinez,  P. E. Maslen,  N. Nair,  D. P. O'Neill,  
 D. Neuhauser,  E. Neuscamman,  C. M. Oana,  R. Olivares-Amaya,  R. Olson,  
 T. M. Perrine,  B. Peters,  P. A. Pieniazek,  A. Prociuk,  Y. M. Rhee,  
 J. Ritchie,  M. A. Rohrdanz,  E. Rosta,  N. J. Russ,  H. F. Schaefer III,  
 M. W. Schmidt,  N. E. Schultz,  S. Sharma,  N. Shenvi,  C. D. Sherrill,  
 A. C. Simmonett,  A. Sodt,  T. Stein,  D. Stuck,  K. S. Thanthiriwatte,  
 V. Vanovschi,  L. Vogt,  Tao Wang,  A. Warshel,  M. A. Watson,  
 C. F. Williams,  Q. Wu,  X. Xu,  Jun Yang,  W. Zhang,  Yan Zhao

 Please cite Q-Chem as follows:
 Y. Shao et al., Mol. Phys. 113, 184-215 (2015)
 DOI: 10.1080/00268976.2014.952696

 Q-Chem 5.4.0 for Intel X86 EM64T Linux

 Parts of Q-Chem use Armadillo 9.800.1 (Horizon Scraper).
 http://arma.sourceforge.net/

 Q-Chem begins on Sun Jul 10 06:19:39 2022  

 Host: 
0

     Scratch files written to ./qchem2105228//
 May1621 |scratch|qcdevops|jenkins|workspace|build_RNUM    
 Processing $rem in /cm/shared/apps/spack/cpu/opt/spack/linux-centos8-zen2/gcc-10.2.0/qchem-5.4-akfmr7b3t57bfs6qan3padb2wnb2i7cl/config/preferences:
 Processing $rem in /home/theleonzhang/.qchemrc:
 Symmetry turned off for PCM/SM12/SMD calculation
 Core orbitals will be frozen

 Checking the input file for inconsistencies... 	...done.

--------------------------------------------------------------
User input:
--------------------------------------------------------------
$molecule
0 1
C	0.497696	-3.866725	0.594240
C	-0.393981	-3.703963	-0.469057
C	-0.685571	-2.357056	-0.817136
H	-0.837848	-4.561092	-0.997777
C	-0.000000	-1.440664	-0.000000
S	0.992782	-2.286957	1.183137
C	-1.620802	-1.978743	-1.932056
H	-2.035506	-2.878678	-2.426166
H	-1.109943	-1.376015	-2.711806
H	-2.477350	-1.375728	-1.564678
C	0.000000	0.000000	0.000000
C	0.075300	0.860311	1.099446
C	0.195935	2.238951	0.776721
H	0.043151	0.492916	2.136088
C	0.215188	2.458766	-0.612546
S	0.082160	0.938811	-1.486809
C	0.290762	3.322559	1.814609
H	0.253664	2.898542	2.836676
H	-0.541206	4.052140	1.726239
H	1.236797	3.896558	1.726228
H	0.297938	3.404370	-1.161575
H	1.406441	-4.392713	0.281143
H	0.031265	-4.392347	1.434879
H	0.827402	-1.440937	-0.694122
$end

$rem
JOBTYPE		SP
EXCHANGE	HF
CORRELATION	pRIMP2
BASIS		cc-pvtz
METHOD		rimp2
AUX_BASIS	rimp2-cc-pvtz
SOLVENT_METHOD	PCM
PURECART	11111
SYMMETRY	false
MEM_TOTAL	110000
SCF_CONVERGENCE = 6
THRESH=10
$end



$solvent
dielectric 4.90
$end
--------------------------------------------------------------
 ----------------------------------------------------------------
             Standard Nuclear Orientation (Angstroms)
    I     Atom           X                Y                Z
 ----------------------------------------------------------------
    1      C       0.4976960000    -3.8667250000     0.5942400000
    2      C      -0.3939810000    -3.7039630000    -0.4690570000
    3      C      -0.6855710000    -2.3570560000    -0.8171360000
    4      H      -0.8378480000    -4.5610920000    -0.9977770000
    5      C       0.0000000000    -1.4406640000     0.0000000000
    6      S       0.9927820000    -2.2869570000     1.1831370000
    7      C      -1.6208020000    -1.9787430000    -1.9320560000
    8      H      -2.0355060000    -2.8786780000    -2.4261660000
    9      H      -1.1099430000    -1.3760150000    -2.7118060000
   10      H      -2.4773500000    -1.3757280000    -1.5646780000
   11      C       0.0000000000     0.0000000000     0.0000000000
   12      C       0.0753000000     0.8603110000     1.0994460000
   13      C       0.1959350000     2.2389510000     0.7767210000
   14      H       0.0431510000     0.4929160000     2.1360880000
   15      C       0.2151880000     2.4587660000    -0.6125460000
   16      S       0.0821600000     0.9388110000    -1.4868090000
   17      C       0.2907620000     3.3225590000     1.8146090000
   18      H       0.2536640000     2.8985420000     2.8366760000
   19      H      -0.5412060000     4.0521400000     1.7262390000
   20      H       1.2367970000     3.8965580000     1.7262280000
   21      H       0.2979380000     3.4043700000    -1.1615750000
   22      H       1.4064410000    -4.3927130000     0.2811430000
   23      H       0.0312650000    -4.3923470000     1.4348790000
   24      H       0.8274020000    -1.4409370000    -0.6941220000
 ----------------------------------------------------------------
 Nuclear Repulsion Energy =         874.30885492 hartrees
 There are       52 alpha and       52 beta electrons

 Q-Chem warning in module forms1/BasisType.C, line 2236:

 You are not using the predefined 5D/6D in this basis set.

 Requested basis set is cc-pVTZ
 There are 196 shells and 536 basis functions

 Total QAlloc Memory Limit 110000 MB
 Mega-Array Size       188 MB
 MEM_STATIC part       192 MB
 Discretize the solute cavity surface with Lebedev spheres
	Using 110 Lebedev grid points for each H atom
	Using 194 Lebedev grid points for other atoms
	Atomic van der Waals radii will be scaled by 1.20
 Remove points where switching function is < 1.0e-08
 Keep 1600 surface tesserae and discard 2048 interior tesserae
 Molecular Surface Area = 234.277 Angst**2
 Requested basis set is rimp2-cc-pVTZ
 There are 414 shells and 1414 basis functions
 A cutoff of  1.0D-10 yielded  13846 shell pairs
 There are    100394 function pairs (    128799 Cartesian)
 Smallest overlap matrix eigenvalue = 5.12E-05

 Scale SEOQF with 1.000000e-01/1.000000e-01/1.000000e-01

 Standard Electronic Orientation quadrupole field applied
 Nucleus-field energy     =     0.0000000278 hartrees
 Guess from superposition of atomic densities
 Warning:  Energy on first SCF cycle will be non-variational
 SAD guess density has 104.000000 electrons

 -----------------------------------------------------------------------
  General SCF calculation program by
  Eric Jon Sundstrom, Paul Horn, Yuezhi Mao, Dmitri Zuev, Alec White,
  David Stuck, Shaama M.S., Shane Yost, Joonho Lee, David Small,
  Daniel Levine, Susi Lehtola, Hugh Burton, Evgeny Epifanovsky,
  Bang C. Huynh
 -----------------------------------------------------------------------
 Hartree-Fock
 A restricted SCF calculation will be
 performed using DIIS
 SCF converges when DIIS error is below 1.0e-06
 ---------------------------------------
  Cycle       Energy         DIIS error
 ---------------------------------------
    1   -1186.0320255286      2.39e-02  
    2   -1180.6138165448      1.58e-03  
    3   -1180.7391279691      6.47e-04  
    4   -1180.7546676599      3.48e-04  
    5   -1180.7602536402      5.97e-05  
    6   -1180.7605042760      2.48e-05  
    7   -1180.7605638319      8.84e-06  
    8   -1180.7605767033      4.27e-06  
    9   -1180.7605795095      1.39e-06  
   10   -1180.7605799295      4.94e-07  Convergence criterion met
 ---------------------------------------
 SCF time:   CPU 563.15s  wall 565.00s 

************** Final PCM Free Energy Summary **************
 G_electrostatic  =      -0.00812352 hartree =      -5.09758827 kcal/mol
 G_cavitation     =       0.00000000 hartree =       0.00000000 kcal/mol
 G_dispersion     =       0.00000000 hartree =       0.00000000 kcal/mol
 G_repulsion      =       0.00000000 hartree =       0.00000000 kcal/mol
 --------------------------------------------------
 Non-electrostatic Free Energy =       0.00000000 hartree =       0.00000000 kcal/mol
 Total                         =      -0.00812352 hartree =      -5.09758827 kcal/mol
 --------------------------------------------------
 SCF Energy (H0 + V/2)                       =   -1180.76057993 
 Solute Internal Energy (H0)                 =   -1180.75245641 
 Total Free Energy (H0 + V/2 + non-elec)     =   -1180.76057993 hartree
                                             = -740938.44688920 kcal/mol
***********************************************************

 SCF   energy in the final basis set =    -1180.7605799295
 Total energy in the final basis set =    -1180.7605799295


 --------------------------------------------------------------
  Generalized many-body perturbation theory program
  by Joonho Lee, Fazle Rob, Xintian Feng, Evgeny Epifanovsky

 No regularization used 
 (reg. param. = 0.0000e+00)
  (P|Q)^-1/2 Time:  CPU 1.90 s  wall 1.91 s

 In RI-MP2 calculation: 
 # of frozen core orbitals: 20

 Components of the RIMP2 correlation energy:
        aaaa    correlation energy =        -0.2510442032 a.u.
        abab    correlation energy =        -1.5022175948 a.u.
        bbbb    correlation energy =        -0.2510442032 a.u.
        non-Brillouin singles      =        -0.0000000000 a.u.
        total same-spin energy     =        -0.5020884064 a.u.
        total opposite-spin energy =        -1.5022175948 a.u.

 Total  RIMP2   correlation energy =        -2.0043060011 a.u.
        RIMP2         total energy =     -1182.7648859306 a.u.

 RI-MP2 Energy Time:  CPU 79.63 s  wall 79.90 s
 
 --------------------------------------------------------------
 
                    Orbital Energies (a.u.)
 --------------------------------------------------------------
 
 Alpha MOs
 -- Occupied --
-91.9830 -91.9449 -11.2863 -11.2643 -11.2592 -11.2589 -11.2502 -11.2427
-11.2342 -11.2325 -11.2279 -11.2219  -8.9831  -8.9493  -6.6640  -6.6635
 -6.6628  -6.6307  -6.6297  -6.6284  -1.2010  -1.1530  -1.0604  -1.0270
 -1.0055  -0.9592  -0.9153  -0.9009  -0.8140  -0.7703  -0.7263  -0.7041
 -0.6562  -0.6421  -0.6108  -0.5924  -0.5783  -0.5733  -0.5690  -0.5537
 -0.5425  -0.5333  -0.5142  -0.5072  -0.4884  -0.4854  -0.4609  -0.4469
 -0.3571  -0.3431  -0.3228  -0.2705
 -- Virtual --
  0.0992   0.1349   0.1432   0.1498   0.1599   0.1698   0.1820   0.1842
  0.1912   0.1996   0.2007   0.2105   0.2147   0.2328   0.2393   0.2433
  0.2499   0.2655   0.2714   0.2992   0.3179   0.3371   0.3524   0.3564
  0.3658   0.3761   0.3777   0.3961   0.3996   0.4065   0.4166   0.4203
  0.4409   0.4508   0.4606   0.4681   0.4720   0.4766   0.4798   0.4907
  0.5044   0.5167   0.5267   0.5313   0.5333   0.5409   0.5439   0.5525
  0.5678   0.5761   0.5816   0.5968   0.6061   0.6106   0.6138   0.6189
  0.6210   0.6273   0.6309   0.6347   0.6381   0.6444   0.6487   0.6565
  0.6699   0.6796   0.6842   0.6910   0.6985   0.7046   0.7142   0.7205
  0.7281   0.7464   0.7726   0.7802   0.7891   0.7997   0.8065   0.8244
  0.8314   0.8421   0.8496   0.8716   0.8784   0.8864   0.8981   0.9097
  0.9253   0.9436   0.9553   0.9653   0.9760   0.9890   1.0065   1.0102
  1.0171   1.0185   1.0376   1.0418   1.0622   1.0640   1.0758   1.0850
  1.0905   1.0972   1.1076   1.1183   1.1415   1.1448   1.1554   1.1672
  1.1786   1.1837   1.1880   1.2084   1.2207   1.2246   1.2323   1.2439
  1.2615   1.2691   1.2708   1.2793   1.2811   1.2899   1.2989   1.3124
  1.3352   1.3375   1.3426   1.3649   1.3861   1.3943   1.4053   1.4222
  1.4269   1.4289   1.4508   1.4678   1.4691   1.4754   1.4852   1.4925
  1.5012   1.5121   1.5141   1.5250   1.5288   1.5369   1.5438   1.5588
  1.5678   1.5812   1.5908   1.5956   1.6029   1.6202   1.6282   1.6411
  1.6535   1.6614   1.6679   1.6854   1.6975   1.7096   1.7240   1.7301
  1.7500   1.7691   1.7856   1.8026   1.8181   1.8272   1.8386   1.8497
  1.8756   1.9141   1.9290   1.9390   1.9617   1.9804   1.9916   2.0084
  2.0203   2.0334   2.0436   2.0523   2.0704   2.0874   2.1399   2.1568
  2.1826   2.1945   2.2123   2.2183   2.2338   2.2637   2.2760   2.2857
  2.3004   2.3212   2.3367   2.3664   2.4112   2.4279   2.4463   2.4636
  2.4966   2.5032   2.5343   2.5403   2.5656   2.5939   2.6044   2.6155
  2.6432   2.6571   2.6625   2.6659   2.6787   2.6842   2.7037   2.7133
  2.7286   2.7419   2.7575   2.7659   2.7694   2.7801   2.8003   2.8221
  2.8302   2.8428   2.8557   2.8826   2.8959   2.9011   2.9055   2.9215
  2.9394   2.9553   2.9652   2.9806   2.9931   3.0125   3.0262   3.0375
  3.0440   3.0666   3.0888   3.1052   3.1127   3.1228   3.1327   3.1433
  3.1471   3.1552   3.1662   3.1754   3.1862   3.1917   3.2098   3.2243
  3.2366   3.2374   3.2451   3.2711   3.2722   3.2797   3.2977   3.3043
  3.3099   3.3175   3.3269   3.3430   3.3464   3.3561   3.3617   3.3687
  3.3744   3.3847   3.3879   3.3962   3.4010   3.4112   3.4274   3.4383
  3.4485   3.4515   3.4524   3.4673   3.4724   3.4807   3.4873   3.5082
  3.5164   3.5207   3.5293   3.5319   3.5436   3.5450   3.5687   3.5832
  3.5855   3.6041   3.6058   3.6269   3.6329   3.6389   3.6427   3.6602
  3.6678   3.6774   3.6971   3.7119   3.7203   3.7220   3.7333   3.7451
  3.7484   3.7661   3.7735   3.7763   3.7829   3.7934   3.8062   3.8196
  3.8315   3.8428   3.8537   3.8570   3.8711   3.8950   3.9037   3.9065
  3.9154   3.9308   3.9621   3.9681   3.9775   3.9864   3.9968   4.0025
  4.0089   4.0432   4.0562   4.0598   4.0661   4.0814   4.0955   4.1108
  4.1192   4.1353   4.1425   4.1533   4.1638   4.1729   4.1783   4.1934
  4.2063   4.2143   4.2295   4.2381   4.2544   4.2643   4.2713   4.2787
  4.2856   4.2952   4.3013   4.3259   4.3436   4.3520   4.3619   4.3701
  4.3842   4.3988   4.4008   4.4030   4.4155   4.4248   4.4341   4.4442
  4.4517   4.4720   4.4742   4.4826   4.4990   4.5148   4.5424   4.5719
  4.5784   4.5860   4.6105   4.6139   4.6256   4.6420   4.6683   4.6815
  4.6905   4.7042   4.7405   4.7695   4.7894   4.7927   4.8085   4.8318
  4.8629   4.8726   4.8845   4.9046   4.9177   4.9474   4.9577   4.9876
  5.0350   5.0637   5.0912   5.1132   5.1244   5.1320   5.1592   5.1777
  5.2021   5.2187   5.2478   5.2683   5.2777   5.2899   5.3111   5.3231
  5.3501   5.3554   5.3869   5.3899   5.4056   5.4216   5.4387   5.4505
  5.4729   5.5117   5.5309   5.5440   5.5539   5.5637   5.5726   5.5811
  5.6072   5.6257   5.6456   5.6554   5.6784   5.7042   5.7051   5.7471
  5.7556   5.7860   5.8395   5.9626   6.0107   6.0928   6.1403   6.1446
  6.2138   6.2255   6.2275   6.2497   6.2718   6.2960   6.3216   6.3450
  6.3907   6.5240   9.5946  10.7505  11.9308  12.9651  13.2058  13.9543
 14.0934  14.2354  14.4372  14.7526
 --------------------------------------------------------------
 
          Ground-State Mulliken Net Atomic Charges

     Atom                 Charge (a.u.)
  ----------------------------------------
      1 C                    -0.076387
      2 C                    -0.318690
      3 C                    -0.060211
      4 H                     0.177787
      5 C                     0.148551
      6 S                    -0.177908
      7 C                    -0.282675
      8 H                     0.116116
      9 H                     0.103575
     10 H                     0.114627
     11 C                    -0.076675
     12 C                    -0.279629
     13 C                     0.035549
     14 H                     0.185506
     15 C                    -0.259489
     16 S                     0.005444
     17 C                    -0.273040
     18 H                     0.102968
     19 H                     0.108074
     20 H                     0.108585
     21 H                     0.196695
     22 H                     0.112607
     23 H                     0.111722
     24 H                     0.176895
  ----------------------------------------
  Sum of atomic charges =     0.000000

 -----------------------------------------------------------------
                    Cartesian Multipole Moments
 -----------------------------------------------------------------
    Charge (ESU x 10^10)
                -0.0000
    Dipole Moment (Debye)
         X      -0.8078      Y       0.0125      Z      -0.9282
       Tot       1.2306
    Quadrupole Moments (Debye-Ang)
        XX     -91.3007     XY       2.0280     YY     -73.1672
        XZ       0.3747     YZ       4.7646     ZZ     -86.1572
    Octopole Moments (Debye-Ang^2)
       XXX     -19.0711    XXY      41.6926    XYY      -0.3765
       YYY     119.0929    XXZ      -3.3351    XYZ      -3.1201
       YYZ      -3.8387    XZZ      -8.9910    YZZ      52.9426
       ZZZ       2.8938
    Hexadecapole Moments (Debye-Ang^3)
      XXXX    -381.9155   XXXY     -38.5286   XXYY    -577.2601
      XYYY     -36.6557   YYYY   -2765.6340   XXXZ    -146.7908
      XXYZ     -18.7513   XYYZ     -34.2932   YYYZ    -107.1832
      XXZZ    -212.2378   XYZZ       3.1154   YYZZ    -635.0084
      XZZZ    -145.7001   YZZZ     -82.4062   ZZZZ    -878.1067
 -----------------------------------------------------------------
 Total job time:  647.07s(wall), 643.66s(cpu) 
 Sun Jul 10 06:30:27 2022

        *************************************************************
        *                                                           *
        *  Thank you very much for using Q-Chem.  Have a nice day.  *
        *                                                           *
        *************************************************************


remove work dirs ./qchem2105228.0 -- ./qchem2105228.-1
rm -rf ./qchem2105228
