You are running Q-Chem version: 5.4.0

#
# job setting
#
local host:  exp-2-23
current dir: /expanse/lustre/scratch/theleonzhang/temp_project/Hydrogenated_Rotation_Test
input file:  Methylthiophene_Phi_25_Theta_20_Methylthiophene_Hydrogenated_Alternate.qcin
output file: 
nprocs     : 0
nthreads   : 1
#
# qchem installation setting
#
QC:          /cm/shared/apps/spack/cpu/opt/spack/linux-centos8-zen2/gcc-10.2.0/qchem-5.4-akfmr7b3t57bfs6qan3padb2wnb2i7cl
QCAUX:       /cm/shared/apps/spack/cpu/opt/spack/linux-centos8-zen2/gcc-10.2.0/qchem-5.4-akfmr7b3t57bfs6qan3padb2wnb2i7cl/qcaux
QCPROG:      /cm/shared/apps/spack/cpu/opt/spack/linux-centos8-zen2/gcc-10.2.0/qchem-5.4-akfmr7b3t57bfs6qan3padb2wnb2i7cl/exe/qcprog.exe_s
QCPROG_S:    /cm/shared/apps/spack/cpu/opt/spack/linux-centos8-zen2/gcc-10.2.0/qchem-5.4-akfmr7b3t57bfs6qan3padb2wnb2i7cl/exe/qcprog.exe_s
PARALLEL:    -DSERIAL
QCMPI:       mpich
#
# qchem directory setting
#
qcrun:       qchem3408828
QCSCRATCH:   .
QCLOCALSCR:  
QCTMPDIR:    .
QCFILEPREF:  ./qchem3408828
QCSAVEDIR:   
workdirs:    ./qchem3408828
workdir0:    ./qchem3408828
partmpdirs =  
#
# parallel setting
#
QCRSH:           ssh
QCMPI:           mpich
QCMPIRUN:        /cm/shared/apps/spack/cpu/opt/spack/linux-centos8-zen2/gcc-10.2.0/qchem-5.4-akfmr7b3t57bfs6qan3padb2wnb2i7cl/bin/mpi/mpirun_qchem
QCMACHINEFILE:   ./qchem3408828/hostfile

#
# env setting
#
exported envs:   QC QCAUX QCSCRATCH QCRUNNAME QCFILEPREF QCPROG QCPROG_S GUIFILE

Running Job 1 of 1 Methylthiophene_Phi_25_Theta_20_Methylthiophene_Hydrogenated_Alternate.qcin
qchem Methylthiophene_Phi_25_Theta_20_Methylthiophene_Hydrogenated_Alternate.qcin_3408828.0 ./qchem3408828/ 0
/cm/shared/apps/spack/cpu/opt/spack/linux-centos8-zen2/gcc-10.2.0/qchem-5.4-akfmr7b3t57bfs6qan3padb2wnb2i7cl/exe/qcprog.exe_s Methylthiophene_Phi_25_Theta_20_Methylthiophene_Hydrogenated_Alternate.qcin_3408828.0 ./qchem3408828/
                  Welcome to Q-Chem
     A Quantum Leap Into The Future Of Chemistry


 Q-Chem 5.4, Q-Chem, Inc., Pleasanton, CA (2021)

 License issued to: University of California, San Diego (site)

 E. Epifanovsky,  A. T. B. Gilbert,  Xintian Feng,  Joonho Lee,  Yuezhi Mao,  
 N. Mardirossian,  P. Pokhilko,  A. White,  M. Wormit,  M. P. Coons,  
 A. L. Dempwolff,  Zhengting Gan,  D. Hait,  P. R. Horn,  L. D. Jacobson,  
 I. Kaliman,  J. Kussmann,  A. W. Lange,  Ka Un Lao,  D. S. Levine,  Jie Liu,  
 S. C. McKenzie,  A. F. Morrison,  K. Nanda,  F. Plasser,  D. R. Rehn,  
 M. L. Vidal,  Zhi-Qiang You,  Ying Zhu,  B. Alam,  B. Albrecht,  
 A. Aldossary,  E. Alguire,  J. H. Andersen,  D. Barton,  K. Begam,  A. Behn,  
 Y. A. Bernard,  E. J. Berquist,  H. Burton,  A. Carreras,  K. Carter-Fenk,  
 R. Chakraborty,  A. D. Chien,  K. D. Closser,  V. Cofer-Shabica,  
 S. Dasgupta,  Jia Deng,  M. de Wergifosse,  M. Diedenhofen,  Hainam Do,  
 S. Ehlert,  Po-Tung Fang,  S. Fatehi,  Qingguo Feng,  J. Gayvert,  
 Qinghui Ge,  G. Gidofalvi,  M. Goldey,  J. Gomes,  C. Gonzalez-Espinoza,  
 S. Gulania,  A. Gunina,  M. W. D. Hanson-Heine,  P. H. P. Harbach,  
 A. W. Hauser,  M. F. Herbst,  M. Hernandez Vera,  M. Hodecker,  
 Z. C. Holden,  S. Houck,  Xunkun Huang,  Kerwin Hui,  B. C. Huynh,  
 M. Ivanov,  Hyunjun Ji,  Hanjie Jiang,  B. Kaduk,  S. Kaehler,  
 K. Khistyaev,  Jaehoon Kim,  P. Klunzinger,  Z. Koczor-Benda,  
 Joong Hoon Koh,  D. Kosenkov,  L. Koulias,  T. Kowalczyk,  C. M. Krauter,  
 K. Kue,  A. Kunitsa,  T. Kus,  A. Landau,  K. V. Lawler,  D. Lefrancois,  
 S. Lehtola,  Rain Li,  Yi-Pei Li,  Jiashu Liang,  M. Liebenthal,  
 Hung-Hsuan Lin,  You-Sheng Lin,  Fenglai Liu,  Kuan-Yu Liu,  
 M. Loipersberger,  A. Luenser,  A. Manjanath,  P. Manohar,  E. Mansoor,  
 S. F. Manzer,  Shan-Ping Mao,  A. V. Marenich,  T. Markovich,  S. Mason,  
 S. A. Maurer,  P. F. McLaughlin,  M. F. S. J. Menger,  J.-M. Mewes,  
 S. A. Mewes,  P. Morgante,  J. W. Mullinax,  T. S. Nguyen-Beck,  
 K. J. Oosterbaan,  G. Paran,  Alexander C. Paul,  Suranjan K. Paul,  
 F. Pavosevic,  Zheng Pei,  S. Prager,  E. I. Proynov,  E. Ramos,  B. Rana,  
 A. E. Rask,  A. Rettig,  R. M. Richard,  F. Rob,  E. Rossomme,  T. Scheele,  
 M. Scheurer,  M. Schneider,  N. Sergueev,  S. M. Sharada,  W. Skomorowski,  
 D. W. Small,  C. J. Stein,  Yu-Chuan Su,  E. J. Sundstrom,  Zhen Tao,  
 J. Thirman,  T. Tsuchimochi,  N. M. Tubman,  S. P. Veccham,  O. Vydrov,  
 J. Wenzel,  J. Witte,  A. Yamada,  Kun Yao,  S. Yeganeh,  S. R. Yost,  
 A. Zech,  Igor Ying Zhang,  Xing Zhang,  Yu Zhang,  D. Zuev,  
 A. Aspuru-Guzik,  A. T. Bell,  N. A. Besley,  K. B. Bravaya,  B. R. Brooks,  
 D. Casanova,  Jeng-Da Chai,  S. Coriani,  C. J. Cramer,  
 A. E. DePrince, III,  R. A. DiStasio Jr.,  A. Dreuw,  B. D. Dunietz,  
 T. R. Furlani,  W. A. Goddard III,  S. Grimme,  S. Hammes-Schiffer,  
 T. Head-Gordon,  W. J. Hehre,  Chao-Ping Hsu,  T.-C. Jagau,  Yousung Jung,  
 A. Klamt,  Jing Kong,  D. S. Lambrecht,  WanZhen Liang,  N. J. Mayhall,  
 C. W. McCurdy,  J. B. Neaton,  C. Ochsenfeld,  J. A. Parkhill,  R. Peverati,  
 V. A. Rassolov,  Yihan Shao,  L. V. Slipchenko,  T. Stauch,  R. P. Steele,  
 J. E. Subotnik,  A. J. W. Thom,  A. Tkatchenko,  D. G. Truhlar,  
 T. Van Voorhis,  T. A. Wesolowski,  K. B. Whaley,  H. L. Woodcock III,  
 P. M. Zimmerman,  S. Faraji,  P. M. W. Gill,  M. Head-Gordon,  
 J. M. Herbert,  A. I. Krylov

 Contributors to earlier versions of Q-Chem not listed above: 
 R. D. Adamson,  B. Austin,  R. Baer,  J. Baker,  G. J. O. Beran,  
 K. Brandhorst,  S. T. Brown,  E. F. C. Byrd,  A. K. Chakraborty,  
 G. K. L. Chan,  Chun-Min Chang,  Yunqing Chen,  C.-L. Cheng,  
 Siu Hung Chien,  D. M. Chipman,  D. L. Crittenden,  H. Dachsel,  
 R. J. Doerksen,  A. D. Dutoi,  R. G. Edgar,  J. Fosso-Tande,  
 L. Fusti-Molnar,  D. Ghosh,  A. Ghysels,  A. Golubeva-Zadorozhnaya,  
 J. Gonthier,  M. S. Gordon,  S. R. Gwaltney,  G. Hawkins,  J. E. Herr,  
 A. Heyden,  S. Hirata,  E. G. Hohenstein,  G. Kedziora,  F. J. Keil,  
 C. Kelley,  Jihan Kim,  R. A. King,  R. Z. Khaliullin,  P. P. Korambath,  
 W. Kurlancheek,  A. Laurent,  A. M. Lee,  M. S. Lee,  S. V. Levchenko,  
 Ching Yeh Lin,  D. Liotard,  E. Livshits,  R. C. Lochan,  I. Lotan,  
 L. A. Martinez-Martinez,  P. E. Maslen,  N. Nair,  D. P. O'Neill,  
 D. Neuhauser,  E. Neuscamman,  C. M. Oana,  R. Olivares-Amaya,  R. Olson,  
 T. M. Perrine,  B. Peters,  P. A. Pieniazek,  A. Prociuk,  Y. M. Rhee,  
 J. Ritchie,  M. A. Rohrdanz,  E. Rosta,  N. J. Russ,  H. F. Schaefer III,  
 M. W. Schmidt,  N. E. Schultz,  S. Sharma,  N. Shenvi,  C. D. Sherrill,  
 A. C. Simmonett,  A. Sodt,  T. Stein,  D. Stuck,  K. S. Thanthiriwatte,  
 V. Vanovschi,  L. Vogt,  Tao Wang,  A. Warshel,  M. A. Watson,  
 C. F. Williams,  Q. Wu,  X. Xu,  Jun Yang,  W. Zhang,  Yan Zhao

 Please cite Q-Chem as follows:
 Y. Shao et al., Mol. Phys. 113, 184-215 (2015)
 DOI: 10.1080/00268976.2014.952696

 Q-Chem 5.4.0 for Intel X86 EM64T Linux

 Parts of Q-Chem use Armadillo 9.800.1 (Horizon Scraper).
 http://arma.sourceforge.net/

 Q-Chem begins on Sun Jul 10 01:10:04 2022  

 Host: 
0

     Scratch files written to ./qchem3408828//
 May1621 |scratch|qcdevops|jenkins|workspace|build_RNUM    
 Processing $rem in /cm/shared/apps/spack/cpu/opt/spack/linux-centos8-zen2/gcc-10.2.0/qchem-5.4-akfmr7b3t57bfs6qan3padb2wnb2i7cl/config/preferences:
 Processing $rem in /home/theleonzhang/.qchemrc:
 Symmetry turned off for PCM/SM12/SMD calculation
 Core orbitals will be frozen

 Checking the input file for inconsistencies... 	...done.

--------------------------------------------------------------
User input:
--------------------------------------------------------------
$molecule
0 1
C	-0.265779	-3.866725	0.728138
C	0.209225	-3.703963	-0.575726
C	0.364875	-2.357056	-1.002290
H	0.445176	-4.561092	-1.224486
C	-0.000000	-1.440664	-0.000000
S	-0.528236	-2.286957	1.451343
C	0.862808	-1.978743	-2.369683
H	1.083368	-2.878678	-2.975883
H	1.793522	-1.376015	-2.317142
H	0.116375	-1.375728	-2.927787
C	0.000000	0.000000	0.000000
C	0.365003	0.782674	1.099446
C	0.949885	2.036912	0.776721
H	0.209135	0.448431	2.136088
C	1.043159	2.236886	-0.612546
S	0.398297	0.854094	-1.486809
C	1.409609	3.022738	1.814609
H	1.229726	2.636980	2.836676
H	0.877346	3.992870	1.726239
H	2.494910	3.238558	1.726228
H	1.444334	3.097160	-1.161575
H	0.459743	-4.392713	1.358585
H	-1.227009	-4.392347	0.744515
H	1.014829	-1.440937	0.369490
$end

$rem
JOBTYPE		SP
EXCHANGE	HF
CORRELATION	pRIMP2
BASIS		cc-pvtz
METHOD		rimp2
AUX_BASIS	rimp2-cc-pvtz
SOLVENT_METHOD	PCM
PURECART	11111
SYMMETRY	false
MEM_TOTAL	110000
SCF_CONVERGENCE = 6
THRESH=10
$end



$solvent
dielectric 4.90
$end
--------------------------------------------------------------
 ----------------------------------------------------------------
             Standard Nuclear Orientation (Angstroms)
    I     Atom           X                Y                Z
 ----------------------------------------------------------------
    1      C      -0.2657790000    -3.8667250000     0.7281380000
    2      C       0.2092250000    -3.7039630000    -0.5757260000
    3      C       0.3648750000    -2.3570560000    -1.0022900000
    4      H       0.4451760000    -4.5610920000    -1.2244860000
    5      C       0.0000000000    -1.4406640000     0.0000000000
    6      S      -0.5282360000    -2.2869570000     1.4513430000
    7      C       0.8628080000    -1.9787430000    -2.3696830000
    8      H       1.0833680000    -2.8786780000    -2.9758830000
    9      H       1.7935220000    -1.3760150000    -2.3171420000
   10      H       0.1163750000    -1.3757280000    -2.9277870000
   11      C       0.0000000000     0.0000000000     0.0000000000
   12      C       0.3650030000     0.7826740000     1.0994460000
   13      C       0.9498850000     2.0369120000     0.7767210000
   14      H       0.2091350000     0.4484310000     2.1360880000
   15      C       1.0431590000     2.2368860000    -0.6125460000
   16      S       0.3982970000     0.8540940000    -1.4868090000
   17      C       1.4096090000     3.0227380000     1.8146090000
   18      H       1.2297260000     2.6369800000     2.8366760000
   19      H       0.8773460000     3.9928700000     1.7262390000
   20      H       2.4949100000     3.2385580000     1.7262280000
   21      H       1.4443340000     3.0971600000    -1.1615750000
   22      H       0.4597430000    -4.3927130000     1.3585850000
   23      H      -1.2270090000    -4.3923470000     0.7445150000
   24      H       1.0148290000    -1.4409370000     0.3694900000
 ----------------------------------------------------------------
 Nuclear Repulsion Energy =         881.23869915 hartrees
 There are       52 alpha and       52 beta electrons

 Q-Chem warning in module forms1/BasisType.C, line 2236:

 You are not using the predefined 5D/6D in this basis set.

 Requested basis set is cc-pVTZ
 There are 196 shells and 536 basis functions

 Total QAlloc Memory Limit 110000 MB
 Mega-Array Size       188 MB
 MEM_STATIC part       192 MB
 Discretize the solute cavity surface with Lebedev spheres
	Using 110 Lebedev grid points for each H atom
	Using 194 Lebedev grid points for other atoms
	Atomic van der Waals radii will be scaled by 1.20
 Remove points where switching function is < 1.0e-08
 Keep 1585 surface tesserae and discard 2063 interior tesserae
 Molecular Surface Area = 229.584 Angst**2
 Requested basis set is rimp2-cc-pVTZ
 There are 414 shells and 1414 basis functions
 A cutoff of  1.0D-10 yielded  14081 shell pairs
 There are    101945 function pairs (    130695 Cartesian)
 Smallest overlap matrix eigenvalue = 5.66E-05

 Scale SEOQF with 1.000000e-01/1.000000e-01/1.000000e-01

 Standard Electronic Orientation quadrupole field applied
 Nucleus-field energy     =     0.0000000217 hartrees
 Guess from superposition of atomic densities
 Warning:  Energy on first SCF cycle will be non-variational
 SAD guess density has 104.000000 electrons

 -----------------------------------------------------------------------
  General SCF calculation program by
  Eric Jon Sundstrom, Paul Horn, Yuezhi Mao, Dmitri Zuev, Alec White,
  David Stuck, Shaama M.S., Shane Yost, Joonho Lee, David Small,
  Daniel Levine, Susi Lehtola, Hugh Burton, Evgeny Epifanovsky,
  Bang C. Huynh
 -----------------------------------------------------------------------
 Hartree-Fock
 A restricted SCF calculation will be
 performed using DIIS
 SCF converges when DIIS error is below 1.0e-06
 ---------------------------------------
  Cycle       Energy         DIIS error
 ---------------------------------------
    1   -1186.0862458252      2.39e-02  
    2   -1180.5945840541      1.58e-03  
    3   -1180.7208473212      6.55e-04  
    4   -1180.7367878725      3.53e-04  
    5   -1180.7425447014      6.03e-05  
    6   -1180.7427988884      2.48e-05  
    7   -1180.7428571955      8.61e-06  
    8   -1180.7428689909      4.07e-06  
    9   -1180.7428715336      1.41e-06  
   10   -1180.7428719550      5.02e-07  Convergence criterion met
 ---------------------------------------
 SCF time:   CPU 578.30s  wall 581.00s 

************** Final PCM Free Energy Summary **************
 G_electrostatic  =      -0.00807252 hartree =      -5.06558295 kcal/mol
 G_cavitation     =       0.00000000 hartree =       0.00000000 kcal/mol
 G_dispersion     =       0.00000000 hartree =       0.00000000 kcal/mol
 G_repulsion      =       0.00000000 hartree =       0.00000000 kcal/mol
 --------------------------------------------------
 Non-electrostatic Free Energy =       0.00000000 hartree =       0.00000000 kcal/mol
 Total                         =      -0.00807252 hartree =      -5.06558295 kcal/mol
 --------------------------------------------------
 SCF Energy (H0 + V/2)                       =   -1180.74287196 
 Solute Internal Energy (H0)                 =   -1180.73479943 
 Total Free Energy (H0 + V/2 + non-elec)     =   -1180.74287196 hartree
                                             = -740927.33496753 kcal/mol
***********************************************************

 SCF   energy in the final basis set =    -1180.7428719550
 Total energy in the final basis set =    -1180.7428719550


 --------------------------------------------------------------
  Generalized many-body perturbation theory program
  by Joonho Lee, Fazle Rob, Xintian Feng, Evgeny Epifanovsky

 No regularization used 
 (reg. param. = 0.0000e+00)
  (P|Q)^-1/2 Time:  CPU 1.90 s  wall 1.91 s

 In RI-MP2 calculation: 
 # of frozen core orbitals: 20

 Components of the RIMP2 correlation energy:
        aaaa    correlation energy =        -0.2524601261 a.u.
        abab    correlation energy =        -1.5056006960 a.u.
        bbbb    correlation energy =        -0.2524601261 a.u.
        non-Brillouin singles      =        -0.0000000000 a.u.
        total same-spin energy     =        -0.5049202523 a.u.
        total opposite-spin energy =        -1.5056006960 a.u.

 Total  RIMP2   correlation energy =        -2.0105209483 a.u.
        RIMP2         total energy =     -1182.7533929033 a.u.

 RI-MP2 Energy Time:  CPU 79.57 s  wall 79.87 s
 
 --------------------------------------------------------------
 
                    Orbital Energies (a.u.)
 --------------------------------------------------------------
 
 Alpha MOs
 -- Occupied --
-91.9809 -91.9443 -11.2871 -11.2648 -11.2604 -11.2559 -11.2502 -11.2432
-11.2314 -11.2311 -11.2278 -11.2214  -8.9812  -8.9490  -6.6620  -6.6615
 -6.6608  -6.6304  -6.6294  -6.6281  -1.2032  -1.1521  -1.0606  -1.0277
 -1.0069  -0.9555  -0.9148  -0.9021  -0.8122  -0.7716  -0.7199  -0.7016
 -0.6633  -0.6464  -0.6111  -0.5874  -0.5825  -0.5728  -0.5684  -0.5540
 -0.5423  -0.5329  -0.5161  -0.5117  -0.4912  -0.4766  -0.4557  -0.4451
 -0.3573  -0.3412  -0.3251  -0.2634
 -- Virtual --
  0.0961   0.1333   0.1449   0.1529   0.1605   0.1710   0.1733   0.1827
  0.1940   0.1976   0.2005   0.2049   0.2245   0.2349   0.2392   0.2454
  0.2478   0.2699   0.2754   0.3090   0.3233   0.3381   0.3500   0.3656
  0.3720   0.3744   0.3792   0.3890   0.4049   0.4094   0.4174   0.4354
  0.4453   0.4490   0.4598   0.4625   0.4776   0.4826   0.4853   0.4959
  0.5072   0.5146   0.5181   0.5321   0.5380   0.5453   0.5536   0.5565
  0.5654   0.5817   0.5897   0.5952   0.5986   0.6147   0.6189   0.6211
  0.6229   0.6250   0.6347   0.6395   0.6410   0.6496   0.6515   0.6565
  0.6620   0.6722   0.6845   0.6911   0.6944   0.7075   0.7227   0.7272
  0.7291   0.7601   0.7760   0.7766   0.7834   0.7936   0.8143   0.8227
  0.8311   0.8482   0.8500   0.8539   0.8847   0.8991   0.9119   0.9268
  0.9284   0.9344   0.9481   0.9565   0.9818   0.9854   0.9969   0.9977
  1.0128   1.0222   1.0344   1.0509   1.0559   1.0645   1.0759   1.0784
  1.0934   1.1051   1.1234   1.1409   1.1463   1.1537   1.1667   1.1705
  1.1770   1.1788   1.1987   1.2048   1.2190   1.2279   1.2360   1.2401
  1.2575   1.2646   1.2687   1.2769   1.2836   1.2950   1.2986   1.3104
  1.3235   1.3262   1.3410   1.3635   1.3820   1.3981   1.4075   1.4112
  1.4319   1.4438   1.4501   1.4561   1.4666   1.4811   1.4882   1.5027
  1.5119   1.5165   1.5191   1.5295   1.5348   1.5419   1.5454   1.5524
  1.5574   1.5771   1.5889   1.5942   1.6071   1.6346   1.6407   1.6542
  1.6599   1.6607   1.6849   1.6882   1.7029   1.7106   1.7259   1.7310
  1.7428   1.7729   1.7924   1.7954   1.8100   1.8243   1.8469   1.8595
  1.8897   1.9138   1.9265   1.9409   1.9583   1.9772   1.9872   2.0215
  2.0336   2.0482   2.0592   2.0624   2.0748   2.1039   2.1282   2.1506
  2.1865   2.1998   2.2101   2.2165   2.2296   2.2548   2.2765   2.2875
  2.3168   2.3365   2.3547   2.3836   2.4110   2.4309   2.4547   2.4707
  2.4986   2.5099   2.5314   2.5445   2.5607   2.5890   2.6015   2.6165
  2.6374   2.6542   2.6583   2.6705   2.6857   2.6934   2.7058   2.7358
  2.7453   2.7496   2.7596   2.7785   2.7837   2.7883   2.8149   2.8225
  2.8371   2.8437   2.8561   2.8768   2.8922   2.9066   2.9242   2.9420
  2.9564   2.9725   2.9788   3.0016   3.0152   3.0188   3.0272   3.0394
  3.0656   3.0800   3.0872   3.0984   3.1114   3.1191   3.1329   3.1406
  3.1528   3.1593   3.1691   3.1711   3.1830   3.2034   3.2100   3.2237
  3.2242   3.2292   3.2466   3.2555   3.2712   3.2861   3.2975   3.3026
  3.3197   3.3237   3.3292   3.3364   3.3500   3.3518   3.3608   3.3647
  3.3772   3.3872   3.3884   3.4061   3.4108   3.4201   3.4253   3.4298
  3.4338   3.4437   3.4629   3.4675   3.4730   3.4873   3.4994   3.5109
  3.5143   3.5230   3.5336   3.5390   3.5513   3.5577   3.5776   3.5838
  3.5993   3.6124   3.6158   3.6216   3.6338   3.6394   3.6416   3.6594
  3.6715   3.6865   3.7053   3.7079   3.7204   3.7275   3.7342   3.7451
  3.7522   3.7538   3.7746   3.7788   3.7941   3.7958   3.8117   3.8170
  3.8235   3.8407   3.8549   3.8598   3.8685   3.8876   3.9085   3.9116
  3.9288   3.9495   3.9534   3.9725   3.9736   3.9939   4.0003   4.0132
  4.0319   4.0365   4.0498   4.0569   4.0703   4.0888   4.1084   4.1117
  4.1227   4.1383   4.1475   4.1551   4.1612   4.1817   4.1903   4.2054
  4.2103   4.2176   4.2338   4.2433   4.2549   4.2658   4.2809   4.2839
  4.2952   4.3086   4.3318   4.3390   4.3434   4.3497   4.3642   4.3716
  4.3913   4.3969   4.4031   4.4078   4.4178   4.4342   4.4408   4.4545
  4.4658   4.4691   4.4914   4.5054   4.5063   4.5308   4.5457   4.5655
  4.5785   4.5921   4.6128   4.6341   4.6410   4.6536   4.6638   4.6727
  4.7054   4.7285   4.7301   4.7491   4.7841   4.8067   4.8307   4.8428
  4.8557   4.8704   4.8935   4.9040   4.9307   4.9649   4.9701   4.9933
  5.0349   5.0497   5.0923   5.1070   5.1204   5.1272   5.1704   5.1814
  5.1907   5.2171   5.2246   5.2736   5.2822   5.2867   5.3071   5.3126
  5.3460   5.3649   5.3838   5.3978   5.4078   5.4197   5.4422   5.4534
  5.4983   5.5038   5.5251   5.5409   5.5536   5.5630   5.5691   5.5793
  5.6246   5.6334   5.6394   5.6681   5.6745   5.6989   5.7018   5.7325
  5.7627   5.7900   5.8420   5.9683   6.0073   6.1061   6.1319   6.1519
  6.2285   6.2313   6.2402   6.2506   6.2564   6.2884   6.2972   6.3091
  6.4188   6.4451   9.4205  10.6081  12.0883  12.9118  13.1738  13.8977
 14.1368  14.2753  14.3548  14.8125
 --------------------------------------------------------------
 
          Ground-State Mulliken Net Atomic Charges

     Atom                 Charge (a.u.)
  ----------------------------------------
      1 C                    -0.074161
      2 C                    -0.318594
      3 C                    -0.043452
      4 H                     0.178699
      5 C                     0.079652
      6 S                    -0.185691
      7 C                    -0.298620
      8 H                     0.115906
      9 H                     0.114815
     10 H                     0.110153
     11 C                    -0.004669
     12 C                    -0.296454
     13 C                     0.039167
     14 H                     0.179646
     15 C                    -0.271797
     16 S                     0.010738
     17 C                    -0.270456
     18 H                     0.102810
     19 H                     0.108604
     20 H                     0.107148
     21 H                     0.196632
     22 H                     0.110914
     23 H                     0.113510
     24 H                     0.195501
  ----------------------------------------
  Sum of atomic charges =     0.000000

 -----------------------------------------------------------------
                    Cartesian Multipole Moments
 -----------------------------------------------------------------
    Charge (ESU x 10^10)
                -0.0000
    Dipole Moment (Debye)
         X       2.3188      Y      -0.3331      Z      -0.7259
       Tot       2.4525
    Quadrupole Moments (Debye-Ang)
        XX     -90.0366     XY       1.2427     YY     -75.6838
        XZ       0.5436     YZ       3.7245     ZZ     -85.3758
    Octopole Moments (Debye-Ang^2)
       XXX     -91.8708    XXY      56.9683    XYY     -15.7924
       YYY     128.7008    XXZ      -1.2276    XYZ       0.4800
       YYZ      -0.3437    XZZ     -23.3975    YZZ      55.6684
       ZZZ      -2.6770
    Hexadecapole Moments (Debye-Ang^3)
      XXXX    -386.0077   XXXY    -188.0619   XXYY    -545.4218
      XYYY    -157.9055   YYYY   -2639.0727   XXXZ      55.6062
      XXYZ     -27.7696   XYYZ       3.5785   YYYZ     -99.6151
      XXZZ    -241.3427   XYZZ     -65.8620   YYZZ    -628.7284
      XZZZ      44.9834   YZZZ     -60.4922   ZZZZ   -1031.5706
 -----------------------------------------------------------------
 Total job time:  663.22s(wall), 658.76s(cpu) 
 Sun Jul 10 01:21:07 2022

        *************************************************************
        *                                                           *
        *  Thank you very much for using Q-Chem.  Have a nice day.  *
        *                                                           *
        *************************************************************


remove work dirs ./qchem3408828.0 -- ./qchem3408828.-1
rm -rf ./qchem3408828
