You are running Q-Chem version: 5.4.0

#
# job setting
#
local host:  exp-3-35
current dir: /expanse/lustre/scratch/theleonzhang/temp_project/Hydrogenated_Rotation_Test
input file:  Methylthiophene_Phi_0_Theta_90_Methylthiophene_Hydrogenated_Alternate.qcin
output file: 
nprocs     : 0
nthreads   : 1
#
# qchem installation setting
#
QC:          /cm/shared/apps/spack/cpu/opt/spack/linux-centos8-zen2/gcc-10.2.0/qchem-5.4-akfmr7b3t57bfs6qan3padb2wnb2i7cl
QCAUX:       /cm/shared/apps/spack/cpu/opt/spack/linux-centos8-zen2/gcc-10.2.0/qchem-5.4-akfmr7b3t57bfs6qan3padb2wnb2i7cl/qcaux
QCPROG:      /cm/shared/apps/spack/cpu/opt/spack/linux-centos8-zen2/gcc-10.2.0/qchem-5.4-akfmr7b3t57bfs6qan3padb2wnb2i7cl/exe/qcprog.exe_s
QCPROG_S:    /cm/shared/apps/spack/cpu/opt/spack/linux-centos8-zen2/gcc-10.2.0/qchem-5.4-akfmr7b3t57bfs6qan3padb2wnb2i7cl/exe/qcprog.exe_s
PARALLEL:    -DSERIAL
QCMPI:       mpich
#
# qchem directory setting
#
qcrun:       qchem3945708
QCSCRATCH:   .
QCLOCALSCR:  
QCTMPDIR:    .
QCFILEPREF:  ./qchem3945708
QCSAVEDIR:   
workdirs:    ./qchem3945708
workdir0:    ./qchem3945708
partmpdirs =  
#
# parallel setting
#
QCRSH:           ssh
QCMPI:           mpich
QCMPIRUN:        /cm/shared/apps/spack/cpu/opt/spack/linux-centos8-zen2/gcc-10.2.0/qchem-5.4-akfmr7b3t57bfs6qan3padb2wnb2i7cl/bin/mpi/mpirun_qchem
QCMACHINEFILE:   ./qchem3945708/hostfile

#
# env setting
#
exported envs:   QC QCAUX QCSCRATCH QCRUNNAME QCFILEPREF QCPROG QCPROG_S GUIFILE

Running Job 1 of 1 Methylthiophene_Phi_0_Theta_90_Methylthiophene_Hydrogenated_Alternate.qcin
qchem Methylthiophene_Phi_0_Theta_90_Methylthiophene_Hydrogenated_Alternate.qcin_3945708.0 ./qchem3945708/ 0
/cm/shared/apps/spack/cpu/opt/spack/linux-centos8-zen2/gcc-10.2.0/qchem-5.4-akfmr7b3t57bfs6qan3padb2wnb2i7cl/exe/qcprog.exe_s Methylthiophene_Phi_0_Theta_90_Methylthiophene_Hydrogenated_Alternate.qcin_3945708.0 ./qchem3945708/
                  Welcome to Q-Chem
     A Quantum Leap Into The Future Of Chemistry


 Q-Chem 5.4, Q-Chem, Inc., Pleasanton, CA (2021)

 License issued to: University of California, San Diego (site)

 E. Epifanovsky,  A. T. B. Gilbert,  Xintian Feng,  Joonho Lee,  Yuezhi Mao,  
 N. Mardirossian,  P. Pokhilko,  A. White,  M. Wormit,  M. P. Coons,  
 A. L. Dempwolff,  Zhengting Gan,  D. Hait,  P. R. Horn,  L. D. Jacobson,  
 I. Kaliman,  J. Kussmann,  A. W. Lange,  Ka Un Lao,  D. S. Levine,  Jie Liu,  
 S. C. McKenzie,  A. F. Morrison,  K. Nanda,  F. Plasser,  D. R. Rehn,  
 M. L. Vidal,  Zhi-Qiang You,  Ying Zhu,  B. Alam,  B. Albrecht,  
 A. Aldossary,  E. Alguire,  J. H. Andersen,  D. Barton,  K. Begam,  A. Behn,  
 Y. A. Bernard,  E. J. Berquist,  H. Burton,  A. Carreras,  K. Carter-Fenk,  
 R. Chakraborty,  A. D. Chien,  K. D. Closser,  V. Cofer-Shabica,  
 S. Dasgupta,  Jia Deng,  M. de Wergifosse,  M. Diedenhofen,  Hainam Do,  
 S. Ehlert,  Po-Tung Fang,  S. Fatehi,  Qingguo Feng,  J. Gayvert,  
 Qinghui Ge,  G. Gidofalvi,  M. Goldey,  J. Gomes,  C. Gonzalez-Espinoza,  
 S. Gulania,  A. Gunina,  M. W. D. Hanson-Heine,  P. H. P. Harbach,  
 A. W. Hauser,  M. F. Herbst,  M. Hernandez Vera,  M. Hodecker,  
 Z. C. Holden,  S. Houck,  Xunkun Huang,  Kerwin Hui,  B. C. Huynh,  
 M. Ivanov,  Hyunjun Ji,  Hanjie Jiang,  B. Kaduk,  S. Kaehler,  
 K. Khistyaev,  Jaehoon Kim,  P. Klunzinger,  Z. Koczor-Benda,  
 Joong Hoon Koh,  D. Kosenkov,  L. Koulias,  T. Kowalczyk,  C. M. Krauter,  
 K. Kue,  A. Kunitsa,  T. Kus,  A. Landau,  K. V. Lawler,  D. Lefrancois,  
 S. Lehtola,  Rain Li,  Yi-Pei Li,  Jiashu Liang,  M. Liebenthal,  
 Hung-Hsuan Lin,  You-Sheng Lin,  Fenglai Liu,  Kuan-Yu Liu,  
 M. Loipersberger,  A. Luenser,  A. Manjanath,  P. Manohar,  E. Mansoor,  
 S. F. Manzer,  Shan-Ping Mao,  A. V. Marenich,  T. Markovich,  S. Mason,  
 S. A. Maurer,  P. F. McLaughlin,  M. F. S. J. Menger,  J.-M. Mewes,  
 S. A. Mewes,  P. Morgante,  J. W. Mullinax,  T. S. Nguyen-Beck,  
 K. J. Oosterbaan,  G. Paran,  Alexander C. Paul,  Suranjan K. Paul,  
 F. Pavosevic,  Zheng Pei,  S. Prager,  E. I. Proynov,  E. Ramos,  B. Rana,  
 A. E. Rask,  A. Rettig,  R. M. Richard,  F. Rob,  E. Rossomme,  T. Scheele,  
 M. Scheurer,  M. Schneider,  N. Sergueev,  S. M. Sharada,  W. Skomorowski,  
 D. W. Small,  C. J. Stein,  Yu-Chuan Su,  E. J. Sundstrom,  Zhen Tao,  
 J. Thirman,  T. Tsuchimochi,  N. M. Tubman,  S. P. Veccham,  O. Vydrov,  
 J. Wenzel,  J. Witte,  A. Yamada,  Kun Yao,  S. Yeganeh,  S. R. Yost,  
 A. Zech,  Igor Ying Zhang,  Xing Zhang,  Yu Zhang,  D. Zuev,  
 A. Aspuru-Guzik,  A. T. Bell,  N. A. Besley,  K. B. Bravaya,  B. R. Brooks,  
 D. Casanova,  Jeng-Da Chai,  S. Coriani,  C. J. Cramer,  
 A. E. DePrince, III,  R. A. DiStasio Jr.,  A. Dreuw,  B. D. Dunietz,  
 T. R. Furlani,  W. A. Goddard III,  S. Grimme,  S. Hammes-Schiffer,  
 T. Head-Gordon,  W. J. Hehre,  Chao-Ping Hsu,  T.-C. Jagau,  Yousung Jung,  
 A. Klamt,  Jing Kong,  D. S. Lambrecht,  WanZhen Liang,  N. J. Mayhall,  
 C. W. McCurdy,  J. B. Neaton,  C. Ochsenfeld,  J. A. Parkhill,  R. Peverati,  
 V. A. Rassolov,  Yihan Shao,  L. V. Slipchenko,  T. Stauch,  R. P. Steele,  
 J. E. Subotnik,  A. J. W. Thom,  A. Tkatchenko,  D. G. Truhlar,  
 T. Van Voorhis,  T. A. Wesolowski,  K. B. Whaley,  H. L. Woodcock III,  
 P. M. Zimmerman,  S. Faraji,  P. M. W. Gill,  M. Head-Gordon,  
 J. M. Herbert,  A. I. Krylov

 Contributors to earlier versions of Q-Chem not listed above: 
 R. D. Adamson,  B. Austin,  R. Baer,  J. Baker,  G. J. O. Beran,  
 K. Brandhorst,  S. T. Brown,  E. F. C. Byrd,  A. K. Chakraborty,  
 G. K. L. Chan,  Chun-Min Chang,  Yunqing Chen,  C.-L. Cheng,  
 Siu Hung Chien,  D. M. Chipman,  D. L. Crittenden,  H. Dachsel,  
 R. J. Doerksen,  A. D. Dutoi,  R. G. Edgar,  J. Fosso-Tande,  
 L. Fusti-Molnar,  D. Ghosh,  A. Ghysels,  A. Golubeva-Zadorozhnaya,  
 J. Gonthier,  M. S. Gordon,  S. R. Gwaltney,  G. Hawkins,  J. E. Herr,  
 A. Heyden,  S. Hirata,  E. G. Hohenstein,  G. Kedziora,  F. J. Keil,  
 C. Kelley,  Jihan Kim,  R. A. King,  R. Z. Khaliullin,  P. P. Korambath,  
 W. Kurlancheek,  A. Laurent,  A. M. Lee,  M. S. Lee,  S. V. Levchenko,  
 Ching Yeh Lin,  D. Liotard,  E. Livshits,  R. C. Lochan,  I. Lotan,  
 L. A. Martinez-Martinez,  P. E. Maslen,  N. Nair,  D. P. O'Neill,  
 D. Neuhauser,  E. Neuscamman,  C. M. Oana,  R. Olivares-Amaya,  R. Olson,  
 T. M. Perrine,  B. Peters,  P. A. Pieniazek,  A. Prociuk,  Y. M. Rhee,  
 J. Ritchie,  M. A. Rohrdanz,  E. Rosta,  N. J. Russ,  H. F. Schaefer III,  
 M. W. Schmidt,  N. E. Schultz,  S. Sharma,  N. Shenvi,  C. D. Sherrill,  
 A. C. Simmonett,  A. Sodt,  T. Stein,  D. Stuck,  K. S. Thanthiriwatte,  
 V. Vanovschi,  L. Vogt,  Tao Wang,  A. Warshel,  M. A. Watson,  
 C. F. Williams,  Q. Wu,  X. Xu,  Jun Yang,  W. Zhang,  Yan Zhao

 Please cite Q-Chem as follows:
 Y. Shao et al., Mol. Phys. 113, 184-215 (2015)
 DOI: 10.1080/00268976.2014.952696

 Q-Chem 5.4.0 for Intel X86 EM64T Linux

 Parts of Q-Chem use Armadillo 9.800.1 (Horizon Scraper).
 http://arma.sourceforge.net/

 Q-Chem begins on Sun Jul 10 01:33:43 2022  

 Host: 
0

     Scratch files written to ./qchem3945708//
 May1621 |scratch|qcdevops|jenkins|workspace|build_RNUM    
 Processing $rem in /cm/shared/apps/spack/cpu/opt/spack/linux-centos8-zen2/gcc-10.2.0/qchem-5.4-akfmr7b3t57bfs6qan3padb2wnb2i7cl/config/preferences:
 Processing $rem in /home/theleonzhang/.qchemrc:
 Symmetry turned off for PCM/SM12/SMD calculation
 Core orbitals will be frozen

 Checking the input file for inconsistencies... 	...done.

--------------------------------------------------------------
User input:
--------------------------------------------------------------
$molecule
0 1
C	-0.775127	-3.866725	-0.000713
C	0.612565	-3.703963	-0.000302
C	1.066639	-2.357056	0.000067
H	1.302900	-4.561092	-0.000470
C	0.000000	-1.440664	0.000000
S	-1.544483	-2.286957	0.000009
C	2.521872	-1.978743	0.000295
H	3.166949	-2.878678	0.000221
H	2.790821	-1.376015	0.892850
H	2.791023	-1.375728	-0.892005
C	0.000000	0.000000	0.000000
C	0.000033	0.863600	1.099446
C	0.000052	2.247508	0.776721
H	0.000026	0.494801	2.136088
C	0.000074	2.468165	-0.612546
S	0.000024	0.942399	-1.486809
C	0.000075	3.335257	1.814609
H	0.000074	2.909620	2.836676
H	-0.892314	3.989552	1.726239
H	0.892483	3.989525	1.726228
H	0.000094	3.417382	-1.161575
H	-1.119411	-4.392713	0.896681
H	-1.119277	-4.392347	-0.898372
H	0.000115	-1.440391	-1.080000
$end

$rem
JOBTYPE		SP
EXCHANGE	HF
CORRELATION	pRIMP2
BASIS		cc-pvtz
METHOD		rimp2
AUX_BASIS	rimp2-cc-pvtz
SOLVENT_METHOD	PCM
PURECART	11111
SYMMETRY	false
MEM_TOTAL	110000
SCF_CONVERGENCE = 6
THRESH=10
$end



$solvent
dielectric 4.90
$end
--------------------------------------------------------------
 ----------------------------------------------------------------
             Standard Nuclear Orientation (Angstroms)
    I     Atom           X                Y                Z
 ----------------------------------------------------------------
    1      C      -0.7751270000    -3.8667250000    -0.0007130000
    2      C       0.6125650000    -3.7039630000    -0.0003020000
    3      C       1.0666390000    -2.3570560000     0.0000670000
    4      H       1.3029000000    -4.5610920000    -0.0004700000
    5      C       0.0000000000    -1.4406640000     0.0000000000
    6      S      -1.5444830000    -2.2869570000     0.0000090000
    7      C       2.5218720000    -1.9787430000     0.0002950000
    8      H       3.1669490000    -2.8786780000     0.0002210000
    9      H       2.7908210000    -1.3760150000     0.8928500000
   10      H       2.7910230000    -1.3757280000    -0.8920050000
   11      C       0.0000000000     0.0000000000     0.0000000000
   12      C       0.0000330000     0.8636000000     1.0994460000
   13      C       0.0000520000     2.2475080000     0.7767210000
   14      H       0.0000260000     0.4948010000     2.1360880000
   15      C       0.0000740000     2.4681650000    -0.6125460000
   16      S       0.0000240000     0.9423990000    -1.4868090000
   17      C       0.0000750000     3.3352570000     1.8146090000
   18      H       0.0000740000     2.9096200000     2.8366760000
   19      H      -0.8923140000     3.9895520000     1.7262390000
   20      H       0.8924830000     3.9895250000     1.7262280000
   21      H       0.0000940000     3.4173820000    -1.1615750000
   22      H      -1.1194110000    -4.3927130000     0.8966810000
   23      H      -1.1192770000    -4.3923470000    -0.8983720000
   24      H       0.0001150000    -1.4403910000    -1.0800000000
 ----------------------------------------------------------------
 Nuclear Repulsion Energy =         871.53934104 hartrees
 There are       52 alpha and       52 beta electrons

 Q-Chem warning in module forms1/BasisType.C, line 2236:

 You are not using the predefined 5D/6D in this basis set.

 Requested basis set is cc-pVTZ
 There are 196 shells and 536 basis functions

 Total QAlloc Memory Limit 110000 MB
 Mega-Array Size       188 MB
 MEM_STATIC part       192 MB
 Discretize the solute cavity surface with Lebedev spheres
	Using 110 Lebedev grid points for each H atom
	Using 194 Lebedev grid points for other atoms
	Atomic van der Waals radii will be scaled by 1.20
 Remove points where switching function is < 1.0e-08
 Keep 1619 surface tesserae and discard 2029 interior tesserae
 Molecular Surface Area = 241.074 Angst**2
 Requested basis set is rimp2-cc-pVTZ
 There are 414 shells and 1414 basis functions
 A cutoff of  1.0D-10 yielded  13877 shell pairs
 There are    100579 function pairs (    129090 Cartesian)
 Smallest overlap matrix eigenvalue = 5.94E-05

 Scale SEOQF with 1.000000e-01/1.000000e-01/1.000000e-01

 Standard Electronic Orientation quadrupole field applied
 Nucleus-field energy     =     0.0000000375 hartrees
 Guess from superposition of atomic densities
 Warning:  Energy on first SCF cycle will be non-variational
 SAD guess density has 104.000000 electrons

 -----------------------------------------------------------------------
  General SCF calculation program by
  Eric Jon Sundstrom, Paul Horn, Yuezhi Mao, Dmitri Zuev, Alec White,
  David Stuck, Shaama M.S., Shane Yost, Joonho Lee, David Small,
  Daniel Levine, Susi Lehtola, Hugh Burton, Evgeny Epifanovsky,
  Bang C. Huynh
 -----------------------------------------------------------------------
 Hartree-Fock
 A restricted SCF calculation will be
 performed using DIIS
 SCF converges when DIIS error is below 1.0e-06
 ---------------------------------------
  Cycle       Energy         DIIS error
 ---------------------------------------
    1   -1186.0183211578      2.39e-02  
    2   -1180.6159682797      1.56e-03  
    3   -1180.7407516291      6.02e-04  
    4   -1180.7548882794      3.27e-04  
    5   -1180.7597725704      6.03e-05  
    6   -1180.7600199553      2.46e-05  
    7   -1180.7600801921      9.21e-06  
    8   -1180.7600941629      4.49e-06  
    9   -1180.7600974161      1.48e-06  
   10   -1180.7600978887      5.01e-07  Convergence criterion met
 ---------------------------------------
 SCF time:   CPU 562.75s  wall 565.00s 

************** Final PCM Free Energy Summary **************
 G_electrostatic  =      -0.00877539 hartree =      -5.50663785 kcal/mol
 G_cavitation     =       0.00000000 hartree =       0.00000000 kcal/mol
 G_dispersion     =       0.00000000 hartree =       0.00000000 kcal/mol
 G_repulsion      =       0.00000000 hartree =       0.00000000 kcal/mol
 --------------------------------------------------
 Non-electrostatic Free Energy =       0.00000000 hartree =       0.00000000 kcal/mol
 Total                         =      -0.00877539 hartree =      -5.50663785 kcal/mol
 --------------------------------------------------
 SCF Energy (H0 + V/2)                       =   -1180.76009789 
 Solute Internal Energy (H0)                 =   -1180.75132250 
 Total Free Energy (H0 + V/2 + non-elec)     =   -1180.76009789 hartree
                                             = -740938.14440407 kcal/mol
***********************************************************

 SCF   energy in the final basis set =    -1180.7600978887
 Total energy in the final basis set =    -1180.7600978887


 --------------------------------------------------------------
  Generalized many-body perturbation theory program
  by Joonho Lee, Fazle Rob, Xintian Feng, Evgeny Epifanovsky

 No regularization used 
 (reg. param. = 0.0000e+00)
  (P|Q)^-1/2 Time:  CPU 1.88 s  wall 1.89 s

 In RI-MP2 calculation: 
 # of frozen core orbitals: 20

 Components of the RIMP2 correlation energy:
        aaaa    correlation energy =        -0.2508998599 a.u.
        abab    correlation energy =        -1.5023342150 a.u.
        bbbb    correlation energy =        -0.2508998599 a.u.
        non-Brillouin singles      =        -0.0000000000 a.u.
        total same-spin energy     =        -0.5017997198 a.u.
        total opposite-spin energy =        -1.5023342150 a.u.

 Total  RIMP2   correlation energy =        -2.0041339347 a.u.
        RIMP2         total energy =     -1182.7642318235 a.u.

 RI-MP2 Energy Time:  CPU 79.06 s  wall 79.30 s
 
 --------------------------------------------------------------
 
                    Orbital Energies (a.u.)
 --------------------------------------------------------------
 
 Alpha MOs
 -- Occupied --
-91.9869 -91.9410 -11.2787 -11.2654 -11.2627 -11.2550 -11.2510 -11.2405
-11.2385 -11.2314 -11.2288 -11.2188  -8.9865  -8.9457  -6.6673  -6.6668
 -6.6662  -6.6271  -6.6260  -6.6247  -1.1979  -1.1536  -1.0586  -1.0260
 -1.0029  -0.9628  -0.9130  -0.9003  -0.8129  -0.7630  -0.7409  -0.7036
 -0.6538  -0.6339  -0.6109  -0.5876  -0.5767  -0.5727  -0.5689  -0.5539
 -0.5426  -0.5296  -0.5132  -0.5055  -0.4910  -0.4819  -0.4641  -0.4481
 -0.3562  -0.3411  -0.3118  -0.2826
 -- Virtual --
  0.0955   0.1273   0.1415   0.1513   0.1595   0.1664   0.1777   0.1832
  0.1862   0.1941   0.2042   0.2135   0.2278   0.2331   0.2400   0.2438
  0.2488   0.2599   0.2688   0.2922   0.3009   0.3388   0.3453   0.3513
  0.3687   0.3742   0.3775   0.3822   0.3913   0.3979   0.4118   0.4217
  0.4388   0.4444   0.4563   0.4607   0.4661   0.4765   0.4828   0.4882
  0.4998   0.5115   0.5235   0.5285   0.5346   0.5400   0.5458   0.5531
  0.5742   0.5774   0.5806   0.5910   0.6019   0.6084   0.6126   0.6191
  0.6207   0.6288   0.6305   0.6378   0.6414   0.6434   0.6484   0.6510
  0.6616   0.6676   0.6763   0.6837   0.6946   0.7007   0.7117   0.7287
  0.7345   0.7464   0.7518   0.7695   0.7773   0.8026   0.8106   0.8222
  0.8300   0.8392   0.8509   0.8584   0.8693   0.8990   0.9057   0.9209
  0.9222   0.9356   0.9483   0.9513   0.9662   0.9906   0.9965   1.0066
  1.0190   1.0224   1.0349   1.0440   1.0607   1.0636   1.0710   1.0820
  1.0873   1.0963   1.1014   1.1231   1.1300   1.1497   1.1606   1.1693
  1.1736   1.1915   1.1949   1.2086   1.2156   1.2199   1.2354   1.2495
  1.2536   1.2595   1.2611   1.2728   1.2814   1.2954   1.3118   1.3193
  1.3260   1.3373   1.3492   1.3514   1.3620   1.3797   1.4060   1.4110
  1.4236   1.4284   1.4526   1.4552   1.4614   1.4765   1.4904   1.4967
  1.5018   1.5094   1.5177   1.5319   1.5354   1.5429   1.5457   1.5545
  1.5652   1.5777   1.5823   1.5936   1.6106   1.6265   1.6336   1.6385
  1.6579   1.6793   1.6865   1.6971   1.7061   1.7100   1.7210   1.7278
  1.7404   1.7469   1.7650   1.7790   1.7972   1.8217   1.8537   1.8599
  1.8855   1.9068   1.9077   1.9333   1.9538   1.9775   1.9914   2.0040
  2.0118   2.0255   2.0333   2.0523   2.0896   2.1258   2.1301   2.1463
  2.1834   2.1951   2.2042   2.2173   2.2237   2.2412   2.2688   2.2760
  2.3172   2.3268   2.3479   2.3758   2.4059   2.4273   2.4570   2.4623
  2.4942   2.5093   2.5235   2.5383   2.5612   2.5993   2.6072   2.6184
  2.6255   2.6304   2.6509   2.6543   2.6781   2.6855   2.7036   2.7173
  2.7401   2.7470   2.7563   2.7608   2.7756   2.7771   2.7958   2.8318
  2.8390   2.8502   2.8563   2.8792   2.8881   2.9095   2.9141   2.9184
  2.9246   2.9522   2.9677   2.9886   3.0085   3.0263   3.0362   3.0436
  3.0650   3.0726   3.1001   3.1094   3.1119   3.1229   3.1383   3.1391
  3.1434   3.1532   3.1605   3.1707   3.1785   3.1978   3.2108   3.2156
  3.2369   3.2395   3.2458   3.2656   3.2726   3.2819   3.2977   3.3011
  3.3147   3.3264   3.3295   3.3364   3.3484   3.3502   3.3570   3.3600
  3.3811   3.3845   3.3936   3.3993   3.4044   3.4075   3.4164   3.4292
  3.4375   3.4493   3.4639   3.4715   3.4852   3.4906   3.5056   3.5104
  3.5141   3.5286   3.5309   3.5354   3.5476   3.5550   3.5694   3.5769
  3.5805   3.6004   3.6127   3.6180   3.6281   3.6365   3.6504   3.6578
  3.6619   3.6785   3.6869   3.6921   3.7050   3.7242   3.7296   3.7351
  3.7442   3.7477   3.7628   3.7791   3.7844   3.7918   3.8083   3.8271
  3.8290   3.8311   3.8594   3.8695   3.8762   3.8829   3.9023   3.9184
  3.9250   3.9325   3.9507   3.9553   3.9762   3.9946   3.9971   4.0122
  4.0336   4.0475   4.0516   4.0577   4.0744   4.0786   4.0948   4.0998
  4.1261   4.1367   4.1497   4.1597   4.1640   4.1711   4.1746   4.2008
  4.2110   4.2214   4.2385   4.2418   4.2506   4.2599   4.2751   4.2787
  4.2844   4.2936   4.3187   4.3266   4.3410   4.3522   4.3644   4.3731
  4.3792   4.3967   4.4005   4.4039   4.4109   4.4243   4.4323   4.4464
  4.4652   4.4671   4.4762   4.4857   4.4943   4.5110   4.5327   4.5670
  4.5729   4.5923   4.6171   4.6178   4.6228   4.6437   4.6470   4.6660
  4.6871   4.7077   4.7416   4.7489   4.7623   4.8058   4.8219   4.8351
  4.8504   4.8831   4.8904   4.9018   4.9366   4.9644   4.9756   5.0010
  5.0181   5.0385   5.0756   5.1010   5.1136   5.1260   5.1495   5.1901
  5.2014   5.2193   5.2239   5.2656   5.2755   5.2871   5.3095   5.3198
  5.3554   5.3693   5.3773   5.4029   5.4055   5.4199   5.4427   5.4563
  5.4743   5.5230   5.5313   5.5435   5.5487   5.5555   5.5776   5.5937
  5.6199   5.6261   5.6373   5.6633   5.6835   5.7014   5.7044   5.7405
  5.7645   5.7866   5.8341   5.9629   5.9910   6.0736   6.1236   6.1477
  6.2037   6.2167   6.2262   6.2310   6.2554   6.2807   6.3106   6.3284
  6.3806   6.5212   9.4030  10.6598  12.0821  12.9366  13.1765  14.0160
 14.0664  14.2184  14.3345  14.7253
 --------------------------------------------------------------
 
          Ground-State Mulliken Net Atomic Charges

     Atom                 Charge (a.u.)
  ----------------------------------------
      1 C                    -0.078111
      2 C                    -0.329992
      3 C                    -0.024209
      4 H                     0.176298
      5 C                     0.114317
      6 S                    -0.177141
      7 C                    -0.265055
      8 H                     0.112697
      9 H                     0.105541
     10 H                     0.101760
     11 C                    -0.121632
     12 C                    -0.219683
     13 C                     0.018134
     14 H                     0.185671
     15 C                    -0.244999
     16 S                     0.016650
     17 C                    -0.272395
     18 H                     0.102969
     19 H                     0.108389
     20 H                     0.107475
     21 H                     0.198866
     22 H                     0.113174
     23 H                     0.110796
     24 H                     0.160481
  ----------------------------------------
  Sum of atomic charges =     0.000000

 -----------------------------------------------------------------
                    Cartesian Multipole Moments
 -----------------------------------------------------------------
    Charge (ESU x 10^10)
                -0.0000
    Dipole Moment (Debye)
         X       2.4280      Y       0.7407      Z       0.7123
       Tot       2.6365
    Quadrupole Moments (Debye-Ang)
        XX     -91.7724     XY      -3.6226     YY     -73.6339
        XZ       0.2964     YZ       2.3277     ZZ     -85.8924
    Octopole Moments (Debye-Ang^2)
       XXX       5.8358    XXY      40.1453    XYY      -0.9018
       YYY     126.4620    XXZ      -0.9086    XYZ      -0.8001
       YYZ      -6.0468    XZZ      -2.0345    YZZ      56.1271
       ZZZ       4.4122
    Hexadecapole Moments (Debye-Ang^3)
      XXXX    -702.2530   XXXY     -36.0597   XXYY    -619.8593
      XYYY       0.5040   YYYY   -2788.0755   XXXZ       2.0570
      XXYZ     -29.8713   XYYZ       2.2395   YYYZ    -107.6404
      XXZZ    -220.3501   XYZZ       2.4050   YYZZ    -597.9445
      XZZZ       0.6846   YZZZ     -98.3130   ZZZZ    -535.7573
 -----------------------------------------------------------------
 Total job time:  647.06s(wall), 642.69s(cpu) 
 Sun Jul 10 01:44:30 2022

        *************************************************************
        *                                                           *
        *  Thank you very much for using Q-Chem.  Have a nice day.  *
        *                                                           *
        *************************************************************


remove work dirs ./qchem3945708.0 -- ./qchem3945708.-1
rm -rf ./qchem3945708
You are running Q-Chem version: 5.4.0

#
# job setting
#
local host:  exp-4-15
current dir: /expanse/lustre/scratch/theleonzhang/temp_project/Hydrogenated_Rotation_Test
input file:  Methylthiophene_Phi_0_Theta_90_Methylthiophene_Hydrogenated_Alternate.qcin
output file: 
nprocs     : 0
nthreads   : 1
#
# qchem installation setting
#
QC:          /cm/shared/apps/spack/cpu/opt/spack/linux-centos8-zen2/gcc-10.2.0/qchem-5.4-akfmr7b3t57bfs6qan3padb2wnb2i7cl
QCAUX:       /cm/shared/apps/spack/cpu/opt/spack/linux-centos8-zen2/gcc-10.2.0/qchem-5.4-akfmr7b3t57bfs6qan3padb2wnb2i7cl/qcaux
QCPROG:      /cm/shared/apps/spack/cpu/opt/spack/linux-centos8-zen2/gcc-10.2.0/qchem-5.4-akfmr7b3t57bfs6qan3padb2wnb2i7cl/exe/qcprog.exe_s
QCPROG_S:    /cm/shared/apps/spack/cpu/opt/spack/linux-centos8-zen2/gcc-10.2.0/qchem-5.4-akfmr7b3t57bfs6qan3padb2wnb2i7cl/exe/qcprog.exe_s
PARALLEL:    -DSERIAL
QCMPI:       mpich
#
# qchem directory setting
#
qcrun:       qchem199061
QCSCRATCH:   .
QCLOCALSCR:  
QCTMPDIR:    .
QCFILEPREF:  ./qchem199061
QCSAVEDIR:   
workdirs:    ./qchem199061
workdir0:    ./qchem199061
partmpdirs =  
#
# parallel setting
#
QCRSH:           ssh
QCMPI:           mpich
QCMPIRUN:        /cm/shared/apps/spack/cpu/opt/spack/linux-centos8-zen2/gcc-10.2.0/qchem-5.4-akfmr7b3t57bfs6qan3padb2wnb2i7cl/bin/mpi/mpirun_qchem
QCMACHINEFILE:   ./qchem199061/hostfile

#
# env setting
#
exported envs:   QC QCAUX QCSCRATCH QCRUNNAME QCFILEPREF QCPROG QCPROG_S GUIFILE

Running Job 1 of 1 Methylthiophene_Phi_0_Theta_90_Methylthiophene_Hydrogenated_Alternate.qcin
qchem Methylthiophene_Phi_0_Theta_90_Methylthiophene_Hydrogenated_Alternate.qcin_199061.0 ./qchem199061/ 0
/cm/shared/apps/spack/cpu/opt/spack/linux-centos8-zen2/gcc-10.2.0/qchem-5.4-akfmr7b3t57bfs6qan3padb2wnb2i7cl/exe/qcprog.exe_s Methylthiophene_Phi_0_Theta_90_Methylthiophene_Hydrogenated_Alternate.qcin_199061.0 ./qchem199061/
                  Welcome to Q-Chem
     A Quantum Leap Into The Future Of Chemistry


 Q-Chem 5.4, Q-Chem, Inc., Pleasanton, CA (2021)

 License issued to: University of California, San Diego (site)

 E. Epifanovsky,  A. T. B. Gilbert,  Xintian Feng,  Joonho Lee,  Yuezhi Mao,  
 N. Mardirossian,  P. Pokhilko,  A. White,  M. Wormit,  M. P. Coons,  
 A. L. Dempwolff,  Zhengting Gan,  D. Hait,  P. R. Horn,  L. D. Jacobson,  
 I. Kaliman,  J. Kussmann,  A. W. Lange,  Ka Un Lao,  D. S. Levine,  Jie Liu,  
 S. C. McKenzie,  A. F. Morrison,  K. Nanda,  F. Plasser,  D. R. Rehn,  
 M. L. Vidal,  Zhi-Qiang You,  Ying Zhu,  B. Alam,  B. Albrecht,  
 A. Aldossary,  E. Alguire,  J. H. Andersen,  D. Barton,  K. Begam,  A. Behn,  
 Y. A. Bernard,  E. J. Berquist,  H. Burton,  A. Carreras,  K. Carter-Fenk,  
 R. Chakraborty,  A. D. Chien,  K. D. Closser,  V. Cofer-Shabica,  
 S. Dasgupta,  Jia Deng,  M. de Wergifosse,  M. Diedenhofen,  Hainam Do,  
 S. Ehlert,  Po-Tung Fang,  S. Fatehi,  Qingguo Feng,  J. Gayvert,  
 Qinghui Ge,  G. Gidofalvi,  M. Goldey,  J. Gomes,  C. Gonzalez-Espinoza,  
 S. Gulania,  A. Gunina,  M. W. D. Hanson-Heine,  P. H. P. Harbach,  
 A. W. Hauser,  M. F. Herbst,  M. Hernandez Vera,  M. Hodecker,  
 Z. C. Holden,  S. Houck,  Xunkun Huang,  Kerwin Hui,  B. C. Huynh,  
 M. Ivanov,  Hyunjun Ji,  Hanjie Jiang,  B. Kaduk,  S. Kaehler,  
 K. Khistyaev,  Jaehoon Kim,  P. Klunzinger,  Z. Koczor-Benda,  
 Joong Hoon Koh,  D. Kosenkov,  L. Koulias,  T. Kowalczyk,  C. M. Krauter,  
 K. Kue,  A. Kunitsa,  T. Kus,  A. Landau,  K. V. Lawler,  D. Lefrancois,  
 S. Lehtola,  Rain Li,  Yi-Pei Li,  Jiashu Liang,  M. Liebenthal,  
 Hung-Hsuan Lin,  You-Sheng Lin,  Fenglai Liu,  Kuan-Yu Liu,  
 M. Loipersberger,  A. Luenser,  A. Manjanath,  P. Manohar,  E. Mansoor,  
 S. F. Manzer,  Shan-Ping Mao,  A. V. Marenich,  T. Markovich,  S. Mason,  
 S. A. Maurer,  P. F. McLaughlin,  M. F. S. J. Menger,  J.-M. Mewes,  
 S. A. Mewes,  P. Morgante,  J. W. Mullinax,  T. S. Nguyen-Beck,  
 K. J. Oosterbaan,  G. Paran,  Alexander C. Paul,  Suranjan K. Paul,  
 F. Pavosevic,  Zheng Pei,  S. Prager,  E. I. Proynov,  E. Ramos,  B. Rana,  
 A. E. Rask,  A. Rettig,  R. M. Richard,  F. Rob,  E. Rossomme,  T. Scheele,  
 M. Scheurer,  M. Schneider,  N. Sergueev,  S. M. Sharada,  W. Skomorowski,  
 D. W. Small,  C. J. Stein,  Yu-Chuan Su,  E. J. Sundstrom,  Zhen Tao,  
 J. Thirman,  T. Tsuchimochi,  N. M. Tubman,  S. P. Veccham,  O. Vydrov,  
 J. Wenzel,  J. Witte,  A. Yamada,  Kun Yao,  S. Yeganeh,  S. R. Yost,  
 A. Zech,  Igor Ying Zhang,  Xing Zhang,  Yu Zhang,  D. Zuev,  
 A. Aspuru-Guzik,  A. T. Bell,  N. A. Besley,  K. B. Bravaya,  B. R. Brooks,  
 D. Casanova,  Jeng-Da Chai,  S. Coriani,  C. J. Cramer,  
 A. E. DePrince, III,  R. A. DiStasio Jr.,  A. Dreuw,  B. D. Dunietz,  
 T. R. Furlani,  W. A. Goddard III,  S. Grimme,  S. Hammes-Schiffer,  
 T. Head-Gordon,  W. J. Hehre,  Chao-Ping Hsu,  T.-C. Jagau,  Yousung Jung,  
 A. Klamt,  Jing Kong,  D. S. Lambrecht,  WanZhen Liang,  N. J. Mayhall,  
 C. W. McCurdy,  J. B. Neaton,  C. Ochsenfeld,  J. A. Parkhill,  R. Peverati,  
 V. A. Rassolov,  Yihan Shao,  L. V. Slipchenko,  T. Stauch,  R. P. Steele,  
 J. E. Subotnik,  A. J. W. Thom,  A. Tkatchenko,  D. G. Truhlar,  
 T. Van Voorhis,  T. A. Wesolowski,  K. B. Whaley,  H. L. Woodcock III,  
 P. M. Zimmerman,  S. Faraji,  P. M. W. Gill,  M. Head-Gordon,  
 J. M. Herbert,  A. I. Krylov

 Contributors to earlier versions of Q-Chem not listed above: 
 R. D. Adamson,  B. Austin,  R. Baer,  J. Baker,  G. J. O. Beran,  
 K. Brandhorst,  S. T. Brown,  E. F. C. Byrd,  A. K. Chakraborty,  
 G. K. L. Chan,  Chun-Min Chang,  Yunqing Chen,  C.-L. Cheng,  
 Siu Hung Chien,  D. M. Chipman,  D. L. Crittenden,  H. Dachsel,  
 R. J. Doerksen,  A. D. Dutoi,  R. G. Edgar,  J. Fosso-Tande,  
 L. Fusti-Molnar,  D. Ghosh,  A. Ghysels,  A. Golubeva-Zadorozhnaya,  
 J. Gonthier,  M. S. Gordon,  S. R. Gwaltney,  G. Hawkins,  J. E. Herr,  
 A. Heyden,  S. Hirata,  E. G. Hohenstein,  G. Kedziora,  F. J. Keil,  
 C. Kelley,  Jihan Kim,  R. A. King,  R. Z. Khaliullin,  P. P. Korambath,  
 W. Kurlancheek,  A. Laurent,  A. M. Lee,  M. S. Lee,  S. V. Levchenko,  
 Ching Yeh Lin,  D. Liotard,  E. Livshits,  R. C. Lochan,  I. Lotan,  
 L. A. Martinez-Martinez,  P. E. Maslen,  N. Nair,  D. P. O'Neill,  
 D. Neuhauser,  E. Neuscamman,  C. M. Oana,  R. Olivares-Amaya,  R. Olson,  
 T. M. Perrine,  B. Peters,  P. A. Pieniazek,  A. Prociuk,  Y. M. Rhee,  
 J. Ritchie,  M. A. Rohrdanz,  E. Rosta,  N. J. Russ,  H. F. Schaefer III,  
 M. W. Schmidt,  N. E. Schultz,  S. Sharma,  N. Shenvi,  C. D. Sherrill,  
 A. C. Simmonett,  A. Sodt,  T. Stein,  D. Stuck,  K. S. Thanthiriwatte,  
 V. Vanovschi,  L. Vogt,  Tao Wang,  A. Warshel,  M. A. Watson,  
 C. F. Williams,  Q. Wu,  X. Xu,  Jun Yang,  W. Zhang,  Yan Zhao

 Please cite Q-Chem as follows:
 Y. Shao et al., Mol. Phys. 113, 184-215 (2015)
 DOI: 10.1080/00268976.2014.952696

 Q-Chem 5.4.0 for Intel X86 EM64T Linux

 Parts of Q-Chem use Armadillo 9.800.1 (Horizon Scraper).
 http://arma.sourceforge.net/

 Q-Chem begins on Sun Jul 10 02:04:57 2022  

 Host: 
0

     Scratch files written to ./qchem199061//
 May1621 |scratch|qcdevops|jenkins|workspace|build_RNUM    
 Processing $rem in /cm/shared/apps/spack/cpu/opt/spack/linux-centos8-zen2/gcc-10.2.0/qchem-5.4-akfmr7b3t57bfs6qan3padb2wnb2i7cl/config/preferences:
 Processing $rem in /home/theleonzhang/.qchemrc:
 Symmetry turned off for PCM/SM12/SMD calculation
 Core orbitals will be frozen

 Checking the input file for inconsistencies... 	...done.

--------------------------------------------------------------
User input:
--------------------------------------------------------------
$molecule
0 1
C	-0.775127	-3.866725	-0.000713
C	0.612565	-3.703963	-0.000302
C	1.066639	-2.357056	0.000067
H	1.302900	-4.561092	-0.000470
C	0.000000	-1.440664	0.000000
S	-1.544483	-2.286957	0.000009
C	2.521872	-1.978743	0.000295
H	3.166949	-2.878678	0.000221
H	2.790821	-1.376015	0.892850
H	2.791023	-1.375728	-0.892005
C	0.000000	0.000000	0.000000
C	0.000033	0.863600	1.099446
C	0.000052	2.247508	0.776721
H	0.000026	0.494801	2.136088
C	0.000074	2.468165	-0.612546
S	0.000024	0.942399	-1.486809
C	0.000075	3.335257	1.814609
H	0.000074	2.909620	2.836676
H	-0.892314	3.989552	1.726239
H	0.892483	3.989525	1.726228
H	0.000094	3.417382	-1.161575
H	-1.119411	-4.392713	0.896681
H	-1.119277	-4.392347	-0.898372
H	0.000115	-1.440391	-1.080000
$end

$rem
JOBTYPE		SP
EXCHANGE	HF
CORRELATION	pRIMP2
BASIS		cc-pvtz
METHOD		rimp2
AUX_BASIS	rimp2-cc-pvtz
SOLVENT_METHOD	PCM
PURECART	11111
SYMMETRY	false
MEM_TOTAL	110000
SCF_CONVERGENCE = 6
THRESH=10
$end



$solvent
dielectric 4.90
$end
--------------------------------------------------------------
 ----------------------------------------------------------------
             Standard Nuclear Orientation (Angstroms)
    I     Atom           X                Y                Z
 ----------------------------------------------------------------
    1      C      -0.7751270000    -3.8667250000    -0.0007130000
    2      C       0.6125650000    -3.7039630000    -0.0003020000
    3      C       1.0666390000    -2.3570560000     0.0000670000
    4      H       1.3029000000    -4.5610920000    -0.0004700000
    5      C       0.0000000000    -1.4406640000     0.0000000000
    6      S      -1.5444830000    -2.2869570000     0.0000090000
    7      C       2.5218720000    -1.9787430000     0.0002950000
    8      H       3.1669490000    -2.8786780000     0.0002210000
    9      H       2.7908210000    -1.3760150000     0.8928500000
   10      H       2.7910230000    -1.3757280000    -0.8920050000
   11      C       0.0000000000     0.0000000000     0.0000000000
   12      C       0.0000330000     0.8636000000     1.0994460000
   13      C       0.0000520000     2.2475080000     0.7767210000
   14      H       0.0000260000     0.4948010000     2.1360880000
   15      C       0.0000740000     2.4681650000    -0.6125460000
   16      S       0.0000240000     0.9423990000    -1.4868090000
   17      C       0.0000750000     3.3352570000     1.8146090000
   18      H       0.0000740000     2.9096200000     2.8366760000
   19      H      -0.8923140000     3.9895520000     1.7262390000
   20      H       0.8924830000     3.9895250000     1.7262280000
   21      H       0.0000940000     3.4173820000    -1.1615750000
   22      H      -1.1194110000    -4.3927130000     0.8966810000
   23      H      -1.1192770000    -4.3923470000    -0.8983720000
   24      H       0.0001150000    -1.4403910000    -1.0800000000
 ----------------------------------------------------------------
 Nuclear Repulsion Energy =         871.53934104 hartrees
 There are       52 alpha and       52 beta electrons

 Q-Chem warning in module forms1/BasisType.C, line 2236:

 You are not using the predefined 5D/6D in this basis set.

 Requested basis set is cc-pVTZ
 There are 196 shells and 536 basis functions

 Total QAlloc Memory Limit 110000 MB
 Mega-Array Size       188 MB
 MEM_STATIC part       192 MB
 Discretize the solute cavity surface with Lebedev spheres
	Using 110 Lebedev grid points for each H atom
	Using 194 Lebedev grid points for other atoms
	Atomic van der Waals radii will be scaled by 1.20
 Remove points where switching function is < 1.0e-08
 Keep 1619 surface tesserae and discard 2029 interior tesserae
 Molecular Surface Area = 241.074 Angst**2
 Requested basis set is rimp2-cc-pVTZ
 There are 414 shells and 1414 basis functions
 A cutoff of  1.0D-10 yielded  13877 shell pairs
 There are    100579 function pairs (    129090 Cartesian)
 Smallest overlap matrix eigenvalue = 5.94E-05

 Scale SEOQF with 1.000000e-01/1.000000e-01/1.000000e-01

 Standard Electronic Orientation quadrupole field applied
 Nucleus-field energy     =     0.0000000375 hartrees
 Guess from superposition of atomic densities
 Warning:  Energy on first SCF cycle will be non-variational
 SAD guess density has 104.000000 electrons

 -----------------------------------------------------------------------
  General SCF calculation program by
  Eric Jon Sundstrom, Paul Horn, Yuezhi Mao, Dmitri Zuev, Alec White,
  David Stuck, Shaama M.S., Shane Yost, Joonho Lee, David Small,
  Daniel Levine, Susi Lehtola, Hugh Burton, Evgeny Epifanovsky,
  Bang C. Huynh
 -----------------------------------------------------------------------
 Hartree-Fock
 A restricted SCF calculation will be
 performed using DIIS
 SCF converges when DIIS error is below 1.0e-06
 ---------------------------------------
  Cycle       Energy         DIIS error
 ---------------------------------------
    1   -1186.0183211578      2.39e-02  
    2   -1180.6159682797      1.56e-03  
    3   -1180.7407516291      6.02e-04  
    4   -1180.7548882794      3.27e-04  
    5   -1180.7597725704      6.03e-05  
    6   -1180.7600199553      2.46e-05  
    7   -1180.7600801921      9.21e-06  
    8   -1180.7600941629      4.49e-06  
    9   -1180.7600974161      1.48e-06  
   10   -1180.7600978887      5.01e-07  Convergence criterion met
 ---------------------------------------
 SCF time:   CPU 573.16s  wall 575.00s 

************** Final PCM Free Energy Summary **************
 G_electrostatic  =      -0.00877539 hartree =      -5.50663785 kcal/mol
 G_cavitation     =       0.00000000 hartree =       0.00000000 kcal/mol
 G_dispersion     =       0.00000000 hartree =       0.00000000 kcal/mol
 G_repulsion      =       0.00000000 hartree =       0.00000000 kcal/mol
 --------------------------------------------------
 Non-electrostatic Free Energy =       0.00000000 hartree =       0.00000000 kcal/mol
 Total                         =      -0.00877539 hartree =      -5.50663785 kcal/mol
 --------------------------------------------------
 SCF Energy (H0 + V/2)                       =   -1180.76009789 
 Solute Internal Energy (H0)                 =   -1180.75132250 
 Total Free Energy (H0 + V/2 + non-elec)     =   -1180.76009789 hartree
                                             = -740938.14440407 kcal/mol
***********************************************************

 SCF   energy in the final basis set =    -1180.7600978887
 Total energy in the final basis set =    -1180.7600978887


 --------------------------------------------------------------
  Generalized many-body perturbation theory program
  by Joonho Lee, Fazle Rob, Xintian Feng, Evgeny Epifanovsky

 No regularization used 
 (reg. param. = 0.0000e+00)
  (P|Q)^-1/2 Time:  CPU 1.90 s  wall 1.90 s

 In RI-MP2 calculation: 
 # of frozen core orbitals: 20

 Components of the RIMP2 correlation energy:
        aaaa    correlation energy =        -0.2508998599 a.u.
        abab    correlation energy =        -1.5023342150 a.u.
        bbbb    correlation energy =        -0.2508998599 a.u.
        non-Brillouin singles      =        -0.0000000000 a.u.
        total same-spin energy     =        -0.5017997198 a.u.
        total opposite-spin energy =        -1.5023342150 a.u.

 Total  RIMP2   correlation energy =        -2.0041339347 a.u.
        RIMP2         total energy =     -1182.7642318235 a.u.

 RI-MP2 Energy Time:  CPU 79.68 s  wall 79.89 s
 
 --------------------------------------------------------------
 
                    Orbital Energies (a.u.)
 --------------------------------------------------------------
 
 Alpha MOs
 -- Occupied --
-91.9869 -91.9410 -11.2787 -11.2654 -11.2627 -11.2550 -11.2510 -11.2405
-11.2385 -11.2314 -11.2288 -11.2188  -8.9865  -8.9457  -6.6673  -6.6668
 -6.6662  -6.6271  -6.6260  -6.6247  -1.1979  -1.1536  -1.0586  -1.0260
 -1.0029  -0.9628  -0.9130  -0.9003  -0.8129  -0.7630  -0.7409  -0.7036
 -0.6538  -0.6339  -0.6109  -0.5876  -0.5767  -0.5727  -0.5689  -0.5539
 -0.5426  -0.5296  -0.5132  -0.5055  -0.4910  -0.4819  -0.4641  -0.4481
 -0.3562  -0.3411  -0.3118  -0.2826
 -- Virtual --
  0.0955   0.1273   0.1415   0.1513   0.1595   0.1664   0.1777   0.1832
  0.1862   0.1941   0.2042   0.2135   0.2278   0.2331   0.2400   0.2438
  0.2488   0.2599   0.2688   0.2922   0.3009   0.3388   0.3453   0.3513
  0.3687   0.3742   0.3775   0.3822   0.3913   0.3979   0.4118   0.4217
  0.4388   0.4444   0.4563   0.4607   0.4661   0.4765   0.4828   0.4882
  0.4998   0.5115   0.5235   0.5285   0.5346   0.5400   0.5458   0.5531
  0.5742   0.5774   0.5806   0.5910   0.6019   0.6084   0.6126   0.6191
  0.6207   0.6288   0.6305   0.6378   0.6414   0.6434   0.6484   0.6510
  0.6616   0.6676   0.6763   0.6837   0.6946   0.7007   0.7117   0.7287
  0.7345   0.7464   0.7518   0.7695   0.7773   0.8026   0.8106   0.8222
  0.8300   0.8392   0.8509   0.8584   0.8693   0.8990   0.9057   0.9209
  0.9222   0.9356   0.9483   0.9513   0.9662   0.9906   0.9965   1.0066
  1.0190   1.0224   1.0349   1.0440   1.0607   1.0636   1.0710   1.0820
  1.0873   1.0963   1.1014   1.1231   1.1300   1.1497   1.1606   1.1693
  1.1736   1.1915   1.1949   1.2086   1.2156   1.2199   1.2354   1.2495
  1.2536   1.2595   1.2611   1.2728   1.2814   1.2954   1.3118   1.3193
  1.3260   1.3373   1.3492   1.3514   1.3620   1.3797   1.4060   1.4110
  1.4236   1.4284   1.4526   1.4552   1.4614   1.4765   1.4904   1.4967
  1.5018   1.5094   1.5177   1.5319   1.5354   1.5429   1.5457   1.5545
  1.5652   1.5777   1.5823   1.5936   1.6106   1.6265   1.6336   1.6385
  1.6579   1.6793   1.6865   1.6971   1.7061   1.7100   1.7210   1.7278
  1.7404   1.7469   1.7650   1.7790   1.7972   1.8217   1.8537   1.8599
  1.8855   1.9068   1.9077   1.9333   1.9538   1.9775   1.9914   2.0040
  2.0118   2.0255   2.0333   2.0523   2.0896   2.1258   2.1301   2.1463
  2.1834   2.1951   2.2042   2.2173   2.2237   2.2412   2.2688   2.2760
  2.3172   2.3268   2.3479   2.3758   2.4059   2.4273   2.4570   2.4623
  2.4942   2.5093   2.5235   2.5383   2.5612   2.5993   2.6072   2.6184
  2.6255   2.6304   2.6509   2.6543   2.6781   2.6855   2.7036   2.7173
  2.7401   2.7470   2.7563   2.7608   2.7756   2.7771   2.7958   2.8318
  2.8390   2.8502   2.8563   2.8792   2.8881   2.9095   2.9141   2.9184
  2.9246   2.9522   2.9677   2.9886   3.0085   3.0263   3.0362   3.0436
  3.0650   3.0726   3.1001   3.1094   3.1119   3.1229   3.1383   3.1391
  3.1434   3.1532   3.1605   3.1707   3.1785   3.1978   3.2108   3.2156
  3.2369   3.2395   3.2458   3.2656   3.2726   3.2819   3.2977   3.3011
  3.3147   3.3264   3.3295   3.3364   3.3484   3.3502   3.3570   3.3600
  3.3811   3.3845   3.3936   3.3993   3.4044   3.4075   3.4164   3.4292
  3.4375   3.4493   3.4639   3.4715   3.4852   3.4906   3.5056   3.5104
  3.5141   3.5286   3.5309   3.5354   3.5476   3.5550   3.5694   3.5769
  3.5805   3.6004   3.6127   3.6180   3.6281   3.6365   3.6504   3.6578
  3.6619   3.6785   3.6869   3.6921   3.7050   3.7242   3.7296   3.7351
  3.7442   3.7477   3.7628   3.7791   3.7844   3.7918   3.8083   3.8271
  3.8290   3.8311   3.8594   3.8695   3.8762   3.8829   3.9023   3.9184
  3.9250   3.9325   3.9507   3.9553   3.9762   3.9946   3.9971   4.0122
  4.0336   4.0475   4.0516   4.0577   4.0744   4.0786   4.0948   4.0998
  4.1261   4.1367   4.1497   4.1597   4.1640   4.1711   4.1746   4.2008
  4.2110   4.2214   4.2385   4.2418   4.2506   4.2599   4.2751   4.2787
  4.2844   4.2936   4.3187   4.3266   4.3410   4.3522   4.3644   4.3731
  4.3792   4.3967   4.4005   4.4039   4.4109   4.4243   4.4323   4.4464
  4.4652   4.4671   4.4762   4.4857   4.4943   4.5110   4.5327   4.5670
  4.5729   4.5923   4.6171   4.6178   4.6228   4.6437   4.6470   4.6660
  4.6871   4.7077   4.7416   4.7489   4.7623   4.8058   4.8219   4.8351
  4.8504   4.8831   4.8904   4.9018   4.9366   4.9644   4.9756   5.0010
  5.0181   5.0385   5.0756   5.1010   5.1136   5.1260   5.1495   5.1901
  5.2014   5.2193   5.2239   5.2656   5.2755   5.2871   5.3095   5.3198
  5.3554   5.3693   5.3773   5.4029   5.4055   5.4199   5.4427   5.4563
  5.4743   5.5230   5.5313   5.5435   5.5487   5.5555   5.5776   5.5937
  5.6199   5.6261   5.6373   5.6633   5.6835   5.7014   5.7044   5.7405
  5.7645   5.7866   5.8341   5.9629   5.9910   6.0736   6.1236   6.1477
  6.2037   6.2167   6.2262   6.2310   6.2554   6.2807   6.3106   6.3284
  6.3806   6.5212   9.4030  10.6598  12.0821  12.9366  13.1765  14.0160
 14.0664  14.2184  14.3345  14.7253
 --------------------------------------------------------------
 
          Ground-State Mulliken Net Atomic Charges

     Atom                 Charge (a.u.)
  ----------------------------------------
      1 C                    -0.078111
      2 C                    -0.329992
      3 C                    -0.024209
      4 H                     0.176298
      5 C                     0.114317
      6 S                    -0.177141
      7 C                    -0.265055
      8 H                     0.112697
      9 H                     0.105541
     10 H                     0.101760
     11 C                    -0.121632
     12 C                    -0.219683
     13 C                     0.018134
     14 H                     0.185671
     15 C                    -0.244999
     16 S                     0.016650
     17 C                    -0.272395
     18 H                     0.102969
     19 H                     0.108389
     20 H                     0.107475
     21 H                     0.198866
     22 H                     0.113174
     23 H                     0.110796
     24 H                     0.160481
  ----------------------------------------
  Sum of atomic charges =     0.000000

 -----------------------------------------------------------------
                    Cartesian Multipole Moments
 -----------------------------------------------------------------
    Charge (ESU x 10^10)
                -0.0000
    Dipole Moment (Debye)
         X       2.4280      Y       0.7407      Z       0.7123
       Tot       2.6365
    Quadrupole Moments (Debye-Ang)
        XX     -91.7724     XY      -3.6226     YY     -73.6339
        XZ       0.2964     YZ       2.3277     ZZ     -85.8924
    Octopole Moments (Debye-Ang^2)
       XXX       5.8358    XXY      40.1453    XYY      -0.9018
       YYY     126.4620    XXZ      -0.9086    XYZ      -0.8001
       YYZ      -6.0468    XZZ      -2.0345    YZZ      56.1271
       ZZZ       4.4122
    Hexadecapole Moments (Debye-Ang^3)
      XXXX    -702.2530   XXXY     -36.0597   XXYY    -619.8593
      XYYY       0.5040   YYYY   -2788.0755   XXXZ       2.0570
      XXYZ     -29.8713   XYYZ       2.2395   YYYZ    -107.6404
      XXZZ    -220.3501   XYZZ       2.4050   YYZZ    -597.9445
      XZZZ       0.6846   YZZZ     -98.3130   ZZZZ    -535.7573
 -----------------------------------------------------------------
 Total job time:  656.07s(wall), 653.74s(cpu) 
 Sun Jul 10 02:15:53 2022

        *************************************************************
        *                                                           *
        *  Thank you very much for using Q-Chem.  Have a nice day.  *
        *                                                           *
        *************************************************************


remove work dirs ./qchem199061.0 -- ./qchem199061.-1
rm -rf ./qchem199061
