You are running Q-Chem version: 5.4.0

#
# job setting
#
local host:  exp-7-31
current dir: /expanse/lustre/scratch/theleonzhang/temp_project/Hydrogenated_Rotation_Test
input file:  Methylthiophene_Phi_50_Theta_140_Methylthiophene_Hydrogenated_Alternate.qcin
output file: 
nprocs     : 0
nthreads   : 1
#
# qchem installation setting
#
QC:          /cm/shared/apps/spack/cpu/opt/spack/linux-centos8-zen2/gcc-10.2.0/qchem-5.4-akfmr7b3t57bfs6qan3padb2wnb2i7cl
QCAUX:       /cm/shared/apps/spack/cpu/opt/spack/linux-centos8-zen2/gcc-10.2.0/qchem-5.4-akfmr7b3t57bfs6qan3padb2wnb2i7cl/qcaux
QCPROG:      /cm/shared/apps/spack/cpu/opt/spack/linux-centos8-zen2/gcc-10.2.0/qchem-5.4-akfmr7b3t57bfs6qan3padb2wnb2i7cl/exe/qcprog.exe_s
QCPROG_S:    /cm/shared/apps/spack/cpu/opt/spack/linux-centos8-zen2/gcc-10.2.0/qchem-5.4-akfmr7b3t57bfs6qan3padb2wnb2i7cl/exe/qcprog.exe_s
PARALLEL:    -DSERIAL
QCMPI:       mpich
#
# qchem directory setting
#
qcrun:       qchem2545890
QCSCRATCH:   .
QCLOCALSCR:  
QCTMPDIR:    .
QCFILEPREF:  ./qchem2545890
QCSAVEDIR:   
workdirs:    ./qchem2545890
workdir0:    ./qchem2545890
partmpdirs =  
#
# parallel setting
#
QCRSH:           ssh
QCMPI:           mpich
QCMPIRUN:        /cm/shared/apps/spack/cpu/opt/spack/linux-centos8-zen2/gcc-10.2.0/qchem-5.4-akfmr7b3t57bfs6qan3padb2wnb2i7cl/bin/mpi/mpirun_qchem
QCMACHINEFILE:   ./qchem2545890/hostfile

#
# env setting
#
exported envs:   QC QCAUX QCSCRATCH QCRUNNAME QCFILEPREF QCPROG QCPROG_S GUIFILE

Running Job 1 of 1 Methylthiophene_Phi_50_Theta_140_Methylthiophene_Hydrogenated_Alternate.qcin
qchem Methylthiophene_Phi_50_Theta_140_Methylthiophene_Hydrogenated_Alternate.qcin_2545890.0 ./qchem2545890/ 0
/cm/shared/apps/spack/cpu/opt/spack/linux-centos8-zen2/gcc-10.2.0/qchem-5.4-akfmr7b3t57bfs6qan3padb2wnb2i7cl/exe/qcprog.exe_s Methylthiophene_Phi_50_Theta_140_Methylthiophene_Hydrogenated_Alternate.qcin_2545890.0 ./qchem2545890/
                  Welcome to Q-Chem
     A Quantum Leap Into The Future Of Chemistry


 Q-Chem 5.4, Q-Chem, Inc., Pleasanton, CA (2021)

 License issued to: University of California, San Diego (site)

 E. Epifanovsky,  A. T. B. Gilbert,  Xintian Feng,  Joonho Lee,  Yuezhi Mao,  
 N. Mardirossian,  P. Pokhilko,  A. White,  M. Wormit,  M. P. Coons,  
 A. L. Dempwolff,  Zhengting Gan,  D. Hait,  P. R. Horn,  L. D. Jacobson,  
 I. Kaliman,  J. Kussmann,  A. W. Lange,  Ka Un Lao,  D. S. Levine,  Jie Liu,  
 S. C. McKenzie,  A. F. Morrison,  K. Nanda,  F. Plasser,  D. R. Rehn,  
 M. L. Vidal,  Zhi-Qiang You,  Ying Zhu,  B. Alam,  B. Albrecht,  
 A. Aldossary,  E. Alguire,  J. H. Andersen,  D. Barton,  K. Begam,  A. Behn,  
 Y. A. Bernard,  E. J. Berquist,  H. Burton,  A. Carreras,  K. Carter-Fenk,  
 R. Chakraborty,  A. D. Chien,  K. D. Closser,  V. Cofer-Shabica,  
 S. Dasgupta,  Jia Deng,  M. de Wergifosse,  M. Diedenhofen,  Hainam Do,  
 S. Ehlert,  Po-Tung Fang,  S. Fatehi,  Qingguo Feng,  J. Gayvert,  
 Qinghui Ge,  G. Gidofalvi,  M. Goldey,  J. Gomes,  C. Gonzalez-Espinoza,  
 S. Gulania,  A. Gunina,  M. W. D. Hanson-Heine,  P. H. P. Harbach,  
 A. W. Hauser,  M. F. Herbst,  M. Hernandez Vera,  M. Hodecker,  
 Z. C. Holden,  S. Houck,  Xunkun Huang,  Kerwin Hui,  B. C. Huynh,  
 M. Ivanov,  Hyunjun Ji,  Hanjie Jiang,  B. Kaduk,  S. Kaehler,  
 K. Khistyaev,  Jaehoon Kim,  P. Klunzinger,  Z. Koczor-Benda,  
 Joong Hoon Koh,  D. Kosenkov,  L. Koulias,  T. Kowalczyk,  C. M. Krauter,  
 K. Kue,  A. Kunitsa,  T. Kus,  A. Landau,  K. V. Lawler,  D. Lefrancois,  
 S. Lehtola,  Rain Li,  Yi-Pei Li,  Jiashu Liang,  M. Liebenthal,  
 Hung-Hsuan Lin,  You-Sheng Lin,  Fenglai Liu,  Kuan-Yu Liu,  
 M. Loipersberger,  A. Luenser,  A. Manjanath,  P. Manohar,  E. Mansoor,  
 S. F. Manzer,  Shan-Ping Mao,  A. V. Marenich,  T. Markovich,  S. Mason,  
 S. A. Maurer,  P. F. McLaughlin,  M. F. S. J. Menger,  J.-M. Mewes,  
 S. A. Mewes,  P. Morgante,  J. W. Mullinax,  T. S. Nguyen-Beck,  
 K. J. Oosterbaan,  G. Paran,  Alexander C. Paul,  Suranjan K. Paul,  
 F. Pavosevic,  Zheng Pei,  S. Prager,  E. I. Proynov,  E. Ramos,  B. Rana,  
 A. E. Rask,  A. Rettig,  R. M. Richard,  F. Rob,  E. Rossomme,  T. Scheele,  
 M. Scheurer,  M. Schneider,  N. Sergueev,  S. M. Sharada,  W. Skomorowski,  
 D. W. Small,  C. J. Stein,  Yu-Chuan Su,  E. J. Sundstrom,  Zhen Tao,  
 J. Thirman,  T. Tsuchimochi,  N. M. Tubman,  S. P. Veccham,  O. Vydrov,  
 J. Wenzel,  J. Witte,  A. Yamada,  Kun Yao,  S. Yeganeh,  S. R. Yost,  
 A. Zech,  Igor Ying Zhang,  Xing Zhang,  Yu Zhang,  D. Zuev,  
 A. Aspuru-Guzik,  A. T. Bell,  N. A. Besley,  K. B. Bravaya,  B. R. Brooks,  
 D. Casanova,  Jeng-Da Chai,  S. Coriani,  C. J. Cramer,  
 A. E. DePrince, III,  R. A. DiStasio Jr.,  A. Dreuw,  B. D. Dunietz,  
 T. R. Furlani,  W. A. Goddard III,  S. Grimme,  S. Hammes-Schiffer,  
 T. Head-Gordon,  W. J. Hehre,  Chao-Ping Hsu,  T.-C. Jagau,  Yousung Jung,  
 A. Klamt,  Jing Kong,  D. S. Lambrecht,  WanZhen Liang,  N. J. Mayhall,  
 C. W. McCurdy,  J. B. Neaton,  C. Ochsenfeld,  J. A. Parkhill,  R. Peverati,  
 V. A. Rassolov,  Yihan Shao,  L. V. Slipchenko,  T. Stauch,  R. P. Steele,  
 J. E. Subotnik,  A. J. W. Thom,  A. Tkatchenko,  D. G. Truhlar,  
 T. Van Voorhis,  T. A. Wesolowski,  K. B. Whaley,  H. L. Woodcock III,  
 P. M. Zimmerman,  S. Faraji,  P. M. W. Gill,  M. Head-Gordon,  
 J. M. Herbert,  A. I. Krylov

 Contributors to earlier versions of Q-Chem not listed above: 
 R. D. Adamson,  B. Austin,  R. Baer,  J. Baker,  G. J. O. Beran,  
 K. Brandhorst,  S. T. Brown,  E. F. C. Byrd,  A. K. Chakraborty,  
 G. K. L. Chan,  Chun-Min Chang,  Yunqing Chen,  C.-L. Cheng,  
 Siu Hung Chien,  D. M. Chipman,  D. L. Crittenden,  H. Dachsel,  
 R. J. Doerksen,  A. D. Dutoi,  R. G. Edgar,  J. Fosso-Tande,  
 L. Fusti-Molnar,  D. Ghosh,  A. Ghysels,  A. Golubeva-Zadorozhnaya,  
 J. Gonthier,  M. S. Gordon,  S. R. Gwaltney,  G. Hawkins,  J. E. Herr,  
 A. Heyden,  S. Hirata,  E. G. Hohenstein,  G. Kedziora,  F. J. Keil,  
 C. Kelley,  Jihan Kim,  R. A. King,  R. Z. Khaliullin,  P. P. Korambath,  
 W. Kurlancheek,  A. Laurent,  A. M. Lee,  M. S. Lee,  S. V. Levchenko,  
 Ching Yeh Lin,  D. Liotard,  E. Livshits,  R. C. Lochan,  I. Lotan,  
 L. A. Martinez-Martinez,  P. E. Maslen,  N. Nair,  D. P. O'Neill,  
 D. Neuhauser,  E. Neuscamman,  C. M. Oana,  R. Olivares-Amaya,  R. Olson,  
 T. M. Perrine,  B. Peters,  P. A. Pieniazek,  A. Prociuk,  Y. M. Rhee,  
 J. Ritchie,  M. A. Rohrdanz,  E. Rosta,  N. J. Russ,  H. F. Schaefer III,  
 M. W. Schmidt,  N. E. Schultz,  S. Sharma,  N. Shenvi,  C. D. Sherrill,  
 A. C. Simmonett,  A. Sodt,  T. Stein,  D. Stuck,  K. S. Thanthiriwatte,  
 V. Vanovschi,  L. Vogt,  Tao Wang,  A. Warshel,  M. A. Watson,  
 C. F. Williams,  Q. Wu,  X. Xu,  Jun Yang,  W. Zhang,  Yan Zhao

 Please cite Q-Chem as follows:
 Y. Shao et al., Mol. Phys. 113, 184-215 (2015)
 DOI: 10.1080/00268976.2014.952696

 Q-Chem 5.4.0 for Intel X86 EM64T Linux

 Parts of Q-Chem use Armadillo 9.800.1 (Horizon Scraper).
 http://arma.sourceforge.net/

 Q-Chem begins on Sun Jul 10 03:06:51 2022  

 Host: 
0

     Scratch files written to ./qchem2545890//
 May1621 |scratch|qcdevops|jenkins|workspace|build_RNUM    
 Processing $rem in /cm/shared/apps/spack/cpu/opt/spack/linux-centos8-zen2/gcc-10.2.0/qchem-5.4-akfmr7b3t57bfs6qan3padb2wnb2i7cl/config/preferences:
 Processing $rem in /home/theleonzhang/.qchemrc:
 Symmetry turned off for PCM/SM12/SMD calculation
 Core orbitals will be frozen

 Checking the input file for inconsistencies... 	...done.

--------------------------------------------------------------
User input:
--------------------------------------------------------------
$molecule
0 1
C	-0.497696	-3.866725	-0.594240
C	0.393981	-3.703963	0.469057
C	0.685571	-2.357056	0.817136
H	0.837848	-4.561092	0.997777
C	0.000000	-1.440664	0.000000
S	-0.992782	-2.286957	-1.183137
C	1.620802	-1.978743	1.932056
H	2.035506	-2.878678	2.426166
H	1.109943	-1.376015	2.711806
H	2.477350	-1.375728	1.564678
C	0.000000	0.000000	0.000000
C	0.661577	0.555087	1.099446
C	1.721724	1.444630	0.776721
H	0.379056	0.318032	2.136088
C	1.890772	1.586449	-0.612546
S	0.721935	0.605744	-1.486809
C	2.555004	2.143805	1.814609
H	2.228946	1.870211	2.836676
H	2.482605	3.247987	1.726239
H	3.629830	1.880735	1.726228
H	2.617927	2.196579	-1.161575
H	-1.406441	-4.392713	-0.281143
H	-0.031265	-4.392347	-1.434879
H	0.827402	-1.440391	-0.694122
$end

$rem
JOBTYPE		SP
EXCHANGE	HF
CORRELATION	pRIMP2
BASIS		cc-pvtz
METHOD		rimp2
AUX_BASIS	rimp2-cc-pvtz
SOLVENT_METHOD	PCM
PURECART	11111
SYMMETRY	false
MEM_TOTAL	110000
SCF_CONVERGENCE = 6
THRESH=10
$end



$solvent
dielectric 4.90
$end
--------------------------------------------------------------
 ----------------------------------------------------------------
             Standard Nuclear Orientation (Angstroms)
    I     Atom           X                Y                Z
 ----------------------------------------------------------------
    1      C      -0.4976960000    -3.8667250000    -0.5942400000
    2      C       0.3939810000    -3.7039630000     0.4690570000
    3      C       0.6855710000    -2.3570560000     0.8171360000
    4      H       0.8378480000    -4.5610920000     0.9977770000
    5      C       0.0000000000    -1.4406640000     0.0000000000
    6      S      -0.9927820000    -2.2869570000    -1.1831370000
    7      C       1.6208020000    -1.9787430000     1.9320560000
    8      H       2.0355060000    -2.8786780000     2.4261660000
    9      H       1.1099430000    -1.3760150000     2.7118060000
   10      H       2.4773500000    -1.3757280000     1.5646780000
   11      C       0.0000000000     0.0000000000     0.0000000000
   12      C       0.6615770000     0.5550870000     1.0994460000
   13      C       1.7217240000     1.4446300000     0.7767210000
   14      H       0.3790560000     0.3180320000     2.1360880000
   15      C       1.8907720000     1.5864490000    -0.6125460000
   16      S       0.7219350000     0.6057440000    -1.4868090000
   17      C       2.5550040000     2.1438050000     1.8146090000
   18      H       2.2289460000     1.8702110000     2.8366760000
   19      H       2.4826050000     3.2479870000     1.7262390000
   20      H       3.6298300000     1.8807350000     1.7262280000
   21      H       2.6179270000     2.1965790000    -1.1615750000
   22      H      -1.4064410000    -4.3927130000    -0.2811430000
   23      H      -0.0312650000    -4.3923470000    -1.4348790000
   24      H       0.8274020000    -1.4403910000    -0.6941220000
 ----------------------------------------------------------------
 Nuclear Repulsion Energy =         896.22216872 hartrees
 There are       52 alpha and       52 beta electrons

 Q-Chem warning in module forms1/BasisType.C, line 2236:

 You are not using the predefined 5D/6D in this basis set.

 Requested basis set is cc-pVTZ
 There are 196 shells and 536 basis functions

 Total QAlloc Memory Limit 110000 MB
 Mega-Array Size       188 MB
 MEM_STATIC part       192 MB
 Discretize the solute cavity surface with Lebedev spheres
	Using 110 Lebedev grid points for each H atom
	Using 194 Lebedev grid points for other atoms
	Atomic van der Waals radii will be scaled by 1.20
 Remove points where switching function is < 1.0e-08
 Keep 1551 surface tesserae and discard 2097 interior tesserae
 Molecular Surface Area = 227.615 Angst**2
 Requested basis set is rimp2-cc-pVTZ
 There are 414 shells and 1414 basis functions
 A cutoff of  1.0D-10 yielded  14776 shell pairs
 There are    107550 function pairs (    137914 Cartesian)
 Smallest overlap matrix eigenvalue = 6.52E-05

 Scale SEOQF with 1.000000e-01/1.000000e-01/1.000000e-01

 Standard Electronic Orientation quadrupole field applied
 Nucleus-field energy     =     0.0000000236 hartrees
 Guess from superposition of atomic densities
 Warning:  Energy on first SCF cycle will be non-variational
 SAD guess density has 104.000000 electrons

 -----------------------------------------------------------------------
  General SCF calculation program by
  Eric Jon Sundstrom, Paul Horn, Yuezhi Mao, Dmitri Zuev, Alec White,
  David Stuck, Shaama M.S., Shane Yost, Joonho Lee, David Small,
  Daniel Levine, Susi Lehtola, Hugh Burton, Evgeny Epifanovsky,
  Bang C. Huynh
 -----------------------------------------------------------------------
 Hartree-Fock
 A restricted SCF calculation will be
 performed using DIIS
 SCF converges when DIIS error is below 1.0e-06
 ---------------------------------------
  Cycle       Energy         DIIS error
 ---------------------------------------
    1   -1186.1869564673      2.41e-02  
    2   -1180.5552200997      1.54e-03  
    3   -1180.6828742473      5.57e-04  
    4   -1180.6966089430      2.99e-04  
    5   -1180.7008162032      6.07e-05  
    6   -1180.7010891986      2.54e-05  
    7   -1180.7011618456      1.10e-05  
    8   -1180.7011804055      4.87e-06  
    9   -1180.7011848120      2.08e-06  
   10   -1180.7011856629      7.90e-07  Convergence criterion met
 ---------------------------------------
 SCF time:   CPU 619.91s  wall 621.00s 

************** Final PCM Free Energy Summary **************
 G_electrostatic  =      -0.01066767 hartree =      -6.69406515 kcal/mol
 G_cavitation     =       0.00000000 hartree =       0.00000000 kcal/mol
 G_dispersion     =       0.00000000 hartree =       0.00000000 kcal/mol
 G_repulsion      =       0.00000000 hartree =       0.00000000 kcal/mol
 --------------------------------------------------
 Non-electrostatic Free Energy =       0.00000000 hartree =       0.00000000 kcal/mol
 Total                         =      -0.01066767 hartree =      -6.69406515 kcal/mol
 --------------------------------------------------
 SCF Energy (H0 + V/2)                       =   -1180.70118566 
 Solute Internal Energy (H0)                 =   -1180.69051799 
 Total Free Energy (H0 + V/2 + non-elec)     =   -1180.70118566 hartree
                                             = -740901.17642440 kcal/mol
***********************************************************

 SCF   energy in the final basis set =    -1180.7011856629
 Total energy in the final basis set =    -1180.7011856629


 --------------------------------------------------------------
  Generalized many-body perturbation theory program
  by Joonho Lee, Fazle Rob, Xintian Feng, Evgeny Epifanovsky

 No regularization used 
 (reg. param. = 0.0000e+00)
  (P|Q)^-1/2 Time:  CPU 1.88 s  wall 1.89 s

 In RI-MP2 calculation: 
 # of frozen core orbitals: 20

 Components of the RIMP2 correlation energy:
        aaaa    correlation energy =        -0.2541545253 a.u.
        abab    correlation energy =        -1.5118805786 a.u.
        bbbb    correlation energy =        -0.2541545253 a.u.
        non-Brillouin singles      =        -0.0000000000 a.u.
        total same-spin energy     =        -0.5083090505 a.u.
        total opposite-spin energy =        -1.5118805786 a.u.

 Total  RIMP2   correlation energy =        -2.0201896292 a.u.
        RIMP2         total energy =     -1182.7213752921 a.u.

 RI-MP2 Energy Time:  CPU 81.34 s  wall 81.47 s
 
 --------------------------------------------------------------
 
                    Orbital Energies (a.u.)
 --------------------------------------------------------------
 
 Alpha MOs
 -- Occupied --
-91.9763 -91.9357 -11.2777 -11.2675 -11.2618 -11.2528 -11.2528 -11.2506
-11.2390 -11.2311 -11.2310 -11.2173  -8.9777  -8.9409  -6.6586  -6.6578
 -6.6574  -6.6223  -6.6212  -6.6200  -1.2069  -1.1538  -1.0609  -1.0305
 -0.9983  -0.9665  -0.9130  -0.9015  -0.8078  -0.7608  -0.7470  -0.7087
 -0.6493  -0.6397  -0.6130  -0.5937  -0.5808  -0.5729  -0.5669  -0.5536
 -0.5457  -0.5339  -0.5238  -0.5094  -0.4822  -0.4687  -0.4545  -0.4426
 -0.3527  -0.3442  -0.3245  -0.2635
 -- Virtual --
  0.0716   0.1310   0.1428   0.1494   0.1566   0.1735   0.1764   0.1823
  0.1916   0.1981   0.2071   0.2141   0.2236   0.2317   0.2398   0.2457
  0.2551   0.2656   0.2758   0.2927   0.3239   0.3318   0.3372   0.3517
  0.3560   0.3742   0.3871   0.3935   0.4047   0.4107   0.4155   0.4247
  0.4288   0.4458   0.4623   0.4660   0.4728   0.4754   0.4826   0.4894
  0.4945   0.5027   0.5189   0.5274   0.5348   0.5394   0.5502   0.5574
  0.5602   0.5748   0.5794   0.5946   0.6007   0.6110   0.6126   0.6189
  0.6213   0.6306   0.6374   0.6454   0.6475   0.6525   0.6562   0.6658
  0.6710   0.6778   0.6876   0.6980   0.7077   0.7133   0.7180   0.7326
  0.7405   0.7557   0.7597   0.7669   0.7889   0.7943   0.8096   0.8215
  0.8260   0.8398   0.8581   0.8623   0.8731   0.8889   0.9043   0.9155
  0.9347   0.9419   0.9511   0.9605   0.9728   0.9913   1.0084   1.0108
  1.0177   1.0393   1.0428   1.0508   1.0558   1.0730   1.0770   1.0887
  1.0983   1.1092   1.1286   1.1307   1.1518   1.1629   1.1761   1.1850
  1.1880   1.1996   1.2074   1.2170   1.2259   1.2274   1.2473   1.2506
  1.2624   1.2722   1.2818   1.2867   1.2895   1.3037   1.3108   1.3225
  1.3344   1.3513   1.3695   1.3725   1.3874   1.3908   1.4072   1.4230
  1.4326   1.4451   1.4503   1.4611   1.4726   1.4838   1.4901   1.4979
  1.5079   1.5147   1.5227   1.5321   1.5442   1.5520   1.5587   1.5684
  1.5701   1.5814   1.5889   1.6059   1.6253   1.6312   1.6443   1.6460
  1.6584   1.6724   1.6857   1.6999   1.7099   1.7256   1.7280   1.7374
  1.7486   1.7661   1.7737   1.7831   1.8071   1.8440   1.8478   1.8747
  1.9125   1.9220   1.9269   1.9468   1.9711   1.9821   1.9949   2.0059
  2.0219   2.0433   2.0499   2.0739   2.0928   2.1231   2.1394   2.1644
  2.1785   2.1911   2.2116   2.2198   2.2385   2.2424   2.2556   2.2819
  2.2876   2.3078   2.3339   2.3500   2.4081   2.4314   2.4746   2.4811
  2.4822   2.5209   2.5441   2.5631   2.5823   2.6005   2.6153   2.6184
  2.6391   2.6566   2.6640   2.6785   2.6891   2.7100   2.7284   2.7359
  2.7421   2.7667   2.7668   2.7833   2.7944   2.8018   2.8154   2.8299
  2.8404   2.8644   2.8869   2.8902   2.8975   2.9103   2.9355   2.9468
  2.9636   2.9739   2.9790   3.0085   3.0202   3.0342   3.0454   3.0609
  3.0667   3.0855   3.1111   3.1124   3.1158   3.1295   3.1378   3.1520
  3.1542   3.1605   3.1797   3.1867   3.1957   3.2109   3.2180   3.2335
  3.2402   3.2468   3.2518   3.2608   3.2722   3.2846   3.2912   3.3088
  3.3136   3.3283   3.3352   3.3391   3.3425   3.3515   3.3552   3.3631
  3.3734   3.3858   3.3904   3.4004   3.4081   3.4163   3.4193   3.4367
  3.4494   3.4570   3.4704   3.4781   3.4833   3.4961   3.5000   3.5152
  3.5183   3.5324   3.5397   3.5454   3.5605   3.5702   3.5811   3.5861
  3.5995   3.6131   3.6209   3.6346   3.6447   3.6492   3.6574   3.6776
  3.6942   3.7017   3.7068   3.7190   3.7225   3.7298   3.7499   3.7558
  3.7696   3.7774   3.7950   3.8027   3.8057   3.8229   3.8278   3.8328
  3.8452   3.8551   3.8616   3.8780   3.8868   3.9016   3.9280   3.9319
  3.9538   3.9650   3.9718   3.9784   3.9905   3.9995   4.0184   4.0251
  4.0401   4.0513   4.0606   4.0689   4.0774   4.1068   4.1163   4.1283
  4.1413   4.1463   4.1557   4.1784   4.1926   4.2029   4.2077   4.2105
  4.2213   4.2357   4.2420   4.2522   4.2581   4.2707   4.2809   4.2978
  4.3076   4.3140   4.3409   4.3495   4.3574   4.3631   4.3781   4.3793
  4.3970   4.3988   4.4068   4.4165   4.4299   4.4423   4.4583   4.4669
  4.4722   4.4855   4.4949   4.5046   4.5258   4.5494   4.5724   4.5939
  4.5987   4.6137   4.6314   4.6350   4.6475   4.6788   4.6875   4.6879
  4.7123   4.7394   4.7477   4.7908   4.8159   4.8246   4.8434   4.8589
  4.8662   4.8956   4.8963   4.9220   4.9352   4.9598   4.9857   5.0165
  5.0510   5.0695   5.0837   5.1025   5.1123   5.1312   5.1440   5.1823
  5.2031   5.2153   5.2346   5.2669   5.2850   5.2965   5.3065   5.3193
  5.3350   5.3727   5.3785   5.4056   5.4154   5.4304   5.4433   5.4511
  5.4887   5.5039   5.5266   5.5425   5.5572   5.5764   5.5873   5.5985
  5.6222   5.6319   5.6338   5.6801   5.6908   5.7080   5.7166   5.7303
  5.7709   5.8007   5.8152   6.0097   6.0314   6.0392   6.1127   6.1559
  6.2211   6.2290   6.2437   6.2491   6.2841   6.2887   6.3165   6.3240
  6.4233   6.4558   9.4003  10.5093  12.4436  12.8246  13.1616  14.0399
 14.2003  14.2216  14.4241  14.8644
 --------------------------------------------------------------
 
          Ground-State Mulliken Net Atomic Charges

     Atom                 Charge (a.u.)
  ----------------------------------------
      1 C                    -0.070801
      2 C                    -0.331646
      3 C                    -0.049716
      4 H                     0.176878
      5 C                     0.104214
      6 S                    -0.203328
      7 C                    -0.291735
      8 H                     0.119366
      9 H                     0.102562
     10 H                     0.109110
     11 C                    -0.081380
     12 C                    -0.228124
     13 C                     0.011616
     14 H                     0.191109
     15 C                    -0.207243
     16 S                     0.000573
     17 C                    -0.273962
     18 H                     0.103645
     19 H                     0.116094
     20 H                     0.107685
     21 H                     0.200644
     22 H                     0.110424
     23 H                     0.107939
     24 H                     0.176076
  ----------------------------------------
  Sum of atomic charges =     0.000000

 -----------------------------------------------------------------
                    Cartesian Multipole Moments
 -----------------------------------------------------------------
    Charge (ESU x 10^10)
                -0.0000
    Dipole Moment (Debye)
         X       4.1361      Y       0.4596      Z       3.2332
       Tot       5.2700
    Quadrupole Moments (Debye-Ang)
        XX     -85.2297     XY       2.4561     YY     -80.6776
        XZ       0.5139     YZ      -1.1742     ZZ     -85.5209
    Octopole Moments (Debye-Ang^2)
       XXX    -147.6724    XXY      87.4958    XYY     -40.2493
       YYY     179.3586    XXZ      -0.7204    XYZ      -3.3917
       YYZ      -4.2696    XZZ     -44.5909    YZZ      75.3030
       ZZZ       6.9608
    Hexadecapole Moments (Debye-Ang^3)
      XXXX    -930.7893   XXXY    -216.7243   XXYY    -551.9977
      XYYY    -223.9573   YYYY   -2313.5819   XXXZ    -223.4310
      XXYZ     -40.2976   XYYZ     -64.5713   YYYZ     -61.1572
      XXZZ    -293.5533   XYZZ     -82.0235   YYZZ    -555.4648
      XZZZ    -212.9814   YZZZ     -73.6777   ZZZZ    -873.1749
 -----------------------------------------------------------------
 Total job time:  704.55s(wall), 702.14s(cpu) 
 Sun Jul 10 03:18:36 2022

        *************************************************************
        *                                                           *
        *  Thank you very much for using Q-Chem.  Have a nice day.  *
        *                                                           *
        *************************************************************


remove work dirs ./qchem2545890.0 -- ./qchem2545890.-1
rm -rf ./qchem2545890
