You are running Q-Chem version: 5.4.0

#
# job setting
#
local host:  exp-6-05
current dir: /expanse/lustre/scratch/theleonzhang/temp_project/Hydrogenated_Rotation_Test
input file:  Methylthiophene_Phi_40_Theta_350_Methylthiophene_Hydrogenated_Alternate.qcin
output file: 
nprocs     : 0
nthreads   : 1
#
# qchem installation setting
#
QC:          /cm/shared/apps/spack/cpu/opt/spack/linux-centos8-zen2/gcc-10.2.0/qchem-5.4-akfmr7b3t57bfs6qan3padb2wnb2i7cl
QCAUX:       /cm/shared/apps/spack/cpu/opt/spack/linux-centos8-zen2/gcc-10.2.0/qchem-5.4-akfmr7b3t57bfs6qan3padb2wnb2i7cl/qcaux
QCPROG:      /cm/shared/apps/spack/cpu/opt/spack/linux-centos8-zen2/gcc-10.2.0/qchem-5.4-akfmr7b3t57bfs6qan3padb2wnb2i7cl/exe/qcprog.exe_s
QCPROG_S:    /cm/shared/apps/spack/cpu/opt/spack/linux-centos8-zen2/gcc-10.2.0/qchem-5.4-akfmr7b3t57bfs6qan3padb2wnb2i7cl/exe/qcprog.exe_s
PARALLEL:    -DSERIAL
QCMPI:       mpich
#
# qchem directory setting
#
qcrun:       qchem2623454
QCSCRATCH:   .
QCLOCALSCR:  
QCTMPDIR:    .
QCFILEPREF:  ./qchem2623454
QCSAVEDIR:   
workdirs:    ./qchem2623454
workdir0:    ./qchem2623454
partmpdirs =  
#
# parallel setting
#
QCRSH:           ssh
QCMPI:           mpich
QCMPIRUN:        /cm/shared/apps/spack/cpu/opt/spack/linux-centos8-zen2/gcc-10.2.0/qchem-5.4-akfmr7b3t57bfs6qan3padb2wnb2i7cl/bin/mpi/mpirun_qchem
QCMACHINEFILE:   ./qchem2623454/hostfile

#
# env setting
#
exported envs:   QC QCAUX QCSCRATCH QCRUNNAME QCFILEPREF QCPROG QCPROG_S GUIFILE

Running Job 1 of 1 Methylthiophene_Phi_40_Theta_350_Methylthiophene_Hydrogenated_Alternate.qcin
qchem Methylthiophene_Phi_40_Theta_350_Methylthiophene_Hydrogenated_Alternate.qcin_2623454.0 ./qchem2623454/ 0
/cm/shared/apps/spack/cpu/opt/spack/linux-centos8-zen2/gcc-10.2.0/qchem-5.4-akfmr7b3t57bfs6qan3padb2wnb2i7cl/exe/qcprog.exe_s Methylthiophene_Phi_40_Theta_350_Methylthiophene_Hydrogenated_Alternate.qcin_2623454.0 ./qchem2623454/
                  Welcome to Q-Chem
     A Quantum Leap Into The Future Of Chemistry


 Q-Chem 5.4, Q-Chem, Inc., Pleasanton, CA (2021)

 License issued to: University of California, San Diego (site)

 E. Epifanovsky,  A. T. B. Gilbert,  Xintian Feng,  Joonho Lee,  Yuezhi Mao,  
 N. Mardirossian,  P. Pokhilko,  A. White,  M. Wormit,  M. P. Coons,  
 A. L. Dempwolff,  Zhengting Gan,  D. Hait,  P. R. Horn,  L. D. Jacobson,  
 I. Kaliman,  J. Kussmann,  A. W. Lange,  Ka Un Lao,  D. S. Levine,  Jie Liu,  
 S. C. McKenzie,  A. F. Morrison,  K. Nanda,  F. Plasser,  D. R. Rehn,  
 M. L. Vidal,  Zhi-Qiang You,  Ying Zhu,  B. Alam,  B. Albrecht,  
 A. Aldossary,  E. Alguire,  J. H. Andersen,  D. Barton,  K. Begam,  A. Behn,  
 Y. A. Bernard,  E. J. Berquist,  H. Burton,  A. Carreras,  K. Carter-Fenk,  
 R. Chakraborty,  A. D. Chien,  K. D. Closser,  V. Cofer-Shabica,  
 S. Dasgupta,  Jia Deng,  M. de Wergifosse,  M. Diedenhofen,  Hainam Do,  
 S. Ehlert,  Po-Tung Fang,  S. Fatehi,  Qingguo Feng,  J. Gayvert,  
 Qinghui Ge,  G. Gidofalvi,  M. Goldey,  J. Gomes,  C. Gonzalez-Espinoza,  
 S. Gulania,  A. Gunina,  M. W. D. Hanson-Heine,  P. H. P. Harbach,  
 A. W. Hauser,  M. F. Herbst,  M. Hernandez Vera,  M. Hodecker,  
 Z. C. Holden,  S. Houck,  Xunkun Huang,  Kerwin Hui,  B. C. Huynh,  
 M. Ivanov,  Hyunjun Ji,  Hanjie Jiang,  B. Kaduk,  S. Kaehler,  
 K. Khistyaev,  Jaehoon Kim,  P. Klunzinger,  Z. Koczor-Benda,  
 Joong Hoon Koh,  D. Kosenkov,  L. Koulias,  T. Kowalczyk,  C. M. Krauter,  
 K. Kue,  A. Kunitsa,  T. Kus,  A. Landau,  K. V. Lawler,  D. Lefrancois,  
 S. Lehtola,  Rain Li,  Yi-Pei Li,  Jiashu Liang,  M. Liebenthal,  
 Hung-Hsuan Lin,  You-Sheng Lin,  Fenglai Liu,  Kuan-Yu Liu,  
 M. Loipersberger,  A. Luenser,  A. Manjanath,  P. Manohar,  E. Mansoor,  
 S. F. Manzer,  Shan-Ping Mao,  A. V. Marenich,  T. Markovich,  S. Mason,  
 S. A. Maurer,  P. F. McLaughlin,  M. F. S. J. Menger,  J.-M. Mewes,  
 S. A. Mewes,  P. Morgante,  J. W. Mullinax,  T. S. Nguyen-Beck,  
 K. J. Oosterbaan,  G. Paran,  Alexander C. Paul,  Suranjan K. Paul,  
 F. Pavosevic,  Zheng Pei,  S. Prager,  E. I. Proynov,  E. Ramos,  B. Rana,  
 A. E. Rask,  A. Rettig,  R. M. Richard,  F. Rob,  E. Rossomme,  T. Scheele,  
 M. Scheurer,  M. Schneider,  N. Sergueev,  S. M. Sharada,  W. Skomorowski,  
 D. W. Small,  C. J. Stein,  Yu-Chuan Su,  E. J. Sundstrom,  Zhen Tao,  
 J. Thirman,  T. Tsuchimochi,  N. M. Tubman,  S. P. Veccham,  O. Vydrov,  
 J. Wenzel,  J. Witte,  A. Yamada,  Kun Yao,  S. Yeganeh,  S. R. Yost,  
 A. Zech,  Igor Ying Zhang,  Xing Zhang,  Yu Zhang,  D. Zuev,  
 A. Aspuru-Guzik,  A. T. Bell,  N. A. Besley,  K. B. Bravaya,  B. R. Brooks,  
 D. Casanova,  Jeng-Da Chai,  S. Coriani,  C. J. Cramer,  
 A. E. DePrince, III,  R. A. DiStasio Jr.,  A. Dreuw,  B. D. Dunietz,  
 T. R. Furlani,  W. A. Goddard III,  S. Grimme,  S. Hammes-Schiffer,  
 T. Head-Gordon,  W. J. Hehre,  Chao-Ping Hsu,  T.-C. Jagau,  Yousung Jung,  
 A. Klamt,  Jing Kong,  D. S. Lambrecht,  WanZhen Liang,  N. J. Mayhall,  
 C. W. McCurdy,  J. B. Neaton,  C. Ochsenfeld,  J. A. Parkhill,  R. Peverati,  
 V. A. Rassolov,  Yihan Shao,  L. V. Slipchenko,  T. Stauch,  R. P. Steele,  
 J. E. Subotnik,  A. J. W. Thom,  A. Tkatchenko,  D. G. Truhlar,  
 T. Van Voorhis,  T. A. Wesolowski,  K. B. Whaley,  H. L. Woodcock III,  
 P. M. Zimmerman,  S. Faraji,  P. M. W. Gill,  M. Head-Gordon,  
 J. M. Herbert,  A. I. Krylov

 Contributors to earlier versions of Q-Chem not listed above: 
 R. D. Adamson,  B. Austin,  R. Baer,  J. Baker,  G. J. O. Beran,  
 K. Brandhorst,  S. T. Brown,  E. F. C. Byrd,  A. K. Chakraborty,  
 G. K. L. Chan,  Chun-Min Chang,  Yunqing Chen,  C.-L. Cheng,  
 Siu Hung Chien,  D. M. Chipman,  D. L. Crittenden,  H. Dachsel,  
 R. J. Doerksen,  A. D. Dutoi,  R. G. Edgar,  J. Fosso-Tande,  
 L. Fusti-Molnar,  D. Ghosh,  A. Ghysels,  A. Golubeva-Zadorozhnaya,  
 J. Gonthier,  M. S. Gordon,  S. R. Gwaltney,  G. Hawkins,  J. E. Herr,  
 A. Heyden,  S. Hirata,  E. G. Hohenstein,  G. Kedziora,  F. J. Keil,  
 C. Kelley,  Jihan Kim,  R. A. King,  R. Z. Khaliullin,  P. P. Korambath,  
 W. Kurlancheek,  A. Laurent,  A. M. Lee,  M. S. Lee,  S. V. Levchenko,  
 Ching Yeh Lin,  D. Liotard,  E. Livshits,  R. C. Lochan,  I. Lotan,  
 L. A. Martinez-Martinez,  P. E. Maslen,  N. Nair,  D. P. O'Neill,  
 D. Neuhauser,  E. Neuscamman,  C. M. Oana,  R. Olivares-Amaya,  R. Olson,  
 T. M. Perrine,  B. Peters,  P. A. Pieniazek,  A. Prociuk,  Y. M. Rhee,  
 J. Ritchie,  M. A. Rohrdanz,  E. Rosta,  N. J. Russ,  H. F. Schaefer III,  
 M. W. Schmidt,  N. E. Schultz,  S. Sharma,  N. Shenvi,  C. D. Sherrill,  
 A. C. Simmonett,  A. Sodt,  T. Stein,  D. Stuck,  K. S. Thanthiriwatte,  
 V. Vanovschi,  L. Vogt,  Tao Wang,  A. Warshel,  M. A. Watson,  
 C. F. Williams,  Q. Wu,  X. Xu,  Jun Yang,  W. Zhang,  Yan Zhao

 Please cite Q-Chem as follows:
 Y. Shao et al., Mol. Phys. 113, 184-215 (2015)
 DOI: 10.1080/00268976.2014.952696

 Q-Chem 5.4.0 for Intel X86 EM64T Linux

 Parts of Q-Chem use Armadillo 9.800.1 (Horizon Scraper).
 http://arma.sourceforge.net/

 Q-Chem begins on Sun Jul 10 06:45:16 2022  

 Host: 
0

     Scratch files written to ./qchem2623454//
 May1621 |scratch|qcdevops|jenkins|workspace|build_RNUM    
 Processing $rem in /cm/shared/apps/spack/cpu/opt/spack/linux-centos8-zen2/gcc-10.2.0/qchem-5.4-akfmr7b3t57bfs6qan3padb2wnb2i7cl/config/preferences:
 Processing $rem in /home/theleonzhang/.qchemrc:
 Symmetry turned off for PCM/SM12/SMD calculation
 Core orbitals will be frozen

 Checking the input file for inconsistencies... 	...done.

--------------------------------------------------------------
User input:
--------------------------------------------------------------
$molecule
0 1
C	0.133897	-3.866725	0.763475
C	-0.106669	-3.703963	-0.603206
C	-0.185154	-2.357056	-1.050446
H	-0.226709	-4.561092	-1.283024
C	-0.000000	-1.440664	-0.000000
S	0.268206	-2.286957	1.521018
C	-0.437628	-1.978743	-2.483610
H	-0.549717	-2.878678	-3.118875
H	0.394664	-1.376015	-2.903464
H	-1.363110	-1.375728	-2.593726
C	0.000000	0.000000	0.000000
C	0.555137	0.661535	1.099446
C	1.444710	1.721658	0.776721
H	0.318072	0.379023	2.136088
C	1.586563	1.890676	-0.612546
S	0.605781	0.721904	-1.486809
C	2.143920	2.554907	1.814609
H	1.870325	2.228851	2.836676
H	1.880882	3.629742	1.726239
H	3.248098	2.482476	1.726228
H	2.196723	2.617806	-1.161575
H	1.077442	-4.392713	0.946698
H	-0.690363	-4.392347	1.258274
H	1.063612	-1.440937	-0.187427
$end

$rem
JOBTYPE		SP
EXCHANGE	HF
CORRELATION	pRIMP2
BASIS		cc-pvtz
METHOD		rimp2
AUX_BASIS	rimp2-cc-pvtz
SOLVENT_METHOD	PCM
PURECART	11111
SYMMETRY	false
MEM_TOTAL	110000
SCF_CONVERGENCE = 6
THRESH=10
$end



$solvent
dielectric 4.90
$end
--------------------------------------------------------------
 ----------------------------------------------------------------
             Standard Nuclear Orientation (Angstroms)
    I     Atom           X                Y                Z
 ----------------------------------------------------------------
    1      C       0.1338970000    -3.8667250000     0.7634750000
    2      C      -0.1066690000    -3.7039630000    -0.6032060000
    3      C      -0.1851540000    -2.3570560000    -1.0504460000
    4      H      -0.2267090000    -4.5610920000    -1.2830240000
    5      C       0.0000000000    -1.4406640000     0.0000000000
    6      S       0.2682060000    -2.2869570000     1.5210180000
    7      C      -0.4376280000    -1.9787430000    -2.4836100000
    8      H      -0.5497170000    -2.8786780000    -3.1188750000
    9      H       0.3946640000    -1.3760150000    -2.9034640000
   10      H      -1.3631100000    -1.3757280000    -2.5937260000
   11      C       0.0000000000     0.0000000000     0.0000000000
   12      C       0.5551370000     0.6615350000     1.0994460000
   13      C       1.4447100000     1.7216580000     0.7767210000
   14      H       0.3180720000     0.3790230000     2.1360880000
   15      C       1.5865630000     1.8906760000    -0.6125460000
   16      S       0.6057810000     0.7219040000    -1.4868090000
   17      C       2.1439200000     2.5549070000     1.8146090000
   18      H       1.8703250000     2.2288510000     2.8366760000
   19      H       1.8808820000     3.6297420000     1.7262390000
   20      H       3.2480980000     2.4824760000     1.7262280000
   21      H       2.1967230000     2.6178060000    -1.1615750000
   22      H       1.0774420000    -4.3927130000     0.9466980000
   23      H      -0.6903630000    -4.3923470000     1.2582740000
   24      H       1.0636120000    -1.4409370000    -0.1874270000
 ----------------------------------------------------------------
 Nuclear Repulsion Energy =         888.92415193 hartrees
 There are       52 alpha and       52 beta electrons

 Q-Chem warning in module forms1/BasisType.C, line 2236:

 You are not using the predefined 5D/6D in this basis set.

 Requested basis set is cc-pVTZ
 There are 196 shells and 536 basis functions

 Total QAlloc Memory Limit 110000 MB
 Mega-Array Size       188 MB
 MEM_STATIC part       192 MB
 Discretize the solute cavity surface with Lebedev spheres
	Using 110 Lebedev grid points for each H atom
	Using 194 Lebedev grid points for other atoms
	Atomic van der Waals radii will be scaled by 1.20
 Remove points where switching function is < 1.0e-08
 Keep 1572 surface tesserae and discard 2076 interior tesserae
 Molecular Surface Area = 227.778 Angst**2
 Requested basis set is rimp2-cc-pVTZ
 There are 414 shells and 1414 basis functions
 A cutoff of  1.0D-10 yielded  14242 shell pairs
 There are    103304 function pairs (    132515 Cartesian)
 Smallest overlap matrix eigenvalue = 6.49E-05

 Scale SEOQF with 1.000000e-01/1.000000e-01/1.000000e-01

 Standard Electronic Orientation quadrupole field applied
 Nucleus-field energy     =     0.0000000186 hartrees
 Guess from superposition of atomic densities
 Warning:  Energy on first SCF cycle will be non-variational
 SAD guess density has 104.000000 electrons

 -----------------------------------------------------------------------
  General SCF calculation program by
  Eric Jon Sundstrom, Paul Horn, Yuezhi Mao, Dmitri Zuev, Alec White,
  David Stuck, Shaama M.S., Shane Yost, Joonho Lee, David Small,
  Daniel Levine, Susi Lehtola, Hugh Burton, Evgeny Epifanovsky,
  Bang C. Huynh
 -----------------------------------------------------------------------
 Hartree-Fock
 A restricted SCF calculation will be
 performed using DIIS
 SCF converges when DIIS error is below 1.0e-06
 ---------------------------------------
  Cycle       Energy         DIIS error
 ---------------------------------------
    1   -1186.1305138308      2.40e-02  
    2   -1180.5802484348      1.57e-03  
    3   -1180.7070419691      6.24e-04  
    4   -1180.7220147348      3.45e-04  
    5   -1180.7274948923      6.16e-05  
    6   -1180.7277598073      2.53e-05  
    7   -1180.7278219909      9.05e-06  
    8   -1180.7278345791      4.16e-06  
    9   -1180.7278373042      1.58e-06  
   10   -1180.7278378232      5.98e-07  Convergence criterion met
 ---------------------------------------
 SCF time:   CPU 584.64s  wall 588.00s 

************** Final PCM Free Energy Summary **************
 G_electrostatic  =      -0.00791559 hartree =      -4.96710737 kcal/mol
 G_cavitation     =       0.00000000 hartree =       0.00000000 kcal/mol
 G_dispersion     =       0.00000000 hartree =       0.00000000 kcal/mol
 G_repulsion      =       0.00000000 hartree =       0.00000000 kcal/mol
 --------------------------------------------------
 Non-electrostatic Free Energy =       0.00000000 hartree =       0.00000000 kcal/mol
 Total                         =      -0.00791559 hartree =      -4.96710737 kcal/mol
 --------------------------------------------------
 SCF Energy (H0 + V/2)                       =   -1180.72783782 
 Solute Internal Energy (H0)                 =   -1180.71992223 
 Total Free Energy (H0 + V/2 + non-elec)     =   -1180.72783782 hartree
                                             = -740917.90090744 kcal/mol
***********************************************************

 SCF   energy in the final basis set =    -1180.7278378232
 Total energy in the final basis set =    -1180.7278378232


 --------------------------------------------------------------
  Generalized many-body perturbation theory program
  by Joonho Lee, Fazle Rob, Xintian Feng, Evgeny Epifanovsky

 No regularization used 
 (reg. param. = 0.0000e+00)
  (P|Q)^-1/2 Time:  CPU 1.88 s  wall 1.89 s

 In RI-MP2 calculation: 
 # of frozen core orbitals: 20

 Components of the RIMP2 correlation energy:
        aaaa    correlation energy =        -0.2531676337 a.u.
        abab    correlation energy =        -1.5082125787 a.u.
        bbbb    correlation energy =        -0.2531676337 a.u.
        non-Brillouin singles      =        -0.0000000000 a.u.
        total same-spin energy     =        -0.5063352674 a.u.
        total opposite-spin energy =        -1.5082125787 a.u.

 Total  RIMP2   correlation energy =        -2.0145478461 a.u.
        RIMP2         total energy =     -1182.7423856693 a.u.

 RI-MP2 Energy Time:  CPU 79.97 s  wall 80.39 s
 
 --------------------------------------------------------------
 
                    Orbital Energies (a.u.)
 --------------------------------------------------------------
 
 Alpha MOs
 -- Occupied --
-91.9774 -91.9439 -11.2814 -11.2638 -11.2617 -11.2601 -11.2515 -11.2419
-11.2376 -11.2306 -11.2284 -11.2209  -8.9785  -8.9485  -6.6594  -6.6587
 -6.6581  -6.6299  -6.6289  -6.6276  -1.2058  -1.1531  -1.0613  -1.0281
 -1.0060  -0.9562  -0.9151  -0.9028  -0.8106  -0.7735  -0.7198  -0.7031
 -0.6597  -0.6475  -0.6125  -0.5901  -0.5831  -0.5730  -0.5697  -0.5528
 -0.5423  -0.5352  -0.5160  -0.5133  -0.4883  -0.4726  -0.4570  -0.4407
 -0.3585  -0.3415  -0.3278  -0.2626
 -- Virtual --
  0.0819   0.1351   0.1464   0.1539   0.1614   0.1722   0.1785   0.1850
  0.1903   0.1973   0.2006   0.2051   0.2242   0.2336   0.2406   0.2442
  0.2537   0.2650   0.2799   0.3029   0.3159   0.3272   0.3553   0.3634
  0.3671   0.3706   0.3739   0.3941   0.4063   0.4133   0.4204   0.4274
  0.4437   0.4530   0.4597   0.4653   0.4738   0.4818   0.4845   0.4917
  0.5084   0.5110   0.5188   0.5251   0.5326   0.5485   0.5488   0.5633
  0.5674   0.5750   0.5844   0.5973   0.6071   0.6127   0.6160   0.6201
  0.6209   0.6250   0.6348   0.6406   0.6419   0.6488   0.6506   0.6556
  0.6692   0.6736   0.6843   0.6935   0.6972   0.7109   0.7203   0.7251
  0.7414   0.7488   0.7615   0.7764   0.7852   0.7913   0.8045   0.8156
  0.8318   0.8400   0.8565   0.8699   0.8741   0.8818   0.8965   0.9233
  0.9306   0.9395   0.9523   0.9624   0.9668   0.9761   0.9998   1.0088
  1.0140   1.0262   1.0411   1.0472   1.0540   1.0672   1.0806   1.0849
  1.0914   1.0959   1.1060   1.1282   1.1444   1.1545   1.1604   1.1718
  1.1780   1.1910   1.1988   1.2124   1.2167   1.2264   1.2363   1.2435
  1.2535   1.2699   1.2760   1.2803   1.2833   1.2958   1.3029   1.3069
  1.3203   1.3221   1.3380   1.3646   1.3819   1.3921   1.3964   1.4231
  1.4312   1.4375   1.4481   1.4564   1.4616   1.4784   1.4801   1.4932
  1.4998   1.5148   1.5218   1.5281   1.5341   1.5432   1.5478   1.5497
  1.5672   1.5791   1.5848   1.5942   1.6097   1.6158   1.6337   1.6406
  1.6492   1.6697   1.6813   1.6891   1.6957   1.7095   1.7149   1.7289
  1.7543   1.7687   1.7859   1.7921   1.8105   1.8239   1.8297   1.8586
  1.8932   1.9075   1.9433   1.9625   1.9719   1.9829   1.9904   2.0238
  2.0310   2.0456   2.0531   2.0680   2.0964   2.1165   2.1233   2.1500
  2.1856   2.1931   2.2055   2.2228   2.2340   2.2383   2.2757   2.2910
  2.3014   2.3155   2.3438   2.3739   2.4053   2.4469   2.4558   2.4681
  2.4824   2.5136   2.5215   2.5473   2.5626   2.5924   2.6022   2.6144
  2.6339   2.6473   2.6590   2.6653   2.6766   2.6943   2.7045   2.7167
  2.7443   2.7506   2.7655   2.7707   2.7916   2.7945   2.8060   2.8284
  2.8321   2.8416   2.8593   2.8721   2.8881   2.9195   2.9300   2.9608
  2.9620   2.9755   2.9832   2.9923   3.0107   3.0200   3.0255   3.0432
  3.0603   3.0757   3.0979   3.1089   3.1134   3.1219   3.1327   3.1461
  3.1570   3.1626   3.1677   3.1746   3.1894   3.1985   3.2045   3.2250
  3.2297   3.2399   3.2556   3.2574   3.2594   3.2721   3.2808   3.2972
  3.3162   3.3211   3.3327   3.3402   3.3472   3.3532   3.3566   3.3676
  3.3730   3.3779   3.3878   3.3966   3.4047   3.4220   3.4252   3.4299
  3.4389   3.4565   3.4623   3.4739   3.4789   3.4881   3.5078   3.5092
  3.5169   3.5201   3.5361   3.5406   3.5517   3.5574   3.5642   3.5857
  3.6019   3.6096   3.6108   3.6323   3.6413   3.6465   3.6572   3.6802
  3.6932   3.6992   3.7094   3.7140   3.7211   3.7304   3.7313   3.7374
  3.7510   3.7655   3.7768   3.7836   3.7923   3.8021   3.8142   3.8219
  3.8319   3.8378   3.8602   3.8687   3.8863   3.8930   3.9046   3.9156
  3.9334   3.9565   3.9579   3.9769   3.9813   3.9880   4.0151   4.0241
  4.0393   4.0433   4.0501   4.0596   4.0690   4.0796   4.1090   4.1140
  4.1252   4.1312   4.1390   4.1584   4.1713   4.1768   4.2062   4.2070
  4.2108   4.2224   4.2328   4.2396   4.2517   4.2655   4.2677   4.2866
  4.2919   4.3158   4.3271   4.3403   4.3455   4.3499   4.3589   4.3735
  4.3876   4.3984   4.4032   4.4088   4.4202   4.4284   4.4414   4.4595
  4.4613   4.4767   4.4950   4.5015   4.5082   4.5150   4.5458   4.5681
  4.5894   4.6047   4.6182   4.6344   4.6450   4.6559   4.6760   4.6874
  4.7006   4.7238   4.7418   4.7803   4.7826   4.8092   4.8192   4.8444
  4.8539   4.8722   4.9027   4.9157   4.9247   4.9390   4.9624   4.9933
  5.0269   5.0534   5.0945   5.1006   5.1165   5.1277   5.1480   5.1819
  5.1934   5.2205   5.2214   5.2749   5.2871   5.2944   5.3107   5.3160
  5.3458   5.3551   5.3868   5.3949   5.4082   5.4307   5.4402   5.4551
  5.4949   5.5087   5.5319   5.5425   5.5580   5.5601   5.5699   5.5863
  5.6229   5.6340   5.6421   5.6657   5.6701   5.6957   5.7105   5.7162
  5.7675   5.7924   5.8312   5.9732   5.9911   6.0709   6.1200   6.1469
  6.2208   6.2248   6.2304   6.2359   6.2656   6.2837   6.2908   6.3131
  6.4112   6.4263   9.4504  10.5517  12.2992  12.8592  13.1759  13.8416
 14.1283  14.2715  14.3626  14.7368
 --------------------------------------------------------------
 
          Ground-State Mulliken Net Atomic Charges

     Atom                 Charge (a.u.)
  ----------------------------------------
      1 C                    -0.076621
      2 C                    -0.315791
      3 C                    -0.060678
      4 H                     0.177040
      5 C                     0.115079
      6 S                    -0.195560
      7 C                    -0.301176
      8 H                     0.117017
      9 H                     0.109498
     10 H                     0.118295
     11 C                    -0.007189
     12 C                    -0.306726
     13 C                     0.047284
     14 H                     0.179915
     15 C                    -0.259024
     16 S                     0.003492
     17 C                    -0.268635
     18 H                     0.103293
     19 H                     0.108787
     20 H                     0.107921
     21 H                     0.197253
     22 H                     0.111110
     23 H                     0.112360
     24 H                     0.183056
  ----------------------------------------
  Sum of atomic charges =     0.000000

 -----------------------------------------------------------------
                    Cartesian Multipole Moments
 -----------------------------------------------------------------
    Charge (ESU x 10^10)
                -0.0000
    Dipole Moment (Debye)
         X       1.5816      Y      -0.2253      Z      -1.0459
       Tot       1.9095
    Quadrupole Moments (Debye-Ang)
        XX     -87.2383     XY       4.4376     YY     -77.5932
        XZ       0.9907     YZ       4.5873     ZZ     -85.6520
    Octopole Moments (Debye-Ang^2)
       XXX    -129.4610    XXY      74.2127    XYY     -28.6303
       YYY     150.1685    XXZ      -0.4264    XYZ      -2.6386
       YYZ      -1.5276    XZZ     -41.6516    YZZ      64.8986
       ZZZ      -2.4703
    Hexadecapole Moments (Debye-Ang^3)
      XXXX    -554.3778   XXXY    -226.1120   XXYY    -523.0012
      XYYY    -218.1899   YYYY   -2439.7410   XXXZ    -113.6998
      XXYZ     -30.6643   XYYZ     -35.2450   YYYZ     -80.2963
      XXZZ    -275.2734   XYZZ     -62.1909   YYZZ    -603.1416
      XZZZ    -107.1118   YZZZ     -38.6081   ZZZZ   -1081.5739
 -----------------------------------------------------------------
 Total job time:  669.74s(wall), 665.49s(cpu) 
 Sun Jul 10 06:56:25 2022

        *************************************************************
        *                                                           *
        *  Thank you very much for using Q-Chem.  Have a nice day.  *
        *                                                           *
        *************************************************************


remove work dirs ./qchem2623454.0 -- ./qchem2623454.-1
rm -rf ./qchem2623454
