You are running Q-Chem version: 5.4.0

#
# job setting
#
local host:  exp-2-27
current dir: /expanse/lustre/scratch/theleonzhang/temp_project/Hydrogenated_Rotation_Test
input file:  Methylthiophene_Phi_15_Theta_350_Methylthiophene_Hydrogenated.qcin
output file: 
nprocs     : 0
nthreads   : 1
#
# qchem installation setting
#
QC:          /cm/shared/apps/spack/cpu/opt/spack/linux-centos8-zen2/gcc-10.2.0/qchem-5.4-akfmr7b3t57bfs6qan3padb2wnb2i7cl
QCAUX:       /cm/shared/apps/spack/cpu/opt/spack/linux-centos8-zen2/gcc-10.2.0/qchem-5.4-akfmr7b3t57bfs6qan3padb2wnb2i7cl/qcaux
QCPROG:      /cm/shared/apps/spack/cpu/opt/spack/linux-centos8-zen2/gcc-10.2.0/qchem-5.4-akfmr7b3t57bfs6qan3padb2wnb2i7cl/exe/qcprog.exe_s
QCPROG_S:    /cm/shared/apps/spack/cpu/opt/spack/linux-centos8-zen2/gcc-10.2.0/qchem-5.4-akfmr7b3t57bfs6qan3padb2wnb2i7cl/exe/qcprog.exe_s
PARALLEL:    -DSERIAL
QCMPI:       mpich
#
# qchem directory setting
#
qcrun:       qchem1711567
QCSCRATCH:   .
QCLOCALSCR:  
QCTMPDIR:    .
QCFILEPREF:  ./qchem1711567
QCSAVEDIR:   
workdirs:    ./qchem1711567
workdir0:    ./qchem1711567
partmpdirs =  
#
# parallel setting
#
QCRSH:           ssh
QCMPI:           mpich
QCMPIRUN:        /cm/shared/apps/spack/cpu/opt/spack/linux-centos8-zen2/gcc-10.2.0/qchem-5.4-akfmr7b3t57bfs6qan3padb2wnb2i7cl/bin/mpi/mpirun_qchem
QCMACHINEFILE:   ./qchem1711567/hostfile

#
# env setting
#
exported envs:   QC QCAUX QCSCRATCH QCRUNNAME QCFILEPREF QCPROG QCPROG_S GUIFILE

Running Job 1 of 1 Methylthiophene_Phi_15_Theta_350_Methylthiophene_Hydrogenated.qcin
qchem Methylthiophene_Phi_15_Theta_350_Methylthiophene_Hydrogenated.qcin_1711567.0 ./qchem1711567/ 0
/cm/shared/apps/spack/cpu/opt/spack/linux-centos8-zen2/gcc-10.2.0/qchem-5.4-akfmr7b3t57bfs6qan3padb2wnb2i7cl/exe/qcprog.exe_s Methylthiophene_Phi_15_Theta_350_Methylthiophene_Hydrogenated.qcin_1711567.0 ./qchem1711567/
                  Welcome to Q-Chem
     A Quantum Leap Into The Future Of Chemistry


 Q-Chem 5.4, Q-Chem, Inc., Pleasanton, CA (2021)

 License issued to: University of California, San Diego (site)

 E. Epifanovsky,  A. T. B. Gilbert,  Xintian Feng,  Joonho Lee,  Yuezhi Mao,  
 N. Mardirossian,  P. Pokhilko,  A. White,  M. Wormit,  M. P. Coons,  
 A. L. Dempwolff,  Zhengting Gan,  D. Hait,  P. R. Horn,  L. D. Jacobson,  
 I. Kaliman,  J. Kussmann,  A. W. Lange,  Ka Un Lao,  D. S. Levine,  Jie Liu,  
 S. C. McKenzie,  A. F. Morrison,  K. Nanda,  F. Plasser,  D. R. Rehn,  
 M. L. Vidal,  Zhi-Qiang You,  Ying Zhu,  B. Alam,  B. Albrecht,  
 A. Aldossary,  E. Alguire,  J. H. Andersen,  D. Barton,  K. Begam,  A. Behn,  
 Y. A. Bernard,  E. J. Berquist,  H. Burton,  A. Carreras,  K. Carter-Fenk,  
 R. Chakraborty,  A. D. Chien,  K. D. Closser,  V. Cofer-Shabica,  
 S. Dasgupta,  Jia Deng,  M. de Wergifosse,  M. Diedenhofen,  Hainam Do,  
 S. Ehlert,  Po-Tung Fang,  S. Fatehi,  Qingguo Feng,  J. Gayvert,  
 Qinghui Ge,  G. Gidofalvi,  M. Goldey,  J. Gomes,  C. Gonzalez-Espinoza,  
 S. Gulania,  A. Gunina,  M. W. D. Hanson-Heine,  P. H. P. Harbach,  
 A. W. Hauser,  M. F. Herbst,  M. Hernandez Vera,  M. Hodecker,  
 Z. C. Holden,  S. Houck,  Xunkun Huang,  Kerwin Hui,  B. C. Huynh,  
 M. Ivanov,  Hyunjun Ji,  Hanjie Jiang,  B. Kaduk,  S. Kaehler,  
 K. Khistyaev,  Jaehoon Kim,  P. Klunzinger,  Z. Koczor-Benda,  
 Joong Hoon Koh,  D. Kosenkov,  L. Koulias,  T. Kowalczyk,  C. M. Krauter,  
 K. Kue,  A. Kunitsa,  T. Kus,  A. Landau,  K. V. Lawler,  D. Lefrancois,  
 S. Lehtola,  Rain Li,  Yi-Pei Li,  Jiashu Liang,  M. Liebenthal,  
 Hung-Hsuan Lin,  You-Sheng Lin,  Fenglai Liu,  Kuan-Yu Liu,  
 M. Loipersberger,  A. Luenser,  A. Manjanath,  P. Manohar,  E. Mansoor,  
 S. F. Manzer,  Shan-Ping Mao,  A. V. Marenich,  T. Markovich,  S. Mason,  
 S. A. Maurer,  P. F. McLaughlin,  M. F. S. J. Menger,  J.-M. Mewes,  
 S. A. Mewes,  P. Morgante,  J. W. Mullinax,  T. S. Nguyen-Beck,  
 K. J. Oosterbaan,  G. Paran,  Alexander C. Paul,  Suranjan K. Paul,  
 F. Pavosevic,  Zheng Pei,  S. Prager,  E. I. Proynov,  E. Ramos,  B. Rana,  
 A. E. Rask,  A. Rettig,  R. M. Richard,  F. Rob,  E. Rossomme,  T. Scheele,  
 M. Scheurer,  M. Schneider,  N. Sergueev,  S. M. Sharada,  W. Skomorowski,  
 D. W. Small,  C. J. Stein,  Yu-Chuan Su,  E. J. Sundstrom,  Zhen Tao,  
 J. Thirman,  T. Tsuchimochi,  N. M. Tubman,  S. P. Veccham,  O. Vydrov,  
 J. Wenzel,  J. Witte,  A. Yamada,  Kun Yao,  S. Yeganeh,  S. R. Yost,  
 A. Zech,  Igor Ying Zhang,  Xing Zhang,  Yu Zhang,  D. Zuev,  
 A. Aspuru-Guzik,  A. T. Bell,  N. A. Besley,  K. B. Bravaya,  B. R. Brooks,  
 D. Casanova,  Jeng-Da Chai,  S. Coriani,  C. J. Cramer,  
 A. E. DePrince, III,  R. A. DiStasio Jr.,  A. Dreuw,  B. D. Dunietz,  
 T. R. Furlani,  W. A. Goddard III,  S. Grimme,  S. Hammes-Schiffer,  
 T. Head-Gordon,  W. J. Hehre,  Chao-Ping Hsu,  T.-C. Jagau,  Yousung Jung,  
 A. Klamt,  Jing Kong,  D. S. Lambrecht,  WanZhen Liang,  N. J. Mayhall,  
 C. W. McCurdy,  J. B. Neaton,  C. Ochsenfeld,  J. A. Parkhill,  R. Peverati,  
 V. A. Rassolov,  Yihan Shao,  L. V. Slipchenko,  T. Stauch,  R. P. Steele,  
 J. E. Subotnik,  A. J. W. Thom,  A. Tkatchenko,  D. G. Truhlar,  
 T. Van Voorhis,  T. A. Wesolowski,  K. B. Whaley,  H. L. Woodcock III,  
 P. M. Zimmerman,  S. Faraji,  P. M. W. Gill,  M. Head-Gordon,  
 J. M. Herbert,  A. I. Krylov

 Contributors to earlier versions of Q-Chem not listed above: 
 R. D. Adamson,  B. Austin,  R. Baer,  J. Baker,  G. J. O. Beran,  
 K. Brandhorst,  S. T. Brown,  E. F. C. Byrd,  A. K. Chakraborty,  
 G. K. L. Chan,  Chun-Min Chang,  Yunqing Chen,  C.-L. Cheng,  
 Siu Hung Chien,  D. M. Chipman,  D. L. Crittenden,  H. Dachsel,  
 R. J. Doerksen,  A. D. Dutoi,  R. G. Edgar,  J. Fosso-Tande,  
 L. Fusti-Molnar,  D. Ghosh,  A. Ghysels,  A. Golubeva-Zadorozhnaya,  
 J. Gonthier,  M. S. Gordon,  S. R. Gwaltney,  G. Hawkins,  J. E. Herr,  
 A. Heyden,  S. Hirata,  E. G. Hohenstein,  G. Kedziora,  F. J. Keil,  
 C. Kelley,  Jihan Kim,  R. A. King,  R. Z. Khaliullin,  P. P. Korambath,  
 W. Kurlancheek,  A. Laurent,  A. M. Lee,  M. S. Lee,  S. V. Levchenko,  
 Ching Yeh Lin,  D. Liotard,  E. Livshits,  R. C. Lochan,  I. Lotan,  
 L. A. Martinez-Martinez,  P. E. Maslen,  N. Nair,  D. P. O'Neill,  
 D. Neuhauser,  E. Neuscamman,  C. M. Oana,  R. Olivares-Amaya,  R. Olson,  
 T. M. Perrine,  B. Peters,  P. A. Pieniazek,  A. Prociuk,  Y. M. Rhee,  
 J. Ritchie,  M. A. Rohrdanz,  E. Rosta,  N. J. Russ,  H. F. Schaefer III,  
 M. W. Schmidt,  N. E. Schultz,  S. Sharma,  N. Shenvi,  C. D. Sherrill,  
 A. C. Simmonett,  A. Sodt,  T. Stein,  D. Stuck,  K. S. Thanthiriwatte,  
 V. Vanovschi,  L. Vogt,  Tao Wang,  A. Warshel,  M. A. Watson,  
 C. F. Williams,  Q. Wu,  X. Xu,  Jun Yang,  W. Zhang,  Yan Zhao

 Please cite Q-Chem as follows:
 Y. Shao et al., Mol. Phys. 113, 184-215 (2015)
 DOI: 10.1080/00268976.2014.952696

 Q-Chem 5.4.0 for Intel X86 EM64T Linux

 Parts of Q-Chem use Armadillo 9.800.1 (Horizon Scraper).
 http://arma.sourceforge.net/

 Q-Chem begins on Sun Jul 10 06:03:22 2022  

 Host: 
0

     Scratch files written to ./qchem1711567//
 May1621 |scratch|qcdevops|jenkins|workspace|build_RNUM    
 Processing $rem in /cm/shared/apps/spack/cpu/opt/spack/linux-centos8-zen2/gcc-10.2.0/qchem-5.4-akfmr7b3t57bfs6qan3padb2wnb2i7cl/config/preferences:
 Processing $rem in /home/theleonzhang/.qchemrc:
 Symmetry turned off for PCM/SM12/SMD calculation
 Core orbitals will be frozen

 Checking the input file for inconsistencies... 	...done.

--------------------------------------------------------------
User input:
--------------------------------------------------------------
$molecule
0 1
C	0.133897	-3.866725	0.763475
C	-0.106669	-3.703963	-0.603206
C	-0.185154	-2.357056	-1.050446
H	-0.226709	-4.561092	-1.283024
C	0.000000	-1.440664	0.000000
S	0.268206	-2.286957	1.521018
C	-0.437628	-1.978743	-2.483610
H	-0.549717	-2.878678	-3.118875
H	0.394664	-1.376015	-2.903464
H	-1.363110	-1.375728	-2.593726
C	0.000000	0.000000	0.000000
C	0.223548	0.834165	1.099446
C	0.581748	2.170912	0.776721
H	0.128089	0.477934	2.136088
C	0.638880	2.384045	-0.612546
S	0.243934	0.910282	-1.486809
C	0.863301	3.221592	1.814609
H	0.753137	2.810458	2.836676
H	0.170663	4.084559	1.726239
H	1.894637	3.622593	1.726228
H	0.884575	3.300913	-1.161575
H	1.077442	-4.392713	0.946698
H	-0.690363	-4.392347	1.258274
H	-1.063612	-1.440391	0.187427
$end

$rem
JOBTYPE		SP
EXCHANGE	HF
CORRELATION	pRIMP2
BASIS		cc-pvtz
METHOD		rimp2
AUX_BASIS	rimp2-cc-pvtz
SOLVENT_METHOD	PCM
PURECART	11111
SYMMETRY	false
MEM_TOTAL	110000
SCF_CONVERGENCE = 6
THRESH=10
$end



$solvent
dielectric 4.90
$end
--------------------------------------------------------------
 ----------------------------------------------------------------
             Standard Nuclear Orientation (Angstroms)
    I     Atom           X                Y                Z
 ----------------------------------------------------------------
    1      C       0.1338970000    -3.8667250000     0.7634750000
    2      C      -0.1066690000    -3.7039630000    -0.6032060000
    3      C      -0.1851540000    -2.3570560000    -1.0504460000
    4      H      -0.2267090000    -4.5610920000    -1.2830240000
    5      C       0.0000000000    -1.4406640000     0.0000000000
    6      S       0.2682060000    -2.2869570000     1.5210180000
    7      C      -0.4376280000    -1.9787430000    -2.4836100000
    8      H      -0.5497170000    -2.8786780000    -3.1188750000
    9      H       0.3946640000    -1.3760150000    -2.9034640000
   10      H      -1.3631100000    -1.3757280000    -2.5937260000
   11      C       0.0000000000     0.0000000000     0.0000000000
   12      C       0.2235480000     0.8341650000     1.0994460000
   13      C       0.5817480000     2.1709120000     0.7767210000
   14      H       0.1280890000     0.4779340000     2.1360880000
   15      C       0.6388800000     2.3840450000    -0.6125460000
   16      S       0.2439340000     0.9102820000    -1.4868090000
   17      C       0.8633010000     3.2215920000     1.8146090000
   18      H       0.7531370000     2.8104580000     2.8366760000
   19      H       0.1706630000     4.0845590000     1.7262390000
   20      H       1.8946370000     3.6225930000     1.7262280000
   21      H       0.8845750000     3.3009130000    -1.1615750000
   22      H       1.0774420000    -4.3927130000     0.9466980000
   23      H      -0.6903630000    -4.3923470000     1.2582740000
   24      H      -1.0636120000    -1.4403910000     0.1874270000
 ----------------------------------------------------------------
 Nuclear Repulsion Energy =         877.38410709 hartrees
 There are       52 alpha and       52 beta electrons

 Q-Chem warning in module forms1/BasisType.C, line 2236:

 You are not using the predefined 5D/6D in this basis set.

 Requested basis set is cc-pVTZ
 There are 196 shells and 536 basis functions

 Total QAlloc Memory Limit 110000 MB
 Mega-Array Size       188 MB
 MEM_STATIC part       192 MB
 Discretize the solute cavity surface with Lebedev spheres
	Using 110 Lebedev grid points for each H atom
	Using 194 Lebedev grid points for other atoms
	Atomic van der Waals radii will be scaled by 1.20
 Remove points where switching function is < 1.0e-08
 Keep 1582 surface tesserae and discard 2066 interior tesserae
 Molecular Surface Area = 229.973 Angst**2
 Requested basis set is rimp2-cc-pVTZ
 There are 414 shells and 1414 basis functions
 A cutoff of  1.0D-10 yielded  13877 shell pairs
 There are    100599 function pairs (    128980 Cartesian)
 Smallest overlap matrix eigenvalue = 5.43E-05

 Scale SEOQF with 1.000000e-01/1.000000e-01/1.000000e-01

 Standard Electronic Orientation quadrupole field applied
 Nucleus-field energy     =     0.0000000211 hartrees
 Guess from superposition of atomic densities
 Warning:  Energy on first SCF cycle will be non-variational
 SAD guess density has 104.000000 electrons

 -----------------------------------------------------------------------
  General SCF calculation program by
  Eric Jon Sundstrom, Paul Horn, Yuezhi Mao, Dmitri Zuev, Alec White,
  David Stuck, Shaama M.S., Shane Yost, Joonho Lee, David Small,
  Daniel Levine, Susi Lehtola, Hugh Burton, Evgeny Epifanovsky,
  Bang C. Huynh
 -----------------------------------------------------------------------
 Hartree-Fock
 A restricted SCF calculation will be
 performed using DIIS
 SCF converges when DIIS error is below 1.0e-06
 ---------------------------------------
  Cycle       Energy         DIIS error
 ---------------------------------------
    1   -1186.0548280977      2.39e-02  
    2   -1180.6037933189      1.58e-03  
    3   -1180.7297746098      6.63e-04  
    4   -1180.7459747088      3.53e-04  
    5   -1180.7517543099      5.92e-05  
    6   -1180.7520026621      2.45e-05  
    7   -1180.7520593001      8.51e-06  
    8   -1180.7520709126      4.08e-06  
    9   -1180.7520734285      1.37e-06  
   10   -1180.7520738171      5.11e-07  Convergence criterion met
 ---------------------------------------
 SCF time:   CPU 574.27s  wall 580.00s 

************** Final PCM Free Energy Summary **************
 G_electrostatic  =      -0.00828214 hartree =      -5.19712025 kcal/mol
 G_cavitation     =       0.00000000 hartree =       0.00000000 kcal/mol
 G_dispersion     =       0.00000000 hartree =       0.00000000 kcal/mol
 G_repulsion      =       0.00000000 hartree =       0.00000000 kcal/mol
 --------------------------------------------------
 Non-electrostatic Free Energy =       0.00000000 hartree =       0.00000000 kcal/mol
 Total                         =      -0.00828214 hartree =      -5.19712025 kcal/mol
 --------------------------------------------------
 SCF Energy (H0 + V/2)                       =   -1180.75207382 
 Solute Internal Energy (H0)                 =   -1180.74379168 
 Total Free Energy (H0 + V/2 + non-elec)     =   -1180.75207382 hartree
                                             = -740933.10922312 kcal/mol
***********************************************************

 SCF   energy in the final basis set =    -1180.7520738171
 Total energy in the final basis set =    -1180.7520738171


 --------------------------------------------------------------
  Generalized many-body perturbation theory program
  by Joonho Lee, Fazle Rob, Xintian Feng, Evgeny Epifanovsky

 No regularization used 
 (reg. param. = 0.0000e+00)
  (P|Q)^-1/2 Time:  CPU 1.90 s  wall 1.91 s

 In RI-MP2 calculation: 
 # of frozen core orbitals: 20

 Components of the RIMP2 correlation energy:
        aaaa    correlation energy =        -0.2518576960 a.u.
        abab    correlation energy =        -1.5039493217 a.u.
        bbbb    correlation energy =        -0.2518576960 a.u.
        non-Brillouin singles      =        -0.0000000000 a.u.
        total same-spin energy     =        -0.5037153921 a.u.
        total opposite-spin energy =        -1.5039493217 a.u.

 Total  RIMP2   correlation energy =        -2.0076647137 a.u.
        RIMP2         total energy =     -1182.7597385308 a.u.

 RI-MP2 Energy Time:  CPU 79.75 s  wall 80.02 s
 
 --------------------------------------------------------------
 
                    Orbital Energies (a.u.)
 --------------------------------------------------------------
 
 Alpha MOs
 -- Occupied --
-91.9810 -91.9464 -11.2886 -11.2662 -11.2604 -11.2544 -11.2502 -11.2439
-11.2329 -11.2324 -11.2275 -11.2224  -8.9811  -8.9510  -6.6620  -6.6614
 -6.6607  -6.6323  -6.6313  -6.6300  -1.2023  -1.1524  -1.0607  -1.0286
 -1.0070  -0.9564  -0.9164  -0.9016  -0.8152  -0.7721  -0.7179  -0.7040
 -0.6602  -0.6478  -0.6108  -0.5912  -0.5828  -0.5729  -0.5678  -0.5541
 -0.5418  -0.5345  -0.5160  -0.5105  -0.4874  -0.4829  -0.4578  -0.4457
 -0.3589  -0.3416  -0.3263  -0.2637
 -- Virtual --
  0.1022   0.1327   0.1444   0.1506   0.1592   0.1709   0.1780   0.1830
  0.1901   0.1957   0.2049   0.2102   0.2262   0.2329   0.2393   0.2423
  0.2544   0.2584   0.2756   0.3033   0.3210   0.3364   0.3540   0.3608
  0.3727   0.3748   0.3856   0.3963   0.4080   0.4157   0.4200   0.4320
  0.4433   0.4513   0.4588   0.4610   0.4785   0.4803   0.4877   0.5063
  0.5080   0.5107   0.5246   0.5324   0.5451   0.5481   0.5517   0.5548
  0.5713   0.5759   0.5871   0.6015   0.6070   0.6119   0.6159   0.6179
  0.6236   0.6249   0.6316   0.6360   0.6392   0.6472   0.6499   0.6533
  0.6606   0.6718   0.6831   0.6880   0.6958   0.7141   0.7236   0.7299
  0.7410   0.7524   0.7602   0.7852   0.7909   0.8010   0.8097   0.8219
  0.8425   0.8577   0.8581   0.8654   0.8803   0.9006   0.9085   0.9200
  0.9291   0.9379   0.9533   0.9681   0.9771   0.9854   1.0030   1.0093
  1.0111   1.0262   1.0383   1.0505   1.0627   1.0647   1.0768   1.0814
  1.0881   1.0978   1.1073   1.1247   1.1392   1.1530   1.1549   1.1608
  1.1743   1.1834   1.1959   1.2141   1.2194   1.2216   1.2334   1.2431
  1.2627   1.2663   1.2705   1.2753   1.2822   1.2906   1.2963   1.3090
  1.3241   1.3305   1.3425   1.3673   1.3801   1.3942   1.4012   1.4093
  1.4148   1.4240   1.4460   1.4587   1.4749   1.4755   1.4826   1.4906
  1.5061   1.5158   1.5218   1.5293   1.5360   1.5416   1.5493   1.5558
  1.5684   1.5791   1.5892   1.5939   1.6089   1.6285   1.6394   1.6438
  1.6530   1.6645   1.6756   1.6912   1.7068   1.7174   1.7271   1.7411
  1.7487   1.7652   1.7746   1.8065   1.8164   1.8239   1.8396   1.8500
  1.8937   1.9187   1.9323   1.9418   1.9615   1.9756   1.9928   1.9997
  2.0148   2.0250   2.0578   2.0615   2.0722   2.1012   2.1486   2.1578
  2.1915   2.2017   2.2064   2.2183   2.2241   2.2471   2.2798   2.2913
  2.2970   2.3222   2.3504   2.3645   2.4140   2.4363   2.4546   2.4727
  2.4897   2.5146   2.5423   2.5456   2.5705   2.5904   2.5956   2.6163
  2.6431   2.6463   2.6586   2.6622   2.6770   2.6952   2.7090   2.7330
  2.7446   2.7534   2.7607   2.7686   2.7774   2.7803   2.8046   2.8180
  2.8266   2.8377   2.8517   2.8902   2.8908   2.8975   2.9091   2.9246
  2.9563   2.9693   2.9722   2.9869   2.9969   3.0119   3.0375   3.0504
  3.0534   3.0699   3.0939   3.1037   3.1079   3.1139   3.1237   3.1350
  3.1458   3.1588   3.1682   3.1777   3.1831   3.1907   3.2125   3.2233
  3.2276   3.2417   3.2549   3.2583   3.2673   3.2770   3.3012   3.3030
  3.3057   3.3298   3.3353   3.3398   3.3427   3.3493   3.3589   3.3707
  3.3802   3.3841   3.3898   3.3969   3.4130   3.4172   3.4212   3.4282
  3.4397   3.4472   3.4625   3.4682   3.4798   3.4910   3.4942   3.5038
  3.5065   3.5180   3.5237   3.5384   3.5521   3.5632   3.5710   3.5727
  3.5917   3.6061   3.6131   3.6268   3.6309   3.6416   3.6463   3.6580
  3.6656   3.6831   3.7000   3.7040   3.7116   3.7214   3.7343   3.7408
  3.7489   3.7596   3.7710   3.7777   3.7813   3.7922   3.8082   3.8126
  3.8327   3.8391   3.8497   3.8667   3.8693   3.8855   3.8972   3.9202
  3.9282   3.9371   3.9607   3.9639   3.9788   3.9872   3.9997   4.0130
  4.0252   4.0356   4.0443   4.0540   4.0690   4.0829   4.0938   4.1059
  4.1213   4.1349   4.1470   4.1559   4.1673   4.1737   4.1845   4.2051
  4.2111   4.2222   4.2305   4.2421   4.2499   4.2654   4.2748   4.2824
  4.2901   4.2951   4.3262   4.3421   4.3493   4.3519   4.3588   4.3632
  4.3736   4.3857   4.4034   4.4153   4.4164   4.4306   4.4368   4.4493
  4.4572   4.4619   4.4809   4.4919   4.5141   4.5250   4.5564   4.5765
  4.5888   4.5940   4.6106   4.6333   4.6365   4.6404   4.6741   4.6959
  4.7109   4.7240   4.7493   4.7765   4.7850   4.8129   4.8161   4.8250
  4.8512   4.8656   4.8884   4.9041   4.9264   4.9450   4.9713   4.9775
  5.0373   5.0672   5.0871   5.0985   5.1147   5.1241   5.1554   5.1842
  5.1992   5.2185   5.2497   5.2637   5.2868   5.2924   5.3056   5.3308
  5.3544   5.3642   5.3754   5.3935   5.4102   5.4137   5.4402   5.4571
  5.4750   5.5114   5.5213   5.5435   5.5537   5.5577   5.5684   5.5896
  5.6195   5.6351   5.6486   5.6683   5.6794   5.6998   5.7032   5.7347
  5.7603   5.7920   5.8469   5.9897   6.0062   6.1136   6.1430   6.1511
  6.2198   6.2282   6.2399   6.2459   6.2700   6.2842   6.3030   6.3269
  6.4197   6.4937   9.5608  10.8122  12.0749  12.9814  13.1841  13.9607
 14.1235  14.2805  14.4012  14.7726
 --------------------------------------------------------------
 
          Ground-State Mulliken Net Atomic Charges

     Atom                 Charge (a.u.)
  ----------------------------------------
      1 C                    -0.073855
      2 C                    -0.322305
      3 C                    -0.046143
      4 H                     0.179127
      5 C                     0.142349
      6 S                    -0.184111
      7 C                    -0.309959
      8 H                     0.121976
      9 H                     0.113111
     10 H                     0.114423
     11 C                    -0.022728
     12 C                    -0.331717
     13 C                     0.058154
     14 H                     0.177638
     15 C                    -0.280422
     16 S                     0.012104
     17 C                    -0.271561
     18 H                     0.102663
     19 H                     0.108090
     20 H                     0.108882
     21 H                     0.195190
     22 H                     0.113399
     23 H                     0.111386
     24 H                     0.184307
  ----------------------------------------
  Sum of atomic charges =     0.000000

 -----------------------------------------------------------------
                    Cartesian Multipole Moments
 -----------------------------------------------------------------
    Charge (ESU x 10^10)
                -0.0000
    Dipole Moment (Debye)
         X      -0.9410      Y      -0.3993      Z      -0.8495
       Tot       1.3291
    Quadrupole Moments (Debye-Ang)
        XX     -91.2181     XY       4.5373     YY     -73.8341
        XZ       0.1207     YZ       4.3777     ZZ     -85.4181
    Octopole Moments (Debye-Ang^2)
       XXX     -54.9735    XXY      49.0923    XYY     -10.8425
       YYY     118.5251    XXZ       0.2682    XYZ      -0.7904
       YYZ      -0.9550    XZZ     -17.7159    YZZ      50.6138
       ZZZ      -3.4328
    Hexadecapole Moments (Debye-Ang^3)
      XXXX    -222.7309   XXXY    -128.1945   XXYY    -549.0820
      XYYY     -95.5841   YYYY   -2716.8696   XXXZ     -75.3970
      XXYZ     -31.4751   XYYZ     -23.8591   YYYZ    -105.1799
      XXZZ    -228.4793   XYZZ     -27.6114   YYZZ    -646.4514
      XZZZ     -72.6090   YZZZ     -58.9448   ZZZZ   -1077.4744
 -----------------------------------------------------------------
 Total job time:  662.94s(wall), 654.93s(cpu) 
 Sun Jul 10 06:14:25 2022

        *************************************************************
        *                                                           *
        *  Thank you very much for using Q-Chem.  Have a nice day.  *
        *                                                           *
        *************************************************************


remove work dirs ./qchem1711567.0 -- ./qchem1711567.-1
rm -rf ./qchem1711567
