You are running Q-Chem version: 5.4.0

#
# job setting
#
local host:  exp-2-30
current dir: /expanse/lustre/scratch/theleonzhang/temp_project/Hydrogenated_Rotation_Test
input file:  Methylthiophene_Phi_30_Theta_80_Methylthiophene_Hydrogenated_Alternate.qcin
output file: 
nprocs     : 0
nthreads   : 1
#
# qchem installation setting
#
QC:          /cm/shared/apps/spack/cpu/opt/spack/linux-centos8-zen2/gcc-10.2.0/qchem-5.4-akfmr7b3t57bfs6qan3padb2wnb2i7cl
QCAUX:       /cm/shared/apps/spack/cpu/opt/spack/linux-centos8-zen2/gcc-10.2.0/qchem-5.4-akfmr7b3t57bfs6qan3padb2wnb2i7cl/qcaux
QCPROG:      /cm/shared/apps/spack/cpu/opt/spack/linux-centos8-zen2/gcc-10.2.0/qchem-5.4-akfmr7b3t57bfs6qan3padb2wnb2i7cl/exe/qcprog.exe_s
QCPROG_S:    /cm/shared/apps/spack/cpu/opt/spack/linux-centos8-zen2/gcc-10.2.0/qchem-5.4-akfmr7b3t57bfs6qan3padb2wnb2i7cl/exe/qcprog.exe_s
PARALLEL:    -DSERIAL
QCMPI:       mpich
#
# qchem directory setting
#
qcrun:       qchem251554
QCSCRATCH:   .
QCLOCALSCR:  
QCTMPDIR:    .
QCFILEPREF:  ./qchem251554
QCSAVEDIR:   
workdirs:    ./qchem251554
workdir0:    ./qchem251554
partmpdirs =  
#
# parallel setting
#
QCRSH:           ssh
QCMPI:           mpich
QCMPIRUN:        /cm/shared/apps/spack/cpu/opt/spack/linux-centos8-zen2/gcc-10.2.0/qchem-5.4-akfmr7b3t57bfs6qan3padb2wnb2i7cl/bin/mpi/mpirun_qchem
QCMACHINEFILE:   ./qchem251554/hostfile

#
# env setting
#
exported envs:   QC QCAUX QCSCRATCH QCRUNNAME QCFILEPREF QCPROG QCPROG_S GUIFILE

Running Job 1 of 1 Methylthiophene_Phi_30_Theta_80_Methylthiophene_Hydrogenated_Alternate.qcin
qchem Methylthiophene_Phi_30_Theta_80_Methylthiophene_Hydrogenated_Alternate.qcin_251554.0 ./qchem251554/ 0
/cm/shared/apps/spack/cpu/opt/spack/linux-centos8-zen2/gcc-10.2.0/qchem-5.4-akfmr7b3t57bfs6qan3padb2wnb2i7cl/exe/qcprog.exe_s Methylthiophene_Phi_30_Theta_80_Methylthiophene_Hydrogenated_Alternate.qcin_251554.0 ./qchem251554/
                  Welcome to Q-Chem
     A Quantum Leap Into The Future Of Chemistry


 Q-Chem 5.4, Q-Chem, Inc., Pleasanton, CA (2021)

 License issued to: University of California, San Diego (site)

 E. Epifanovsky,  A. T. B. Gilbert,  Xintian Feng,  Joonho Lee,  Yuezhi Mao,  
 N. Mardirossian,  P. Pokhilko,  A. White,  M. Wormit,  M. P. Coons,  
 A. L. Dempwolff,  Zhengting Gan,  D. Hait,  P. R. Horn,  L. D. Jacobson,  
 I. Kaliman,  J. Kussmann,  A. W. Lange,  Ka Un Lao,  D. S. Levine,  Jie Liu,  
 S. C. McKenzie,  A. F. Morrison,  K. Nanda,  F. Plasser,  D. R. Rehn,  
 M. L. Vidal,  Zhi-Qiang You,  Ying Zhu,  B. Alam,  B. Albrecht,  
 A. Aldossary,  E. Alguire,  J. H. Andersen,  D. Barton,  K. Begam,  A. Behn,  
 Y. A. Bernard,  E. J. Berquist,  H. Burton,  A. Carreras,  K. Carter-Fenk,  
 R. Chakraborty,  A. D. Chien,  K. D. Closser,  V. Cofer-Shabica,  
 S. Dasgupta,  Jia Deng,  M. de Wergifosse,  M. Diedenhofen,  Hainam Do,  
 S. Ehlert,  Po-Tung Fang,  S. Fatehi,  Qingguo Feng,  J. Gayvert,  
 Qinghui Ge,  G. Gidofalvi,  M. Goldey,  J. Gomes,  C. Gonzalez-Espinoza,  
 S. Gulania,  A. Gunina,  M. W. D. Hanson-Heine,  P. H. P. Harbach,  
 A. W. Hauser,  M. F. Herbst,  M. Hernandez Vera,  M. Hodecker,  
 Z. C. Holden,  S. Houck,  Xunkun Huang,  Kerwin Hui,  B. C. Huynh,  
 M. Ivanov,  Hyunjun Ji,  Hanjie Jiang,  B. Kaduk,  S. Kaehler,  
 K. Khistyaev,  Jaehoon Kim,  P. Klunzinger,  Z. Koczor-Benda,  
 Joong Hoon Koh,  D. Kosenkov,  L. Koulias,  T. Kowalczyk,  C. M. Krauter,  
 K. Kue,  A. Kunitsa,  T. Kus,  A. Landau,  K. V. Lawler,  D. Lefrancois,  
 S. Lehtola,  Rain Li,  Yi-Pei Li,  Jiashu Liang,  M. Liebenthal,  
 Hung-Hsuan Lin,  You-Sheng Lin,  Fenglai Liu,  Kuan-Yu Liu,  
 M. Loipersberger,  A. Luenser,  A. Manjanath,  P. Manohar,  E. Mansoor,  
 S. F. Manzer,  Shan-Ping Mao,  A. V. Marenich,  T. Markovich,  S. Mason,  
 S. A. Maurer,  P. F. McLaughlin,  M. F. S. J. Menger,  J.-M. Mewes,  
 S. A. Mewes,  P. Morgante,  J. W. Mullinax,  T. S. Nguyen-Beck,  
 K. J. Oosterbaan,  G. Paran,  Alexander C. Paul,  Suranjan K. Paul,  
 F. Pavosevic,  Zheng Pei,  S. Prager,  E. I. Proynov,  E. Ramos,  B. Rana,  
 A. E. Rask,  A. Rettig,  R. M. Richard,  F. Rob,  E. Rossomme,  T. Scheele,  
 M. Scheurer,  M. Schneider,  N. Sergueev,  S. M. Sharada,  W. Skomorowski,  
 D. W. Small,  C. J. Stein,  Yu-Chuan Su,  E. J. Sundstrom,  Zhen Tao,  
 J. Thirman,  T. Tsuchimochi,  N. M. Tubman,  S. P. Veccham,  O. Vydrov,  
 J. Wenzel,  J. Witte,  A. Yamada,  Kun Yao,  S. Yeganeh,  S. R. Yost,  
 A. Zech,  Igor Ying Zhang,  Xing Zhang,  Yu Zhang,  D. Zuev,  
 A. Aspuru-Guzik,  A. T. Bell,  N. A. Besley,  K. B. Bravaya,  B. R. Brooks,  
 D. Casanova,  Jeng-Da Chai,  S. Coriani,  C. J. Cramer,  
 A. E. DePrince, III,  R. A. DiStasio Jr.,  A. Dreuw,  B. D. Dunietz,  
 T. R. Furlani,  W. A. Goddard III,  S. Grimme,  S. Hammes-Schiffer,  
 T. Head-Gordon,  W. J. Hehre,  Chao-Ping Hsu,  T.-C. Jagau,  Yousung Jung,  
 A. Klamt,  Jing Kong,  D. S. Lambrecht,  WanZhen Liang,  N. J. Mayhall,  
 C. W. McCurdy,  J. B. Neaton,  C. Ochsenfeld,  J. A. Parkhill,  R. Peverati,  
 V. A. Rassolov,  Yihan Shao,  L. V. Slipchenko,  T. Stauch,  R. P. Steele,  
 J. E. Subotnik,  A. J. W. Thom,  A. Tkatchenko,  D. G. Truhlar,  
 T. Van Voorhis,  T. A. Wesolowski,  K. B. Whaley,  H. L. Woodcock III,  
 P. M. Zimmerman,  S. Faraji,  P. M. W. Gill,  M. Head-Gordon,  
 J. M. Herbert,  A. I. Krylov

 Contributors to earlier versions of Q-Chem not listed above: 
 R. D. Adamson,  B. Austin,  R. Baer,  J. Baker,  G. J. O. Beran,  
 K. Brandhorst,  S. T. Brown,  E. F. C. Byrd,  A. K. Chakraborty,  
 G. K. L. Chan,  Chun-Min Chang,  Yunqing Chen,  C.-L. Cheng,  
 Siu Hung Chien,  D. M. Chipman,  D. L. Crittenden,  H. Dachsel,  
 R. J. Doerksen,  A. D. Dutoi,  R. G. Edgar,  J. Fosso-Tande,  
 L. Fusti-Molnar,  D. Ghosh,  A. Ghysels,  A. Golubeva-Zadorozhnaya,  
 J. Gonthier,  M. S. Gordon,  S. R. Gwaltney,  G. Hawkins,  J. E. Herr,  
 A. Heyden,  S. Hirata,  E. G. Hohenstein,  G. Kedziora,  F. J. Keil,  
 C. Kelley,  Jihan Kim,  R. A. King,  R. Z. Khaliullin,  P. P. Korambath,  
 W. Kurlancheek,  A. Laurent,  A. M. Lee,  M. S. Lee,  S. V. Levchenko,  
 Ching Yeh Lin,  D. Liotard,  E. Livshits,  R. C. Lochan,  I. Lotan,  
 L. A. Martinez-Martinez,  P. E. Maslen,  N. Nair,  D. P. O'Neill,  
 D. Neuhauser,  E. Neuscamman,  C. M. Oana,  R. Olivares-Amaya,  R. Olson,  
 T. M. Perrine,  B. Peters,  P. A. Pieniazek,  A. Prociuk,  Y. M. Rhee,  
 J. Ritchie,  M. A. Rohrdanz,  E. Rosta,  N. J. Russ,  H. F. Schaefer III,  
 M. W. Schmidt,  N. E. Schultz,  S. Sharma,  N. Shenvi,  C. D. Sherrill,  
 A. C. Simmonett,  A. Sodt,  T. Stein,  D. Stuck,  K. S. Thanthiriwatte,  
 V. Vanovschi,  L. Vogt,  Tao Wang,  A. Warshel,  M. A. Watson,  
 C. F. Williams,  Q. Wu,  X. Xu,  Jun Yang,  W. Zhang,  Yan Zhao

 Please cite Q-Chem as follows:
 Y. Shao et al., Mol. Phys. 113, 184-215 (2015)
 DOI: 10.1080/00268976.2014.952696

 Q-Chem 5.4.0 for Intel X86 EM64T Linux

 Parts of Q-Chem use Armadillo 9.800.1 (Horizon Scraper).
 http://arma.sourceforge.net/

 Q-Chem begins on Sun Jul 10 01:37:26 2022  

 Host: 
0

     Scratch files written to ./qchem251554//
 May1621 |scratch|qcdevops|jenkins|workspace|build_RNUM    
 Processing $rem in /cm/shared/apps/spack/cpu/opt/spack/linux-centos8-zen2/gcc-10.2.0/qchem-5.4-akfmr7b3t57bfs6qan3padb2wnb2i7cl/config/preferences:
 Processing $rem in /home/theleonzhang/.qchemrc:
 Symmetry turned off for PCM/SM12/SMD calculation
 Core orbitals will be frozen

 Checking the input file for inconsistencies... 	...done.

--------------------------------------------------------------
User input:
--------------------------------------------------------------
$molecule
0 1
C	-0.763475	-3.866725	0.133897
C	0.603206	-3.703963	-0.106669
C	1.050446	-2.357056	-0.185154
H	1.283024	-4.561092	-0.226709
C	-0.000000	-1.440664	-0.000000
S	-1.521018	-2.286957	0.268206
C	2.483610	-1.978743	-0.437628
H	3.118875	-2.878678	-0.549717
H	2.903464	-1.376015	0.394664
H	2.593726	-1.375728	-1.363110
C	0.000000	0.000000	0.000000
C	0.431829	0.747884	1.099446
C	1.123799	1.946373	0.776721
H	0.247423	0.428497	2.136088
C	1.234147	2.137457	-0.612546
S	0.471221	0.816130	-1.486809
C	1.667694	2.888380	1.814609
H	1.454874	2.519768	2.836676
H	1.222009	3.901210	1.726239
H	2.767675	3.008788	1.726228
H	1.708773	2.959493	-1.161575
H	-0.946698	-4.392713	1.077442
H	-1.258274	-4.392347	-0.690363
H	-0.187427	-1.440391	-1.063612
$end

$rem
JOBTYPE		SP
EXCHANGE	HF
CORRELATION	pRIMP2
BASIS		cc-pvtz
METHOD		rimp2
AUX_BASIS	rimp2-cc-pvtz
SOLVENT_METHOD	PCM
PURECART	11111
SYMMETRY	false
MEM_TOTAL	110000
SCF_CONVERGENCE = 6
THRESH=10
$end



$solvent
dielectric 4.90
$end
--------------------------------------------------------------
 ----------------------------------------------------------------
             Standard Nuclear Orientation (Angstroms)
    I     Atom           X                Y                Z
 ----------------------------------------------------------------
    1      C      -0.7634750000    -3.8667250000     0.1338970000
    2      C       0.6032060000    -3.7039630000    -0.1066690000
    3      C       1.0504460000    -2.3570560000    -0.1851540000
    4      H       1.2830240000    -4.5610920000    -0.2267090000
    5      C       0.0000000000    -1.4406640000     0.0000000000
    6      S      -1.5210180000    -2.2869570000     0.2682060000
    7      C       2.4836100000    -1.9787430000    -0.4376280000
    8      H       3.1188750000    -2.8786780000    -0.5497170000
    9      H       2.9034640000    -1.3760150000     0.3946640000
   10      H       2.5937260000    -1.3757280000    -1.3631100000
   11      C       0.0000000000     0.0000000000     0.0000000000
   12      C       0.4318290000     0.7478840000     1.0994460000
   13      C       1.1237990000     1.9463730000     0.7767210000
   14      H       0.2474230000     0.4284970000     2.1360880000
   15      C       1.2341470000     2.1374570000    -0.6125460000
   16      S       0.4712210000     0.8161300000    -1.4868090000
   17      C       1.6676940000     2.8883800000     1.8146090000
   18      H       1.4548740000     2.5197680000     2.8366760000
   19      H       1.2220090000     3.9012100000     1.7262390000
   20      H       2.7676750000     3.0087880000     1.7262280000
   21      H       1.7087730000     2.9594930000    -1.1615750000
   22      H      -0.9466980000    -4.3927130000     1.0774420000
   23      H      -1.2582740000    -4.3923470000    -0.6903630000
   24      H      -0.1874270000    -1.4403910000    -1.0636120000
 ----------------------------------------------------------------
 Nuclear Repulsion Energy =         879.88938962 hartrees
 There are       52 alpha and       52 beta electrons

 Q-Chem warning in module forms1/BasisType.C, line 2236:

 You are not using the predefined 5D/6D in this basis set.

 Requested basis set is cc-pVTZ
 There are 196 shells and 536 basis functions

 Total QAlloc Memory Limit 110000 MB
 Mega-Array Size       188 MB
 MEM_STATIC part       192 MB
 Discretize the solute cavity surface with Lebedev spheres
	Using 110 Lebedev grid points for each H atom
	Using 194 Lebedev grid points for other atoms
	Atomic van der Waals radii will be scaled by 1.20
 Remove points where switching function is < 1.0e-08
 Keep 1602 surface tesserae and discard 2046 interior tesserae
 Molecular Surface Area = 235.446 Angst**2
 Requested basis set is rimp2-cc-pVTZ
 There are 414 shells and 1414 basis functions
 A cutoff of  1.0D-10 yielded  14268 shell pairs
 There are    103522 function pairs (    132765 Cartesian)
 Smallest overlap matrix eigenvalue = 6.46E-05

 Scale SEOQF with 1.000000e-01/1.000000e-01/1.000000e-01

 Standard Electronic Orientation quadrupole field applied
 Nucleus-field energy     =     0.0000000352 hartrees
 Guess from superposition of atomic densities
 Warning:  Energy on first SCF cycle will be non-variational
 SAD guess density has 104.000000 electrons

 -----------------------------------------------------------------------
  General SCF calculation program by
  Eric Jon Sundstrom, Paul Horn, Yuezhi Mao, Dmitri Zuev, Alec White,
  David Stuck, Shaama M.S., Shane Yost, Joonho Lee, David Small,
  Daniel Levine, Susi Lehtola, Hugh Burton, Evgeny Epifanovsky,
  Bang C. Huynh
 -----------------------------------------------------------------------
 Hartree-Fock
 A restricted SCF calculation will be
 performed using DIIS
 SCF converges when DIIS error is below 1.0e-06
 ---------------------------------------
  Cycle       Energy         DIIS error
 ---------------------------------------
    1   -1186.0488684701      2.39e-02  
    2   -1180.5967552844      1.55e-03  
    3   -1180.7219910560      5.81e-04  
    4   -1180.7356903829      3.16e-04  
    5   -1180.7402986414      6.24e-05  
    6   -1180.7405607131      2.54e-05  
    7   -1180.7406277982      1.03e-05  
    8   -1180.7406448601      4.83e-06  
    9   -1180.7406491315      1.77e-06  
   10   -1180.7406497986      5.88e-07  Convergence criterion met
 ---------------------------------------
 SCF time:   CPU 582.02s  wall 585.00s 

************** Final PCM Free Energy Summary **************
 G_electrostatic  =      -0.00863457 hartree =      -5.41827757 kcal/mol
 G_cavitation     =       0.00000000 hartree =       0.00000000 kcal/mol
 G_dispersion     =       0.00000000 hartree =       0.00000000 kcal/mol
 G_repulsion      =       0.00000000 hartree =       0.00000000 kcal/mol
 --------------------------------------------------
 Non-electrostatic Free Energy =       0.00000000 hartree =       0.00000000 kcal/mol
 Total                         =      -0.00863457 hartree =      -5.41827757 kcal/mol
 --------------------------------------------------
 SCF Energy (H0 + V/2)                       =   -1180.74064980 
 Solute Internal Energy (H0)                 =   -1180.73201522 
 Total Free Energy (H0 + V/2 + non-elec)     =   -1180.74064980 hartree
                                             = -740925.94054334 kcal/mol
***********************************************************

 SCF   energy in the final basis set =    -1180.7406497986
 Total energy in the final basis set =    -1180.7406497986


 --------------------------------------------------------------
  Generalized many-body perturbation theory program
  by Joonho Lee, Fazle Rob, Xintian Feng, Evgeny Epifanovsky

 No regularization used 
 (reg. param. = 0.0000e+00)
  (P|Q)^-1/2 Time:  CPU 1.90 s  wall 1.90 s

 In RI-MP2 calculation: 
 # of frozen core orbitals: 20

 Components of the RIMP2 correlation energy:
        aaaa    correlation energy =        -0.2520226816 a.u.
        abab    correlation energy =        -1.5058872681 a.u.
        bbbb    correlation energy =        -0.2520226816 a.u.
        non-Brillouin singles      =        -0.0000000000 a.u.
        total same-spin energy     =        -0.5040453632 a.u.
        total opposite-spin energy =        -1.5058872681 a.u.

 Total  RIMP2   correlation energy =        -2.0099326313 a.u.
        RIMP2         total energy =     -1182.7505824300 a.u.

 RI-MP2 Energy Time:  CPU 80.17 s  wall 80.46 s
 
 --------------------------------------------------------------
 
                    Orbital Energies (a.u.)
 --------------------------------------------------------------
 
 Alpha MOs
 -- Occupied --
-91.9860 -91.9379 -11.2721 -11.2710 -11.2612 -11.2528 -11.2519 -11.2441
-11.2386 -11.2296 -11.2296 -11.2174  -8.9859  -8.9426  -6.6667  -6.6661
 -6.6656  -6.6240  -6.6230  -6.6217  -1.1985  -1.1541  -1.0586  -1.0237
 -1.0037  -0.9638  -0.9120  -0.9008  -0.8092  -0.7648  -0.7405  -0.7059
 -0.6520  -0.6316  -0.6118  -0.5871  -0.5759  -0.5743  -0.5706  -0.5533
 -0.5425  -0.5276  -0.5178  -0.5038  -0.4909  -0.4730  -0.4634  -0.4447
 -0.3534  -0.3432  -0.3138  -0.2786
 -- Virtual --
  0.0832   0.1307   0.1378   0.1537   0.1609   0.1646   0.1794   0.1849
  0.1859   0.1922   0.2032   0.2087   0.2292   0.2352   0.2412   0.2470
  0.2508   0.2584   0.2678   0.2883   0.2984   0.3311   0.3451   0.3525
  0.3622   0.3725   0.3802   0.3869   0.3922   0.4019   0.4148   0.4204
  0.4366   0.4428   0.4551   0.4615   0.4634   0.4710   0.4797   0.4993
  0.5036   0.5117   0.5148   0.5261   0.5415   0.5458   0.5558   0.5577
  0.5632   0.5761   0.5805   0.5927   0.6027   0.6074   0.6102   0.6169
  0.6238   0.6249   0.6354   0.6399   0.6415   0.6493   0.6543   0.6565
  0.6627   0.6682   0.6792   0.6885   0.6966   0.7022   0.7158   0.7313
  0.7345   0.7397   0.7527   0.7588   0.7894   0.7931   0.8000   0.8182
  0.8329   0.8400   0.8509   0.8539   0.8768   0.8845   0.8942   0.9035
  0.9295   0.9376   0.9431   0.9603   0.9723   0.9958   1.0050   1.0199
  1.0233   1.0269   1.0307   1.0400   1.0524   1.0551   1.0677   1.0797
  1.0881   1.0955   1.1068   1.1149   1.1283   1.1581   1.1643   1.1712
  1.1806   1.1925   1.2007   1.2106   1.2210   1.2271   1.2361   1.2399
  1.2484   1.2582   1.2609   1.2682   1.2799   1.2875   1.2991   1.3122
  1.3169   1.3270   1.3354   1.3616   1.3837   1.3915   1.4084   1.4178
  1.4210   1.4304   1.4450   1.4584   1.4733   1.4749   1.4873   1.4956
  1.5066   1.5113   1.5233   1.5312   1.5344   1.5392   1.5524   1.5548
  1.5590   1.5795   1.5881   1.5913   1.6158   1.6276   1.6346   1.6427
  1.6623   1.6719   1.6767   1.6904   1.6980   1.7071   1.7181   1.7299
  1.7500   1.7575   1.7601   1.7883   1.7993   1.8273   1.8581   1.8735
  1.8869   1.8941   1.9337   1.9445   1.9505   1.9567   1.9744   1.9928
  2.0113   2.0236   2.0473   2.0756   2.0936   2.1247   2.1392   2.1648
  2.1721   2.1854   2.2050   2.2224   2.2334   2.2442   2.2596   2.2840
  2.2969   2.3146   2.3369   2.3689   2.3976   2.4144   2.4554   2.4659
  2.5007   2.5046   2.5280   2.5503   2.5629   2.5852   2.6040   2.6183
  2.6424   2.6549   2.6594   2.6697   2.6729   2.6845   2.7071   2.7245
  2.7374   2.7482   2.7597   2.7730   2.7800   2.7922   2.7957   2.8141
  2.8383   2.8474   2.8605   2.8855   2.8966   2.9077   2.9090   2.9308
  2.9478   2.9654   2.9777   2.9805   2.9901   3.0138   3.0284   3.0429
  3.0650   3.0758   3.0884   3.1050   3.1115   3.1155   3.1226   3.1440
  3.1518   3.1548   3.1668   3.1737   3.1798   3.1907   3.2135   3.2203
  3.2367   3.2423   3.2546   3.2683   3.2769   3.2868   3.2950   3.3039
  3.3228   3.3245   3.3293   3.3348   3.3444   3.3502   3.3651   3.3705
  3.3749   3.3869   3.3918   3.3959   3.4041   3.4130   3.4205   3.4293
  3.4452   3.4562   3.4656   3.4703   3.4781   3.4909   3.4977   3.5099
  3.5169   3.5312   3.5360   3.5365   3.5483   3.5575   3.5657   3.5730
  3.6046   3.6136   3.6221   3.6252   3.6280   3.6360   3.6497   3.6591
  3.6607   3.6939   3.6945   3.7056   3.7221   3.7237   3.7337   3.7365
  3.7473   3.7643   3.7694   3.7739   3.7763   3.7997   3.8064   3.8280
  3.8420   3.8463   3.8583   3.8624   3.8751   3.8838   3.9063   3.9164
  3.9265   3.9381   3.9581   3.9690   3.9772   3.9838   3.9993   4.0108
  4.0204   4.0440   4.0512   4.0598   4.0917   4.0956   4.0975   4.1058
  4.1194   4.1408   4.1531   4.1578   4.1652   4.1784   4.1819   4.1991
  4.2088   4.2248   4.2313   4.2434   4.2530   4.2634   4.2712   4.2846
  4.2882   4.2990   4.3146   4.3297   4.3453   4.3487   4.3567   4.3773
  4.3817   4.3859   4.3988   4.4014   4.4124   4.4249   4.4459   4.4549
  4.4611   4.4666   4.4747   4.4855   4.4899   4.5208   4.5338   4.5481
  4.5748   4.5796   4.6075   4.6198   4.6251   4.6499   4.6541   4.6684
  4.6888   4.7033   4.7407   4.7524   4.7714   4.8028   4.8105   4.8457
  4.8720   4.8868   4.8961   4.9116   4.9368   4.9461   4.9776   4.9890
  5.0300   5.0427   5.0731   5.1039   5.1168   5.1305   5.1381   5.1674
  5.1794   5.2161   5.2303   5.2611   5.2863   5.2948   5.3118   5.3228
  5.3437   5.3631   5.3791   5.4012   5.4168   5.4194   5.4453   5.4591
  5.4642   5.5186   5.5241   5.5316   5.5528   5.5589   5.5633   5.5858
  5.6211   5.6240   5.6268   5.6652   5.6852   5.6966   5.7031   5.7420
  5.7648   5.7881   5.8255   5.9785   5.9901   6.0734   6.1099   6.1410
  6.2013   6.2215   6.2259   6.2394   6.2492   6.2928   6.2954   6.3104
  6.3957   6.4529   9.4241  10.3300  12.2419  12.8751  13.1611  13.9601
 14.0733  14.2237  14.3477  14.7395
 --------------------------------------------------------------
 
          Ground-State Mulliken Net Atomic Charges

     Atom                 Charge (a.u.)
  ----------------------------------------
      1 C                    -0.074431
      2 C                    -0.332077
      3 C                    -0.018390
      4 H                     0.175332
      5 C                     0.071936
      6 S                    -0.187353
      7 C                    -0.272217
      8 H                     0.115550
      9 H                     0.107623
     10 H                     0.104910
     11 C                    -0.087636
     12 C                    -0.232886
     13 C                     0.031319
     14 H                     0.186202
     15 C                    -0.230171
     16 S                     0.011871
     17 C                    -0.270272
     18 H                     0.103380
     19 H                     0.108110
     20 H                     0.106605
     21 H                     0.199926
     22 H                     0.110330
     23 H                     0.107927
     24 H                     0.164412
  ----------------------------------------
  Sum of atomic charges =     0.000000

 -----------------------------------------------------------------
                    Cartesian Multipole Moments
 -----------------------------------------------------------------
    Charge (ESU x 10^10)
                -0.0000
    Dipole Moment (Debye)
         X       3.4715      Y       0.9806      Z       0.3433
       Tot       3.6236
    Quadrupole Moments (Debye-Ang)
        XX     -89.0639     XY       1.5035     YY     -76.8472
        XZ       0.6912     YZ       2.7739     ZZ     -85.8046
    Octopole Moments (Debye-Ang^2)
       XXX     -97.9648    XXY      60.4289    XYY     -20.8478
       YYY     146.2100    XXZ      -3.5536    XYZ      -1.4532
       YYZ      -5.5835    XZZ     -32.4475    YZZ      65.0198
       ZZZ       5.6506
    Hexadecapole Moments (Debye-Ang^3)
      XXXX    -934.5788   XXXY    -240.0080   XXYY    -593.5809
      XYYY    -177.0243   YYYY   -2604.1954   XXXZ      -1.1118
      XXYZ     -23.6538   XYYZ      -9.8440   YYYZ     -89.6179
      XXZZ    -254.2120   XYZZ     -59.1715   YYZZ    -566.9670
      XZZZ       2.7641   YZZZ     -85.3769   ZZZZ    -553.2027
 -----------------------------------------------------------------
 Total job time:  667.16s(wall), 663.09s(cpu) 
 Sun Jul 10 01:48:34 2022

        *************************************************************
        *                                                           *
        *  Thank you very much for using Q-Chem.  Have a nice day.  *
        *                                                           *
        *************************************************************


remove work dirs ./qchem251554.0 -- ./qchem251554.-1
rm -rf ./qchem251554
You are running Q-Chem version: 5.4.0

#
# job setting
#
local host:  exp-5-13
current dir: /expanse/lustre/scratch/theleonzhang/temp_project/Hydrogenated_Rotation_Test
input file:  Methylthiophene_Phi_30_Theta_80_Methylthiophene_Hydrogenated_Alternate.qcin
output file: 
nprocs     : 0
nthreads   : 1
#
# qchem installation setting
#
QC:          /cm/shared/apps/spack/cpu/opt/spack/linux-centos8-zen2/gcc-10.2.0/qchem-5.4-akfmr7b3t57bfs6qan3padb2wnb2i7cl
QCAUX:       /cm/shared/apps/spack/cpu/opt/spack/linux-centos8-zen2/gcc-10.2.0/qchem-5.4-akfmr7b3t57bfs6qan3padb2wnb2i7cl/qcaux
QCPROG:      /cm/shared/apps/spack/cpu/opt/spack/linux-centos8-zen2/gcc-10.2.0/qchem-5.4-akfmr7b3t57bfs6qan3padb2wnb2i7cl/exe/qcprog.exe_s
QCPROG_S:    /cm/shared/apps/spack/cpu/opt/spack/linux-centos8-zen2/gcc-10.2.0/qchem-5.4-akfmr7b3t57bfs6qan3padb2wnb2i7cl/exe/qcprog.exe_s
PARALLEL:    -DSERIAL
QCMPI:       mpich
#
# qchem directory setting
#
qcrun:       qchem3794988
QCSCRATCH:   .
QCLOCALSCR:  
QCTMPDIR:    .
QCFILEPREF:  ./qchem3794988
QCSAVEDIR:   
workdirs:    ./qchem3794988
workdir0:    ./qchem3794988
partmpdirs =  
#
# parallel setting
#
QCRSH:           ssh
QCMPI:           mpich
QCMPIRUN:        /cm/shared/apps/spack/cpu/opt/spack/linux-centos8-zen2/gcc-10.2.0/qchem-5.4-akfmr7b3t57bfs6qan3padb2wnb2i7cl/bin/mpi/mpirun_qchem
QCMACHINEFILE:   ./qchem3794988/hostfile

#
# env setting
#
exported envs:   QC QCAUX QCSCRATCH QCRUNNAME QCFILEPREF QCPROG QCPROG_S GUIFILE

Running Job 1 of 1 Methylthiophene_Phi_30_Theta_80_Methylthiophene_Hydrogenated_Alternate.qcin
qchem Methylthiophene_Phi_30_Theta_80_Methylthiophene_Hydrogenated_Alternate.qcin_3794988.0 ./qchem3794988/ 0
/cm/shared/apps/spack/cpu/opt/spack/linux-centos8-zen2/gcc-10.2.0/qchem-5.4-akfmr7b3t57bfs6qan3padb2wnb2i7cl/exe/qcprog.exe_s Methylthiophene_Phi_30_Theta_80_Methylthiophene_Hydrogenated_Alternate.qcin_3794988.0 ./qchem3794988/
                  Welcome to Q-Chem
     A Quantum Leap Into The Future Of Chemistry


 Q-Chem 5.4, Q-Chem, Inc., Pleasanton, CA (2021)

 License issued to: University of California, San Diego (site)

 E. Epifanovsky,  A. T. B. Gilbert,  Xintian Feng,  Joonho Lee,  Yuezhi Mao,  
 N. Mardirossian,  P. Pokhilko,  A. White,  M. Wormit,  M. P. Coons,  
 A. L. Dempwolff,  Zhengting Gan,  D. Hait,  P. R. Horn,  L. D. Jacobson,  
 I. Kaliman,  J. Kussmann,  A. W. Lange,  Ka Un Lao,  D. S. Levine,  Jie Liu,  
 S. C. McKenzie,  A. F. Morrison,  K. Nanda,  F. Plasser,  D. R. Rehn,  
 M. L. Vidal,  Zhi-Qiang You,  Ying Zhu,  B. Alam,  B. Albrecht,  
 A. Aldossary,  E. Alguire,  J. H. Andersen,  D. Barton,  K. Begam,  A. Behn,  
 Y. A. Bernard,  E. J. Berquist,  H. Burton,  A. Carreras,  K. Carter-Fenk,  
 R. Chakraborty,  A. D. Chien,  K. D. Closser,  V. Cofer-Shabica,  
 S. Dasgupta,  Jia Deng,  M. de Wergifosse,  M. Diedenhofen,  Hainam Do,  
 S. Ehlert,  Po-Tung Fang,  S. Fatehi,  Qingguo Feng,  J. Gayvert,  
 Qinghui Ge,  G. Gidofalvi,  M. Goldey,  J. Gomes,  C. Gonzalez-Espinoza,  
 S. Gulania,  A. Gunina,  M. W. D. Hanson-Heine,  P. H. P. Harbach,  
 A. W. Hauser,  M. F. Herbst,  M. Hernandez Vera,  M. Hodecker,  
 Z. C. Holden,  S. Houck,  Xunkun Huang,  Kerwin Hui,  B. C. Huynh,  
 M. Ivanov,  Hyunjun Ji,  Hanjie Jiang,  B. Kaduk,  S. Kaehler,  
 K. Khistyaev,  Jaehoon Kim,  P. Klunzinger,  Z. Koczor-Benda,  
 Joong Hoon Koh,  D. Kosenkov,  L. Koulias,  T. Kowalczyk,  C. M. Krauter,  
 K. Kue,  A. Kunitsa,  T. Kus,  A. Landau,  K. V. Lawler,  D. Lefrancois,  
 S. Lehtola,  Rain Li,  Yi-Pei Li,  Jiashu Liang,  M. Liebenthal,  
 Hung-Hsuan Lin,  You-Sheng Lin,  Fenglai Liu,  Kuan-Yu Liu,  
 M. Loipersberger,  A. Luenser,  A. Manjanath,  P. Manohar,  E. Mansoor,  
 S. F. Manzer,  Shan-Ping Mao,  A. V. Marenich,  T. Markovich,  S. Mason,  
 S. A. Maurer,  P. F. McLaughlin,  M. F. S. J. Menger,  J.-M. Mewes,  
 S. A. Mewes,  P. Morgante,  J. W. Mullinax,  T. S. Nguyen-Beck,  
 K. J. Oosterbaan,  G. Paran,  Alexander C. Paul,  Suranjan K. Paul,  
 F. Pavosevic,  Zheng Pei,  S. Prager,  E. I. Proynov,  E. Ramos,  B. Rana,  
 A. E. Rask,  A. Rettig,  R. M. Richard,  F. Rob,  E. Rossomme,  T. Scheele,  
 M. Scheurer,  M. Schneider,  N. Sergueev,  S. M. Sharada,  W. Skomorowski,  
 D. W. Small,  C. J. Stein,  Yu-Chuan Su,  E. J. Sundstrom,  Zhen Tao,  
 J. Thirman,  T. Tsuchimochi,  N. M. Tubman,  S. P. Veccham,  O. Vydrov,  
 J. Wenzel,  J. Witte,  A. Yamada,  Kun Yao,  S. Yeganeh,  S. R. Yost,  
 A. Zech,  Igor Ying Zhang,  Xing Zhang,  Yu Zhang,  D. Zuev,  
 A. Aspuru-Guzik,  A. T. Bell,  N. A. Besley,  K. B. Bravaya,  B. R. Brooks,  
 D. Casanova,  Jeng-Da Chai,  S. Coriani,  C. J. Cramer,  
 A. E. DePrince, III,  R. A. DiStasio Jr.,  A. Dreuw,  B. D. Dunietz,  
 T. R. Furlani,  W. A. Goddard III,  S. Grimme,  S. Hammes-Schiffer,  
 T. Head-Gordon,  W. J. Hehre,  Chao-Ping Hsu,  T.-C. Jagau,  Yousung Jung,  
 A. Klamt,  Jing Kong,  D. S. Lambrecht,  WanZhen Liang,  N. J. Mayhall,  
 C. W. McCurdy,  J. B. Neaton,  C. Ochsenfeld,  J. A. Parkhill,  R. Peverati,  
 V. A. Rassolov,  Yihan Shao,  L. V. Slipchenko,  T. Stauch,  R. P. Steele,  
 J. E. Subotnik,  A. J. W. Thom,  A. Tkatchenko,  D. G. Truhlar,  
 T. Van Voorhis,  T. A. Wesolowski,  K. B. Whaley,  H. L. Woodcock III,  
 P. M. Zimmerman,  S. Faraji,  P. M. W. Gill,  M. Head-Gordon,  
 J. M. Herbert,  A. I. Krylov

 Contributors to earlier versions of Q-Chem not listed above: 
 R. D. Adamson,  B. Austin,  R. Baer,  J. Baker,  G. J. O. Beran,  
 K. Brandhorst,  S. T. Brown,  E. F. C. Byrd,  A. K. Chakraborty,  
 G. K. L. Chan,  Chun-Min Chang,  Yunqing Chen,  C.-L. Cheng,  
 Siu Hung Chien,  D. M. Chipman,  D. L. Crittenden,  H. Dachsel,  
 R. J. Doerksen,  A. D. Dutoi,  R. G. Edgar,  J. Fosso-Tande,  
 L. Fusti-Molnar,  D. Ghosh,  A. Ghysels,  A. Golubeva-Zadorozhnaya,  
 J. Gonthier,  M. S. Gordon,  S. R. Gwaltney,  G. Hawkins,  J. E. Herr,  
 A. Heyden,  S. Hirata,  E. G. Hohenstein,  G. Kedziora,  F. J. Keil,  
 C. Kelley,  Jihan Kim,  R. A. King,  R. Z. Khaliullin,  P. P. Korambath,  
 W. Kurlancheek,  A. Laurent,  A. M. Lee,  M. S. Lee,  S. V. Levchenko,  
 Ching Yeh Lin,  D. Liotard,  E. Livshits,  R. C. Lochan,  I. Lotan,  
 L. A. Martinez-Martinez,  P. E. Maslen,  N. Nair,  D. P. O'Neill,  
 D. Neuhauser,  E. Neuscamman,  C. M. Oana,  R. Olivares-Amaya,  R. Olson,  
 T. M. Perrine,  B. Peters,  P. A. Pieniazek,  A. Prociuk,  Y. M. Rhee,  
 J. Ritchie,  M. A. Rohrdanz,  E. Rosta,  N. J. Russ,  H. F. Schaefer III,  
 M. W. Schmidt,  N. E. Schultz,  S. Sharma,  N. Shenvi,  C. D. Sherrill,  
 A. C. Simmonett,  A. Sodt,  T. Stein,  D. Stuck,  K. S. Thanthiriwatte,  
 V. Vanovschi,  L. Vogt,  Tao Wang,  A. Warshel,  M. A. Watson,  
 C. F. Williams,  Q. Wu,  X. Xu,  Jun Yang,  W. Zhang,  Yan Zhao

 Please cite Q-Chem as follows:
 Y. Shao et al., Mol. Phys. 113, 184-215 (2015)
 DOI: 10.1080/00268976.2014.952696

 Q-Chem 5.4.0 for Intel X86 EM64T Linux

 Parts of Q-Chem use Armadillo 9.800.1 (Horizon Scraper).
 http://arma.sourceforge.net/

 Q-Chem begins on Sun Jul 10 02:19:56 2022  

 Host: 
0

     Scratch files written to ./qchem3794988//
 May1621 |scratch|qcdevops|jenkins|workspace|build_RNUM    
 Processing $rem in /cm/shared/apps/spack/cpu/opt/spack/linux-centos8-zen2/gcc-10.2.0/qchem-5.4-akfmr7b3t57bfs6qan3padb2wnb2i7cl/config/preferences:
 Processing $rem in /home/theleonzhang/.qchemrc:
 Symmetry turned off for PCM/SM12/SMD calculation
 Core orbitals will be frozen

 Checking the input file for inconsistencies... 	...done.

--------------------------------------------------------------
User input:
--------------------------------------------------------------
$molecule
0 1
C	-0.763475	-3.866725	0.133897
C	0.603206	-3.703963	-0.106669
C	1.050446	-2.357056	-0.185154
H	1.283024	-4.561092	-0.226709
C	-0.000000	-1.440664	-0.000000
S	-1.521018	-2.286957	0.268206
C	2.483610	-1.978743	-0.437628
H	3.118875	-2.878678	-0.549717
H	2.903464	-1.376015	0.394664
H	2.593726	-1.375728	-1.363110
C	0.000000	0.000000	0.000000
C	0.431829	0.747884	1.099446
C	1.123799	1.946373	0.776721
H	0.247423	0.428497	2.136088
C	1.234147	2.137457	-0.612546
S	0.471221	0.816130	-1.486809
C	1.667694	2.888380	1.814609
H	1.454874	2.519768	2.836676
H	1.222009	3.901210	1.726239
H	2.767675	3.008788	1.726228
H	1.708773	2.959493	-1.161575
H	-0.946698	-4.392713	1.077442
H	-1.258274	-4.392347	-0.690363
H	-0.187427	-1.440391	-1.063612
$end

$rem
JOBTYPE		SP
EXCHANGE	HF
CORRELATION	pRIMP2
BASIS		cc-pvtz
METHOD		rimp2
AUX_BASIS	rimp2-cc-pvtz
SOLVENT_METHOD	PCM
PURECART	11111
SYMMETRY	false
MEM_TOTAL	110000
SCF_CONVERGENCE = 6
THRESH=10
$end



$solvent
dielectric 4.90
$end
--------------------------------------------------------------
 ----------------------------------------------------------------
             Standard Nuclear Orientation (Angstroms)
    I     Atom           X                Y                Z
 ----------------------------------------------------------------
    1      C      -0.7634750000    -3.8667250000     0.1338970000
    2      C       0.6032060000    -3.7039630000    -0.1066690000
    3      C       1.0504460000    -2.3570560000    -0.1851540000
    4      H       1.2830240000    -4.5610920000    -0.2267090000
    5      C       0.0000000000    -1.4406640000     0.0000000000
    6      S      -1.5210180000    -2.2869570000     0.2682060000
    7      C       2.4836100000    -1.9787430000    -0.4376280000
    8      H       3.1188750000    -2.8786780000    -0.5497170000
    9      H       2.9034640000    -1.3760150000     0.3946640000
   10      H       2.5937260000    -1.3757280000    -1.3631100000
   11      C       0.0000000000     0.0000000000     0.0000000000
   12      C       0.4318290000     0.7478840000     1.0994460000
   13      C       1.1237990000     1.9463730000     0.7767210000
   14      H       0.2474230000     0.4284970000     2.1360880000
   15      C       1.2341470000     2.1374570000    -0.6125460000
   16      S       0.4712210000     0.8161300000    -1.4868090000
   17      C       1.6676940000     2.8883800000     1.8146090000
   18      H       1.4548740000     2.5197680000     2.8366760000
   19      H       1.2220090000     3.9012100000     1.7262390000
   20      H       2.7676750000     3.0087880000     1.7262280000
   21      H       1.7087730000     2.9594930000    -1.1615750000
   22      H      -0.9466980000    -4.3927130000     1.0774420000
   23      H      -1.2582740000    -4.3923470000    -0.6903630000
   24      H      -0.1874270000    -1.4403910000    -1.0636120000
 ----------------------------------------------------------------
 Nuclear Repulsion Energy =         879.88938962 hartrees
 There are       52 alpha and       52 beta electrons

 Q-Chem warning in module forms1/BasisType.C, line 2236:

 You are not using the predefined 5D/6D in this basis set.

 Requested basis set is cc-pVTZ
 There are 196 shells and 536 basis functions

 Total QAlloc Memory Limit 110000 MB
 Mega-Array Size       188 MB
 MEM_STATIC part       192 MB
 Discretize the solute cavity surface with Lebedev spheres
	Using 110 Lebedev grid points for each H atom
	Using 194 Lebedev grid points for other atoms
	Atomic van der Waals radii will be scaled by 1.20
 Remove points where switching function is < 1.0e-08
 Keep 1602 surface tesserae and discard 2046 interior tesserae
 Molecular Surface Area = 235.446 Angst**2
 Requested basis set is rimp2-cc-pVTZ
 There are 414 shells and 1414 basis functions
 A cutoff of  1.0D-10 yielded  14268 shell pairs
 There are    103522 function pairs (    132765 Cartesian)
 Smallest overlap matrix eigenvalue = 6.46E-05

 Scale SEOQF with 1.000000e-01/1.000000e-01/1.000000e-01

 Standard Electronic Orientation quadrupole field applied
 Nucleus-field energy     =     0.0000000352 hartrees
 Guess from superposition of atomic densities
 Warning:  Energy on first SCF cycle will be non-variational
 SAD guess density has 104.000000 electrons

 -----------------------------------------------------------------------
  General SCF calculation program by
  Eric Jon Sundstrom, Paul Horn, Yuezhi Mao, Dmitri Zuev, Alec White,
  David Stuck, Shaama M.S., Shane Yost, Joonho Lee, David Small,
  Daniel Levine, Susi Lehtola, Hugh Burton, Evgeny Epifanovsky,
  Bang C. Huynh
 -----------------------------------------------------------------------
 Hartree-Fock
 A restricted SCF calculation will be
 performed using DIIS
 SCF converges when DIIS error is below 1.0e-06
 ---------------------------------------
  Cycle       Energy         DIIS error
 ---------------------------------------
    1   -1186.0488684701      2.39e-02  
    2   -1180.5967552844      1.55e-03  
    3   -1180.7219910560      5.81e-04  
    4   -1180.7356903829      3.16e-04  
    5   -1180.7402986414      6.24e-05  
    6   -1180.7405607131      2.54e-05  
    7   -1180.7406277982      1.03e-05  
    8   -1180.7406448601      4.83e-06  
    9   -1180.7406491315      1.77e-06  
   10   -1180.7406497986      5.88e-07  Convergence criterion met
 ---------------------------------------
 SCF time:   CPU 580.37s  wall 582.00s 

************** Final PCM Free Energy Summary **************
 G_electrostatic  =      -0.00863457 hartree =      -5.41827757 kcal/mol
 G_cavitation     =       0.00000000 hartree =       0.00000000 kcal/mol
 G_dispersion     =       0.00000000 hartree =       0.00000000 kcal/mol
 G_repulsion      =       0.00000000 hartree =       0.00000000 kcal/mol
 --------------------------------------------------
 Non-electrostatic Free Energy =       0.00000000 hartree =       0.00000000 kcal/mol
 Total                         =      -0.00863457 hartree =      -5.41827757 kcal/mol
 --------------------------------------------------
 SCF Energy (H0 + V/2)                       =   -1180.74064980 
 Solute Internal Energy (H0)                 =   -1180.73201522 
 Total Free Energy (H0 + V/2 + non-elec)     =   -1180.74064980 hartree
                                             = -740925.94054334 kcal/mol
***********************************************************

 SCF   energy in the final basis set =    -1180.7406497986
 Total energy in the final basis set =    -1180.7406497986


 --------------------------------------------------------------
  Generalized many-body perturbation theory program
  by Joonho Lee, Fazle Rob, Xintian Feng, Evgeny Epifanovsky

 No regularization used 
 (reg. param. = 0.0000e+00)
  (P|Q)^-1/2 Time:  CPU 1.89 s  wall 1.89 s

 In RI-MP2 calculation: 
 # of frozen core orbitals: 20

 Components of the RIMP2 correlation energy:
        aaaa    correlation energy =        -0.2520226816 a.u.
        abab    correlation energy =        -1.5058872681 a.u.
        bbbb    correlation energy =        -0.2520226816 a.u.
        non-Brillouin singles      =        -0.0000000000 a.u.
        total same-spin energy     =        -0.5040453632 a.u.
        total opposite-spin energy =        -1.5058872681 a.u.

 Total  RIMP2   correlation energy =        -2.0099326313 a.u.
        RIMP2         total energy =     -1182.7505824300 a.u.

 RI-MP2 Energy Time:  CPU 79.95 s  wall 80.15 s
 
 --------------------------------------------------------------
 
                    Orbital Energies (a.u.)
 --------------------------------------------------------------
 
 Alpha MOs
 -- Occupied --
-91.9860 -91.9379 -11.2721 -11.2710 -11.2612 -11.2528 -11.2519 -11.2441
-11.2386 -11.2296 -11.2296 -11.2174  -8.9859  -8.9426  -6.6667  -6.6661
 -6.6656  -6.6240  -6.6230  -6.6217  -1.1985  -1.1541  -1.0586  -1.0237
 -1.0037  -0.9638  -0.9120  -0.9008  -0.8092  -0.7648  -0.7405  -0.7059
 -0.6520  -0.6316  -0.6118  -0.5871  -0.5759  -0.5743  -0.5706  -0.5533
 -0.5425  -0.5276  -0.5178  -0.5038  -0.4909  -0.4730  -0.4634  -0.4447
 -0.3534  -0.3432  -0.3138  -0.2786
 -- Virtual --
  0.0832   0.1307   0.1378   0.1537   0.1609   0.1646   0.1794   0.1849
  0.1859   0.1922   0.2032   0.2087   0.2292   0.2352   0.2412   0.2470
  0.2508   0.2584   0.2678   0.2883   0.2984   0.3311   0.3451   0.3525
  0.3622   0.3725   0.3802   0.3869   0.3922   0.4019   0.4148   0.4204
  0.4366   0.4428   0.4551   0.4615   0.4634   0.4710   0.4797   0.4993
  0.5036   0.5117   0.5148   0.5261   0.5415   0.5458   0.5558   0.5577
  0.5632   0.5761   0.5805   0.5927   0.6027   0.6074   0.6102   0.6169
  0.6238   0.6249   0.6354   0.6399   0.6415   0.6493   0.6543   0.6565
  0.6627   0.6682   0.6792   0.6885   0.6966   0.7022   0.7158   0.7313
  0.7345   0.7397   0.7527   0.7588   0.7894   0.7931   0.8000   0.8182
  0.8329   0.8400   0.8509   0.8539   0.8768   0.8845   0.8942   0.9035
  0.9295   0.9376   0.9431   0.9603   0.9723   0.9958   1.0050   1.0199
  1.0233   1.0269   1.0307   1.0400   1.0524   1.0551   1.0677   1.0797
  1.0881   1.0955   1.1068   1.1149   1.1283   1.1581   1.1643   1.1712
  1.1806   1.1925   1.2007   1.2106   1.2210   1.2271   1.2361   1.2399
  1.2484   1.2582   1.2609   1.2682   1.2799   1.2875   1.2991   1.3122
  1.3169   1.3270   1.3354   1.3616   1.3837   1.3915   1.4084   1.4178
  1.4210   1.4304   1.4450   1.4584   1.4733   1.4749   1.4873   1.4956
  1.5066   1.5113   1.5233   1.5312   1.5344   1.5392   1.5524   1.5548
  1.5590   1.5795   1.5881   1.5913   1.6158   1.6276   1.6346   1.6427
  1.6623   1.6719   1.6767   1.6904   1.6980   1.7071   1.7181   1.7299
  1.7500   1.7575   1.7601   1.7883   1.7993   1.8273   1.8581   1.8735
  1.8869   1.8941   1.9337   1.9445   1.9505   1.9567   1.9744   1.9928
  2.0113   2.0236   2.0473   2.0756   2.0936   2.1247   2.1392   2.1648
  2.1721   2.1854   2.2050   2.2224   2.2334   2.2442   2.2596   2.2840
  2.2969   2.3146   2.3369   2.3689   2.3976   2.4144   2.4554   2.4659
  2.5007   2.5046   2.5280   2.5503   2.5629   2.5852   2.6040   2.6183
  2.6424   2.6549   2.6594   2.6697   2.6729   2.6845   2.7071   2.7245
  2.7374   2.7482   2.7597   2.7730   2.7800   2.7922   2.7957   2.8141
  2.8383   2.8474   2.8605   2.8855   2.8966   2.9077   2.9090   2.9308
  2.9478   2.9654   2.9777   2.9805   2.9901   3.0138   3.0284   3.0429
  3.0650   3.0758   3.0884   3.1050   3.1115   3.1155   3.1226   3.1440
  3.1518   3.1548   3.1668   3.1737   3.1798   3.1907   3.2135   3.2203
  3.2367   3.2423   3.2546   3.2683   3.2769   3.2868   3.2950   3.3039
  3.3228   3.3245   3.3293   3.3348   3.3444   3.3502   3.3651   3.3705
  3.3749   3.3869   3.3918   3.3959   3.4041   3.4130   3.4205   3.4293
  3.4452   3.4562   3.4656   3.4703   3.4781   3.4909   3.4977   3.5099
  3.5169   3.5312   3.5360   3.5365   3.5483   3.5575   3.5657   3.5730
  3.6046   3.6136   3.6221   3.6252   3.6280   3.6360   3.6497   3.6591
  3.6607   3.6939   3.6945   3.7056   3.7221   3.7237   3.7337   3.7365
  3.7473   3.7643   3.7694   3.7739   3.7763   3.7997   3.8064   3.8280
  3.8420   3.8463   3.8583   3.8624   3.8751   3.8838   3.9063   3.9164
  3.9265   3.9381   3.9581   3.9690   3.9772   3.9838   3.9993   4.0108
  4.0204   4.0440   4.0512   4.0598   4.0917   4.0956   4.0975   4.1058
  4.1194   4.1408   4.1531   4.1578   4.1652   4.1784   4.1819   4.1991
  4.2088   4.2248   4.2313   4.2434   4.2530   4.2634   4.2712   4.2846
  4.2882   4.2990   4.3146   4.3297   4.3453   4.3487   4.3567   4.3773
  4.3817   4.3859   4.3988   4.4014   4.4124   4.4249   4.4459   4.4549
  4.4611   4.4666   4.4747   4.4855   4.4899   4.5208   4.5338   4.5481
  4.5748   4.5796   4.6075   4.6198   4.6251   4.6499   4.6541   4.6684
  4.6888   4.7033   4.7407   4.7524   4.7714   4.8028   4.8105   4.8457
  4.8720   4.8868   4.8961   4.9116   4.9368   4.9461   4.9776   4.9890
  5.0300   5.0427   5.0731   5.1039   5.1168   5.1305   5.1381   5.1674
  5.1794   5.2161   5.2303   5.2611   5.2863   5.2948   5.3118   5.3228
  5.3437   5.3631   5.3791   5.4012   5.4168   5.4194   5.4453   5.4591
  5.4642   5.5186   5.5241   5.5316   5.5528   5.5589   5.5633   5.5858
  5.6211   5.6240   5.6268   5.6652   5.6852   5.6966   5.7031   5.7420
  5.7648   5.7881   5.8255   5.9785   5.9901   6.0734   6.1099   6.1410
  6.2013   6.2215   6.2259   6.2394   6.2492   6.2928   6.2954   6.3104
  6.3957   6.4529   9.4241  10.3300  12.2419  12.8751  13.1611  13.9601
 14.0733  14.2237  14.3477  14.7395
 --------------------------------------------------------------
 
          Ground-State Mulliken Net Atomic Charges

     Atom                 Charge (a.u.)
  ----------------------------------------
      1 C                    -0.074431
      2 C                    -0.332077
      3 C                    -0.018390
      4 H                     0.175332
      5 C                     0.071936
      6 S                    -0.187353
      7 C                    -0.272217
      8 H                     0.115550
      9 H                     0.107623
     10 H                     0.104910
     11 C                    -0.087636
     12 C                    -0.232886
     13 C                     0.031319
     14 H                     0.186202
     15 C                    -0.230171
     16 S                     0.011871
     17 C                    -0.270272
     18 H                     0.103380
     19 H                     0.108110
     20 H                     0.106605
     21 H                     0.199926
     22 H                     0.110330
     23 H                     0.107927
     24 H                     0.164412
  ----------------------------------------
  Sum of atomic charges =     0.000000

 -----------------------------------------------------------------
                    Cartesian Multipole Moments
 -----------------------------------------------------------------
    Charge (ESU x 10^10)
                -0.0000
    Dipole Moment (Debye)
         X       3.4715      Y       0.9806      Z       0.3433
       Tot       3.6236
    Quadrupole Moments (Debye-Ang)
        XX     -89.0639     XY       1.5035     YY     -76.8472
        XZ       0.6912     YZ       2.7739     ZZ     -85.8046
    Octopole Moments (Debye-Ang^2)
       XXX     -97.9648    XXY      60.4289    XYY     -20.8478
       YYY     146.2100    XXZ      -3.5536    XYZ      -1.4532
       YYZ      -5.5835    XZZ     -32.4475    YZZ      65.0198
       ZZZ       5.6506
    Hexadecapole Moments (Debye-Ang^3)
      XXXX    -934.5788   XXXY    -240.0080   XXYY    -593.5809
      XYYY    -177.0243   YYYY   -2604.1954   XXXZ      -1.1118
      XXYZ     -23.6538   XYYZ      -9.8440   YYYZ     -89.6179
      XXZZ    -254.2120   XYZZ     -59.1715   YYZZ    -566.9670
      XZZZ       2.7641   YZZZ     -85.3769   ZZZZ    -553.2027
 -----------------------------------------------------------------
 Total job time:  663.85s(wall), 661.20s(cpu) 
 Sun Jul 10 02:31:00 2022

        *************************************************************
        *                                                           *
        *  Thank you very much for using Q-Chem.  Have a nice day.  *
        *                                                           *
        *************************************************************


remove work dirs ./qchem3794988.0 -- ./qchem3794988.-1
rm -rf ./qchem3794988
