You are running Q-Chem version: 5.4.0

#
# job setting
#
local host:  exp-1-10
current dir: /expanse/lustre/scratch/theleonzhang/temp_project/Hydrogenated_Rotation_Test
input file:  Methylthiophene_Phi_10_Theta_60_Methylthiophene_Hydrogenated.qcin
output file: 
nprocs     : 0
nthreads   : 1
#
# qchem installation setting
#
QC:          /cm/shared/apps/spack/cpu/opt/spack/linux-centos8-zen2/gcc-10.2.0/qchem-5.4-akfmr7b3t57bfs6qan3padb2wnb2i7cl
QCAUX:       /cm/shared/apps/spack/cpu/opt/spack/linux-centos8-zen2/gcc-10.2.0/qchem-5.4-akfmr7b3t57bfs6qan3padb2wnb2i7cl/qcaux
QCPROG:      /cm/shared/apps/spack/cpu/opt/spack/linux-centos8-zen2/gcc-10.2.0/qchem-5.4-akfmr7b3t57bfs6qan3padb2wnb2i7cl/exe/qcprog.exe_s
QCPROG_S:    /cm/shared/apps/spack/cpu/opt/spack/linux-centos8-zen2/gcc-10.2.0/qchem-5.4-akfmr7b3t57bfs6qan3padb2wnb2i7cl/exe/qcprog.exe_s
PARALLEL:    -DSERIAL
QCMPI:       mpich
#
# qchem directory setting
#
qcrun:       qchem3944786
QCSCRATCH:   .
QCLOCALSCR:  
QCTMPDIR:    .
QCFILEPREF:  ./qchem3944786
QCSAVEDIR:   
workdirs:    ./qchem3944786
workdir0:    ./qchem3944786
partmpdirs =  
#
# parallel setting
#
QCRSH:           ssh
QCMPI:           mpich
QCMPIRUN:        /cm/shared/apps/spack/cpu/opt/spack/linux-centos8-zen2/gcc-10.2.0/qchem-5.4-akfmr7b3t57bfs6qan3padb2wnb2i7cl/bin/mpi/mpirun_qchem
QCMACHINEFILE:   ./qchem3944786/hostfile

#
# env setting
#
exported envs:   QC QCAUX QCSCRATCH QCRUNNAME QCFILEPREF QCPROG QCPROG_S GUIFILE

Running Job 1 of 1 Methylthiophene_Phi_10_Theta_60_Methylthiophene_Hydrogenated.qcin
qchem Methylthiophene_Phi_10_Theta_60_Methylthiophene_Hydrogenated.qcin_3944786.0 ./qchem3944786/ 0
/cm/shared/apps/spack/cpu/opt/spack/linux-centos8-zen2/gcc-10.2.0/qchem-5.4-akfmr7b3t57bfs6qan3padb2wnb2i7cl/exe/qcprog.exe_s Methylthiophene_Phi_10_Theta_60_Methylthiophene_Hydrogenated.qcin_3944786.0 ./qchem3944786/
                  Welcome to Q-Chem
     A Quantum Leap Into The Future Of Chemistry


 Q-Chem 5.4, Q-Chem, Inc., Pleasanton, CA (2021)

 License issued to: University of California, San Diego (site)

 E. Epifanovsky,  A. T. B. Gilbert,  Xintian Feng,  Joonho Lee,  Yuezhi Mao,  
 N. Mardirossian,  P. Pokhilko,  A. White,  M. Wormit,  M. P. Coons,  
 A. L. Dempwolff,  Zhengting Gan,  D. Hait,  P. R. Horn,  L. D. Jacobson,  
 I. Kaliman,  J. Kussmann,  A. W. Lange,  Ka Un Lao,  D. S. Levine,  Jie Liu,  
 S. C. McKenzie,  A. F. Morrison,  K. Nanda,  F. Plasser,  D. R. Rehn,  
 M. L. Vidal,  Zhi-Qiang You,  Ying Zhu,  B. Alam,  B. Albrecht,  
 A. Aldossary,  E. Alguire,  J. H. Andersen,  D. Barton,  K. Begam,  A. Behn,  
 Y. A. Bernard,  E. J. Berquist,  H. Burton,  A. Carreras,  K. Carter-Fenk,  
 R. Chakraborty,  A. D. Chien,  K. D. Closser,  V. Cofer-Shabica,  
 S. Dasgupta,  Jia Deng,  M. de Wergifosse,  M. Diedenhofen,  Hainam Do,  
 S. Ehlert,  Po-Tung Fang,  S. Fatehi,  Qingguo Feng,  J. Gayvert,  
 Qinghui Ge,  G. Gidofalvi,  M. Goldey,  J. Gomes,  C. Gonzalez-Espinoza,  
 S. Gulania,  A. Gunina,  M. W. D. Hanson-Heine,  P. H. P. Harbach,  
 A. W. Hauser,  M. F. Herbst,  M. Hernandez Vera,  M. Hodecker,  
 Z. C. Holden,  S. Houck,  Xunkun Huang,  Kerwin Hui,  B. C. Huynh,  
 M. Ivanov,  Hyunjun Ji,  Hanjie Jiang,  B. Kaduk,  S. Kaehler,  
 K. Khistyaev,  Jaehoon Kim,  P. Klunzinger,  Z. Koczor-Benda,  
 Joong Hoon Koh,  D. Kosenkov,  L. Koulias,  T. Kowalczyk,  C. M. Krauter,  
 K. Kue,  A. Kunitsa,  T. Kus,  A. Landau,  K. V. Lawler,  D. Lefrancois,  
 S. Lehtola,  Rain Li,  Yi-Pei Li,  Jiashu Liang,  M. Liebenthal,  
 Hung-Hsuan Lin,  You-Sheng Lin,  Fenglai Liu,  Kuan-Yu Liu,  
 M. Loipersberger,  A. Luenser,  A. Manjanath,  P. Manohar,  E. Mansoor,  
 S. F. Manzer,  Shan-Ping Mao,  A. V. Marenich,  T. Markovich,  S. Mason,  
 S. A. Maurer,  P. F. McLaughlin,  M. F. S. J. Menger,  J.-M. Mewes,  
 S. A. Mewes,  P. Morgante,  J. W. Mullinax,  T. S. Nguyen-Beck,  
 K. J. Oosterbaan,  G. Paran,  Alexander C. Paul,  Suranjan K. Paul,  
 F. Pavosevic,  Zheng Pei,  S. Prager,  E. I. Proynov,  E. Ramos,  B. Rana,  
 A. E. Rask,  A. Rettig,  R. M. Richard,  F. Rob,  E. Rossomme,  T. Scheele,  
 M. Scheurer,  M. Schneider,  N. Sergueev,  S. M. Sharada,  W. Skomorowski,  
 D. W. Small,  C. J. Stein,  Yu-Chuan Su,  E. J. Sundstrom,  Zhen Tao,  
 J. Thirman,  T. Tsuchimochi,  N. M. Tubman,  S. P. Veccham,  O. Vydrov,  
 J. Wenzel,  J. Witte,  A. Yamada,  Kun Yao,  S. Yeganeh,  S. R. Yost,  
 A. Zech,  Igor Ying Zhang,  Xing Zhang,  Yu Zhang,  D. Zuev,  
 A. Aspuru-Guzik,  A. T. Bell,  N. A. Besley,  K. B. Bravaya,  B. R. Brooks,  
 D. Casanova,  Jeng-Da Chai,  S. Coriani,  C. J. Cramer,  
 A. E. DePrince, III,  R. A. DiStasio Jr.,  A. Dreuw,  B. D. Dunietz,  
 T. R. Furlani,  W. A. Goddard III,  S. Grimme,  S. Hammes-Schiffer,  
 T. Head-Gordon,  W. J. Hehre,  Chao-Ping Hsu,  T.-C. Jagau,  Yousung Jung,  
 A. Klamt,  Jing Kong,  D. S. Lambrecht,  WanZhen Liang,  N. J. Mayhall,  
 C. W. McCurdy,  J. B. Neaton,  C. Ochsenfeld,  J. A. Parkhill,  R. Peverati,  
 V. A. Rassolov,  Yihan Shao,  L. V. Slipchenko,  T. Stauch,  R. P. Steele,  
 J. E. Subotnik,  A. J. W. Thom,  A. Tkatchenko,  D. G. Truhlar,  
 T. Van Voorhis,  T. A. Wesolowski,  K. B. Whaley,  H. L. Woodcock III,  
 P. M. Zimmerman,  S. Faraji,  P. M. W. Gill,  M. Head-Gordon,  
 J. M. Herbert,  A. I. Krylov

 Contributors to earlier versions of Q-Chem not listed above: 
 R. D. Adamson,  B. Austin,  R. Baer,  J. Baker,  G. J. O. Beran,  
 K. Brandhorst,  S. T. Brown,  E. F. C. Byrd,  A. K. Chakraborty,  
 G. K. L. Chan,  Chun-Min Chang,  Yunqing Chen,  C.-L. Cheng,  
 Siu Hung Chien,  D. M. Chipman,  D. L. Crittenden,  H. Dachsel,  
 R. J. Doerksen,  A. D. Dutoi,  R. G. Edgar,  J. Fosso-Tande,  
 L. Fusti-Molnar,  D. Ghosh,  A. Ghysels,  A. Golubeva-Zadorozhnaya,  
 J. Gonthier,  M. S. Gordon,  S. R. Gwaltney,  G. Hawkins,  J. E. Herr,  
 A. Heyden,  S. Hirata,  E. G. Hohenstein,  G. Kedziora,  F. J. Keil,  
 C. Kelley,  Jihan Kim,  R. A. King,  R. Z. Khaliullin,  P. P. Korambath,  
 W. Kurlancheek,  A. Laurent,  A. M. Lee,  M. S. Lee,  S. V. Levchenko,  
 Ching Yeh Lin,  D. Liotard,  E. Livshits,  R. C. Lochan,  I. Lotan,  
 L. A. Martinez-Martinez,  P. E. Maslen,  N. Nair,  D. P. O'Neill,  
 D. Neuhauser,  E. Neuscamman,  C. M. Oana,  R. Olivares-Amaya,  R. Olson,  
 T. M. Perrine,  B. Peters,  P. A. Pieniazek,  A. Prociuk,  Y. M. Rhee,  
 J. Ritchie,  M. A. Rohrdanz,  E. Rosta,  N. J. Russ,  H. F. Schaefer III,  
 M. W. Schmidt,  N. E. Schultz,  S. Sharma,  N. Shenvi,  C. D. Sherrill,  
 A. C. Simmonett,  A. Sodt,  T. Stein,  D. Stuck,  K. S. Thanthiriwatte,  
 V. Vanovschi,  L. Vogt,  Tao Wang,  A. Warshel,  M. A. Watson,  
 C. F. Williams,  Q. Wu,  X. Xu,  Jun Yang,  W. Zhang,  Yan Zhao

 Please cite Q-Chem as follows:
 Y. Shao et al., Mol. Phys. 113, 184-215 (2015)
 DOI: 10.1080/00268976.2014.952696

 Q-Chem 5.4.0 for Intel X86 EM64T Linux

 Parts of Q-Chem use Armadillo 9.800.1 (Horizon Scraper).
 http://arma.sourceforge.net/

 Q-Chem begins on Sat Jul  9 19:55:17 2022  

 Host: 
0

     Scratch files written to ./qchem3944786//
 May1621 |scratch|qcdevops|jenkins|workspace|build_RNUM    
 Processing $rem in /cm/shared/apps/spack/cpu/opt/spack/linux-centos8-zen2/gcc-10.2.0/qchem-5.4-akfmr7b3t57bfs6qan3padb2wnb2i7cl/config/preferences:
 Processing $rem in /home/theleonzhang/.qchemrc:
 Symmetry turned off for PCM/SM12/SMD calculation
 Core orbitals will be frozen

 Checking the input file for inconsistencies... 	...done.

--------------------------------------------------------------
User input:
--------------------------------------------------------------
$molecule
0 1
C	-0.671636	-3.866725	0.386946
C	0.530345	-3.703963	-0.306544
C	0.923770	-2.357056	-0.533261
H	1.128109	-4.561092	-0.651857
C	-0.000000	-1.440664	-0.000000
S	-1.337557	-2.286957	0.772250
C	2.184153	-1.978743	-1.260680
H	2.742769	-2.878678	-1.583283
H	2.863347	-1.376015	-0.622180
H	1.971094	-1.375728	-2.168011
C	0.000000	0.000000	0.000000
C	0.149995	0.850475	1.099446
C	0.390327	2.213354	0.776721
H	0.085947	0.487279	2.136088
C	0.428665	2.430655	-0.612546
S	0.163670	0.928078	-1.486809
C	0.579235	3.284574	1.814609
H	0.505323	2.865404	2.836676
H	-0.185980	4.083890	1.726239
H	1.571698	3.773937	1.726228
H	0.593515	3.365448	-1.161575
H	-0.521098	-4.392713	1.336254
H	-1.418509	-4.392347	-0.218374
H	0.539900	-1.440937	0.935365
$end

$rem
JOBTYPE		SP
EXCHANGE	HF
CORRELATION	pRIMP2
BASIS		cc-pvtz
METHOD		rimp2
AUX_BASIS	rimp2-cc-pvtz
SOLVENT_METHOD	PCM
PURECART	11111
SYMMETRY	false
MEM_TOTAL	110000
SCF_CONVERGENCE = 6
THRESH=10
$end



$solvent
dielectric 4.90
$end
--------------------------------------------------------------
 ----------------------------------------------------------------
             Standard Nuclear Orientation (Angstroms)
    I     Atom           X                Y                Z
 ----------------------------------------------------------------
    1      C      -0.6716360000    -3.8667250000     0.3869460000
    2      C       0.5303450000    -3.7039630000    -0.3065440000
    3      C       0.9237700000    -2.3570560000    -0.5332610000
    4      H       1.1281090000    -4.5610920000    -0.6518570000
    5      C       0.0000000000    -1.4406640000     0.0000000000
    6      S      -1.3375570000    -2.2869570000     0.7722500000
    7      C       2.1841530000    -1.9787430000    -1.2606800000
    8      H       2.7427690000    -2.8786780000    -1.5832830000
    9      H       2.8633470000    -1.3760150000    -0.6221800000
   10      H       1.9710940000    -1.3757280000    -2.1680110000
   11      C       0.0000000000     0.0000000000     0.0000000000
   12      C       0.1499950000     0.8504750000     1.0994460000
   13      C       0.3903270000     2.2133540000     0.7767210000
   14      H       0.0859470000     0.4872790000     2.1360880000
   15      C       0.4286650000     2.4306550000    -0.6125460000
   16      S       0.1636700000     0.9280780000    -1.4868090000
   17      C       0.5792350000     3.2845740000     1.8146090000
   18      H       0.5053230000     2.8654040000     2.8366760000
   19      H      -0.1859800000     4.0838900000     1.7262390000
   20      H       1.5716980000     3.7739370000     1.7262280000
   21      H       0.5935150000     3.3654480000    -1.1615750000
   22      H      -0.5210980000    -4.3927130000     1.3362540000
   23      H      -1.4185090000    -4.3923470000    -0.2183740000
   24      H       0.5399000000    -1.4409370000     0.9353650000
 ----------------------------------------------------------------
 Nuclear Repulsion Energy =         873.38090230 hartrees
 There are       52 alpha and       52 beta electrons

 Q-Chem warning in module forms1/BasisType.C, line 2236:

 You are not using the predefined 5D/6D in this basis set.

 Requested basis set is cc-pVTZ
 There are 196 shells and 536 basis functions

 Total QAlloc Memory Limit 110000 MB
 Mega-Array Size       188 MB
 MEM_STATIC part       192 MB
 Discretize the solute cavity surface with Lebedev spheres
	Using 110 Lebedev grid points for each H atom
	Using 194 Lebedev grid points for other atoms
	Atomic van der Waals radii will be scaled by 1.20
 Remove points where switching function is < 1.0e-08
 Keep 1603 surface tesserae and discard 2045 interior tesserae
 Molecular Surface Area = 236.178 Angst**2
 Requested basis set is rimp2-cc-pVTZ
 There are 414 shells and 1414 basis functions
 A cutoff of  1.0D-10 yielded  13974 shell pairs
 There are    101420 function pairs (    130118 Cartesian)
 Smallest overlap matrix eigenvalue = 5.75E-05

 Scale SEOQF with 1.000000e-01/1.000000e-01/1.000000e-01

 Standard Electronic Orientation quadrupole field applied
 Nucleus-field energy     =     0.0000000332 hartrees
 Guess from superposition of atomic densities
 Warning:  Energy on first SCF cycle will be non-variational
 SAD guess density has 104.000000 electrons

 -----------------------------------------------------------------------
  General SCF calculation program by
  Eric Jon Sundstrom, Paul Horn, Yuezhi Mao, Dmitri Zuev, Alec White,
  David Stuck, Shaama M.S., Shane Yost, Joonho Lee, David Small,
  Daniel Levine, Susi Lehtola, Hugh Burton, Evgeny Epifanovsky,
  Bang C. Huynh
 -----------------------------------------------------------------------
 Hartree-Fock
 A restricted SCF calculation will be
 performed using DIIS
 SCF converges when DIIS error is below 1.0e-06
 ---------------------------------------
  Cycle       Energy         DIIS error
 ---------------------------------------
    1   -1186.0266585117      2.39e-02  
    2   -1180.6157806946      1.55e-03  
    3   -1180.7397889849      6.05e-04  
    4   -1180.7538463058      3.39e-04  
    5   -1180.7590439331      5.86e-05  
    6   -1180.7592870841      2.42e-05  
    7   -1180.7593452637      8.91e-06  
    8   -1180.7593588989      4.29e-06  
    9   -1180.7593619937      1.49e-06  
   10   -1180.7593624759      5.01e-07  Convergence criterion met
 ---------------------------------------
 SCF time:   CPU 568.39s  wall 571.00s 

************** Final PCM Free Energy Summary **************
 G_electrostatic  =      -0.00870829 hartree =      -5.46453344 kcal/mol
 G_cavitation     =       0.00000000 hartree =       0.00000000 kcal/mol
 G_dispersion     =       0.00000000 hartree =       0.00000000 kcal/mol
 G_repulsion      =       0.00000000 hartree =       0.00000000 kcal/mol
 --------------------------------------------------
 Non-electrostatic Free Energy =       0.00000000 hartree =       0.00000000 kcal/mol
 Total                         =      -0.00870829 hartree =      -5.46453344 kcal/mol
 --------------------------------------------------
 SCF Energy (H0 + V/2)                       =   -1180.75936248 
 Solute Internal Energy (H0)                 =   -1180.75065419 
 Total Free Energy (H0 + V/2 + non-elec)     =   -1180.75936248 hartree
                                             = -740937.68292555 kcal/mol
***********************************************************

 SCF   energy in the final basis set =    -1180.7593624759
 Total energy in the final basis set =    -1180.7593624759


 --------------------------------------------------------------
  Generalized many-body perturbation theory program
  by Joonho Lee, Fazle Rob, Xintian Feng, Evgeny Epifanovsky

 No regularization used 
 (reg. param. = 0.0000e+00)
  (P|Q)^-1/2 Time:  CPU 1.89 s  wall 1.90 s

 In RI-MP2 calculation: 
 # of frozen core orbitals: 20

 Components of the RIMP2 correlation energy:
        aaaa    correlation energy =        -0.2513998729 a.u.
        abab    correlation energy =        -1.5031131545 a.u.
        bbbb    correlation energy =        -0.2513998729 a.u.
        non-Brillouin singles      =        -0.0000000000 a.u.
        total same-spin energy     =        -0.5027997457 a.u.
        total opposite-spin energy =        -1.5031131545 a.u.

 Total  RIMP2   correlation energy =        -2.0059129003 a.u.
        RIMP2         total energy =     -1182.7652753762 a.u.

 RI-MP2 Energy Time:  CPU 80.01 s  wall 80.32 s
 
 --------------------------------------------------------------
 
                    Orbital Energies (a.u.)
 --------------------------------------------------------------
 
 Alpha MOs
 -- Occupied --
-91.9818 -91.9414 -11.2837 -11.2638 -11.2618 -11.2561 -11.2509 -11.2412
-11.2401 -11.2312 -11.2290 -11.2202  -8.9817  -8.9462  -6.6626  -6.6620
 -6.6615  -6.6275  -6.6265  -6.6252  -1.1992  -1.1533  -1.0587  -1.0255
 -1.0074  -0.9583  -0.9127  -0.9013  -0.8141  -0.7660  -0.7311  -0.7005
 -0.6619  -0.6419  -0.6104  -0.5873  -0.5799  -0.5730  -0.5674  -0.5516
 -0.5421  -0.5314  -0.5149  -0.5058  -0.4927  -0.4801  -0.4588  -0.4487
 -0.3555  -0.3434  -0.3167  -0.2738
 -- Virtual --
  0.0963   0.1328   0.1423   0.1511   0.1578   0.1697   0.1775   0.1799
  0.1928   0.1975   0.2032   0.2072   0.2275   0.2339   0.2388   0.2441
  0.2521   0.2597   0.2709   0.2939   0.3168   0.3379   0.3473   0.3540
  0.3652   0.3692   0.3786   0.3937   0.3980   0.4000   0.4144   0.4288
  0.4347   0.4480   0.4568   0.4614   0.4639   0.4720   0.4864   0.4894
  0.5082   0.5152   0.5176   0.5318   0.5365   0.5409   0.5454   0.5510
  0.5639   0.5728   0.5810   0.5900   0.5949   0.6086   0.6174   0.6182
  0.6226   0.6285   0.6328   0.6394   0.6440   0.6488   0.6514   0.6591
  0.6616   0.6715   0.6816   0.6878   0.6969   0.7032   0.7067   0.7270
  0.7327   0.7493   0.7504   0.7685   0.7905   0.7970   0.8032   0.8238
  0.8275   0.8378   0.8530   0.8603   0.8648   0.8784   0.8942   0.9178
  0.9261   0.9528   0.9557   0.9711   0.9787   0.9853   0.9996   1.0047
  1.0201   1.0207   1.0325   1.0362   1.0509   1.0748   1.0778   1.0880
  1.0927   1.0984   1.1063   1.1201   1.1338   1.1494   1.1570   1.1697
  1.1767   1.1925   1.2021   1.2043   1.2177   1.2259   1.2328   1.2407
  1.2526   1.2564   1.2671   1.2765   1.2834   1.2863   1.3006   1.3137
  1.3309   1.3333   1.3403   1.3522   1.3725   1.3997   1.4040   1.4166
  1.4219   1.4450   1.4493   1.4543   1.4727   1.4841   1.4921   1.4958
  1.5031   1.5145   1.5225   1.5312   1.5397   1.5452   1.5476   1.5515
  1.5661   1.5750   1.5851   1.5968   1.6084   1.6131   1.6175   1.6391
  1.6463   1.6567   1.6804   1.6855   1.7011   1.7157   1.7240   1.7352
  1.7413   1.7559   1.7881   1.7963   1.8042   1.8208   1.8425   1.8588
  1.8721   1.8983   1.9343   1.9427   1.9532   1.9721   1.9873   1.9999
  2.0216   2.0264   2.0418   2.0598   2.0715   2.1067   2.1309   2.1625
  2.1852   2.1923   2.2114   2.2159   2.2338   2.2620   2.2758   2.2842
  2.3205   2.3429   2.3502   2.3633   2.4035   2.4286   2.4405   2.4660
  2.4911   2.5117   2.5378   2.5507   2.5672   2.5778   2.6156   2.6187
  2.6355   2.6472   2.6578   2.6616   2.6772   2.6993   2.7141   2.7279
  2.7435   2.7474   2.7511   2.7673   2.7762   2.7869   2.7909   2.8023
  2.8244   2.8476   2.8537   2.8771   2.8806   2.9081   2.9141   2.9217
  2.9351   2.9483   2.9587   2.9718   3.0113   3.0231   3.0317   3.0367
  3.0434   3.0823   3.0880   3.1045   3.1122   3.1214   3.1320   3.1343
  3.1485   3.1561   3.1621   3.1683   3.1863   3.1944   3.1979   3.2081
  3.2234   3.2424   3.2540   3.2661   3.2796   3.2880   3.2921   3.3053
  3.3146   3.3220   3.3288   3.3390   3.3439   3.3517   3.3579   3.3723
  3.3781   3.3881   3.3931   3.4023   3.4065   3.4079   3.4236   3.4351
  3.4406   3.4431   3.4540   3.4688   3.4725   3.4811   3.4916   3.5004
  3.5176   3.5237   3.5280   3.5341   3.5470   3.5522   3.5673   3.5802
  3.5959   3.5965   3.6111   3.6149   3.6322   3.6384   3.6471   3.6570
  3.6676   3.6795   3.6874   3.7058   3.7074   3.7249   3.7297   3.7343
  3.7496   3.7561   3.7648   3.7824   3.7862   3.7905   3.8022   3.8100
  3.8260   3.8361   3.8565   3.8620   3.8750   3.8874   3.8996   3.9162
  3.9242   3.9452   3.9499   3.9723   3.9730   3.9797   4.0019   4.0112
  4.0279   4.0436   4.0478   4.0631   4.0708   4.0874   4.0970   4.1131
  4.1267   4.1338   4.1440   4.1595   4.1704   4.1753   4.1789   4.1896
  4.2077   4.2198   4.2373   4.2428   4.2520   4.2650   4.2714   4.2798
  4.2965   4.3038   4.3210   4.3302   4.3335   4.3490   4.3571   4.3640
  4.3815   4.3929   4.4015   4.4089   4.4161   4.4275   4.4318   4.4448
  4.4614   4.4719   4.4761   4.4864   4.4929   4.5107   4.5395   4.5521
  4.5682   4.5897   4.6024   4.6292   4.6420   4.6535   4.6622   4.6723
  4.7047   4.7206   4.7300   4.7609   4.7776   4.8067   4.8189   4.8503
  4.8557   4.8664   4.8844   4.8994   4.9421   4.9567   4.9831   5.0034
  5.0151   5.0380   5.0926   5.0982   5.1169   5.1252   5.1481   5.1799
  5.1827   5.2186   5.2294   5.2731   5.2814   5.2849   5.3104   5.3178
  5.3404   5.3652   5.3833   5.4003   5.4072   5.4262   5.4411   5.4514
  5.4741   5.5162   5.5249   5.5429   5.5495   5.5634   5.5699   5.5951
  5.6242   5.6281   5.6440   5.6537   5.6729   5.6974   5.7022   5.7282
  5.7765   5.7991   5.8323   5.9852   5.9929   6.1090   6.1265   6.1412
  6.2088   6.2210   6.2271   6.2430   6.2527   6.2819   6.3030   6.3283
  6.3925   6.4923   9.4925  10.5266  12.0332  12.9550  13.1616  13.9681
 14.1137  14.2343  14.2859  14.7358
 --------------------------------------------------------------
 
          Ground-State Mulliken Net Atomic Charges

     Atom                 Charge (a.u.)
  ----------------------------------------
      1 C                    -0.077445
      2 C                    -0.325572
      3 C                    -0.020628
      4 H                     0.177130
      5 C                     0.076618
      6 S                    -0.178160
      7 C                    -0.273104
      8 H                     0.114695
      9 H                     0.106525
     10 H                     0.108217
     11 C                    -0.064733
     12 C                    -0.256130
     13 C                     0.026609
     14 H                     0.183236
     15 C                    -0.247060
     16 S                     0.007494
     17 C                    -0.271440
     18 H                     0.102376
     19 H                     0.108621
     20 H                     0.107821
     21 H                     0.196223
     22 H                     0.110596
     23 H                     0.112822
     24 H                     0.175287
  ----------------------------------------
  Sum of atomic charges =     0.000000

 -----------------------------------------------------------------
                    Cartesian Multipole Moments
 -----------------------------------------------------------------
    Charge (ESU x 10^10)
                -0.0000
    Dipole Moment (Debye)
         X       2.8321      Y       0.3468      Z       0.9347
       Tot       3.0024
    Quadrupole Moments (Debye-Ang)
        XX     -91.6979     XY      -2.1052     YY     -74.1474
        XZ      -0.0254     YZ       1.7542     ZZ     -85.6699
    Octopole Moments (Debye-Ang^2)
       XXX     -35.5047    XXY      43.9695    XYY      -5.3912
       YYY     125.0153    XXZ      -4.8756    XYZ       2.0899
       YYZ      -0.9192    XZZ     -10.0125    YZZ      54.3628
       ZZZ       4.6013
    Hexadecapole Moments (Debye-Ang^3)
      XXXX    -600.8234   XXXY    -109.6157   XXYY    -602.1340
      XYYY     -67.3681   YYYY   -2762.8511   XXXZ     102.3156
      XXYZ     -15.4843   XYYZ      18.2317   YYYZ    -109.3017
      XXZZ    -217.2031   XYZZ     -30.8450   YYZZ    -608.2381
      XZZZ     107.8849   YZZZ     -93.5057   ZZZZ    -682.3007
 -----------------------------------------------------------------
 Total job time:  655.48s(wall), 649.30s(cpu) 
 Sat Jul  9 20:06:13 2022

        *************************************************************
        *                                                           *
        *  Thank you very much for using Q-Chem.  Have a nice day.  *
        *                                                           *
        *************************************************************


remove work dirs ./qchem3944786.0 -- ./qchem3944786.-1
rm -rf ./qchem3944786
