You are running Q-Chem version: 5.4.0

#
# job setting
#
local host:  exp-2-30
current dir: /expanse/lustre/scratch/theleonzhang/temp_project/Hydrogenated_Rotation_Test
input file:  Methylthiophene_Phi_30_Theta_180_Methylthiophene_Hydrogenated_Alternate.qcin
output file: 
nprocs     : 0
nthreads   : 1
#
# qchem installation setting
#
QC:          /cm/shared/apps/spack/cpu/opt/spack/linux-centos8-zen2/gcc-10.2.0/qchem-5.4-akfmr7b3t57bfs6qan3padb2wnb2i7cl
QCAUX:       /cm/shared/apps/spack/cpu/opt/spack/linux-centos8-zen2/gcc-10.2.0/qchem-5.4-akfmr7b3t57bfs6qan3padb2wnb2i7cl/qcaux
QCPROG:      /cm/shared/apps/spack/cpu/opt/spack/linux-centos8-zen2/gcc-10.2.0/qchem-5.4-akfmr7b3t57bfs6qan3padb2wnb2i7cl/exe/qcprog.exe_s
QCPROG_S:    /cm/shared/apps/spack/cpu/opt/spack/linux-centos8-zen2/gcc-10.2.0/qchem-5.4-akfmr7b3t57bfs6qan3padb2wnb2i7cl/exe/qcprog.exe_s
PARALLEL:    -DSERIAL
QCMPI:       mpich
#
# qchem directory setting
#
qcrun:       qchem292522
QCSCRATCH:   .
QCLOCALSCR:  
QCTMPDIR:    .
QCFILEPREF:  ./qchem292522
QCSAVEDIR:   
workdirs:    ./qchem292522
workdir0:    ./qchem292522
partmpdirs =  
#
# parallel setting
#
QCRSH:           ssh
QCMPI:           mpich
QCMPIRUN:        /cm/shared/apps/spack/cpu/opt/spack/linux-centos8-zen2/gcc-10.2.0/qchem-5.4-akfmr7b3t57bfs6qan3padb2wnb2i7cl/bin/mpi/mpirun_qchem
QCMACHINEFILE:   ./qchem292522/hostfile

#
# env setting
#
exported envs:   QC QCAUX QCSCRATCH QCRUNNAME QCFILEPREF QCPROG QCPROG_S GUIFILE

Running Job 1 of 1 Methylthiophene_Phi_30_Theta_180_Methylthiophene_Hydrogenated_Alternate.qcin
qchem Methylthiophene_Phi_30_Theta_180_Methylthiophene_Hydrogenated_Alternate.qcin_292522.0 ./qchem292522/ 0
/cm/shared/apps/spack/cpu/opt/spack/linux-centos8-zen2/gcc-10.2.0/qchem-5.4-akfmr7b3t57bfs6qan3padb2wnb2i7cl/exe/qcprog.exe_s Methylthiophene_Phi_30_Theta_180_Methylthiophene_Hydrogenated_Alternate.qcin_292522.0 ./qchem292522/
                  Welcome to Q-Chem
     A Quantum Leap Into The Future Of Chemistry


 Q-Chem 5.4, Q-Chem, Inc., Pleasanton, CA (2021)

 License issued to: University of California, San Diego (site)

 E. Epifanovsky,  A. T. B. Gilbert,  Xintian Feng,  Joonho Lee,  Yuezhi Mao,  
 N. Mardirossian,  P. Pokhilko,  A. White,  M. Wormit,  M. P. Coons,  
 A. L. Dempwolff,  Zhengting Gan,  D. Hait,  P. R. Horn,  L. D. Jacobson,  
 I. Kaliman,  J. Kussmann,  A. W. Lange,  Ka Un Lao,  D. S. Levine,  Jie Liu,  
 S. C. McKenzie,  A. F. Morrison,  K. Nanda,  F. Plasser,  D. R. Rehn,  
 M. L. Vidal,  Zhi-Qiang You,  Ying Zhu,  B. Alam,  B. Albrecht,  
 A. Aldossary,  E. Alguire,  J. H. Andersen,  D. Barton,  K. Begam,  A. Behn,  
 Y. A. Bernard,  E. J. Berquist,  H. Burton,  A. Carreras,  K. Carter-Fenk,  
 R. Chakraborty,  A. D. Chien,  K. D. Closser,  V. Cofer-Shabica,  
 S. Dasgupta,  Jia Deng,  M. de Wergifosse,  M. Diedenhofen,  Hainam Do,  
 S. Ehlert,  Po-Tung Fang,  S. Fatehi,  Qingguo Feng,  J. Gayvert,  
 Qinghui Ge,  G. Gidofalvi,  M. Goldey,  J. Gomes,  C. Gonzalez-Espinoza,  
 S. Gulania,  A. Gunina,  M. W. D. Hanson-Heine,  P. H. P. Harbach,  
 A. W. Hauser,  M. F. Herbst,  M. Hernandez Vera,  M. Hodecker,  
 Z. C. Holden,  S. Houck,  Xunkun Huang,  Kerwin Hui,  B. C. Huynh,  
 M. Ivanov,  Hyunjun Ji,  Hanjie Jiang,  B. Kaduk,  S. Kaehler,  
 K. Khistyaev,  Jaehoon Kim,  P. Klunzinger,  Z. Koczor-Benda,  
 Joong Hoon Koh,  D. Kosenkov,  L. Koulias,  T. Kowalczyk,  C. M. Krauter,  
 K. Kue,  A. Kunitsa,  T. Kus,  A. Landau,  K. V. Lawler,  D. Lefrancois,  
 S. Lehtola,  Rain Li,  Yi-Pei Li,  Jiashu Liang,  M. Liebenthal,  
 Hung-Hsuan Lin,  You-Sheng Lin,  Fenglai Liu,  Kuan-Yu Liu,  
 M. Loipersberger,  A. Luenser,  A. Manjanath,  P. Manohar,  E. Mansoor,  
 S. F. Manzer,  Shan-Ping Mao,  A. V. Marenich,  T. Markovich,  S. Mason,  
 S. A. Maurer,  P. F. McLaughlin,  M. F. S. J. Menger,  J.-M. Mewes,  
 S. A. Mewes,  P. Morgante,  J. W. Mullinax,  T. S. Nguyen-Beck,  
 K. J. Oosterbaan,  G. Paran,  Alexander C. Paul,  Suranjan K. Paul,  
 F. Pavosevic,  Zheng Pei,  S. Prager,  E. I. Proynov,  E. Ramos,  B. Rana,  
 A. E. Rask,  A. Rettig,  R. M. Richard,  F. Rob,  E. Rossomme,  T. Scheele,  
 M. Scheurer,  M. Schneider,  N. Sergueev,  S. M. Sharada,  W. Skomorowski,  
 D. W. Small,  C. J. Stein,  Yu-Chuan Su,  E. J. Sundstrom,  Zhen Tao,  
 J. Thirman,  T. Tsuchimochi,  N. M. Tubman,  S. P. Veccham,  O. Vydrov,  
 J. Wenzel,  J. Witte,  A. Yamada,  Kun Yao,  S. Yeganeh,  S. R. Yost,  
 A. Zech,  Igor Ying Zhang,  Xing Zhang,  Yu Zhang,  D. Zuev,  
 A. Aspuru-Guzik,  A. T. Bell,  N. A. Besley,  K. B. Bravaya,  B. R. Brooks,  
 D. Casanova,  Jeng-Da Chai,  S. Coriani,  C. J. Cramer,  
 A. E. DePrince, III,  R. A. DiStasio Jr.,  A. Dreuw,  B. D. Dunietz,  
 T. R. Furlani,  W. A. Goddard III,  S. Grimme,  S. Hammes-Schiffer,  
 T. Head-Gordon,  W. J. Hehre,  Chao-Ping Hsu,  T.-C. Jagau,  Yousung Jung,  
 A. Klamt,  Jing Kong,  D. S. Lambrecht,  WanZhen Liang,  N. J. Mayhall,  
 C. W. McCurdy,  J. B. Neaton,  C. Ochsenfeld,  J. A. Parkhill,  R. Peverati,  
 V. A. Rassolov,  Yihan Shao,  L. V. Slipchenko,  T. Stauch,  R. P. Steele,  
 J. E. Subotnik,  A. J. W. Thom,  A. Tkatchenko,  D. G. Truhlar,  
 T. Van Voorhis,  T. A. Wesolowski,  K. B. Whaley,  H. L. Woodcock III,  
 P. M. Zimmerman,  S. Faraji,  P. M. W. Gill,  M. Head-Gordon,  
 J. M. Herbert,  A. I. Krylov

 Contributors to earlier versions of Q-Chem not listed above: 
 R. D. Adamson,  B. Austin,  R. Baer,  J. Baker,  G. J. O. Beran,  
 K. Brandhorst,  S. T. Brown,  E. F. C. Byrd,  A. K. Chakraborty,  
 G. K. L. Chan,  Chun-Min Chang,  Yunqing Chen,  C.-L. Cheng,  
 Siu Hung Chien,  D. M. Chipman,  D. L. Crittenden,  H. Dachsel,  
 R. J. Doerksen,  A. D. Dutoi,  R. G. Edgar,  J. Fosso-Tande,  
 L. Fusti-Molnar,  D. Ghosh,  A. Ghysels,  A. Golubeva-Zadorozhnaya,  
 J. Gonthier,  M. S. Gordon,  S. R. Gwaltney,  G. Hawkins,  J. E. Herr,  
 A. Heyden,  S. Hirata,  E. G. Hohenstein,  G. Kedziora,  F. J. Keil,  
 C. Kelley,  Jihan Kim,  R. A. King,  R. Z. Khaliullin,  P. P. Korambath,  
 W. Kurlancheek,  A. Laurent,  A. M. Lee,  M. S. Lee,  S. V. Levchenko,  
 Ching Yeh Lin,  D. Liotard,  E. Livshits,  R. C. Lochan,  I. Lotan,  
 L. A. Martinez-Martinez,  P. E. Maslen,  N. Nair,  D. P. O'Neill,  
 D. Neuhauser,  E. Neuscamman,  C. M. Oana,  R. Olivares-Amaya,  R. Olson,  
 T. M. Perrine,  B. Peters,  P. A. Pieniazek,  A. Prociuk,  Y. M. Rhee,  
 J. Ritchie,  M. A. Rohrdanz,  E. Rosta,  N. J. Russ,  H. F. Schaefer III,  
 M. W. Schmidt,  N. E. Schultz,  S. Sharma,  N. Shenvi,  C. D. Sherrill,  
 A. C. Simmonett,  A. Sodt,  T. Stein,  D. Stuck,  K. S. Thanthiriwatte,  
 V. Vanovschi,  L. Vogt,  Tao Wang,  A. Warshel,  M. A. Watson,  
 C. F. Williams,  Q. Wu,  X. Xu,  Jun Yang,  W. Zhang,  Yan Zhao

 Please cite Q-Chem as follows:
 Y. Shao et al., Mol. Phys. 113, 184-215 (2015)
 DOI: 10.1080/00268976.2014.952696

 Q-Chem 5.4.0 for Intel X86 EM64T Linux

 Parts of Q-Chem use Armadillo 9.800.1 (Horizon Scraper).
 http://arma.sourceforge.net/

 Q-Chem begins on Sun Jul 10 03:29:01 2022  

 Host: 
0

     Scratch files written to ./qchem292522//
 May1621 |scratch|qcdevops|jenkins|workspace|build_RNUM    
 Processing $rem in /cm/shared/apps/spack/cpu/opt/spack/linux-centos8-zen2/gcc-10.2.0/qchem-5.4-akfmr7b3t57bfs6qan3padb2wnb2i7cl/config/preferences:
 Processing $rem in /home/theleonzhang/.qchemrc:
 Symmetry turned off for PCM/SM12/SMD calculation
 Core orbitals will be frozen

 Checking the input file for inconsistencies... 	...done.

--------------------------------------------------------------
User input:
--------------------------------------------------------------
$molecule
0 1
C	0.000713	-3.866725	-0.775127
C	0.000302	-3.703963	0.612565
C	-0.000067	-2.357056	1.066639
H	0.000470	-4.561092	1.302900
C	-0.000000	-1.440664	-0.000000
S	-0.000009	-2.286957	-1.544483
C	-0.000295	-1.978743	2.521872
H	-0.000221	-2.878678	3.166949
H	-0.892850	-1.376015	2.790821
H	0.892005	-1.375728	2.791023
C	0.000000	0.000000	0.000000
C	0.431829	0.747884	1.099446
C	1.123799	1.946373	0.776721
H	0.247423	0.428497	2.136088
C	1.234147	2.137457	-0.612546
S	0.471221	0.816130	-1.486809
C	1.667694	2.888380	1.814609
H	1.454874	2.519768	2.836676
H	1.222009	3.901210	1.726239
H	2.767675	3.008788	1.726228
H	1.708773	2.959493	-1.161575
H	-0.896681	-4.392713	-1.119411
H	0.898372	-4.392347	-1.119277
H	1.080000	-1.440391	0.000115
$end

$rem
JOBTYPE		SP
EXCHANGE	HF
CORRELATION	pRIMP2
BASIS		cc-pvtz
METHOD		rimp2
AUX_BASIS	rimp2-cc-pvtz
SOLVENT_METHOD	PCM
PURECART	11111
SYMMETRY	false
MEM_TOTAL	110000
SCF_CONVERGENCE = 6
THRESH=10
$end



$solvent
dielectric 4.90
$end
--------------------------------------------------------------
 ----------------------------------------------------------------
             Standard Nuclear Orientation (Angstroms)
    I     Atom           X                Y                Z
 ----------------------------------------------------------------
    1      C       0.0007130000    -3.8667250000    -0.7751270000
    2      C       0.0003020000    -3.7039630000     0.6125650000
    3      C      -0.0000670000    -2.3570560000     1.0666390000
    4      H       0.0004700000    -4.5610920000     1.3029000000
    5      C       0.0000000000    -1.4406640000     0.0000000000
    6      S      -0.0000090000    -2.2869570000    -1.5444830000
    7      C      -0.0002950000    -1.9787430000     2.5218720000
    8      H      -0.0002210000    -2.8786780000     3.1669490000
    9      H      -0.8928500000    -1.3760150000     2.7908210000
   10      H       0.8920050000    -1.3757280000     2.7910230000
   11      C       0.0000000000     0.0000000000     0.0000000000
   12      C       0.4318290000     0.7478840000     1.0994460000
   13      C       1.1237990000     1.9463730000     0.7767210000
   14      H       0.2474230000     0.4284970000     2.1360880000
   15      C       1.2341470000     2.1374570000    -0.6125460000
   16      S       0.4712210000     0.8161300000    -1.4868090000
   17      C       1.6676940000     2.8883800000     1.8146090000
   18      H       1.4548740000     2.5197680000     2.8366760000
   19      H       1.2220090000     3.9012100000     1.7262390000
   20      H       2.7676750000     3.0087880000     1.7262280000
   21      H       1.7087730000     2.9594930000    -1.1615750000
   22      H      -0.8966810000    -4.3927130000    -1.1194110000
   23      H       0.8983720000    -4.3923470000    -1.1192770000
   24      H       1.0800000000    -1.4403910000     0.0001150000
 ----------------------------------------------------------------
 Nuclear Repulsion Energy =         883.47141927 hartrees
 There are       52 alpha and       52 beta electrons

 Q-Chem warning in module forms1/BasisType.C, line 2236:

 You are not using the predefined 5D/6D in this basis set.

 Requested basis set is cc-pVTZ
 There are 196 shells and 536 basis functions

 Total QAlloc Memory Limit 110000 MB
 Mega-Array Size       188 MB
 MEM_STATIC part       192 MB
 Discretize the solute cavity surface with Lebedev spheres
	Using 110 Lebedev grid points for each H atom
	Using 194 Lebedev grid points for other atoms
	Atomic van der Waals radii will be scaled by 1.20
 Remove points where switching function is < 1.0e-08
 Keep 1557 surface tesserae and discard 2091 interior tesserae
 Molecular Surface Area = 230.421 Angst**2
 Requested basis set is rimp2-cc-pVTZ
 There are 414 shells and 1414 basis functions
 A cutoff of  1.0D-10 yielded  14245 shell pairs
 There are    103117 function pairs (    132099 Cartesian)
 Smallest overlap matrix eigenvalue = 6.05E-05

 Scale SEOQF with 1.000000e-01/1.000000e-01/1.000000e-01

 Standard Electronic Orientation quadrupole field applied
 Nucleus-field energy     =     0.0000000193 hartrees
 Guess from superposition of atomic densities
 Warning:  Energy on first SCF cycle will be non-variational
 SAD guess density has 104.000000 electrons

 -----------------------------------------------------------------------
  General SCF calculation program by
  Eric Jon Sundstrom, Paul Horn, Yuezhi Mao, Dmitri Zuev, Alec White,
  David Stuck, Shaama M.S., Shane Yost, Joonho Lee, David Small,
  Daniel Levine, Susi Lehtola, Hugh Burton, Evgeny Epifanovsky,
  Bang C. Huynh
 -----------------------------------------------------------------------
 Hartree-Fock
 A restricted SCF calculation will be
 performed using DIIS
 SCF converges when DIIS error is below 1.0e-06
 ---------------------------------------
  Cycle       Energy         DIIS error
 ---------------------------------------
    1   -1186.1033105226      2.40e-02  
    2   -1180.5907882839      1.59e-03  
    3   -1180.7181716238      6.49e-04  
    4   -1180.7341512731      3.45e-04  
    5   -1180.7397482377      6.11e-05  
    6   -1180.7400135618      2.57e-05  
    7   -1180.7400783574      9.13e-06  
    8   -1180.7400921520      4.29e-06  
    9   -1180.7400951457      1.51e-06  
   10   -1180.7400956398      5.19e-07  Convergence criterion met
 ---------------------------------------
 SCF time:   CPU 589.34s  wall 592.00s 

************** Final PCM Free Energy Summary **************
 G_electrostatic  =      -0.00959193 hartree =      -6.01902982 kcal/mol
 G_cavitation     =       0.00000000 hartree =       0.00000000 kcal/mol
 G_dispersion     =       0.00000000 hartree =       0.00000000 kcal/mol
 G_repulsion      =       0.00000000 hartree =       0.00000000 kcal/mol
 --------------------------------------------------
 Non-electrostatic Free Energy =       0.00000000 hartree =       0.00000000 kcal/mol
 Total                         =      -0.00959193 hartree =      -6.01902982 kcal/mol
 --------------------------------------------------
 SCF Energy (H0 + V/2)                       =   -1180.74009564 
 Solute Internal Energy (H0)                 =   -1180.73050371 
 Total Free Energy (H0 + V/2 + non-elec)     =   -1180.74009564 hartree
                                             = -740925.59280340 kcal/mol
***********************************************************

 SCF   energy in the final basis set =    -1180.7400956398
 Total energy in the final basis set =    -1180.7400956398


 --------------------------------------------------------------
  Generalized many-body perturbation theory program
  by Joonho Lee, Fazle Rob, Xintian Feng, Evgeny Epifanovsky

 No regularization used 
 (reg. param. = 0.0000e+00)
  (P|Q)^-1/2 Time:  CPU 1.90 s  wall 1.91 s

 In RI-MP2 calculation: 
 # of frozen core orbitals: 20

 Components of the RIMP2 correlation energy:
        aaaa    correlation energy =        -0.2525221389 a.u.
        abab    correlation energy =        -1.5059854856 a.u.
        bbbb    correlation energy =        -0.2525221389 a.u.
        non-Brillouin singles      =        -0.0000000000 a.u.
        total same-spin energy     =        -0.5050442777 a.u.
        total opposite-spin energy =        -1.5059854856 a.u.

 Total  RIMP2   correlation energy =        -2.0110297634 a.u.
        RIMP2         total energy =     -1182.7511254031 a.u.

 RI-MP2 Energy Time:  CPU 79.86 s  wall 80.19 s
 
 --------------------------------------------------------------
 
                    Orbital Energies (a.u.)
 --------------------------------------------------------------
 
 Alpha MOs
 -- Occupied --
-91.9827 -91.9433 -11.2864 -11.2651 -11.2618 -11.2572 -11.2503 -11.2434
-11.2339 -11.2292 -11.2284 -11.2235  -8.9826  -8.9482  -6.6636  -6.6630
 -6.6624  -6.6296  -6.6285  -6.6273  -1.2045  -1.1524  -1.0606  -1.0327
 -0.9996  -0.9619  -0.9158  -0.8998  -0.8161  -0.7629  -0.7284  -0.7055
 -0.6590  -0.6484  -0.6110  -0.5942  -0.5852  -0.5698  -0.5588  -0.5531
 -0.5452  -0.5366  -0.5245  -0.5031  -0.4821  -0.4812  -0.4675  -0.4402
 -0.3615  -0.3434  -0.3236  -0.2622
 -- Virtual --
  0.0915   0.1292   0.1453   0.1494   0.1559   0.1694   0.1765   0.1857
  0.1865   0.2028   0.2091   0.2157   0.2263   0.2327   0.2384   0.2425
  0.2560   0.2710   0.2906   0.3120   0.3151   0.3221   0.3471   0.3621
  0.3680   0.3750   0.3820   0.3929   0.4010   0.4057   0.4235   0.4282
  0.4333   0.4412   0.4604   0.4672   0.4756   0.4786   0.4831   0.4919
  0.5044   0.5149   0.5247   0.5310   0.5409   0.5481   0.5493   0.5605
  0.5726   0.5854   0.5900   0.5966   0.6031   0.6085   0.6181   0.6216
  0.6238   0.6315   0.6355   0.6383   0.6423   0.6510   0.6542   0.6644
  0.6703   0.6741   0.6808   0.6871   0.6935   0.7104   0.7259   0.7273
  0.7439   0.7511   0.7619   0.7712   0.7847   0.7920   0.7985   0.8129
  0.8376   0.8500   0.8559   0.8613   0.8853   0.8904   0.9073   0.9180
  0.9326   0.9436   0.9484   0.9565   0.9666   0.9784   0.9953   1.0092
  1.0206   1.0289   1.0374   1.0494   1.0592   1.0663   1.0722   1.0811
  1.0891   1.0999   1.1044   1.1226   1.1382   1.1488   1.1637   1.1739
  1.1839   1.1896   1.1941   1.2127   1.2192   1.2251   1.2346   1.2416
  1.2505   1.2593   1.2618   1.2675   1.2766   1.2869   1.3062   1.3137
  1.3227   1.3331   1.3372   1.3589   1.3789   1.3912   1.3972   1.4191
  1.4284   1.4404   1.4534   1.4640   1.4693   1.4824   1.4857   1.5061
  1.5103   1.5255   1.5276   1.5342   1.5408   1.5462   1.5523   1.5682
  1.5760   1.5806   1.5925   1.6127   1.6221   1.6305   1.6370   1.6445
  1.6548   1.6688   1.6731   1.6832   1.6871   1.7120   1.7148   1.7458
  1.7512   1.7646   1.7904   1.8004   1.8257   1.8358   1.8417   1.8749
  1.8821   1.8987   1.9087   1.9484   1.9576   1.9743   1.9942   2.0054
  2.0200   2.0375   2.0554   2.0649   2.1041   2.1121   2.1457   2.1696
  2.1802   2.1898   2.2189   2.2226   2.2376   2.2480   2.2715   2.2745
  2.2972   2.3077   2.3323   2.3825   2.4149   2.4343   2.4431   2.4765
  2.4911   2.5175   2.5306   2.5529   2.5632   2.5842   2.5941   2.6141
  2.6396   2.6512   2.6606   2.6701   2.6814   2.6970   2.7140   2.7379
  2.7434   2.7548   2.7597   2.7702   2.7757   2.8014   2.8067   2.8201
  2.8272   2.8458   2.8640   2.8735   2.8910   2.9150   2.9249   2.9492
  2.9528   2.9733   2.9845   2.9982   3.0094   3.0267   3.0339   3.0431
  3.0697   3.0899   3.1042   3.1053   3.1152   3.1226   3.1392   3.1432
  3.1486   3.1615   3.1658   3.1698   3.1833   3.1959   3.2069   3.2142
  3.2270   3.2411   3.2513   3.2576   3.2632   3.2810   3.2940   3.2998
  3.3089   3.3173   3.3325   3.3411   3.3455   3.3529   3.3554   3.3718
  3.3786   3.3820   3.3978   3.4100   3.4159   3.4173   3.4213   3.4328
  3.4465   3.4513   3.4572   3.4662   3.4756   3.4797   3.4929   3.5106
  3.5168   3.5313   3.5374   3.5411   3.5530   3.5625   3.5677   3.5819
  3.5968   3.6039   3.6180   3.6243   3.6355   3.6454   3.6592   3.6714
  3.6800   3.6896   3.6984   3.7013   3.7130   3.7205   3.7309   3.7503
  3.7562   3.7639   3.7702   3.7778   3.7841   3.7992   3.8045   3.8197
  3.8333   3.8363   3.8545   3.8711   3.8769   3.8843   3.8932   3.9149
  3.9308   3.9481   3.9586   3.9734   3.9811   3.9915   4.0105   4.0213
  4.0378   4.0431   4.0543   4.0700   4.0762   4.0958   4.1061   4.1094
  4.1311   4.1428   4.1507   4.1550   4.1673   4.1684   4.1953   4.2106
  4.2240   4.2267   4.2312   4.2467   4.2572   4.2659   4.2748   4.2911
  4.3072   4.3127   4.3195   4.3453   4.3561   4.3625   4.3758   4.3770
  4.3801   4.4028   4.4043   4.4117   4.4131   4.4369   4.4445   4.4605
  4.4620   4.4796   4.4855   4.4986   4.5124   4.5299   4.5476   4.5710
  4.5991   4.6025   4.6191   4.6449   4.6491   4.6670   4.6726   4.6934
  4.7276   4.7313   4.7458   4.7866   4.7987   4.8201   4.8299   4.8525
  4.8777   4.8869   4.8905   4.9237   4.9370   4.9623   4.9853   5.0073
  5.0517   5.0737   5.0811   5.1110   5.1207   5.1285   5.1417   5.1975
  5.2154   5.2200   5.2512   5.2606   5.2731   5.3023   5.3131   5.3221
  5.3538   5.3728   5.3868   5.4043   5.4120   5.4241   5.4360   5.4446
  5.4725   5.5202   5.5350   5.5490   5.5506   5.5715   5.5817   5.5912
  5.6207   5.6298   5.6329   5.6469   5.6824   5.7022   5.7078   5.7512
  5.7742   5.7982   5.8355   5.9348   6.0212   6.0723   6.1277   6.1731
  6.2287   6.2333   6.2380   6.2552   6.2673   6.2882   6.2992   6.3184
  6.4319   6.4769   9.5101  10.7344  12.1400  12.8960  13.1610  13.9104
 14.1422  14.2112  14.3788  14.9548
 --------------------------------------------------------------
 
          Ground-State Mulliken Net Atomic Charges

     Atom                 Charge (a.u.)
  ----------------------------------------
      1 C                    -0.079321
      2 C                    -0.300197
      3 C                    -0.074220
      4 H                     0.178313
      5 C                     0.117090
      6 S                    -0.185328
      7 C                    -0.299389
      8 H                     0.120390
      9 H                     0.111678
     10 H                     0.103529
     11 C                    -0.003510
     12 C                    -0.319605
     13 C                     0.055588
     14 H                     0.186894
     15 C                    -0.282808
     16 S                     0.011075
     17 C                    -0.270544
     18 H                     0.100869
     19 H                     0.108977
     20 H                     0.107663
     21 H                     0.197403
     22 H                     0.112672
     23 H                     0.111921
     24 H                     0.190860
  ----------------------------------------
  Sum of atomic charges =     0.000000

 -----------------------------------------------------------------
                    Cartesian Multipole Moments
 -----------------------------------------------------------------
    Charge (ESU x 10^10)
                -0.0000
    Dipole Moment (Debye)
         X       1.6405      Y      -0.4956      Z       3.8027
       Tot       4.1710
    Quadrupole Moments (Debye-Ang)
        XX     -89.1660     XY       2.8721     YY     -75.5108
        XZ       0.2800     YZ      -2.6677     ZZ     -85.7163
    Octopole Moments (Debye-Ang^2)
       XXX    -105.5378    XXY      62.2476    XYY     -19.1811
       YYY     131.1895    XXZ      -3.5510    XYZ      -0.0871
       YYZ      -3.9339    XZZ     -31.3850    YZZ      57.6600
       ZZZ       8.4698
    Hexadecapole Moments (Debye-Ang^3)
      XXXX    -385.1798   XXXY    -208.9802   XXYY    -529.7900
      XYYY    -183.9824   YYYY   -2566.1895   XXXZ     -48.2311
      XXYZ     -27.5591   XYYZ     -24.3323   YYYZ     -88.4546
      XXZZ    -254.4400   XYZZ     -60.9942   YYZZ    -625.2503
      XZZZ     -51.7075   YZZZ    -119.9964   ZZZZ   -1098.3530
 -----------------------------------------------------------------
 Total job time:  674.38s(wall), 670.10s(cpu) 
 Sun Jul 10 03:40:15 2022

        *************************************************************
        *                                                           *
        *  Thank you very much for using Q-Chem.  Have a nice day.  *
        *                                                           *
        *************************************************************


remove work dirs ./qchem292522.0 -- ./qchem292522.-1
rm -rf ./qchem292522
You are running Q-Chem version: 5.4.0

#
# job setting
#
local host:  exp-5-13
current dir: /expanse/lustre/scratch/theleonzhang/temp_project/Hydrogenated_Rotation_Test
input file:  Methylthiophene_Phi_30_Theta_180_Methylthiophene_Hydrogenated_Alternate.qcin
output file: 
nprocs     : 0
nthreads   : 1
#
# qchem installation setting
#
QC:          /cm/shared/apps/spack/cpu/opt/spack/linux-centos8-zen2/gcc-10.2.0/qchem-5.4-akfmr7b3t57bfs6qan3padb2wnb2i7cl
QCAUX:       /cm/shared/apps/spack/cpu/opt/spack/linux-centos8-zen2/gcc-10.2.0/qchem-5.4-akfmr7b3t57bfs6qan3padb2wnb2i7cl/qcaux
QCPROG:      /cm/shared/apps/spack/cpu/opt/spack/linux-centos8-zen2/gcc-10.2.0/qchem-5.4-akfmr7b3t57bfs6qan3padb2wnb2i7cl/exe/qcprog.exe_s
QCPROG_S:    /cm/shared/apps/spack/cpu/opt/spack/linux-centos8-zen2/gcc-10.2.0/qchem-5.4-akfmr7b3t57bfs6qan3padb2wnb2i7cl/exe/qcprog.exe_s
PARALLEL:    -DSERIAL
QCMPI:       mpich
#
# qchem directory setting
#
qcrun:       qchem3844104
QCSCRATCH:   .
QCLOCALSCR:  
QCTMPDIR:    .
QCFILEPREF:  ./qchem3844104
QCSAVEDIR:   
workdirs:    ./qchem3844104
workdir0:    ./qchem3844104
partmpdirs =  
#
# parallel setting
#
QCRSH:           ssh
QCMPI:           mpich
QCMPIRUN:        /cm/shared/apps/spack/cpu/opt/spack/linux-centos8-zen2/gcc-10.2.0/qchem-5.4-akfmr7b3t57bfs6qan3padb2wnb2i7cl/bin/mpi/mpirun_qchem
QCMACHINEFILE:   ./qchem3844104/hostfile

#
# env setting
#
exported envs:   QC QCAUX QCSCRATCH QCRUNNAME QCFILEPREF QCPROG QCPROG_S GUIFILE

Running Job 1 of 1 Methylthiophene_Phi_30_Theta_180_Methylthiophene_Hydrogenated_Alternate.qcin
qchem Methylthiophene_Phi_30_Theta_180_Methylthiophene_Hydrogenated_Alternate.qcin_3844104.0 ./qchem3844104/ 0
/cm/shared/apps/spack/cpu/opt/spack/linux-centos8-zen2/gcc-10.2.0/qchem-5.4-akfmr7b3t57bfs6qan3padb2wnb2i7cl/exe/qcprog.exe_s Methylthiophene_Phi_30_Theta_180_Methylthiophene_Hydrogenated_Alternate.qcin_3844104.0 ./qchem3844104/
                  Welcome to Q-Chem
     A Quantum Leap Into The Future Of Chemistry


 Q-Chem 5.4, Q-Chem, Inc., Pleasanton, CA (2021)

 License issued to: University of California, San Diego (site)

 E. Epifanovsky,  A. T. B. Gilbert,  Xintian Feng,  Joonho Lee,  Yuezhi Mao,  
 N. Mardirossian,  P. Pokhilko,  A. White,  M. Wormit,  M. P. Coons,  
 A. L. Dempwolff,  Zhengting Gan,  D. Hait,  P. R. Horn,  L. D. Jacobson,  
 I. Kaliman,  J. Kussmann,  A. W. Lange,  Ka Un Lao,  D. S. Levine,  Jie Liu,  
 S. C. McKenzie,  A. F. Morrison,  K. Nanda,  F. Plasser,  D. R. Rehn,  
 M. L. Vidal,  Zhi-Qiang You,  Ying Zhu,  B. Alam,  B. Albrecht,  
 A. Aldossary,  E. Alguire,  J. H. Andersen,  D. Barton,  K. Begam,  A. Behn,  
 Y. A. Bernard,  E. J. Berquist,  H. Burton,  A. Carreras,  K. Carter-Fenk,  
 R. Chakraborty,  A. D. Chien,  K. D. Closser,  V. Cofer-Shabica,  
 S. Dasgupta,  Jia Deng,  M. de Wergifosse,  M. Diedenhofen,  Hainam Do,  
 S. Ehlert,  Po-Tung Fang,  S. Fatehi,  Qingguo Feng,  J. Gayvert,  
 Qinghui Ge,  G. Gidofalvi,  M. Goldey,  J. Gomes,  C. Gonzalez-Espinoza,  
 S. Gulania,  A. Gunina,  M. W. D. Hanson-Heine,  P. H. P. Harbach,  
 A. W. Hauser,  M. F. Herbst,  M. Hernandez Vera,  M. Hodecker,  
 Z. C. Holden,  S. Houck,  Xunkun Huang,  Kerwin Hui,  B. C. Huynh,  
 M. Ivanov,  Hyunjun Ji,  Hanjie Jiang,  B. Kaduk,  S. Kaehler,  
 K. Khistyaev,  Jaehoon Kim,  P. Klunzinger,  Z. Koczor-Benda,  
 Joong Hoon Koh,  D. Kosenkov,  L. Koulias,  T. Kowalczyk,  C. M. Krauter,  
 K. Kue,  A. Kunitsa,  T. Kus,  A. Landau,  K. V. Lawler,  D. Lefrancois,  
 S. Lehtola,  Rain Li,  Yi-Pei Li,  Jiashu Liang,  M. Liebenthal,  
 Hung-Hsuan Lin,  You-Sheng Lin,  Fenglai Liu,  Kuan-Yu Liu,  
 M. Loipersberger,  A. Luenser,  A. Manjanath,  P. Manohar,  E. Mansoor,  
 S. F. Manzer,  Shan-Ping Mao,  A. V. Marenich,  T. Markovich,  S. Mason,  
 S. A. Maurer,  P. F. McLaughlin,  M. F. S. J. Menger,  J.-M. Mewes,  
 S. A. Mewes,  P. Morgante,  J. W. Mullinax,  T. S. Nguyen-Beck,  
 K. J. Oosterbaan,  G. Paran,  Alexander C. Paul,  Suranjan K. Paul,  
 F. Pavosevic,  Zheng Pei,  S. Prager,  E. I. Proynov,  E. Ramos,  B. Rana,  
 A. E. Rask,  A. Rettig,  R. M. Richard,  F. Rob,  E. Rossomme,  T. Scheele,  
 M. Scheurer,  M. Schneider,  N. Sergueev,  S. M. Sharada,  W. Skomorowski,  
 D. W. Small,  C. J. Stein,  Yu-Chuan Su,  E. J. Sundstrom,  Zhen Tao,  
 J. Thirman,  T. Tsuchimochi,  N. M. Tubman,  S. P. Veccham,  O. Vydrov,  
 J. Wenzel,  J. Witte,  A. Yamada,  Kun Yao,  S. Yeganeh,  S. R. Yost,  
 A. Zech,  Igor Ying Zhang,  Xing Zhang,  Yu Zhang,  D. Zuev,  
 A. Aspuru-Guzik,  A. T. Bell,  N. A. Besley,  K. B. Bravaya,  B. R. Brooks,  
 D. Casanova,  Jeng-Da Chai,  S. Coriani,  C. J. Cramer,  
 A. E. DePrince, III,  R. A. DiStasio Jr.,  A. Dreuw,  B. D. Dunietz,  
 T. R. Furlani,  W. A. Goddard III,  S. Grimme,  S. Hammes-Schiffer,  
 T. Head-Gordon,  W. J. Hehre,  Chao-Ping Hsu,  T.-C. Jagau,  Yousung Jung,  
 A. Klamt,  Jing Kong,  D. S. Lambrecht,  WanZhen Liang,  N. J. Mayhall,  
 C. W. McCurdy,  J. B. Neaton,  C. Ochsenfeld,  J. A. Parkhill,  R. Peverati,  
 V. A. Rassolov,  Yihan Shao,  L. V. Slipchenko,  T. Stauch,  R. P. Steele,  
 J. E. Subotnik,  A. J. W. Thom,  A. Tkatchenko,  D. G. Truhlar,  
 T. Van Voorhis,  T. A. Wesolowski,  K. B. Whaley,  H. L. Woodcock III,  
 P. M. Zimmerman,  S. Faraji,  P. M. W. Gill,  M. Head-Gordon,  
 J. M. Herbert,  A. I. Krylov

 Contributors to earlier versions of Q-Chem not listed above: 
 R. D. Adamson,  B. Austin,  R. Baer,  J. Baker,  G. J. O. Beran,  
 K. Brandhorst,  S. T. Brown,  E. F. C. Byrd,  A. K. Chakraborty,  
 G. K. L. Chan,  Chun-Min Chang,  Yunqing Chen,  C.-L. Cheng,  
 Siu Hung Chien,  D. M. Chipman,  D. L. Crittenden,  H. Dachsel,  
 R. J. Doerksen,  A. D. Dutoi,  R. G. Edgar,  J. Fosso-Tande,  
 L. Fusti-Molnar,  D. Ghosh,  A. Ghysels,  A. Golubeva-Zadorozhnaya,  
 J. Gonthier,  M. S. Gordon,  S. R. Gwaltney,  G. Hawkins,  J. E. Herr,  
 A. Heyden,  S. Hirata,  E. G. Hohenstein,  G. Kedziora,  F. J. Keil,  
 C. Kelley,  Jihan Kim,  R. A. King,  R. Z. Khaliullin,  P. P. Korambath,  
 W. Kurlancheek,  A. Laurent,  A. M. Lee,  M. S. Lee,  S. V. Levchenko,  
 Ching Yeh Lin,  D. Liotard,  E. Livshits,  R. C. Lochan,  I. Lotan,  
 L. A. Martinez-Martinez,  P. E. Maslen,  N. Nair,  D. P. O'Neill,  
 D. Neuhauser,  E. Neuscamman,  C. M. Oana,  R. Olivares-Amaya,  R. Olson,  
 T. M. Perrine,  B. Peters,  P. A. Pieniazek,  A. Prociuk,  Y. M. Rhee,  
 J. Ritchie,  M. A. Rohrdanz,  E. Rosta,  N. J. Russ,  H. F. Schaefer III,  
 M. W. Schmidt,  N. E. Schultz,  S. Sharma,  N. Shenvi,  C. D. Sherrill,  
 A. C. Simmonett,  A. Sodt,  T. Stein,  D. Stuck,  K. S. Thanthiriwatte,  
 V. Vanovschi,  L. Vogt,  Tao Wang,  A. Warshel,  M. A. Watson,  
 C. F. Williams,  Q. Wu,  X. Xu,  Jun Yang,  W. Zhang,  Yan Zhao

 Please cite Q-Chem as follows:
 Y. Shao et al., Mol. Phys. 113, 184-215 (2015)
 DOI: 10.1080/00268976.2014.952696

 Q-Chem 5.4.0 for Intel X86 EM64T Linux

 Parts of Q-Chem use Armadillo 9.800.1 (Horizon Scraper).
 http://arma.sourceforge.net/

 Q-Chem begins on Sun Jul 10 04:11:21 2022  

 Host: 
0

     Scratch files written to ./qchem3844104//
 May1621 |scratch|qcdevops|jenkins|workspace|build_RNUM    
 Processing $rem in /cm/shared/apps/spack/cpu/opt/spack/linux-centos8-zen2/gcc-10.2.0/qchem-5.4-akfmr7b3t57bfs6qan3padb2wnb2i7cl/config/preferences:
 Processing $rem in /home/theleonzhang/.qchemrc:
 Symmetry turned off for PCM/SM12/SMD calculation
 Core orbitals will be frozen

 Checking the input file for inconsistencies... 	...done.

--------------------------------------------------------------
User input:
--------------------------------------------------------------
$molecule
0 1
C	0.000713	-3.866725	-0.775127
C	0.000302	-3.703963	0.612565
C	-0.000067	-2.357056	1.066639
H	0.000470	-4.561092	1.302900
C	-0.000000	-1.440664	-0.000000
S	-0.000009	-2.286957	-1.544483
C	-0.000295	-1.978743	2.521872
H	-0.000221	-2.878678	3.166949
H	-0.892850	-1.376015	2.790821
H	0.892005	-1.375728	2.791023
C	0.000000	0.000000	0.000000
C	0.431829	0.747884	1.099446
C	1.123799	1.946373	0.776721
H	0.247423	0.428497	2.136088
C	1.234147	2.137457	-0.612546
S	0.471221	0.816130	-1.486809
C	1.667694	2.888380	1.814609
H	1.454874	2.519768	2.836676
H	1.222009	3.901210	1.726239
H	2.767675	3.008788	1.726228
H	1.708773	2.959493	-1.161575
H	-0.896681	-4.392713	-1.119411
H	0.898372	-4.392347	-1.119277
H	1.080000	-1.440391	0.000115
$end

$rem
JOBTYPE		SP
EXCHANGE	HF
CORRELATION	pRIMP2
BASIS		cc-pvtz
METHOD		rimp2
AUX_BASIS	rimp2-cc-pvtz
SOLVENT_METHOD	PCM
PURECART	11111
SYMMETRY	false
MEM_TOTAL	110000
SCF_CONVERGENCE = 6
THRESH=10
$end



$solvent
dielectric 4.90
$end
--------------------------------------------------------------
 ----------------------------------------------------------------
             Standard Nuclear Orientation (Angstroms)
    I     Atom           X                Y                Z
 ----------------------------------------------------------------
    1      C       0.0007130000    -3.8667250000    -0.7751270000
    2      C       0.0003020000    -3.7039630000     0.6125650000
    3      C      -0.0000670000    -2.3570560000     1.0666390000
    4      H       0.0004700000    -4.5610920000     1.3029000000
    5      C       0.0000000000    -1.4406640000     0.0000000000
    6      S      -0.0000090000    -2.2869570000    -1.5444830000
    7      C      -0.0002950000    -1.9787430000     2.5218720000
    8      H      -0.0002210000    -2.8786780000     3.1669490000
    9      H      -0.8928500000    -1.3760150000     2.7908210000
   10      H       0.8920050000    -1.3757280000     2.7910230000
   11      C       0.0000000000     0.0000000000     0.0000000000
   12      C       0.4318290000     0.7478840000     1.0994460000
   13      C       1.1237990000     1.9463730000     0.7767210000
   14      H       0.2474230000     0.4284970000     2.1360880000
   15      C       1.2341470000     2.1374570000    -0.6125460000
   16      S       0.4712210000     0.8161300000    -1.4868090000
   17      C       1.6676940000     2.8883800000     1.8146090000
   18      H       1.4548740000     2.5197680000     2.8366760000
   19      H       1.2220090000     3.9012100000     1.7262390000
   20      H       2.7676750000     3.0087880000     1.7262280000
   21      H       1.7087730000     2.9594930000    -1.1615750000
   22      H      -0.8966810000    -4.3927130000    -1.1194110000
   23      H       0.8983720000    -4.3923470000    -1.1192770000
   24      H       1.0800000000    -1.4403910000     0.0001150000
 ----------------------------------------------------------------
 Nuclear Repulsion Energy =         883.47141927 hartrees
 There are       52 alpha and       52 beta electrons

 Q-Chem warning in module forms1/BasisType.C, line 2236:

 You are not using the predefined 5D/6D in this basis set.

 Requested basis set is cc-pVTZ
 There are 196 shells and 536 basis functions

 Total QAlloc Memory Limit 110000 MB
 Mega-Array Size       188 MB
 MEM_STATIC part       192 MB
 Discretize the solute cavity surface with Lebedev spheres
	Using 110 Lebedev grid points for each H atom
	Using 194 Lebedev grid points for other atoms
	Atomic van der Waals radii will be scaled by 1.20
 Remove points where switching function is < 1.0e-08
 Keep 1557 surface tesserae and discard 2091 interior tesserae
 Molecular Surface Area = 230.421 Angst**2
 Requested basis set is rimp2-cc-pVTZ
 There are 414 shells and 1414 basis functions
 A cutoff of  1.0D-10 yielded  14245 shell pairs
 There are    103117 function pairs (    132099 Cartesian)
 Smallest overlap matrix eigenvalue = 6.05E-05

 Scale SEOQF with 1.000000e-01/1.000000e-01/1.000000e-01

 Standard Electronic Orientation quadrupole field applied
 Nucleus-field energy     =     0.0000000193 hartrees
 Guess from superposition of atomic densities
 Warning:  Energy on first SCF cycle will be non-variational
 SAD guess density has 104.000000 electrons

 -----------------------------------------------------------------------
  General SCF calculation program by
  Eric Jon Sundstrom, Paul Horn, Yuezhi Mao, Dmitri Zuev, Alec White,
  David Stuck, Shaama M.S., Shane Yost, Joonho Lee, David Small,
  Daniel Levine, Susi Lehtola, Hugh Burton, Evgeny Epifanovsky,
  Bang C. Huynh
 -----------------------------------------------------------------------
 Hartree-Fock
 A restricted SCF calculation will be
 performed using DIIS
 SCF converges when DIIS error is below 1.0e-06
 ---------------------------------------
  Cycle       Energy         DIIS error
 ---------------------------------------
    1   -1186.1033105226      2.40e-02  
    2   -1180.5907882839      1.59e-03  
    3   -1180.7181716238      6.49e-04  
    4   -1180.7341512731      3.45e-04  
    5   -1180.7397482377      6.11e-05  
    6   -1180.7400135618      2.57e-05  
    7   -1180.7400783574      9.13e-06  
    8   -1180.7400921520      4.29e-06  
    9   -1180.7400951457      1.51e-06  
   10   -1180.7400956398      5.19e-07  Convergence criterion met
 ---------------------------------------
 SCF time:   CPU 589.35s  wall 592.00s 

************** Final PCM Free Energy Summary **************
 G_electrostatic  =      -0.00959193 hartree =      -6.01902982 kcal/mol
 G_cavitation     =       0.00000000 hartree =       0.00000000 kcal/mol
 G_dispersion     =       0.00000000 hartree =       0.00000000 kcal/mol
 G_repulsion      =       0.00000000 hartree =       0.00000000 kcal/mol
 --------------------------------------------------
 Non-electrostatic Free Energy =       0.00000000 hartree =       0.00000000 kcal/mol
 Total                         =      -0.00959193 hartree =      -6.01902982 kcal/mol
 --------------------------------------------------
 SCF Energy (H0 + V/2)                       =   -1180.74009564 
 Solute Internal Energy (H0)                 =   -1180.73050371 
 Total Free Energy (H0 + V/2 + non-elec)     =   -1180.74009564 hartree
                                             = -740925.59280340 kcal/mol
***********************************************************

 SCF   energy in the final basis set =    -1180.7400956398
 Total energy in the final basis set =    -1180.7400956398


 --------------------------------------------------------------
  Generalized many-body perturbation theory program
  by Joonho Lee, Fazle Rob, Xintian Feng, Evgeny Epifanovsky

 No regularization used 
 (reg. param. = 0.0000e+00)
  (P|Q)^-1/2 Time:  CPU 1.89 s  wall 1.90 s

 In RI-MP2 calculation: 
 # of frozen core orbitals: 20

 Components of the RIMP2 correlation energy:
        aaaa    correlation energy =        -0.2525221389 a.u.
        abab    correlation energy =        -1.5059854856 a.u.
        bbbb    correlation energy =        -0.2525221389 a.u.
        non-Brillouin singles      =        -0.0000000000 a.u.
        total same-spin energy     =        -0.5050442777 a.u.
        total opposite-spin energy =        -1.5059854856 a.u.

 Total  RIMP2   correlation energy =        -2.0110297634 a.u.
        RIMP2         total energy =     -1182.7511254031 a.u.

 RI-MP2 Energy Time:  CPU 79.85 s  wall 80.09 s
 
 --------------------------------------------------------------
 
                    Orbital Energies (a.u.)
 --------------------------------------------------------------
 
 Alpha MOs
 -- Occupied --
-91.9827 -91.9433 -11.2864 -11.2651 -11.2618 -11.2572 -11.2503 -11.2434
-11.2339 -11.2292 -11.2284 -11.2235  -8.9826  -8.9482  -6.6636  -6.6630
 -6.6624  -6.6296  -6.6285  -6.6273  -1.2045  -1.1524  -1.0606  -1.0327
 -0.9996  -0.9619  -0.9158  -0.8998  -0.8161  -0.7629  -0.7284  -0.7055
 -0.6590  -0.6484  -0.6110  -0.5942  -0.5852  -0.5698  -0.5588  -0.5531
 -0.5452  -0.5366  -0.5245  -0.5031  -0.4821  -0.4812  -0.4675  -0.4402
 -0.3615  -0.3434  -0.3236  -0.2622
 -- Virtual --
  0.0915   0.1292   0.1453   0.1494   0.1559   0.1694   0.1765   0.1857
  0.1865   0.2028   0.2091   0.2157   0.2263   0.2327   0.2384   0.2425
  0.2560   0.2710   0.2906   0.3120   0.3151   0.3221   0.3471   0.3621
  0.3680   0.3750   0.3820   0.3929   0.4010   0.4057   0.4235   0.4282
  0.4333   0.4412   0.4604   0.4672   0.4756   0.4786   0.4831   0.4919
  0.5044   0.5149   0.5247   0.5310   0.5409   0.5481   0.5493   0.5605
  0.5726   0.5854   0.5900   0.5966   0.6031   0.6085   0.6181   0.6216
  0.6238   0.6315   0.6355   0.6383   0.6423   0.6510   0.6542   0.6644
  0.6703   0.6741   0.6808   0.6871   0.6935   0.7104   0.7259   0.7273
  0.7439   0.7511   0.7619   0.7712   0.7847   0.7920   0.7985   0.8129
  0.8376   0.8500   0.8559   0.8613   0.8853   0.8904   0.9073   0.9180
  0.9326   0.9436   0.9484   0.9565   0.9666   0.9784   0.9953   1.0092
  1.0206   1.0289   1.0374   1.0494   1.0592   1.0663   1.0722   1.0811
  1.0891   1.0999   1.1044   1.1226   1.1382   1.1488   1.1637   1.1739
  1.1839   1.1896   1.1941   1.2127   1.2192   1.2251   1.2346   1.2416
  1.2505   1.2593   1.2618   1.2675   1.2766   1.2869   1.3062   1.3137
  1.3227   1.3331   1.3372   1.3589   1.3789   1.3912   1.3972   1.4191
  1.4284   1.4404   1.4534   1.4640   1.4693   1.4824   1.4857   1.5061
  1.5103   1.5255   1.5276   1.5342   1.5408   1.5462   1.5523   1.5682
  1.5760   1.5806   1.5925   1.6127   1.6221   1.6305   1.6370   1.6445
  1.6548   1.6688   1.6731   1.6832   1.6871   1.7120   1.7148   1.7458
  1.7512   1.7646   1.7904   1.8004   1.8257   1.8358   1.8417   1.8749
  1.8821   1.8987   1.9087   1.9484   1.9576   1.9743   1.9942   2.0054
  2.0200   2.0375   2.0554   2.0649   2.1041   2.1121   2.1457   2.1696
  2.1802   2.1898   2.2189   2.2226   2.2376   2.2480   2.2715   2.2745
  2.2972   2.3077   2.3323   2.3825   2.4149   2.4343   2.4431   2.4765
  2.4911   2.5175   2.5306   2.5529   2.5632   2.5842   2.5941   2.6141
  2.6396   2.6512   2.6606   2.6701   2.6814   2.6970   2.7140   2.7379
  2.7434   2.7548   2.7597   2.7702   2.7757   2.8014   2.8067   2.8201
  2.8272   2.8458   2.8640   2.8735   2.8910   2.9150   2.9249   2.9492
  2.9528   2.9733   2.9845   2.9982   3.0094   3.0267   3.0339   3.0431
  3.0697   3.0899   3.1042   3.1053   3.1152   3.1226   3.1392   3.1432
  3.1486   3.1615   3.1658   3.1698   3.1833   3.1959   3.2069   3.2142
  3.2270   3.2411   3.2513   3.2576   3.2632   3.2810   3.2940   3.2998
  3.3089   3.3173   3.3325   3.3411   3.3455   3.3529   3.3554   3.3718
  3.3786   3.3820   3.3978   3.4100   3.4159   3.4173   3.4213   3.4328
  3.4465   3.4513   3.4572   3.4662   3.4756   3.4797   3.4929   3.5106
  3.5168   3.5313   3.5374   3.5411   3.5530   3.5625   3.5677   3.5819
  3.5968   3.6039   3.6180   3.6243   3.6355   3.6454   3.6592   3.6714
  3.6800   3.6896   3.6984   3.7013   3.7130   3.7205   3.7309   3.7503
  3.7562   3.7639   3.7702   3.7778   3.7841   3.7992   3.8045   3.8197
  3.8333   3.8363   3.8545   3.8711   3.8769   3.8843   3.8932   3.9149
  3.9308   3.9481   3.9586   3.9734   3.9811   3.9915   4.0105   4.0213
  4.0378   4.0431   4.0543   4.0700   4.0762   4.0958   4.1061   4.1094
  4.1311   4.1428   4.1507   4.1550   4.1673   4.1684   4.1953   4.2106
  4.2240   4.2267   4.2312   4.2467   4.2572   4.2659   4.2748   4.2911
  4.3072   4.3127   4.3195   4.3453   4.3561   4.3625   4.3758   4.3770
  4.3801   4.4028   4.4043   4.4117   4.4131   4.4369   4.4445   4.4605
  4.4620   4.4796   4.4855   4.4986   4.5124   4.5299   4.5476   4.5710
  4.5991   4.6025   4.6191   4.6449   4.6491   4.6670   4.6726   4.6934
  4.7276   4.7313   4.7458   4.7866   4.7987   4.8201   4.8299   4.8525
  4.8777   4.8869   4.8905   4.9237   4.9370   4.9623   4.9853   5.0073
  5.0517   5.0737   5.0811   5.1110   5.1207   5.1285   5.1417   5.1975
  5.2154   5.2200   5.2512   5.2606   5.2731   5.3023   5.3131   5.3221
  5.3538   5.3728   5.3868   5.4043   5.4120   5.4241   5.4360   5.4446
  5.4725   5.5202   5.5350   5.5490   5.5506   5.5715   5.5817   5.5912
  5.6207   5.6298   5.6329   5.6469   5.6824   5.7022   5.7078   5.7512
  5.7742   5.7982   5.8355   5.9348   6.0212   6.0723   6.1277   6.1731
  6.2287   6.2333   6.2380   6.2552   6.2673   6.2882   6.2992   6.3184
  6.4319   6.4769   9.5101  10.7344  12.1400  12.8960  13.1610  13.9104
 14.1422  14.2112  14.3788  14.9548
 --------------------------------------------------------------
 
          Ground-State Mulliken Net Atomic Charges

     Atom                 Charge (a.u.)
  ----------------------------------------
      1 C                    -0.079321
      2 C                    -0.300197
      3 C                    -0.074220
      4 H                     0.178313
      5 C                     0.117090
      6 S                    -0.185328
      7 C                    -0.299389
      8 H                     0.120390
      9 H                     0.111678
     10 H                     0.103529
     11 C                    -0.003510
     12 C                    -0.319605
     13 C                     0.055588
     14 H                     0.186894
     15 C                    -0.282808
     16 S                     0.011075
     17 C                    -0.270544
     18 H                     0.100869
     19 H                     0.108977
     20 H                     0.107663
     21 H                     0.197403
     22 H                     0.112672
     23 H                     0.111921
     24 H                     0.190860
  ----------------------------------------
  Sum of atomic charges =     0.000000

 -----------------------------------------------------------------
                    Cartesian Multipole Moments
 -----------------------------------------------------------------
    Charge (ESU x 10^10)
                -0.0000
    Dipole Moment (Debye)
         X       1.6405      Y      -0.4956      Z       3.8027
       Tot       4.1710
    Quadrupole Moments (Debye-Ang)
        XX     -89.1660     XY       2.8721     YY     -75.5108
        XZ       0.2800     YZ      -2.6677     ZZ     -85.7163
    Octopole Moments (Debye-Ang^2)
       XXX    -105.5378    XXY      62.2476    XYY     -19.1811
       YYY     131.1895    XXZ      -3.5510    XYZ      -0.0871
       YYZ      -3.9339    XZZ     -31.3850    YZZ      57.6600
       ZZZ       8.4698
    Hexadecapole Moments (Debye-Ang^3)
      XXXX    -385.1798   XXXY    -208.9802   XXYY    -529.7900
      XYYY    -183.9824   YYYY   -2566.1895   XXXZ     -48.2311
      XXYZ     -27.5591   XYYZ     -24.3323   YYYZ     -88.4546
      XXZZ    -254.4400   XYZZ     -60.9942   YYZZ    -625.2503
      XZZZ     -51.7075   YZZZ    -119.9964   ZZZZ   -1098.3530
 -----------------------------------------------------------------
 Total job time:  673.94s(wall), 670.07s(cpu) 
 Sun Jul 10 04:22:35 2022

        *************************************************************
        *                                                           *
        *  Thank you very much for using Q-Chem.  Have a nice day.  *
        *                                                           *
        *************************************************************


remove work dirs ./qchem3844104.0 -- ./qchem3844104.-1
rm -rf ./qchem3844104
