You are running Q-Chem version: 5.4.0

#
# job setting
#
local host:  exp-4-50
current dir: /expanse/lustre/scratch/theleonzhang/temp_project/Hydrogenated_Rotation_Test
input file:  Methylthiophene_Phi_10_Theta_80_Methylthiophene_Hydrogenated_Alternate.qcin
output file: 
nprocs     : 0
nthreads   : 1
#
# qchem installation setting
#
QC:          /cm/shared/apps/spack/cpu/opt/spack/linux-centos8-zen2/gcc-10.2.0/qchem-5.4-akfmr7b3t57bfs6qan3padb2wnb2i7cl
QCAUX:       /cm/shared/apps/spack/cpu/opt/spack/linux-centos8-zen2/gcc-10.2.0/qchem-5.4-akfmr7b3t57bfs6qan3padb2wnb2i7cl/qcaux
QCPROG:      /cm/shared/apps/spack/cpu/opt/spack/linux-centos8-zen2/gcc-10.2.0/qchem-5.4-akfmr7b3t57bfs6qan3padb2wnb2i7cl/exe/qcprog.exe_s
QCPROG_S:    /cm/shared/apps/spack/cpu/opt/spack/linux-centos8-zen2/gcc-10.2.0/qchem-5.4-akfmr7b3t57bfs6qan3padb2wnb2i7cl/exe/qcprog.exe_s
PARALLEL:    -DSERIAL
QCMPI:       mpich
#
# qchem directory setting
#
qcrun:       qchem1767863
QCSCRATCH:   .
QCLOCALSCR:  
QCTMPDIR:    .
QCFILEPREF:  ./qchem1767863
QCSAVEDIR:   
workdirs:    ./qchem1767863
workdir0:    ./qchem1767863
partmpdirs =  
#
# parallel setting
#
QCRSH:           ssh
QCMPI:           mpich
QCMPIRUN:        /cm/shared/apps/spack/cpu/opt/spack/linux-centos8-zen2/gcc-10.2.0/qchem-5.4-akfmr7b3t57bfs6qan3padb2wnb2i7cl/bin/mpi/mpirun_qchem
QCMACHINEFILE:   ./qchem1767863/hostfile

#
# env setting
#
exported envs:   QC QCAUX QCSCRATCH QCRUNNAME QCFILEPREF QCPROG QCPROG_S GUIFILE

Running Job 1 of 1 Methylthiophene_Phi_10_Theta_80_Methylthiophene_Hydrogenated_Alternate.qcin
qchem Methylthiophene_Phi_10_Theta_80_Methylthiophene_Hydrogenated_Alternate.qcin_1767863.0 ./qchem1767863/ 0
/cm/shared/apps/spack/cpu/opt/spack/linux-centos8-zen2/gcc-10.2.0/qchem-5.4-akfmr7b3t57bfs6qan3padb2wnb2i7cl/exe/qcprog.exe_s Methylthiophene_Phi_10_Theta_80_Methylthiophene_Hydrogenated_Alternate.qcin_1767863.0 ./qchem1767863/
                  Welcome to Q-Chem
     A Quantum Leap Into The Future Of Chemistry


 Q-Chem 5.4, Q-Chem, Inc., Pleasanton, CA (2021)

 License issued to: University of California, San Diego (site)

 E. Epifanovsky,  A. T. B. Gilbert,  Xintian Feng,  Joonho Lee,  Yuezhi Mao,  
 N. Mardirossian,  P. Pokhilko,  A. White,  M. Wormit,  M. P. Coons,  
 A. L. Dempwolff,  Zhengting Gan,  D. Hait,  P. R. Horn,  L. D. Jacobson,  
 I. Kaliman,  J. Kussmann,  A. W. Lange,  Ka Un Lao,  D. S. Levine,  Jie Liu,  
 S. C. McKenzie,  A. F. Morrison,  K. Nanda,  F. Plasser,  D. R. Rehn,  
 M. L. Vidal,  Zhi-Qiang You,  Ying Zhu,  B. Alam,  B. Albrecht,  
 A. Aldossary,  E. Alguire,  J. H. Andersen,  D. Barton,  K. Begam,  A. Behn,  
 Y. A. Bernard,  E. J. Berquist,  H. Burton,  A. Carreras,  K. Carter-Fenk,  
 R. Chakraborty,  A. D. Chien,  K. D. Closser,  V. Cofer-Shabica,  
 S. Dasgupta,  Jia Deng,  M. de Wergifosse,  M. Diedenhofen,  Hainam Do,  
 S. Ehlert,  Po-Tung Fang,  S. Fatehi,  Qingguo Feng,  J. Gayvert,  
 Qinghui Ge,  G. Gidofalvi,  M. Goldey,  J. Gomes,  C. Gonzalez-Espinoza,  
 S. Gulania,  A. Gunina,  M. W. D. Hanson-Heine,  P. H. P. Harbach,  
 A. W. Hauser,  M. F. Herbst,  M. Hernandez Vera,  M. Hodecker,  
 Z. C. Holden,  S. Houck,  Xunkun Huang,  Kerwin Hui,  B. C. Huynh,  
 M. Ivanov,  Hyunjun Ji,  Hanjie Jiang,  B. Kaduk,  S. Kaehler,  
 K. Khistyaev,  Jaehoon Kim,  P. Klunzinger,  Z. Koczor-Benda,  
 Joong Hoon Koh,  D. Kosenkov,  L. Koulias,  T. Kowalczyk,  C. M. Krauter,  
 K. Kue,  A. Kunitsa,  T. Kus,  A. Landau,  K. V. Lawler,  D. Lefrancois,  
 S. Lehtola,  Rain Li,  Yi-Pei Li,  Jiashu Liang,  M. Liebenthal,  
 Hung-Hsuan Lin,  You-Sheng Lin,  Fenglai Liu,  Kuan-Yu Liu,  
 M. Loipersberger,  A. Luenser,  A. Manjanath,  P. Manohar,  E. Mansoor,  
 S. F. Manzer,  Shan-Ping Mao,  A. V. Marenich,  T. Markovich,  S. Mason,  
 S. A. Maurer,  P. F. McLaughlin,  M. F. S. J. Menger,  J.-M. Mewes,  
 S. A. Mewes,  P. Morgante,  J. W. Mullinax,  T. S. Nguyen-Beck,  
 K. J. Oosterbaan,  G. Paran,  Alexander C. Paul,  Suranjan K. Paul,  
 F. Pavosevic,  Zheng Pei,  S. Prager,  E. I. Proynov,  E. Ramos,  B. Rana,  
 A. E. Rask,  A. Rettig,  R. M. Richard,  F. Rob,  E. Rossomme,  T. Scheele,  
 M. Scheurer,  M. Schneider,  N. Sergueev,  S. M. Sharada,  W. Skomorowski,  
 D. W. Small,  C. J. Stein,  Yu-Chuan Su,  E. J. Sundstrom,  Zhen Tao,  
 J. Thirman,  T. Tsuchimochi,  N. M. Tubman,  S. P. Veccham,  O. Vydrov,  
 J. Wenzel,  J. Witte,  A. Yamada,  Kun Yao,  S. Yeganeh,  S. R. Yost,  
 A. Zech,  Igor Ying Zhang,  Xing Zhang,  Yu Zhang,  D. Zuev,  
 A. Aspuru-Guzik,  A. T. Bell,  N. A. Besley,  K. B. Bravaya,  B. R. Brooks,  
 D. Casanova,  Jeng-Da Chai,  S. Coriani,  C. J. Cramer,  
 A. E. DePrince, III,  R. A. DiStasio Jr.,  A. Dreuw,  B. D. Dunietz,  
 T. R. Furlani,  W. A. Goddard III,  S. Grimme,  S. Hammes-Schiffer,  
 T. Head-Gordon,  W. J. Hehre,  Chao-Ping Hsu,  T.-C. Jagau,  Yousung Jung,  
 A. Klamt,  Jing Kong,  D. S. Lambrecht,  WanZhen Liang,  N. J. Mayhall,  
 C. W. McCurdy,  J. B. Neaton,  C. Ochsenfeld,  J. A. Parkhill,  R. Peverati,  
 V. A. Rassolov,  Yihan Shao,  L. V. Slipchenko,  T. Stauch,  R. P. Steele,  
 J. E. Subotnik,  A. J. W. Thom,  A. Tkatchenko,  D. G. Truhlar,  
 T. Van Voorhis,  T. A. Wesolowski,  K. B. Whaley,  H. L. Woodcock III,  
 P. M. Zimmerman,  S. Faraji,  P. M. W. Gill,  M. Head-Gordon,  
 J. M. Herbert,  A. I. Krylov

 Contributors to earlier versions of Q-Chem not listed above: 
 R. D. Adamson,  B. Austin,  R. Baer,  J. Baker,  G. J. O. Beran,  
 K. Brandhorst,  S. T. Brown,  E. F. C. Byrd,  A. K. Chakraborty,  
 G. K. L. Chan,  Chun-Min Chang,  Yunqing Chen,  C.-L. Cheng,  
 Siu Hung Chien,  D. M. Chipman,  D. L. Crittenden,  H. Dachsel,  
 R. J. Doerksen,  A. D. Dutoi,  R. G. Edgar,  J. Fosso-Tande,  
 L. Fusti-Molnar,  D. Ghosh,  A. Ghysels,  A. Golubeva-Zadorozhnaya,  
 J. Gonthier,  M. S. Gordon,  S. R. Gwaltney,  G. Hawkins,  J. E. Herr,  
 A. Heyden,  S. Hirata,  E. G. Hohenstein,  G. Kedziora,  F. J. Keil,  
 C. Kelley,  Jihan Kim,  R. A. King,  R. Z. Khaliullin,  P. P. Korambath,  
 W. Kurlancheek,  A. Laurent,  A. M. Lee,  M. S. Lee,  S. V. Levchenko,  
 Ching Yeh Lin,  D. Liotard,  E. Livshits,  R. C. Lochan,  I. Lotan,  
 L. A. Martinez-Martinez,  P. E. Maslen,  N. Nair,  D. P. O'Neill,  
 D. Neuhauser,  E. Neuscamman,  C. M. Oana,  R. Olivares-Amaya,  R. Olson,  
 T. M. Perrine,  B. Peters,  P. A. Pieniazek,  A. Prociuk,  Y. M. Rhee,  
 J. Ritchie,  M. A. Rohrdanz,  E. Rosta,  N. J. Russ,  H. F. Schaefer III,  
 M. W. Schmidt,  N. E. Schultz,  S. Sharma,  N. Shenvi,  C. D. Sherrill,  
 A. C. Simmonett,  A. Sodt,  T. Stein,  D. Stuck,  K. S. Thanthiriwatte,  
 V. Vanovschi,  L. Vogt,  Tao Wang,  A. Warshel,  M. A. Watson,  
 C. F. Williams,  Q. Wu,  X. Xu,  Jun Yang,  W. Zhang,  Yan Zhao

 Please cite Q-Chem as follows:
 Y. Shao et al., Mol. Phys. 113, 184-215 (2015)
 DOI: 10.1080/00268976.2014.952696

 Q-Chem 5.4.0 for Intel X86 EM64T Linux

 Parts of Q-Chem use Armadillo 9.800.1 (Horizon Scraper).
 http://arma.sourceforge.net/

 Q-Chem begins on Sun Jul 10 01:27:01 2022  

 Host: 
0

     Scratch files written to ./qchem1767863//
 May1621 |scratch|qcdevops|jenkins|workspace|build_RNUM    
 Processing $rem in /cm/shared/apps/spack/cpu/opt/spack/linux-centos8-zen2/gcc-10.2.0/qchem-5.4-akfmr7b3t57bfs6qan3padb2wnb2i7cl/config/preferences:
 Processing $rem in /home/theleonzhang/.qchemrc:
 Symmetry turned off for PCM/SM12/SMD calculation
 Core orbitals will be frozen

 Checking the input file for inconsistencies... 	...done.

--------------------------------------------------------------
User input:
--------------------------------------------------------------
$molecule
0 1
C	-0.763475	-3.866725	0.133897
C	0.603206	-3.703963	-0.106669
C	1.050446	-2.357056	-0.185154
H	1.283024	-4.561092	-0.226709
C	-0.000000	-1.440664	-0.000000
S	-1.521018	-2.286957	0.268206
C	2.483610	-1.978743	-0.437628
H	3.118875	-2.878678	-0.549717
H	2.903464	-1.376015	0.394664
H	2.593726	-1.375728	-1.363110
C	0.000000	0.000000	0.000000
C	0.149995	0.850475	1.099446
C	0.390327	2.213354	0.776721
H	0.085947	0.487279	2.136088
C	0.428665	2.430655	-0.612546
S	0.163670	0.928078	-1.486809
C	0.579235	3.284574	1.814609
H	0.505323	2.865404	2.836676
H	-0.185980	4.083890	1.726239
H	1.571698	3.773937	1.726228
H	0.593515	3.365448	-1.161575
H	-0.946698	-4.392713	1.077442
H	-1.258274	-4.392347	-0.690363
H	-0.187427	-1.440391	-1.063612
$end

$rem
JOBTYPE		SP
EXCHANGE	HF
CORRELATION	pRIMP2
BASIS		cc-pvtz
METHOD		rimp2
AUX_BASIS	rimp2-cc-pvtz
SOLVENT_METHOD	PCM
PURECART	11111
SYMMETRY	false
MEM_TOTAL	110000
SCF_CONVERGENCE = 6
THRESH=10
$end



$solvent
dielectric 4.90
$end
--------------------------------------------------------------
 ----------------------------------------------------------------
             Standard Nuclear Orientation (Angstroms)
    I     Atom           X                Y                Z
 ----------------------------------------------------------------
    1      C      -0.7634750000    -3.8667250000     0.1338970000
    2      C       0.6032060000    -3.7039630000    -0.1066690000
    3      C       1.0504460000    -2.3570560000    -0.1851540000
    4      H       1.2830240000    -4.5610920000    -0.2267090000
    5      C       0.0000000000    -1.4406640000     0.0000000000
    6      S      -1.5210180000    -2.2869570000     0.2682060000
    7      C       2.4836100000    -1.9787430000    -0.4376280000
    8      H       3.1188750000    -2.8786780000    -0.5497170000
    9      H       2.9034640000    -1.3760150000     0.3946640000
   10      H       2.5937260000    -1.3757280000    -1.3631100000
   11      C       0.0000000000     0.0000000000     0.0000000000
   12      C       0.1499950000     0.8504750000     1.0994460000
   13      C       0.3903270000     2.2133540000     0.7767210000
   14      H       0.0859470000     0.4872790000     2.1360880000
   15      C       0.4286650000     2.4306550000    -0.6125460000
   16      S       0.1636700000     0.9280780000    -1.4868090000
   17      C       0.5792350000     3.2845740000     1.8146090000
   18      H       0.5053230000     2.8654040000     2.8366760000
   19      H      -0.1859800000     4.0838900000     1.7262390000
   20      H       1.5716980000     3.7739370000     1.7262280000
   21      H       0.5935150000     3.3654480000    -1.1615750000
   22      H      -0.9466980000    -4.3927130000     1.0774420000
   23      H      -1.2582740000    -4.3923470000    -0.6903630000
   24      H      -0.1874270000    -1.4403910000    -1.0636120000
 ----------------------------------------------------------------
 Nuclear Repulsion Energy =         872.65699359 hartrees
 There are       52 alpha and       52 beta electrons

 Q-Chem warning in module forms1/BasisType.C, line 2236:

 You are not using the predefined 5D/6D in this basis set.

 Requested basis set is cc-pVTZ
 There are 196 shells and 536 basis functions

 Total QAlloc Memory Limit 110000 MB
 Mega-Array Size       188 MB
 MEM_STATIC part       192 MB
 Discretize the solute cavity surface with Lebedev spheres
	Using 110 Lebedev grid points for each H atom
	Using 194 Lebedev grid points for other atoms
	Atomic van der Waals radii will be scaled by 1.20
 Remove points where switching function is < 1.0e-08
 Keep 1629 surface tesserae and discard 2019 interior tesserae
 Molecular Surface Area = 238.214 Angst**2
 Requested basis set is rimp2-cc-pVTZ
 There are 414 shells and 1414 basis functions
 A cutoff of  1.0D-10 yielded  13950 shell pairs
 There are    101314 function pairs (    130054 Cartesian)
 Smallest overlap matrix eigenvalue = 5.79E-05

 Scale SEOQF with 1.000000e-01/1.000000e-01/1.000000e-01

 Standard Electronic Orientation quadrupole field applied
 Nucleus-field energy     =     0.0000000367 hartrees
 Guess from superposition of atomic densities
 Warning:  Energy on first SCF cycle will be non-variational
 SAD guess density has 104.000000 electrons

 -----------------------------------------------------------------------
  General SCF calculation program by
  Eric Jon Sundstrom, Paul Horn, Yuezhi Mao, Dmitri Zuev, Alec White,
  David Stuck, Shaama M.S., Shane Yost, Joonho Lee, David Small,
  Daniel Levine, Susi Lehtola, Hugh Burton, Evgeny Epifanovsky,
  Bang C. Huynh
 -----------------------------------------------------------------------
 Hartree-Fock
 A restricted SCF calculation will be
 performed using DIIS
 SCF converges when DIIS error is below 1.0e-06
 ---------------------------------------
  Cycle       Energy         DIIS error
 ---------------------------------------
    1   -1186.0211855163      2.39e-02  
    2   -1180.6134169821      1.56e-03  
    3   -1180.7382660748      6.04e-04  
    4   -1180.7524422712      3.29e-04  
    5   -1180.7573911749      6.10e-05  
    6   -1180.7576431636      2.48e-05  
    7   -1180.7577047707      9.39e-06  
    8   -1180.7577191832      4.52e-06  
    9   -1180.7577225606      1.51e-06  
   10   -1180.7577230546      5.03e-07  Convergence criterion met
 ---------------------------------------
 SCF time:   CPU 564.74s  wall 567.00s 

************** Final PCM Free Energy Summary **************
 G_electrostatic  =      -0.00852050 hartree =      -5.34669656 kcal/mol
 G_cavitation     =       0.00000000 hartree =       0.00000000 kcal/mol
 G_dispersion     =       0.00000000 hartree =       0.00000000 kcal/mol
 G_repulsion      =       0.00000000 hartree =       0.00000000 kcal/mol
 --------------------------------------------------
 Non-electrostatic Free Energy =       0.00000000 hartree =       0.00000000 kcal/mol
 Total                         =      -0.00852050 hartree =      -5.34669656 kcal/mol
 --------------------------------------------------
 SCF Energy (H0 + V/2)                       =   -1180.75772305 
 Solute Internal Energy (H0)                 =   -1180.74920255 
 Total Free Energy (H0 + V/2 + non-elec)     =   -1180.75772305 hartree
                                             = -740936.65417315 kcal/mol
***********************************************************

 SCF   energy in the final basis set =    -1180.7577230546
 Total energy in the final basis set =    -1180.7577230546


 --------------------------------------------------------------
  Generalized many-body perturbation theory program
  by Joonho Lee, Fazle Rob, Xintian Feng, Evgeny Epifanovsky

 No regularization used 
 (reg. param. = 0.0000e+00)
  (P|Q)^-1/2 Time:  CPU 1.90 s  wall 1.90 s

 In RI-MP2 calculation: 
 # of frozen core orbitals: 20

 Components of the RIMP2 correlation energy:
        aaaa    correlation energy =        -0.2510747758 a.u.
        abab    correlation energy =        -1.5028664406 a.u.
        bbbb    correlation energy =        -0.2510747758 a.u.
        non-Brillouin singles      =        -0.0000000000 a.u.
        total same-spin energy     =        -0.5021495517 a.u.
        total opposite-spin energy =        -1.5028664406 a.u.

 Total  RIMP2   correlation energy =        -2.0050159923 a.u.
        RIMP2         total energy =     -1182.7627390469 a.u.

 RI-MP2 Energy Time:  CPU 79.42 s  wall 79.67 s
 
 --------------------------------------------------------------
 
                    Orbital Energies (a.u.)
 --------------------------------------------------------------
 
 Alpha MOs
 -- Occupied --
-91.9870 -91.9408 -11.2781 -11.2661 -11.2627 -11.2550 -11.2512 -11.2403
-11.2391 -11.2310 -11.2289 -11.2188  -8.9866  -8.9455  -6.6674  -6.6669
 -6.6663  -6.6268  -6.6258  -6.6245  -1.1980  -1.1537  -1.0587  -1.0253
 -1.0037  -0.9627  -0.9130  -0.9005  -0.8122  -0.7646  -0.7390  -0.7044
 -0.6536  -0.6339  -0.6110  -0.5878  -0.5758  -0.5737  -0.5697  -0.5536
 -0.5425  -0.5294  -0.5146  -0.5048  -0.4913  -0.4804  -0.4639  -0.4473
 -0.3554  -0.3421  -0.3128  -0.2814
 -- Virtual --
  0.0945   0.1285   0.1413   0.1514   0.1600   0.1655   0.1803   0.1833
  0.1856   0.1937   0.2035   0.2107   0.2271   0.2341   0.2421   0.2432
  0.2521   0.2574   0.2685   0.2908   0.2995   0.3376   0.3451   0.3524
  0.3649   0.3753   0.3778   0.3809   0.3940   0.4014   0.4116   0.4240
  0.4418   0.4485   0.4554   0.4601   0.4660   0.4724   0.4820   0.4910
  0.5023   0.5137   0.5230   0.5312   0.5367   0.5419   0.5496   0.5567
  0.5698   0.5733   0.5806   0.5829   0.6021   0.6065   0.6139   0.6178
  0.6210   0.6295   0.6337   0.6376   0.6423   0.6442   0.6485   0.6516
  0.6615   0.6680   0.6802   0.6863   0.6961   0.7019   0.7113   0.7301
  0.7322   0.7430   0.7512   0.7636   0.7858   0.7976   0.8073   0.8232
  0.8285   0.8385   0.8536   0.8552   0.8686   0.8889   0.8940   0.9198
  0.9238   0.9381   0.9499   0.9532   0.9789   0.9870   0.9989   1.0093
  1.0187   1.0272   1.0342   1.0452   1.0540   1.0641   1.0723   1.0838
  1.0906   1.0949   1.1050   1.1209   1.1253   1.1431   1.1620   1.1676
  1.1782   1.1917   1.1960   1.2090   1.2159   1.2222   1.2372   1.2475
  1.2520   1.2565   1.2669   1.2765   1.2817   1.2968   1.3069   1.3179
  1.3211   1.3306   1.3398   1.3557   1.3672   1.3829   1.4080   1.4096
  1.4209   1.4250   1.4421   1.4549   1.4675   1.4767   1.4880   1.4979
  1.5020   1.5086   1.5133   1.5335   1.5379   1.5390   1.5487   1.5520
  1.5619   1.5768   1.5815   1.5982   1.6145   1.6274   1.6329   1.6479
  1.6586   1.6751   1.6832   1.6909   1.7010   1.7073   1.7220   1.7239
  1.7405   1.7523   1.7623   1.7883   1.7997   1.8181   1.8466   1.8632
  1.8947   1.9060   1.9144   1.9293   1.9464   1.9685   1.9910   2.0003
  2.0140   2.0258   2.0352   2.0561   2.0922   2.1275   2.1331   2.1568
  2.1815   2.1925   2.2050   2.2205   2.2258   2.2466   2.2675   2.2852
  2.3066   2.3255   2.3495   2.3669   2.3960   2.4118   2.4550   2.4609
  2.4946   2.5076   2.5318   2.5450   2.5607   2.5908   2.6140   2.6147
  2.6256   2.6383   2.6460   2.6599   2.6756   2.6883   2.7065   2.7143
  2.7383   2.7479   2.7599   2.7680   2.7785   2.7821   2.7911   2.8253
  2.8283   2.8484   2.8518   2.8778   2.8884   2.9099   2.9165   2.9277
  2.9428   2.9518   2.9697   2.9953   3.0128   3.0189   3.0381   3.0467
  3.0667   3.0720   3.0910   3.1074   3.1111   3.1216   3.1345   3.1422
  3.1469   3.1522   3.1583   3.1689   3.1780   3.1971   3.2116   3.2124
  3.2300   3.2417   3.2510   3.2640   3.2735   3.2857   3.2885   3.2997
  3.3132   3.3241   3.3291   3.3342   3.3461   3.3531   3.3599   3.3617
  3.3806   3.3910   3.3960   3.3997   3.4081   3.4138   3.4256   3.4299
  3.4439   3.4459   3.4647   3.4752   3.4813   3.4901   3.5039   3.5079
  3.5118   3.5249   3.5308   3.5339   3.5466   3.5530   3.5687   3.5736
  3.5799   3.5972   3.6102   3.6213   3.6290   3.6347   3.6401   3.6571
  3.6642   3.6852   3.6913   3.7008   3.7078   3.7298   3.7337   3.7347
  3.7478   3.7523   3.7730   3.7757   3.7831   3.7939   3.8072   3.8260
  3.8271   3.8316   3.8551   3.8700   3.8738   3.8878   3.9003   3.9080
  3.9247   3.9366   3.9398   3.9581   3.9741   3.9830   3.9992   4.0087
  4.0279   4.0497   4.0515   4.0602   4.0721   4.0774   4.0964   4.1016
  4.1190   4.1387   4.1530   4.1550   4.1612   4.1740   4.1799   4.2076
  4.2104   4.2182   4.2414   4.2473   4.2513   4.2617   4.2688   4.2801
  4.2838   4.2921   4.3185   4.3281   4.3381   4.3510   4.3616   4.3744
  4.3826   4.3915   4.4006   4.4022   4.4118   4.4207   4.4429   4.4539
  4.4644   4.4671   4.4715   4.4858   4.4878   4.5120   4.5314   4.5689
  4.5732   4.5782   4.6090   4.6232   4.6256   4.6478   4.6544   4.6709
  4.6757   4.7005   4.7398   4.7505   4.7648   4.7993   4.8191   4.8380
  4.8563   4.8834   4.8905   4.8980   4.9365   4.9554   4.9909   4.9978
  5.0200   5.0325   5.0778   5.0982   5.1138   5.1271   5.1443   5.1871
  5.1950   5.2224   5.2277   5.2664   5.2783   5.2853   5.3114   5.3206
  5.3516   5.3674   5.3778   5.3997   5.4133   5.4214   5.4423   5.4607
  5.4667   5.5217   5.5270   5.5378   5.5509   5.5587   5.5706   5.5939
  5.6171   5.6252   5.6354   5.6633   5.6833   5.6939   5.7034   5.7419
  5.7642   5.7854   5.8330   5.9671   5.9913   6.0714   6.1220   6.1457
  6.2078   6.2179   6.2248   6.2332   6.2553   6.2814   6.3104   6.3197
  6.3878   6.5106   9.4250  10.5138  12.0946  12.9283  13.1602  14.0106
 14.0729  14.2222  14.3461  14.7798
 --------------------------------------------------------------
 
          Ground-State Mulliken Net Atomic Charges

     Atom                 Charge (a.u.)
  ----------------------------------------
      1 C                    -0.078060
      2 C                    -0.331309
      3 C                    -0.016944
      4 H                     0.176045
      5 C                     0.096842
      6 S                    -0.177422
      7 C                    -0.265457
      8 H                     0.113379
      9 H                     0.107038
     10 H                     0.101703
     11 C                    -0.110844
     12 C                    -0.227649
     13 C                     0.023422
     14 H                     0.185849
     15 C                    -0.244456
     16 S                     0.016314
     17 C                    -0.272143
     18 H                     0.103062
     19 H                     0.108327
     20 H                     0.107526
     21 H                     0.198735
     22 H                     0.112596
     23 H                     0.110588
     24 H                     0.162859
  ----------------------------------------
  Sum of atomic charges =     0.000000

 -----------------------------------------------------------------
                    Cartesian Multipole Moments
 -----------------------------------------------------------------
    Charge (ESU x 10^10)
                -0.0000
    Dipole Moment (Debye)
         X       2.6165      Y       0.7658      Z       0.3060
       Tot       2.7434
    Quadrupole Moments (Debye-Ang)
        XX     -91.3685     XY      -1.4547     YY     -73.9914
        XZ       0.4308     YZ       2.9249     ZZ     -85.9845
    Octopole Moments (Debye-Ang^2)
       XXX     -32.2462    XXY      42.5176    XYY      -6.6572
       YYY     128.3648    XXZ      -2.6589    XYZ      -0.3936
       YYZ      -5.8159    XZZ     -12.3577    YZZ      57.2589
       ZZZ       5.4176
    Hexadecapole Moments (Debye-Ang^3)
      XXXX    -715.8606   XXXY    -120.9044   XXYY    -613.3979
      XYYY     -64.1784   YYYY   -2765.8447   XXXZ      31.5089
      XXYZ     -23.1841   XYYZ       4.5112   YYYZ    -105.5183
      XXZZ    -223.9557   XYZZ     -22.8336   YYZZ    -596.5867
      XZZZ      34.8752   YZZZ     -97.6520   ZZZZ    -554.2860
 -----------------------------------------------------------------
 Total job time:  648.32s(wall), 645.04s(cpu) 
 Sun Jul 10 01:37:49 2022

        *************************************************************
        *                                                           *
        *  Thank you very much for using Q-Chem.  Have a nice day.  *
        *                                                           *
        *************************************************************


remove work dirs ./qchem1767863.0 -- ./qchem1767863.-1
rm -rf ./qchem1767863
You are running Q-Chem version: 5.4.0

#
# job setting
#
local host:  exp-6-19
current dir: /expanse/lustre/scratch/theleonzhang/temp_project/Hydrogenated_Rotation_Test
input file:  Methylthiophene_Phi_10_Theta_80_Methylthiophene_Hydrogenated_Alternate.qcin
output file: 
nprocs     : 0
nthreads   : 1
#
# qchem installation setting
#
QC:          /cm/shared/apps/spack/cpu/opt/spack/linux-centos8-zen2/gcc-10.2.0/qchem-5.4-akfmr7b3t57bfs6qan3padb2wnb2i7cl
QCAUX:       /cm/shared/apps/spack/cpu/opt/spack/linux-centos8-zen2/gcc-10.2.0/qchem-5.4-akfmr7b3t57bfs6qan3padb2wnb2i7cl/qcaux
QCPROG:      /cm/shared/apps/spack/cpu/opt/spack/linux-centos8-zen2/gcc-10.2.0/qchem-5.4-akfmr7b3t57bfs6qan3padb2wnb2i7cl/exe/qcprog.exe_s
QCPROG_S:    /cm/shared/apps/spack/cpu/opt/spack/linux-centos8-zen2/gcc-10.2.0/qchem-5.4-akfmr7b3t57bfs6qan3padb2wnb2i7cl/exe/qcprog.exe_s
PARALLEL:    -DSERIAL
QCMPI:       mpich
#
# qchem directory setting
#
qcrun:       qchem2247326
QCSCRATCH:   .
QCLOCALSCR:  
QCTMPDIR:    .
QCFILEPREF:  ./qchem2247326
QCSAVEDIR:   
workdirs:    ./qchem2247326
workdir0:    ./qchem2247326
partmpdirs =  
#
# parallel setting
#
QCRSH:           ssh
QCMPI:           mpich
QCMPIRUN:        /cm/shared/apps/spack/cpu/opt/spack/linux-centos8-zen2/gcc-10.2.0/qchem-5.4-akfmr7b3t57bfs6qan3padb2wnb2i7cl/bin/mpi/mpirun_qchem
QCMACHINEFILE:   ./qchem2247326/hostfile

#
# env setting
#
exported envs:   QC QCAUX QCSCRATCH QCRUNNAME QCFILEPREF QCPROG QCPROG_S GUIFILE

Running Job 1 of 1 Methylthiophene_Phi_10_Theta_80_Methylthiophene_Hydrogenated_Alternate.qcin
qchem Methylthiophene_Phi_10_Theta_80_Methylthiophene_Hydrogenated_Alternate.qcin_2247326.0 ./qchem2247326/ 0
/cm/shared/apps/spack/cpu/opt/spack/linux-centos8-zen2/gcc-10.2.0/qchem-5.4-akfmr7b3t57bfs6qan3padb2wnb2i7cl/exe/qcprog.exe_s Methylthiophene_Phi_10_Theta_80_Methylthiophene_Hydrogenated_Alternate.qcin_2247326.0 ./qchem2247326/
                  Welcome to Q-Chem
     A Quantum Leap Into The Future Of Chemistry


 Q-Chem 5.4, Q-Chem, Inc., Pleasanton, CA (2021)

 License issued to: University of California, San Diego (site)

 E. Epifanovsky,  A. T. B. Gilbert,  Xintian Feng,  Joonho Lee,  Yuezhi Mao,  
 N. Mardirossian,  P. Pokhilko,  A. White,  M. Wormit,  M. P. Coons,  
 A. L. Dempwolff,  Zhengting Gan,  D. Hait,  P. R. Horn,  L. D. Jacobson,  
 I. Kaliman,  J. Kussmann,  A. W. Lange,  Ka Un Lao,  D. S. Levine,  Jie Liu,  
 S. C. McKenzie,  A. F. Morrison,  K. Nanda,  F. Plasser,  D. R. Rehn,  
 M. L. Vidal,  Zhi-Qiang You,  Ying Zhu,  B. Alam,  B. Albrecht,  
 A. Aldossary,  E. Alguire,  J. H. Andersen,  D. Barton,  K. Begam,  A. Behn,  
 Y. A. Bernard,  E. J. Berquist,  H. Burton,  A. Carreras,  K. Carter-Fenk,  
 R. Chakraborty,  A. D. Chien,  K. D. Closser,  V. Cofer-Shabica,  
 S. Dasgupta,  Jia Deng,  M. de Wergifosse,  M. Diedenhofen,  Hainam Do,  
 S. Ehlert,  Po-Tung Fang,  S. Fatehi,  Qingguo Feng,  J. Gayvert,  
 Qinghui Ge,  G. Gidofalvi,  M. Goldey,  J. Gomes,  C. Gonzalez-Espinoza,  
 S. Gulania,  A. Gunina,  M. W. D. Hanson-Heine,  P. H. P. Harbach,  
 A. W. Hauser,  M. F. Herbst,  M. Hernandez Vera,  M. Hodecker,  
 Z. C. Holden,  S. Houck,  Xunkun Huang,  Kerwin Hui,  B. C. Huynh,  
 M. Ivanov,  Hyunjun Ji,  Hanjie Jiang,  B. Kaduk,  S. Kaehler,  
 K. Khistyaev,  Jaehoon Kim,  P. Klunzinger,  Z. Koczor-Benda,  
 Joong Hoon Koh,  D. Kosenkov,  L. Koulias,  T. Kowalczyk,  C. M. Krauter,  
 K. Kue,  A. Kunitsa,  T. Kus,  A. Landau,  K. V. Lawler,  D. Lefrancois,  
 S. Lehtola,  Rain Li,  Yi-Pei Li,  Jiashu Liang,  M. Liebenthal,  
 Hung-Hsuan Lin,  You-Sheng Lin,  Fenglai Liu,  Kuan-Yu Liu,  
 M. Loipersberger,  A. Luenser,  A. Manjanath,  P. Manohar,  E. Mansoor,  
 S. F. Manzer,  Shan-Ping Mao,  A. V. Marenich,  T. Markovich,  S. Mason,  
 S. A. Maurer,  P. F. McLaughlin,  M. F. S. J. Menger,  J.-M. Mewes,  
 S. A. Mewes,  P. Morgante,  J. W. Mullinax,  T. S. Nguyen-Beck,  
 K. J. Oosterbaan,  G. Paran,  Alexander C. Paul,  Suranjan K. Paul,  
 F. Pavosevic,  Zheng Pei,  S. Prager,  E. I. Proynov,  E. Ramos,  B. Rana,  
 A. E. Rask,  A. Rettig,  R. M. Richard,  F. Rob,  E. Rossomme,  T. Scheele,  
 M. Scheurer,  M. Schneider,  N. Sergueev,  S. M. Sharada,  W. Skomorowski,  
 D. W. Small,  C. J. Stein,  Yu-Chuan Su,  E. J. Sundstrom,  Zhen Tao,  
 J. Thirman,  T. Tsuchimochi,  N. M. Tubman,  S. P. Veccham,  O. Vydrov,  
 J. Wenzel,  J. Witte,  A. Yamada,  Kun Yao,  S. Yeganeh,  S. R. Yost,  
 A. Zech,  Igor Ying Zhang,  Xing Zhang,  Yu Zhang,  D. Zuev,  
 A. Aspuru-Guzik,  A. T. Bell,  N. A. Besley,  K. B. Bravaya,  B. R. Brooks,  
 D. Casanova,  Jeng-Da Chai,  S. Coriani,  C. J. Cramer,  
 A. E. DePrince, III,  R. A. DiStasio Jr.,  A. Dreuw,  B. D. Dunietz,  
 T. R. Furlani,  W. A. Goddard III,  S. Grimme,  S. Hammes-Schiffer,  
 T. Head-Gordon,  W. J. Hehre,  Chao-Ping Hsu,  T.-C. Jagau,  Yousung Jung,  
 A. Klamt,  Jing Kong,  D. S. Lambrecht,  WanZhen Liang,  N. J. Mayhall,  
 C. W. McCurdy,  J. B. Neaton,  C. Ochsenfeld,  J. A. Parkhill,  R. Peverati,  
 V. A. Rassolov,  Yihan Shao,  L. V. Slipchenko,  T. Stauch,  R. P. Steele,  
 J. E. Subotnik,  A. J. W. Thom,  A. Tkatchenko,  D. G. Truhlar,  
 T. Van Voorhis,  T. A. Wesolowski,  K. B. Whaley,  H. L. Woodcock III,  
 P. M. Zimmerman,  S. Faraji,  P. M. W. Gill,  M. Head-Gordon,  
 J. M. Herbert,  A. I. Krylov

 Contributors to earlier versions of Q-Chem not listed above: 
 R. D. Adamson,  B. Austin,  R. Baer,  J. Baker,  G. J. O. Beran,  
 K. Brandhorst,  S. T. Brown,  E. F. C. Byrd,  A. K. Chakraborty,  
 G. K. L. Chan,  Chun-Min Chang,  Yunqing Chen,  C.-L. Cheng,  
 Siu Hung Chien,  D. M. Chipman,  D. L. Crittenden,  H. Dachsel,  
 R. J. Doerksen,  A. D. Dutoi,  R. G. Edgar,  J. Fosso-Tande,  
 L. Fusti-Molnar,  D. Ghosh,  A. Ghysels,  A. Golubeva-Zadorozhnaya,  
 J. Gonthier,  M. S. Gordon,  S. R. Gwaltney,  G. Hawkins,  J. E. Herr,  
 A. Heyden,  S. Hirata,  E. G. Hohenstein,  G. Kedziora,  F. J. Keil,  
 C. Kelley,  Jihan Kim,  R. A. King,  R. Z. Khaliullin,  P. P. Korambath,  
 W. Kurlancheek,  A. Laurent,  A. M. Lee,  M. S. Lee,  S. V. Levchenko,  
 Ching Yeh Lin,  D. Liotard,  E. Livshits,  R. C. Lochan,  I. Lotan,  
 L. A. Martinez-Martinez,  P. E. Maslen,  N. Nair,  D. P. O'Neill,  
 D. Neuhauser,  E. Neuscamman,  C. M. Oana,  R. Olivares-Amaya,  R. Olson,  
 T. M. Perrine,  B. Peters,  P. A. Pieniazek,  A. Prociuk,  Y. M. Rhee,  
 J. Ritchie,  M. A. Rohrdanz,  E. Rosta,  N. J. Russ,  H. F. Schaefer III,  
 M. W. Schmidt,  N. E. Schultz,  S. Sharma,  N. Shenvi,  C. D. Sherrill,  
 A. C. Simmonett,  A. Sodt,  T. Stein,  D. Stuck,  K. S. Thanthiriwatte,  
 V. Vanovschi,  L. Vogt,  Tao Wang,  A. Warshel,  M. A. Watson,  
 C. F. Williams,  Q. Wu,  X. Xu,  Jun Yang,  W. Zhang,  Yan Zhao

 Please cite Q-Chem as follows:
 Y. Shao et al., Mol. Phys. 113, 184-215 (2015)
 DOI: 10.1080/00268976.2014.952696

 Q-Chem 5.4.0 for Intel X86 EM64T Linux

 Parts of Q-Chem use Armadillo 9.800.1 (Horizon Scraper).
 http://arma.sourceforge.net/

 Q-Chem begins on Sun Jul 10 02:01:25 2022  

 Host: 
0

     Scratch files written to ./qchem2247326//
 May1621 |scratch|qcdevops|jenkins|workspace|build_RNUM    
 Processing $rem in /cm/shared/apps/spack/cpu/opt/spack/linux-centos8-zen2/gcc-10.2.0/qchem-5.4-akfmr7b3t57bfs6qan3padb2wnb2i7cl/config/preferences:
 Processing $rem in /home/theleonzhang/.qchemrc:
 Symmetry turned off for PCM/SM12/SMD calculation
 Core orbitals will be frozen

 Checking the input file for inconsistencies... 	...done.

--------------------------------------------------------------
User input:
--------------------------------------------------------------
$molecule
0 1
C	-0.763475	-3.866725	0.133897
C	0.603206	-3.703963	-0.106669
C	1.050446	-2.357056	-0.185154
H	1.283024	-4.561092	-0.226709
C	-0.000000	-1.440664	-0.000000
S	-1.521018	-2.286957	0.268206
C	2.483610	-1.978743	-0.437628
H	3.118875	-2.878678	-0.549717
H	2.903464	-1.376015	0.394664
H	2.593726	-1.375728	-1.363110
C	0.000000	0.000000	0.000000
C	0.149995	0.850475	1.099446
C	0.390327	2.213354	0.776721
H	0.085947	0.487279	2.136088
C	0.428665	2.430655	-0.612546
S	0.163670	0.928078	-1.486809
C	0.579235	3.284574	1.814609
H	0.505323	2.865404	2.836676
H	-0.185980	4.083890	1.726239
H	1.571698	3.773937	1.726228
H	0.593515	3.365448	-1.161575
H	-0.946698	-4.392713	1.077442
H	-1.258274	-4.392347	-0.690363
H	-0.187427	-1.440391	-1.063612
$end

$rem
JOBTYPE		SP
EXCHANGE	HF
CORRELATION	pRIMP2
BASIS		cc-pvtz
METHOD		rimp2
AUX_BASIS	rimp2-cc-pvtz
SOLVENT_METHOD	PCM
PURECART	11111
SYMMETRY	false
MEM_TOTAL	110000
SCF_CONVERGENCE = 6
THRESH=10
$end



$solvent
dielectric 4.90
$end
--------------------------------------------------------------
 ----------------------------------------------------------------
             Standard Nuclear Orientation (Angstroms)
    I     Atom           X                Y                Z
 ----------------------------------------------------------------
    1      C      -0.7634750000    -3.8667250000     0.1338970000
    2      C       0.6032060000    -3.7039630000    -0.1066690000
    3      C       1.0504460000    -2.3570560000    -0.1851540000
    4      H       1.2830240000    -4.5610920000    -0.2267090000
    5      C       0.0000000000    -1.4406640000     0.0000000000
    6      S      -1.5210180000    -2.2869570000     0.2682060000
    7      C       2.4836100000    -1.9787430000    -0.4376280000
    8      H       3.1188750000    -2.8786780000    -0.5497170000
    9      H       2.9034640000    -1.3760150000     0.3946640000
   10      H       2.5937260000    -1.3757280000    -1.3631100000
   11      C       0.0000000000     0.0000000000     0.0000000000
   12      C       0.1499950000     0.8504750000     1.0994460000
   13      C       0.3903270000     2.2133540000     0.7767210000
   14      H       0.0859470000     0.4872790000     2.1360880000
   15      C       0.4286650000     2.4306550000    -0.6125460000
   16      S       0.1636700000     0.9280780000    -1.4868090000
   17      C       0.5792350000     3.2845740000     1.8146090000
   18      H       0.5053230000     2.8654040000     2.8366760000
   19      H      -0.1859800000     4.0838900000     1.7262390000
   20      H       1.5716980000     3.7739370000     1.7262280000
   21      H       0.5935150000     3.3654480000    -1.1615750000
   22      H      -0.9466980000    -4.3927130000     1.0774420000
   23      H      -1.2582740000    -4.3923470000    -0.6903630000
   24      H      -0.1874270000    -1.4403910000    -1.0636120000
 ----------------------------------------------------------------
 Nuclear Repulsion Energy =         872.65699359 hartrees
 There are       52 alpha and       52 beta electrons

 Q-Chem warning in module forms1/BasisType.C, line 2236:

 You are not using the predefined 5D/6D in this basis set.

 Requested basis set is cc-pVTZ
 There are 196 shells and 536 basis functions

 Total QAlloc Memory Limit 110000 MB
 Mega-Array Size       188 MB
 MEM_STATIC part       192 MB
 Discretize the solute cavity surface with Lebedev spheres
	Using 110 Lebedev grid points for each H atom
	Using 194 Lebedev grid points for other atoms
	Atomic van der Waals radii will be scaled by 1.20
 Remove points where switching function is < 1.0e-08
 Keep 1629 surface tesserae and discard 2019 interior tesserae
 Molecular Surface Area = 238.214 Angst**2
 Requested basis set is rimp2-cc-pVTZ
 There are 414 shells and 1414 basis functions
 A cutoff of  1.0D-10 yielded  13950 shell pairs
 There are    101314 function pairs (    130054 Cartesian)
 Smallest overlap matrix eigenvalue = 5.79E-05

 Scale SEOQF with 1.000000e-01/1.000000e-01/1.000000e-01

 Standard Electronic Orientation quadrupole field applied
 Nucleus-field energy     =     0.0000000367 hartrees
 Guess from superposition of atomic densities
 Warning:  Energy on first SCF cycle will be non-variational
 SAD guess density has 104.000000 electrons

 -----------------------------------------------------------------------
  General SCF calculation program by
  Eric Jon Sundstrom, Paul Horn, Yuezhi Mao, Dmitri Zuev, Alec White,
  David Stuck, Shaama M.S., Shane Yost, Joonho Lee, David Small,
  Daniel Levine, Susi Lehtola, Hugh Burton, Evgeny Epifanovsky,
  Bang C. Huynh
 -----------------------------------------------------------------------
 Hartree-Fock
 A restricted SCF calculation will be
 performed using DIIS
 SCF converges when DIIS error is below 1.0e-06
 ---------------------------------------
  Cycle       Energy         DIIS error
 ---------------------------------------
    1   -1186.0211855163      2.39e-02  
    2   -1180.6134169821      1.56e-03  
    3   -1180.7382660748      6.04e-04  
    4   -1180.7524422712      3.29e-04  
    5   -1180.7573911749      6.10e-05  
    6   -1180.7576431636      2.48e-05  
    7   -1180.7577047707      9.39e-06  
    8   -1180.7577191832      4.52e-06  
    9   -1180.7577225606      1.51e-06  
   10   -1180.7577230546      5.03e-07  Convergence criterion met
 ---------------------------------------
 SCF time:   CPU 563.88s  wall 565.00s 

************** Final PCM Free Energy Summary **************
 G_electrostatic  =      -0.00852050 hartree =      -5.34669656 kcal/mol
 G_cavitation     =       0.00000000 hartree =       0.00000000 kcal/mol
 G_dispersion     =       0.00000000 hartree =       0.00000000 kcal/mol
 G_repulsion      =       0.00000000 hartree =       0.00000000 kcal/mol
 --------------------------------------------------
 Non-electrostatic Free Energy =       0.00000000 hartree =       0.00000000 kcal/mol
 Total                         =      -0.00852050 hartree =      -5.34669656 kcal/mol
 --------------------------------------------------
 SCF Energy (H0 + V/2)                       =   -1180.75772305 
 Solute Internal Energy (H0)                 =   -1180.74920255 
 Total Free Energy (H0 + V/2 + non-elec)     =   -1180.75772305 hartree
                                             = -740936.65417315 kcal/mol
***********************************************************

 SCF   energy in the final basis set =    -1180.7577230546
 Total energy in the final basis set =    -1180.7577230546


 --------------------------------------------------------------
  Generalized many-body perturbation theory program
  by Joonho Lee, Fazle Rob, Xintian Feng, Evgeny Epifanovsky

 No regularization used 
 (reg. param. = 0.0000e+00)
  (P|Q)^-1/2 Time:  CPU 1.89 s  wall 1.89 s

 In RI-MP2 calculation: 
 # of frozen core orbitals: 20

 Components of the RIMP2 correlation energy:
        aaaa    correlation energy =        -0.2510747758 a.u.
        abab    correlation energy =        -1.5028664406 a.u.
        bbbb    correlation energy =        -0.2510747758 a.u.
        non-Brillouin singles      =        -0.0000000000 a.u.
        total same-spin energy     =        -0.5021495517 a.u.
        total opposite-spin energy =        -1.5028664406 a.u.

 Total  RIMP2   correlation energy =        -2.0050159923 a.u.
        RIMP2         total energy =     -1182.7627390469 a.u.

 RI-MP2 Energy Time:  CPU 79.00 s  wall 79.15 s
 
 --------------------------------------------------------------
 
                    Orbital Energies (a.u.)
 --------------------------------------------------------------
 
 Alpha MOs
 -- Occupied --
-91.9870 -91.9408 -11.2781 -11.2661 -11.2627 -11.2550 -11.2512 -11.2403
-11.2391 -11.2310 -11.2289 -11.2188  -8.9866  -8.9455  -6.6674  -6.6669
 -6.6663  -6.6268  -6.6258  -6.6245  -1.1980  -1.1537  -1.0587  -1.0253
 -1.0037  -0.9627  -0.9130  -0.9005  -0.8122  -0.7646  -0.7390  -0.7044
 -0.6536  -0.6339  -0.6110  -0.5878  -0.5758  -0.5737  -0.5697  -0.5536
 -0.5425  -0.5294  -0.5146  -0.5048  -0.4913  -0.4804  -0.4639  -0.4473
 -0.3554  -0.3421  -0.3128  -0.2814
 -- Virtual --
  0.0945   0.1285   0.1413   0.1514   0.1600   0.1655   0.1803   0.1833
  0.1856   0.1937   0.2035   0.2107   0.2271   0.2341   0.2421   0.2432
  0.2521   0.2574   0.2685   0.2908   0.2995   0.3376   0.3451   0.3524
  0.3649   0.3753   0.3778   0.3809   0.3940   0.4014   0.4116   0.4240
  0.4418   0.4485   0.4554   0.4601   0.4660   0.4724   0.4820   0.4910
  0.5023   0.5137   0.5230   0.5312   0.5367   0.5419   0.5496   0.5567
  0.5698   0.5733   0.5806   0.5829   0.6021   0.6065   0.6139   0.6178
  0.6210   0.6295   0.6337   0.6376   0.6423   0.6442   0.6485   0.6516
  0.6615   0.6680   0.6802   0.6863   0.6961   0.7019   0.7113   0.7301
  0.7322   0.7430   0.7512   0.7636   0.7858   0.7976   0.8073   0.8232
  0.8285   0.8385   0.8536   0.8552   0.8686   0.8889   0.8940   0.9198
  0.9238   0.9381   0.9499   0.9532   0.9789   0.9870   0.9989   1.0093
  1.0187   1.0272   1.0342   1.0452   1.0540   1.0641   1.0723   1.0838
  1.0906   1.0949   1.1050   1.1209   1.1253   1.1431   1.1620   1.1676
  1.1782   1.1917   1.1960   1.2090   1.2159   1.2222   1.2372   1.2475
  1.2520   1.2565   1.2669   1.2765   1.2817   1.2968   1.3069   1.3179
  1.3211   1.3306   1.3398   1.3557   1.3672   1.3829   1.4080   1.4096
  1.4209   1.4250   1.4421   1.4549   1.4675   1.4767   1.4880   1.4979
  1.5020   1.5086   1.5133   1.5335   1.5379   1.5390   1.5487   1.5520
  1.5619   1.5768   1.5815   1.5982   1.6145   1.6274   1.6329   1.6479
  1.6586   1.6751   1.6832   1.6909   1.7010   1.7073   1.7220   1.7239
  1.7405   1.7523   1.7623   1.7883   1.7997   1.8181   1.8466   1.8632
  1.8947   1.9060   1.9144   1.9293   1.9464   1.9685   1.9910   2.0003
  2.0140   2.0258   2.0352   2.0561   2.0922   2.1275   2.1331   2.1568
  2.1815   2.1925   2.2050   2.2205   2.2258   2.2466   2.2675   2.2852
  2.3066   2.3255   2.3495   2.3669   2.3960   2.4118   2.4550   2.4609
  2.4946   2.5076   2.5318   2.5450   2.5607   2.5908   2.6140   2.6147
  2.6256   2.6383   2.6460   2.6599   2.6756   2.6883   2.7065   2.7143
  2.7383   2.7479   2.7599   2.7680   2.7785   2.7821   2.7911   2.8253
  2.8283   2.8484   2.8518   2.8778   2.8884   2.9099   2.9165   2.9277
  2.9428   2.9518   2.9697   2.9953   3.0128   3.0189   3.0381   3.0467
  3.0667   3.0720   3.0910   3.1074   3.1111   3.1216   3.1345   3.1422
  3.1469   3.1522   3.1583   3.1689   3.1780   3.1971   3.2116   3.2124
  3.2300   3.2417   3.2510   3.2640   3.2735   3.2857   3.2885   3.2997
  3.3132   3.3241   3.3291   3.3342   3.3461   3.3531   3.3599   3.3617
  3.3806   3.3910   3.3960   3.3997   3.4081   3.4138   3.4256   3.4299
  3.4439   3.4459   3.4647   3.4752   3.4813   3.4901   3.5039   3.5079
  3.5118   3.5249   3.5308   3.5339   3.5466   3.5530   3.5687   3.5736
  3.5799   3.5972   3.6102   3.6213   3.6290   3.6347   3.6401   3.6571
  3.6642   3.6852   3.6913   3.7008   3.7078   3.7298   3.7337   3.7347
  3.7478   3.7523   3.7730   3.7757   3.7831   3.7939   3.8072   3.8260
  3.8271   3.8316   3.8551   3.8700   3.8738   3.8878   3.9003   3.9080
  3.9247   3.9366   3.9398   3.9581   3.9741   3.9830   3.9992   4.0087
  4.0279   4.0497   4.0515   4.0602   4.0721   4.0774   4.0964   4.1016
  4.1190   4.1387   4.1530   4.1550   4.1612   4.1740   4.1799   4.2076
  4.2104   4.2182   4.2414   4.2473   4.2513   4.2617   4.2688   4.2801
  4.2838   4.2921   4.3185   4.3281   4.3381   4.3510   4.3616   4.3744
  4.3826   4.3915   4.4006   4.4022   4.4118   4.4207   4.4429   4.4539
  4.4644   4.4671   4.4715   4.4858   4.4878   4.5120   4.5314   4.5689
  4.5732   4.5782   4.6090   4.6232   4.6256   4.6478   4.6544   4.6709
  4.6757   4.7005   4.7398   4.7505   4.7648   4.7993   4.8191   4.8380
  4.8563   4.8834   4.8905   4.8980   4.9365   4.9554   4.9909   4.9978
  5.0200   5.0325   5.0778   5.0982   5.1138   5.1271   5.1443   5.1871
  5.1950   5.2224   5.2277   5.2664   5.2783   5.2853   5.3114   5.3206
  5.3516   5.3674   5.3778   5.3997   5.4133   5.4214   5.4423   5.4607
  5.4667   5.5217   5.5270   5.5378   5.5509   5.5587   5.5706   5.5939
  5.6171   5.6252   5.6354   5.6633   5.6833   5.6939   5.7034   5.7419
  5.7642   5.7854   5.8330   5.9671   5.9913   6.0714   6.1220   6.1457
  6.2078   6.2179   6.2248   6.2332   6.2553   6.2814   6.3104   6.3197
  6.3878   6.5106   9.4250  10.5138  12.0946  12.9283  13.1602  14.0106
 14.0729  14.2222  14.3461  14.7798
 --------------------------------------------------------------
 
          Ground-State Mulliken Net Atomic Charges

     Atom                 Charge (a.u.)
  ----------------------------------------
      1 C                    -0.078060
      2 C                    -0.331309
      3 C                    -0.016944
      4 H                     0.176045
      5 C                     0.096842
      6 S                    -0.177422
      7 C                    -0.265457
      8 H                     0.113379
      9 H                     0.107038
     10 H                     0.101703
     11 C                    -0.110844
     12 C                    -0.227649
     13 C                     0.023422
     14 H                     0.185849
     15 C                    -0.244456
     16 S                     0.016314
     17 C                    -0.272143
     18 H                     0.103062
     19 H                     0.108327
     20 H                     0.107526
     21 H                     0.198735
     22 H                     0.112596
     23 H                     0.110588
     24 H                     0.162859
  ----------------------------------------
  Sum of atomic charges =     0.000000

 -----------------------------------------------------------------
                    Cartesian Multipole Moments
 -----------------------------------------------------------------
    Charge (ESU x 10^10)
                -0.0000
    Dipole Moment (Debye)
         X       2.6165      Y       0.7658      Z       0.3060
       Tot       2.7434
    Quadrupole Moments (Debye-Ang)
        XX     -91.3685     XY      -1.4547     YY     -73.9914
        XZ       0.4308     YZ       2.9249     ZZ     -85.9845
    Octopole Moments (Debye-Ang^2)
       XXX     -32.2462    XXY      42.5176    XYY      -6.6572
       YYY     128.3648    XXZ      -2.6589    XYZ      -0.3936
       YYZ      -5.8159    XZZ     -12.3577    YZZ      57.2589
       ZZZ       5.4176
    Hexadecapole Moments (Debye-Ang^3)
      XXXX    -715.8606   XXXY    -120.9044   XXYY    -613.3979
      XYYY     -64.1784   YYYY   -2765.8447   XXXZ      31.5089
      XXYZ     -23.1841   XYYZ       4.5112   YYYZ    -105.5183
      XXZZ    -223.9557   XYZZ     -22.8336   YYZZ    -596.5867
      XZZZ      34.8752   YZZZ     -97.6520   ZZZZ    -554.2860
 -----------------------------------------------------------------
 Total job time:  646.90s(wall), 643.76s(cpu) 
 Sun Jul 10 02:12:12 2022

        *************************************************************
        *                                                           *
        *  Thank you very much for using Q-Chem.  Have a nice day.  *
        *                                                           *
        *************************************************************


remove work dirs ./qchem2247326.0 -- ./qchem2247326.-1
rm -rf ./qchem2247326
