You are running Q-Chem version: 5.4.0

#
# job setting
#
local host:  exp-5-17
current dir: /expanse/lustre/scratch/theleonzhang/temp_project/Hydrogenated_Rotation_Test
input file:  Methylthiophene_Phi_15_Theta_50_Methylthiophene_Hydrogenated_Alternate.qcin
output file: 
nprocs     : 0
nthreads   : 1
#
# qchem installation setting
#
QC:          /cm/shared/apps/spack/cpu/opt/spack/linux-centos8-zen2/gcc-10.2.0/qchem-5.4-akfmr7b3t57bfs6qan3padb2wnb2i7cl
QCAUX:       /cm/shared/apps/spack/cpu/opt/spack/linux-centos8-zen2/gcc-10.2.0/qchem-5.4-akfmr7b3t57bfs6qan3padb2wnb2i7cl/qcaux
QCPROG:      /cm/shared/apps/spack/cpu/opt/spack/linux-centos8-zen2/gcc-10.2.0/qchem-5.4-akfmr7b3t57bfs6qan3padb2wnb2i7cl/exe/qcprog.exe_s
QCPROG_S:    /cm/shared/apps/spack/cpu/opt/spack/linux-centos8-zen2/gcc-10.2.0/qchem-5.4-akfmr7b3t57bfs6qan3padb2wnb2i7cl/exe/qcprog.exe_s
PARALLEL:    -DSERIAL
QCMPI:       mpich
#
# qchem directory setting
#
qcrun:       qchem574755
QCSCRATCH:   .
QCLOCALSCR:  
QCTMPDIR:    .
QCFILEPREF:  ./qchem574755
QCSAVEDIR:   
workdirs:    ./qchem574755
workdir0:    ./qchem574755
partmpdirs =  
#
# parallel setting
#
QCRSH:           ssh
QCMPI:           mpich
QCMPIRUN:        /cm/shared/apps/spack/cpu/opt/spack/linux-centos8-zen2/gcc-10.2.0/qchem-5.4-akfmr7b3t57bfs6qan3padb2wnb2i7cl/bin/mpi/mpirun_qchem
QCMACHINEFILE:   ./qchem574755/hostfile

#
# env setting
#
exported envs:   QC QCAUX QCSCRATCH QCRUNNAME QCFILEPREF QCPROG QCPROG_S GUIFILE

Running Job 1 of 1 Methylthiophene_Phi_15_Theta_50_Methylthiophene_Hydrogenated_Alternate.qcin
qchem Methylthiophene_Phi_15_Theta_50_Methylthiophene_Hydrogenated_Alternate.qcin_574755.0 ./qchem574755/ 0
/cm/shared/apps/spack/cpu/opt/spack/linux-centos8-zen2/gcc-10.2.0/qchem-5.4-akfmr7b3t57bfs6qan3padb2wnb2i7cl/exe/qcprog.exe_s Methylthiophene_Phi_15_Theta_50_Methylthiophene_Hydrogenated_Alternate.qcin_574755.0 ./qchem574755/
                  Welcome to Q-Chem
     A Quantum Leap Into The Future Of Chemistry


 Q-Chem 5.4, Q-Chem, Inc., Pleasanton, CA (2021)

 License issued to: University of California, San Diego (site)

 E. Epifanovsky,  A. T. B. Gilbert,  Xintian Feng,  Joonho Lee,  Yuezhi Mao,  
 N. Mardirossian,  P. Pokhilko,  A. White,  M. Wormit,  M. P. Coons,  
 A. L. Dempwolff,  Zhengting Gan,  D. Hait,  P. R. Horn,  L. D. Jacobson,  
 I. Kaliman,  J. Kussmann,  A. W. Lange,  Ka Un Lao,  D. S. Levine,  Jie Liu,  
 S. C. McKenzie,  A. F. Morrison,  K. Nanda,  F. Plasser,  D. R. Rehn,  
 M. L. Vidal,  Zhi-Qiang You,  Ying Zhu,  B. Alam,  B. Albrecht,  
 A. Aldossary,  E. Alguire,  J. H. Andersen,  D. Barton,  K. Begam,  A. Behn,  
 Y. A. Bernard,  E. J. Berquist,  H. Burton,  A. Carreras,  K. Carter-Fenk,  
 R. Chakraborty,  A. D. Chien,  K. D. Closser,  V. Cofer-Shabica,  
 S. Dasgupta,  Jia Deng,  M. de Wergifosse,  M. Diedenhofen,  Hainam Do,  
 S. Ehlert,  Po-Tung Fang,  S. Fatehi,  Qingguo Feng,  J. Gayvert,  
 Qinghui Ge,  G. Gidofalvi,  M. Goldey,  J. Gomes,  C. Gonzalez-Espinoza,  
 S. Gulania,  A. Gunina,  M. W. D. Hanson-Heine,  P. H. P. Harbach,  
 A. W. Hauser,  M. F. Herbst,  M. Hernandez Vera,  M. Hodecker,  
 Z. C. Holden,  S. Houck,  Xunkun Huang,  Kerwin Hui,  B. C. Huynh,  
 M. Ivanov,  Hyunjun Ji,  Hanjie Jiang,  B. Kaduk,  S. Kaehler,  
 K. Khistyaev,  Jaehoon Kim,  P. Klunzinger,  Z. Koczor-Benda,  
 Joong Hoon Koh,  D. Kosenkov,  L. Koulias,  T. Kowalczyk,  C. M. Krauter,  
 K. Kue,  A. Kunitsa,  T. Kus,  A. Landau,  K. V. Lawler,  D. Lefrancois,  
 S. Lehtola,  Rain Li,  Yi-Pei Li,  Jiashu Liang,  M. Liebenthal,  
 Hung-Hsuan Lin,  You-Sheng Lin,  Fenglai Liu,  Kuan-Yu Liu,  
 M. Loipersberger,  A. Luenser,  A. Manjanath,  P. Manohar,  E. Mansoor,  
 S. F. Manzer,  Shan-Ping Mao,  A. V. Marenich,  T. Markovich,  S. Mason,  
 S. A. Maurer,  P. F. McLaughlin,  M. F. S. J. Menger,  J.-M. Mewes,  
 S. A. Mewes,  P. Morgante,  J. W. Mullinax,  T. S. Nguyen-Beck,  
 K. J. Oosterbaan,  G. Paran,  Alexander C. Paul,  Suranjan K. Paul,  
 F. Pavosevic,  Zheng Pei,  S. Prager,  E. I. Proynov,  E. Ramos,  B. Rana,  
 A. E. Rask,  A. Rettig,  R. M. Richard,  F. Rob,  E. Rossomme,  T. Scheele,  
 M. Scheurer,  M. Schneider,  N. Sergueev,  S. M. Sharada,  W. Skomorowski,  
 D. W. Small,  C. J. Stein,  Yu-Chuan Su,  E. J. Sundstrom,  Zhen Tao,  
 J. Thirman,  T. Tsuchimochi,  N. M. Tubman,  S. P. Veccham,  O. Vydrov,  
 J. Wenzel,  J. Witte,  A. Yamada,  Kun Yao,  S. Yeganeh,  S. R. Yost,  
 A. Zech,  Igor Ying Zhang,  Xing Zhang,  Yu Zhang,  D. Zuev,  
 A. Aspuru-Guzik,  A. T. Bell,  N. A. Besley,  K. B. Bravaya,  B. R. Brooks,  
 D. Casanova,  Jeng-Da Chai,  S. Coriani,  C. J. Cramer,  
 A. E. DePrince, III,  R. A. DiStasio Jr.,  A. Dreuw,  B. D. Dunietz,  
 T. R. Furlani,  W. A. Goddard III,  S. Grimme,  S. Hammes-Schiffer,  
 T. Head-Gordon,  W. J. Hehre,  Chao-Ping Hsu,  T.-C. Jagau,  Yousung Jung,  
 A. Klamt,  Jing Kong,  D. S. Lambrecht,  WanZhen Liang,  N. J. Mayhall,  
 C. W. McCurdy,  J. B. Neaton,  C. Ochsenfeld,  J. A. Parkhill,  R. Peverati,  
 V. A. Rassolov,  Yihan Shao,  L. V. Slipchenko,  T. Stauch,  R. P. Steele,  
 J. E. Subotnik,  A. J. W. Thom,  A. Tkatchenko,  D. G. Truhlar,  
 T. Van Voorhis,  T. A. Wesolowski,  K. B. Whaley,  H. L. Woodcock III,  
 P. M. Zimmerman,  S. Faraji,  P. M. W. Gill,  M. Head-Gordon,  
 J. M. Herbert,  A. I. Krylov

 Contributors to earlier versions of Q-Chem not listed above: 
 R. D. Adamson,  B. Austin,  R. Baer,  J. Baker,  G. J. O. Beran,  
 K. Brandhorst,  S. T. Brown,  E. F. C. Byrd,  A. K. Chakraborty,  
 G. K. L. Chan,  Chun-Min Chang,  Yunqing Chen,  C.-L. Cheng,  
 Siu Hung Chien,  D. M. Chipman,  D. L. Crittenden,  H. Dachsel,  
 R. J. Doerksen,  A. D. Dutoi,  R. G. Edgar,  J. Fosso-Tande,  
 L. Fusti-Molnar,  D. Ghosh,  A. Ghysels,  A. Golubeva-Zadorozhnaya,  
 J. Gonthier,  M. S. Gordon,  S. R. Gwaltney,  G. Hawkins,  J. E. Herr,  
 A. Heyden,  S. Hirata,  E. G. Hohenstein,  G. Kedziora,  F. J. Keil,  
 C. Kelley,  Jihan Kim,  R. A. King,  R. Z. Khaliullin,  P. P. Korambath,  
 W. Kurlancheek,  A. Laurent,  A. M. Lee,  M. S. Lee,  S. V. Levchenko,  
 Ching Yeh Lin,  D. Liotard,  E. Livshits,  R. C. Lochan,  I. Lotan,  
 L. A. Martinez-Martinez,  P. E. Maslen,  N. Nair,  D. P. O'Neill,  
 D. Neuhauser,  E. Neuscamman,  C. M. Oana,  R. Olivares-Amaya,  R. Olson,  
 T. M. Perrine,  B. Peters,  P. A. Pieniazek,  A. Prociuk,  Y. M. Rhee,  
 J. Ritchie,  M. A. Rohrdanz,  E. Rosta,  N. J. Russ,  H. F. Schaefer III,  
 M. W. Schmidt,  N. E. Schultz,  S. Sharma,  N. Shenvi,  C. D. Sherrill,  
 A. C. Simmonett,  A. Sodt,  T. Stein,  D. Stuck,  K. S. Thanthiriwatte,  
 V. Vanovschi,  L. Vogt,  Tao Wang,  A. Warshel,  M. A. Watson,  
 C. F. Williams,  Q. Wu,  X. Xu,  Jun Yang,  W. Zhang,  Yan Zhao

 Please cite Q-Chem as follows:
 Y. Shao et al., Mol. Phys. 113, 184-215 (2015)
 DOI: 10.1080/00268976.2014.952696

 Q-Chem 5.4.0 for Intel X86 EM64T Linux

 Parts of Q-Chem use Armadillo 9.800.1 (Horizon Scraper).
 http://arma.sourceforge.net/

 Q-Chem begins on Sun Jul 10 01:33:32 2022  

 Host: 
0

     Scratch files written to ./qchem574755//
 May1621 |scratch|qcdevops|jenkins|workspace|build_RNUM    
 Processing $rem in /cm/shared/apps/spack/cpu/opt/spack/linux-centos8-zen2/gcc-10.2.0/qchem-5.4-akfmr7b3t57bfs6qan3padb2wnb2i7cl/config/preferences:
 Processing $rem in /home/theleonzhang/.qchemrc:
 Symmetry turned off for PCM/SM12/SMD calculation
 Core orbitals will be frozen

 Checking the input file for inconsistencies... 	...done.

--------------------------------------------------------------
User input:
--------------------------------------------------------------
$molecule
0 1
C	-0.594240	-3.866725	0.497696
C	0.469057	-3.703963	-0.393981
C	0.817136	-2.357056	-0.685571
H	0.997777	-4.561092	-0.837848
C	0.000000	-1.440664	0.000000
S	-1.183137	-2.286957	0.992782
C	1.932056	-1.978743	-1.620802
H	2.426166	-2.878678	-2.035506
H	2.711806	-1.376015	-1.109943
H	1.564678	-1.375728	-2.477350
C	0.000000	0.000000	0.000000
C	0.223548	0.834165	1.099446
C	0.581748	2.170912	0.776721
H	0.128089	0.477934	2.136088
C	0.638880	2.384045	-0.612546
S	0.243934	0.910282	-1.486809
C	0.863301	3.221592	1.814609
H	0.753137	2.810458	2.836676
H	0.170663	4.084559	1.726239
H	1.894637	3.622593	1.726228
H	0.884575	3.300913	-1.161575
H	-0.281143	-4.392713	1.406441
H	-1.434879	-4.392347	0.031265
H	0.694122	-1.440937	0.827402
$end

$rem
JOBTYPE		SP
EXCHANGE	HF
CORRELATION	pRIMP2
BASIS		cc-pvtz
METHOD		rimp2
AUX_BASIS	rimp2-cc-pvtz
SOLVENT_METHOD	PCM
PURECART	11111
SYMMETRY	false
MEM_TOTAL	110000
SCF_CONVERGENCE = 6
THRESH=10
$end



$solvent
dielectric 4.90
$end
--------------------------------------------------------------
 ----------------------------------------------------------------
             Standard Nuclear Orientation (Angstroms)
    I     Atom           X                Y                Z
 ----------------------------------------------------------------
    1      C      -0.5942400000    -3.8667250000     0.4976960000
    2      C       0.4690570000    -3.7039630000    -0.3939810000
    3      C       0.8171360000    -2.3570560000    -0.6855710000
    4      H       0.9977770000    -4.5610920000    -0.8378480000
    5      C       0.0000000000    -1.4406640000     0.0000000000
    6      S      -1.1831370000    -2.2869570000     0.9927820000
    7      C       1.9320560000    -1.9787430000    -1.6208020000
    8      H       2.4261660000    -2.8786780000    -2.0355060000
    9      H       2.7118060000    -1.3760150000    -1.1099430000
   10      H       1.5646780000    -1.3757280000    -2.4773500000
   11      C       0.0000000000     0.0000000000     0.0000000000
   12      C       0.2235480000     0.8341650000     1.0994460000
   13      C       0.5817480000     2.1709120000     0.7767210000
   14      H       0.1280890000     0.4779340000     2.1360880000
   15      C       0.6388800000     2.3840450000    -0.6125460000
   16      S       0.2439340000     0.9102820000    -1.4868090000
   17      C       0.8633010000     3.2215920000     1.8146090000
   18      H       0.7531370000     2.8104580000     2.8366760000
   19      H       0.1706630000     4.0845590000     1.7262390000
   20      H       1.8946370000     3.6225930000     1.7262280000
   21      H       0.8845750000     3.3009130000    -1.1615750000
   22      H      -0.2811430000    -4.3927130000     1.4064410000
   23      H      -1.4348790000    -4.3923470000     0.0312650000
   24      H       0.6941220000    -1.4409370000     0.8274020000
 ----------------------------------------------------------------
 Nuclear Repulsion Energy =         875.42102324 hartrees
 There are       52 alpha and       52 beta electrons

 Q-Chem warning in module forms1/BasisType.C, line 2236:

 You are not using the predefined 5D/6D in this basis set.

 Requested basis set is cc-pVTZ
 There are 196 shells and 536 basis functions

 Total QAlloc Memory Limit 110000 MB
 Mega-Array Size       188 MB
 MEM_STATIC part       192 MB
 Discretize the solute cavity surface with Lebedev spheres
	Using 110 Lebedev grid points for each H atom
	Using 194 Lebedev grid points for other atoms
	Atomic van der Waals radii will be scaled by 1.20
 Remove points where switching function is < 1.0e-08
 Keep 1585 surface tesserae and discard 2063 interior tesserae
 Molecular Surface Area = 233.885 Angst**2
 Requested basis set is rimp2-cc-pVTZ
 There are 414 shells and 1414 basis functions
 A cutoff of  1.0D-10 yielded  14020 shell pairs
 There are    101642 function pairs (    130358 Cartesian)
 Smallest overlap matrix eigenvalue = 5.76E-05

 Scale SEOQF with 1.000000e-01/1.000000e-01/1.000000e-01

 Standard Electronic Orientation quadrupole field applied
 Nucleus-field energy     =     0.0000000302 hartrees
 Guess from superposition of atomic densities
 Warning:  Energy on first SCF cycle will be non-variational
 SAD guess density has 104.000000 electrons

 -----------------------------------------------------------------------
  General SCF calculation program by
  Eric Jon Sundstrom, Paul Horn, Yuezhi Mao, Dmitri Zuev, Alec White,
  David Stuck, Shaama M.S., Shane Yost, Joonho Lee, David Small,
  Daniel Levine, Susi Lehtola, Hugh Burton, Evgeny Epifanovsky,
  Bang C. Huynh
 -----------------------------------------------------------------------
 Hartree-Fock
 A restricted SCF calculation will be
 performed using DIIS
 SCF converges when DIIS error is below 1.0e-06
 ---------------------------------------
  Cycle       Energy         DIIS error
 ---------------------------------------
    1   -1186.0395814042      2.39e-02  
    2   -1180.6095911263      1.56e-03  
    3   -1180.7341735452      6.19e-04  
    4   -1180.7487042146      3.44e-04  
    5   -1180.7540819505      5.90e-05  
    6   -1180.7543289227      2.44e-05  
    7   -1180.7543874660      8.89e-06  
    8   -1180.7544008084      4.27e-06  
    9   -1180.7544038410      1.49e-06  
   10   -1180.7544043202      5.05e-07  Convergence criterion met
 ---------------------------------------
 SCF time:   CPU 564.07s  wall 565.00s 

************** Final PCM Free Energy Summary **************
 G_electrostatic  =      -0.00848614 hartree =      -5.32513095 kcal/mol
 G_cavitation     =       0.00000000 hartree =       0.00000000 kcal/mol
 G_dispersion     =       0.00000000 hartree =       0.00000000 kcal/mol
 G_repulsion      =       0.00000000 hartree =       0.00000000 kcal/mol
 --------------------------------------------------
 Non-electrostatic Free Energy =       0.00000000 hartree =       0.00000000 kcal/mol
 Total                         =      -0.00848614 hartree =      -5.32513095 kcal/mol
 --------------------------------------------------
 SCF Energy (H0 + V/2)                       =   -1180.75440432 
 Solute Internal Energy (H0)                 =   -1180.74591818 
 Total Free Energy (H0 + V/2 + non-elec)     =   -1180.75440432 hartree
                                             = -740934.57163592 kcal/mol
***********************************************************

 SCF   energy in the final basis set =    -1180.7544043202
 Total energy in the final basis set =    -1180.7544043202


 --------------------------------------------------------------
  Generalized many-body perturbation theory program
  by Joonho Lee, Fazle Rob, Xintian Feng, Evgeny Epifanovsky

 No regularization used 
 (reg. param. = 0.0000e+00)
  (P|Q)^-1/2 Time:  CPU 1.89 s  wall 1.89 s

 In RI-MP2 calculation: 
 # of frozen core orbitals: 20

 Components of the RIMP2 correlation energy:
        aaaa    correlation energy =        -0.2517333039 a.u.
        abab    correlation energy =        -1.5038919954 a.u.
        bbbb    correlation energy =        -0.2517333039 a.u.
        non-Brillouin singles      =        -0.0000000000 a.u.
        total same-spin energy     =        -0.5034666078 a.u.
        total opposite-spin energy =        -1.5038919954 a.u.

 Total  RIMP2   correlation energy =        -2.0073586032 a.u.
        RIMP2         total energy =     -1182.7617629234 a.u.

 RI-MP2 Energy Time:  CPU 79.39 s  wall 79.56 s
 
 --------------------------------------------------------------
 
                    Orbital Energies (a.u.)
 --------------------------------------------------------------
 
 Alpha MOs
 -- Occupied --
-91.9823 -91.9419 -11.2847 -11.2642 -11.2599 -11.2567 -11.2508 -11.2416
-11.2374 -11.2309 -11.2287 -11.2204  -8.9821  -8.9466  -6.6630  -6.6625
 -6.6619  -6.6280  -6.6270  -6.6257  -1.2001  -1.1529  -1.0591  -1.0256
 -1.0076  -0.9575  -0.9129  -0.9015  -0.8135  -0.7676  -0.7285  -0.7003
 -0.6623  -0.6427  -0.6104  -0.5864  -0.5804  -0.5735  -0.5679  -0.5525
 -0.5423  -0.5317  -0.5150  -0.5069  -0.4926  -0.4787  -0.4580  -0.4483
 -0.3556  -0.3436  -0.3189  -0.2698
 -- Virtual --
  0.0963   0.1328   0.1428   0.1518   0.1581   0.1694   0.1778   0.1793
  0.1951   0.1972   0.2015   0.2055   0.2255   0.2350   0.2396   0.2429
  0.2522   0.2622   0.2733   0.2965   0.3243   0.3387   0.3498   0.3554
  0.3621   0.3697   0.3793   0.3887   0.3987   0.4015   0.4130   0.4324
  0.4373   0.4509   0.4581   0.4611   0.4649   0.4777   0.4849   0.4957
  0.5082   0.5149   0.5197   0.5301   0.5338   0.5414   0.5508   0.5532
  0.5593   0.5768   0.5811   0.5868   0.5926   0.6125   0.6179   0.6191
  0.6236   0.6287   0.6331   0.6388   0.6451   0.6473   0.6520   0.6585
  0.6628   0.6759   0.6856   0.6886   0.6921   0.7091   0.7114   0.7232
  0.7326   0.7463   0.7512   0.7725   0.7888   0.7944   0.8016   0.8206
  0.8285   0.8377   0.8572   0.8626   0.8695   0.8887   0.8936   0.9167
  0.9292   0.9527   0.9614   0.9639   0.9804   0.9859   0.9988   1.0063
  1.0099   1.0259   1.0332   1.0426   1.0532   1.0717   1.0745   1.0801
  1.0910   1.0962   1.1162   1.1251   1.1389   1.1489   1.1594   1.1692
  1.1759   1.1915   1.1992   1.2053   1.2180   1.2251   1.2323   1.2415
  1.2576   1.2625   1.2676   1.2752   1.2799   1.2867   1.2981   1.3065
  1.3258   1.3338   1.3378   1.3609   1.3800   1.4007   1.4071   1.4136
  1.4224   1.4441   1.4490   1.4618   1.4737   1.4815   1.4869   1.4984
  1.5053   1.5199   1.5257   1.5290   1.5356   1.5458   1.5491   1.5538
  1.5632   1.5739   1.5842   1.5914   1.6093   1.6200   1.6214   1.6347
  1.6511   1.6574   1.6757   1.6852   1.6976   1.7105   1.7254   1.7332
  1.7424   1.7602   1.7911   1.7969   1.8059   1.8257   1.8424   1.8616
  1.8714   1.9062   1.9386   1.9421   1.9537   1.9751   1.9991   2.0077
  2.0264   2.0368   2.0492   2.0516   2.0733   2.0897   2.1270   2.1633
  2.1904   2.1992   2.2038   2.2163   2.2334   2.2608   2.2769   2.2860
  2.3213   2.3386   2.3519   2.3774   2.4040   2.4204   2.4481   2.4656
  2.4949   2.5104   2.5469   2.5500   2.5728   2.5781   2.6125   2.6133
  2.6364   2.6497   2.6598   2.6646   2.6811   2.7050   2.7176   2.7361
  2.7454   2.7538   2.7565   2.7670   2.7786   2.7874   2.7913   2.7967
  2.8269   2.8499   2.8534   2.8718   2.8792   2.9071   2.9263   2.9298
  2.9316   2.9425   2.9537   2.9722   3.0115   3.0244   3.0305   3.0367
  3.0485   3.0761   3.0857   3.1045   3.1125   3.1184   3.1279   3.1395
  3.1456   3.1587   3.1618   3.1713   3.1888   3.1981   3.2032   3.2112
  3.2238   3.2452   3.2498   3.2658   3.2824   3.2877   3.2923   3.3048
  3.3167   3.3255   3.3268   3.3378   3.3417   3.3542   3.3555   3.3708
  3.3778   3.3867   3.3959   3.4015   3.4066   3.4092   3.4230   3.4335
  3.4427   3.4485   3.4542   3.4646   3.4688   3.4759   3.4948   3.5012
  3.5168   3.5222   3.5288   3.5379   3.5428   3.5503   3.5678   3.5822
  3.5950   3.5982   3.6103   3.6137   3.6322   3.6419   3.6482   3.6542
  3.6627   3.6772   3.6904   3.7085   3.7105   3.7253   3.7314   3.7384
  3.7516   3.7590   3.7677   3.7815   3.7851   3.7910   3.8056   3.8153
  3.8256   3.8346   3.8537   3.8623   3.8771   3.8922   3.9039   3.9196
  3.9259   3.9443   3.9534   3.9735   3.9751   3.9781   4.0058   4.0165
  4.0229   4.0419   4.0481   4.0583   4.0779   4.0883   4.0996   4.1106
  4.1237   4.1452   4.1460   4.1497   4.1657   4.1759   4.1824   4.1834
  4.2124   4.2190   4.2354   4.2434   4.2543   4.2657   4.2763   4.2809
  4.2920   4.3075   4.3208   4.3291   4.3357   4.3479   4.3619   4.3686
  4.3822   4.3902   4.4020   4.4035   4.4191   4.4324   4.4386   4.4505
  4.4648   4.4700   4.4727   4.4864   4.4961   4.5194   4.5415   4.5597
  4.5651   4.5909   4.6013   4.6297   4.6457   4.6481   4.6646   4.6721
  4.7039   4.7149   4.7323   4.7640   4.7671   4.8068   4.8236   4.8561
  4.8577   4.8727   4.8831   4.9019   4.9429   4.9628   4.9863   5.0049
  5.0110   5.0385   5.0922   5.1027   5.1193   5.1262   5.1515   5.1776
  5.1820   5.2179   5.2281   5.2735   5.2789   5.2827   5.3094   5.3172
  5.3388   5.3655   5.3831   5.4018   5.4047   5.4239   5.4418   5.4497
  5.4796   5.5138   5.5214   5.5430   5.5501   5.5653   5.5679   5.5919
  5.6230   5.6287   5.6440   5.6560   5.6702   5.6966   5.6997   5.7293
  5.7763   5.7953   5.8322   5.9763   5.9981   6.1191   6.1335   6.1393
  6.2103   6.2273   6.2297   6.2427   6.2654   6.2859   6.3023   6.3250
  6.3981   6.4850   9.4395  10.5156  12.0522  12.9386  13.1586  13.9583
 14.1145  14.2442  14.2939  14.7423
 --------------------------------------------------------------
 
          Ground-State Mulliken Net Atomic Charges

     Atom                 Charge (a.u.)
  ----------------------------------------
      1 C                    -0.075104
      2 C                    -0.324309
      3 C                    -0.025671
      4 H                     0.177442
      5 C                     0.066870
      6 S                    -0.178568
      7 C                    -0.280591
      8 H                     0.114773
      9 H                     0.110022
     10 H                     0.109750
     11 C                    -0.043509
     12 C                    -0.266968
     13 C                     0.029335
     14 H                     0.183592
     15 C                    -0.253380
     16 S                     0.007999
     17 C                    -0.271082
     18 H                     0.102509
     19 H                     0.108528
     20 H                     0.107593
     21 H                     0.196099
     22 H                     0.110196
     23 H                     0.112771
     24 H                     0.181705
  ----------------------------------------
  Sum of atomic charges =     0.000000

 -----------------------------------------------------------------
                    Cartesian Multipole Moments
 -----------------------------------------------------------------
    Charge (ESU x 10^10)
                -0.0000
    Dipole Moment (Debye)
         X       2.8573      Y       0.1788      Z       0.4549
       Tot       2.8988
    Quadrupole Moments (Debye-Ang)
        XX     -91.3336     XY      -1.1153     YY     -74.6757
        XZ       0.1564     YZ       2.3390     ZZ     -85.5361
    Octopole Moments (Debye-Ang^2)
       XXX     -55.6137    XXY      47.4658    XYY      -8.5487
       YYY     125.8317    XXZ      -4.7256    XYZ       1.9599
       YYZ      -0.7380    XZZ     -13.8706    YZZ      54.5572
       ZZZ       3.2798
    Hexadecapole Moments (Debye-Ang^3)
      XXXX    -547.6221   XXXY    -140.6202   XXYY    -587.8014
      XYYY     -98.9132   YYYY   -2734.7340   XXXZ     114.1652
      XXYZ     -15.7579   XYYZ      19.2162   YYYZ    -106.3384
      XXZZ    -220.6440   XYZZ     -46.4154   YYZZ    -613.5618
      XZZZ     113.9171   YZZZ     -87.1512   ZZZZ    -774.5747
 -----------------------------------------------------------------
 Total job time:  646.41s(wall), 644.34s(cpu) 
 Sun Jul 10 01:44:18 2022

        *************************************************************
        *                                                           *
        *  Thank you very much for using Q-Chem.  Have a nice day.  *
        *                                                           *
        *************************************************************


remove work dirs ./qchem574755.0 -- ./qchem574755.-1
rm -rf ./qchem574755
