You are running Q-Chem version: 5.4.0

#
# job setting
#
local host:  exp-4-50
current dir: /expanse/lustre/scratch/theleonzhang/temp_project/Hydrogenated_Rotation_Test
input file:  Methylthiophene_Phi_10_Theta_10_Methylthiophene_Hydrogenated_Alternate.qcin
output file: 
nprocs     : 0
nthreads   : 1
#
# qchem installation setting
#
QC:          /cm/shared/apps/spack/cpu/opt/spack/linux-centos8-zen2/gcc-10.2.0/qchem-5.4-akfmr7b3t57bfs6qan3padb2wnb2i7cl
QCAUX:       /cm/shared/apps/spack/cpu/opt/spack/linux-centos8-zen2/gcc-10.2.0/qchem-5.4-akfmr7b3t57bfs6qan3padb2wnb2i7cl/qcaux
QCPROG:      /cm/shared/apps/spack/cpu/opt/spack/linux-centos8-zen2/gcc-10.2.0/qchem-5.4-akfmr7b3t57bfs6qan3padb2wnb2i7cl/exe/qcprog.exe_s
QCPROG_S:    /cm/shared/apps/spack/cpu/opt/spack/linux-centos8-zen2/gcc-10.2.0/qchem-5.4-akfmr7b3t57bfs6qan3padb2wnb2i7cl/exe/qcprog.exe_s
PARALLEL:    -DSERIAL
QCMPI:       mpich
#
# qchem directory setting
#
qcrun:       qchem1739712
QCSCRATCH:   .
QCLOCALSCR:  
QCTMPDIR:    .
QCFILEPREF:  ./qchem1739712
QCSAVEDIR:   
workdirs:    ./qchem1739712
workdir0:    ./qchem1739712
partmpdirs =  
#
# parallel setting
#
QCRSH:           ssh
QCMPI:           mpich
QCMPIRUN:        /cm/shared/apps/spack/cpu/opt/spack/linux-centos8-zen2/gcc-10.2.0/qchem-5.4-akfmr7b3t57bfs6qan3padb2wnb2i7cl/bin/mpi/mpirun_qchem
QCMACHINEFILE:   ./qchem1739712/hostfile

#
# env setting
#
exported envs:   QC QCAUX QCSCRATCH QCRUNNAME QCFILEPREF QCPROG QCPROG_S GUIFILE

Running Job 1 of 1 Methylthiophene_Phi_10_Theta_10_Methylthiophene_Hydrogenated_Alternate.qcin
qchem Methylthiophene_Phi_10_Theta_10_Methylthiophene_Hydrogenated_Alternate.qcin_1739712.0 ./qchem1739712/ 0
/cm/shared/apps/spack/cpu/opt/spack/linux-centos8-zen2/gcc-10.2.0/qchem-5.4-akfmr7b3t57bfs6qan3padb2wnb2i7cl/exe/qcprog.exe_s Methylthiophene_Phi_10_Theta_10_Methylthiophene_Hydrogenated_Alternate.qcin_1739712.0 ./qchem1739712/
                  Welcome to Q-Chem
     A Quantum Leap Into The Future Of Chemistry


 Q-Chem 5.4, Q-Chem, Inc., Pleasanton, CA (2021)

 License issued to: University of California, San Diego (site)

 E. Epifanovsky,  A. T. B. Gilbert,  Xintian Feng,  Joonho Lee,  Yuezhi Mao,  
 N. Mardirossian,  P. Pokhilko,  A. White,  M. Wormit,  M. P. Coons,  
 A. L. Dempwolff,  Zhengting Gan,  D. Hait,  P. R. Horn,  L. D. Jacobson,  
 I. Kaliman,  J. Kussmann,  A. W. Lange,  Ka Un Lao,  D. S. Levine,  Jie Liu,  
 S. C. McKenzie,  A. F. Morrison,  K. Nanda,  F. Plasser,  D. R. Rehn,  
 M. L. Vidal,  Zhi-Qiang You,  Ying Zhu,  B. Alam,  B. Albrecht,  
 A. Aldossary,  E. Alguire,  J. H. Andersen,  D. Barton,  K. Begam,  A. Behn,  
 Y. A. Bernard,  E. J. Berquist,  H. Burton,  A. Carreras,  K. Carter-Fenk,  
 R. Chakraborty,  A. D. Chien,  K. D. Closser,  V. Cofer-Shabica,  
 S. Dasgupta,  Jia Deng,  M. de Wergifosse,  M. Diedenhofen,  Hainam Do,  
 S. Ehlert,  Po-Tung Fang,  S. Fatehi,  Qingguo Feng,  J. Gayvert,  
 Qinghui Ge,  G. Gidofalvi,  M. Goldey,  J. Gomes,  C. Gonzalez-Espinoza,  
 S. Gulania,  A. Gunina,  M. W. D. Hanson-Heine,  P. H. P. Harbach,  
 A. W. Hauser,  M. F. Herbst,  M. Hernandez Vera,  M. Hodecker,  
 Z. C. Holden,  S. Houck,  Xunkun Huang,  Kerwin Hui,  B. C. Huynh,  
 M. Ivanov,  Hyunjun Ji,  Hanjie Jiang,  B. Kaduk,  S. Kaehler,  
 K. Khistyaev,  Jaehoon Kim,  P. Klunzinger,  Z. Koczor-Benda,  
 Joong Hoon Koh,  D. Kosenkov,  L. Koulias,  T. Kowalczyk,  C. M. Krauter,  
 K. Kue,  A. Kunitsa,  T. Kus,  A. Landau,  K. V. Lawler,  D. Lefrancois,  
 S. Lehtola,  Rain Li,  Yi-Pei Li,  Jiashu Liang,  M. Liebenthal,  
 Hung-Hsuan Lin,  You-Sheng Lin,  Fenglai Liu,  Kuan-Yu Liu,  
 M. Loipersberger,  A. Luenser,  A. Manjanath,  P. Manohar,  E. Mansoor,  
 S. F. Manzer,  Shan-Ping Mao,  A. V. Marenich,  T. Markovich,  S. Mason,  
 S. A. Maurer,  P. F. McLaughlin,  M. F. S. J. Menger,  J.-M. Mewes,  
 S. A. Mewes,  P. Morgante,  J. W. Mullinax,  T. S. Nguyen-Beck,  
 K. J. Oosterbaan,  G. Paran,  Alexander C. Paul,  Suranjan K. Paul,  
 F. Pavosevic,  Zheng Pei,  S. Prager,  E. I. Proynov,  E. Ramos,  B. Rana,  
 A. E. Rask,  A. Rettig,  R. M. Richard,  F. Rob,  E. Rossomme,  T. Scheele,  
 M. Scheurer,  M. Schneider,  N. Sergueev,  S. M. Sharada,  W. Skomorowski,  
 D. W. Small,  C. J. Stein,  Yu-Chuan Su,  E. J. Sundstrom,  Zhen Tao,  
 J. Thirman,  T. Tsuchimochi,  N. M. Tubman,  S. P. Veccham,  O. Vydrov,  
 J. Wenzel,  J. Witte,  A. Yamada,  Kun Yao,  S. Yeganeh,  S. R. Yost,  
 A. Zech,  Igor Ying Zhang,  Xing Zhang,  Yu Zhang,  D. Zuev,  
 A. Aspuru-Guzik,  A. T. Bell,  N. A. Besley,  K. B. Bravaya,  B. R. Brooks,  
 D. Casanova,  Jeng-Da Chai,  S. Coriani,  C. J. Cramer,  
 A. E. DePrince, III,  R. A. DiStasio Jr.,  A. Dreuw,  B. D. Dunietz,  
 T. R. Furlani,  W. A. Goddard III,  S. Grimme,  S. Hammes-Schiffer,  
 T. Head-Gordon,  W. J. Hehre,  Chao-Ping Hsu,  T.-C. Jagau,  Yousung Jung,  
 A. Klamt,  Jing Kong,  D. S. Lambrecht,  WanZhen Liang,  N. J. Mayhall,  
 C. W. McCurdy,  J. B. Neaton,  C. Ochsenfeld,  J. A. Parkhill,  R. Peverati,  
 V. A. Rassolov,  Yihan Shao,  L. V. Slipchenko,  T. Stauch,  R. P. Steele,  
 J. E. Subotnik,  A. J. W. Thom,  A. Tkatchenko,  D. G. Truhlar,  
 T. Van Voorhis,  T. A. Wesolowski,  K. B. Whaley,  H. L. Woodcock III,  
 P. M. Zimmerman,  S. Faraji,  P. M. W. Gill,  M. Head-Gordon,  
 J. M. Herbert,  A. I. Krylov

 Contributors to earlier versions of Q-Chem not listed above: 
 R. D. Adamson,  B. Austin,  R. Baer,  J. Baker,  G. J. O. Beran,  
 K. Brandhorst,  S. T. Brown,  E. F. C. Byrd,  A. K. Chakraborty,  
 G. K. L. Chan,  Chun-Min Chang,  Yunqing Chen,  C.-L. Cheng,  
 Siu Hung Chien,  D. M. Chipman,  D. L. Crittenden,  H. Dachsel,  
 R. J. Doerksen,  A. D. Dutoi,  R. G. Edgar,  J. Fosso-Tande,  
 L. Fusti-Molnar,  D. Ghosh,  A. Ghysels,  A. Golubeva-Zadorozhnaya,  
 J. Gonthier,  M. S. Gordon,  S. R. Gwaltney,  G. Hawkins,  J. E. Herr,  
 A. Heyden,  S. Hirata,  E. G. Hohenstein,  G. Kedziora,  F. J. Keil,  
 C. Kelley,  Jihan Kim,  R. A. King,  R. Z. Khaliullin,  P. P. Korambath,  
 W. Kurlancheek,  A. Laurent,  A. M. Lee,  M. S. Lee,  S. V. Levchenko,  
 Ching Yeh Lin,  D. Liotard,  E. Livshits,  R. C. Lochan,  I. Lotan,  
 L. A. Martinez-Martinez,  P. E. Maslen,  N. Nair,  D. P. O'Neill,  
 D. Neuhauser,  E. Neuscamman,  C. M. Oana,  R. Olivares-Amaya,  R. Olson,  
 T. M. Perrine,  B. Peters,  P. A. Pieniazek,  A. Prociuk,  Y. M. Rhee,  
 J. Ritchie,  M. A. Rohrdanz,  E. Rosta,  N. J. Russ,  H. F. Schaefer III,  
 M. W. Schmidt,  N. E. Schultz,  S. Sharma,  N. Shenvi,  C. D. Sherrill,  
 A. C. Simmonett,  A. Sodt,  T. Stein,  D. Stuck,  K. S. Thanthiriwatte,  
 V. Vanovschi,  L. Vogt,  Tao Wang,  A. Warshel,  M. A. Watson,  
 C. F. Williams,  Q. Wu,  X. Xu,  Jun Yang,  W. Zhang,  Yan Zhao

 Please cite Q-Chem as follows:
 Y. Shao et al., Mol. Phys. 113, 184-215 (2015)
 DOI: 10.1080/00268976.2014.952696

 Q-Chem 5.4.0 for Intel X86 EM64T Linux

 Parts of Q-Chem use Armadillo 9.800.1 (Horizon Scraper).
 http://arma.sourceforge.net/

 Q-Chem begins on Sun Jul 10 00:11:20 2022  

 Host: 
0

     Scratch files written to ./qchem1739712//
 May1621 |scratch|qcdevops|jenkins|workspace|build_RNUM    
 Processing $rem in /cm/shared/apps/spack/cpu/opt/spack/linux-centos8-zen2/gcc-10.2.0/qchem-5.4-akfmr7b3t57bfs6qan3padb2wnb2i7cl/config/preferences:
 Processing $rem in /home/theleonzhang/.qchemrc:
 Symmetry turned off for PCM/SM12/SMD calculation
 Core orbitals will be frozen

 Checking the input file for inconsistencies... 	...done.

--------------------------------------------------------------
User input:
--------------------------------------------------------------
$molecule
0 1
C	-0.135301	-3.866725	0.763228
C	0.106073	-3.703963	-0.603311
C	0.185286	-2.357056	-1.050423
H	0.225783	-4.561092	-1.283188
C	-0.000000	-1.440664	-0.000000
S	-0.268187	-2.286957	1.521021
C	0.438209	-1.978743	-2.483507
H	0.550153	-2.878678	-3.118798
H	1.363906	-1.376015	-2.593381
H	-0.393798	-1.375728	-2.903516
C	0.000000	0.000000	0.000000
C	0.149995	0.850475	1.099446
C	0.390327	2.213354	0.776721
H	0.085947	0.487279	2.136088
C	0.428665	2.430655	-0.612546
S	0.163670	0.928078	-1.486809
C	0.579235	3.284574	1.814609
H	0.505323	2.865404	2.836676
H	-0.185980	4.083890	1.726239
H	1.571698	3.773937	1.726228
H	0.593515	3.365448	-1.161575
H	0.688674	-4.392713	1.258111
H	-1.079084	-4.392347	0.946272
H	1.063572	-1.440937	0.187654
$end

$rem
JOBTYPE		SP
EXCHANGE	HF
CORRELATION	pRIMP2
BASIS		cc-pvtz
METHOD		rimp2
AUX_BASIS	rimp2-cc-pvtz
SOLVENT_METHOD	PCM
PURECART	11111
SYMMETRY	false
MEM_TOTAL	110000
SCF_CONVERGENCE = 6
THRESH=10
$end



$solvent
dielectric 4.90
$end
--------------------------------------------------------------
 ----------------------------------------------------------------
             Standard Nuclear Orientation (Angstroms)
    I     Atom           X                Y                Z
 ----------------------------------------------------------------
    1      C      -0.1353010000    -3.8667250000     0.7632280000
    2      C       0.1060730000    -3.7039630000    -0.6033110000
    3      C       0.1852860000    -2.3570560000    -1.0504230000
    4      H       0.2257830000    -4.5610920000    -1.2831880000
    5      C       0.0000000000    -1.4406640000     0.0000000000
    6      S      -0.2681870000    -2.2869570000     1.5210210000
    7      C       0.4382090000    -1.9787430000    -2.4835070000
    8      H       0.5501530000    -2.8786780000    -3.1187980000
    9      H       1.3639060000    -1.3760150000    -2.5933810000
   10      H      -0.3937980000    -1.3757280000    -2.9035160000
   11      C       0.0000000000     0.0000000000     0.0000000000
   12      C       0.1499950000     0.8504750000     1.0994460000
   13      C       0.3903270000     2.2133540000     0.7767210000
   14      H       0.0859470000     0.4872790000     2.1360880000
   15      C       0.4286650000     2.4306550000    -0.6125460000
   16      S       0.1636700000     0.9280780000    -1.4868090000
   17      C       0.5792350000     3.2845740000     1.8146090000
   18      H       0.5053230000     2.8654040000     2.8366760000
   19      H      -0.1859800000     4.0838900000     1.7262390000
   20      H       1.5716980000     3.7739370000     1.7262280000
   21      H       0.5935150000     3.3654480000    -1.1615750000
   22      H       0.6886740000    -4.3927130000     1.2581110000
   23      H      -1.0790840000    -4.3923470000     0.9462720000
   24      H       1.0635720000    -1.4409370000     0.1876540000
 ----------------------------------------------------------------
 Nuclear Repulsion Energy =         877.03994080 hartrees
 There are       52 alpha and       52 beta electrons

 Q-Chem warning in module forms1/BasisType.C, line 2236:

 You are not using the predefined 5D/6D in this basis set.

 Requested basis set is cc-pVTZ
 There are 196 shells and 536 basis functions

 Total QAlloc Memory Limit 110000 MB
 Mega-Array Size       188 MB
 MEM_STATIC part       192 MB
 Discretize the solute cavity surface with Lebedev spheres
	Using 110 Lebedev grid points for each H atom
	Using 194 Lebedev grid points for other atoms
	Atomic van der Waals radii will be scaled by 1.20
 Remove points where switching function is < 1.0e-08
 Keep 1584 surface tesserae and discard 2064 interior tesserae
 Molecular Surface Area = 229.917 Angst**2
 Requested basis set is rimp2-cc-pVTZ
 There are 414 shells and 1414 basis functions
 A cutoff of  1.0D-10 yielded  13899 shell pairs
 There are    100763 function pairs (    129202 Cartesian)
 Smallest overlap matrix eigenvalue = 4.63E-05

 Scale SEOQF with 1.000000e-01/1.000000e-01/1.000000e-01

 Standard Electronic Orientation quadrupole field applied
 Nucleus-field energy     =     0.0000000214 hartrees
 Guess from superposition of atomic densities
 Warning:  Energy on first SCF cycle will be non-variational
 SAD guess density has 104.000000 electrons

 -----------------------------------------------------------------------
  General SCF calculation program by
  Eric Jon Sundstrom, Paul Horn, Yuezhi Mao, Dmitri Zuev, Alec White,
  David Stuck, Shaama M.S., Shane Yost, Joonho Lee, David Small,
  Daniel Levine, Susi Lehtola, Hugh Burton, Evgeny Epifanovsky,
  Bang C. Huynh
 -----------------------------------------------------------------------
 Hartree-Fock
 A restricted SCF calculation will be
 performed using DIIS
 SCF converges when DIIS error is below 1.0e-06
 ---------------------------------------
  Cycle       Energy         DIIS error
 ---------------------------------------
    1   -1186.0589492186      2.39e-02  
    2   -1180.6081113040      1.59e-03  
    3   -1180.7343559239      6.75e-04  
    4   -1180.7510301326      3.56e-04  
    5   -1180.7569012643      5.88e-05  
    6   -1180.7571459794      2.45e-05  
    7   -1180.7572016173      8.33e-06  
    8   -1180.7572127086      4.00e-06  
    9   -1180.7572150477      1.33e-06  
   10   -1180.7572154180      5.02e-07  Convergence criterion met
 ---------------------------------------
 SCF time:   CPU 570.40s  wall 572.00s 

************** Final PCM Free Energy Summary **************
 G_electrostatic  =      -0.00817869 hartree =      -5.13220603 kcal/mol
 G_cavitation     =       0.00000000 hartree =       0.00000000 kcal/mol
 G_dispersion     =       0.00000000 hartree =       0.00000000 kcal/mol
 G_repulsion      =       0.00000000 hartree =       0.00000000 kcal/mol
 --------------------------------------------------
 Non-electrostatic Free Energy =       0.00000000 hartree =       0.00000000 kcal/mol
 Total                         =      -0.00817869 hartree =      -5.13220603 kcal/mol
 --------------------------------------------------
 SCF Energy (H0 + V/2)                       =   -1180.75721542 
 Solute Internal Energy (H0)                 =   -1180.74903673 
 Total Free Energy (H0 + V/2 + non-elec)     =   -1180.75721542 hartree
                                             = -740936.33562638 kcal/mol
***********************************************************

 SCF   energy in the final basis set =    -1180.7572154180
 Total energy in the final basis set =    -1180.7572154180


 --------------------------------------------------------------
  Generalized many-body perturbation theory program
  by Joonho Lee, Fazle Rob, Xintian Feng, Evgeny Epifanovsky

 No regularization used 
 (reg. param. = 0.0000e+00)
  (P|Q)^-1/2 Time:  CPU 1.90 s  wall 1.90 s

 In RI-MP2 calculation: 
 # of frozen core orbitals: 20

 Components of the RIMP2 correlation energy:
        aaaa    correlation energy =        -0.2516010011 a.u.
        abab    correlation energy =        -1.5029496366 a.u.
        bbbb    correlation energy =        -0.2516010011 a.u.
        non-Brillouin singles      =        -0.0000000000 a.u.
        total same-spin energy     =        -0.5032020023 a.u.
        total opposite-spin energy =        -1.5029496366 a.u.

 Total  RIMP2   correlation energy =        -2.0061516389 a.u.
        RIMP2         total energy =     -1182.7633670569 a.u.

 RI-MP2 Energy Time:  CPU 79.43 s  wall 79.64 s
 
 --------------------------------------------------------------
 
                    Orbital Energies (a.u.)
 --------------------------------------------------------------
 
 Alpha MOs
 -- Occupied --
-91.9814 -91.9466 -11.2912 -11.2661 -11.2627 -11.2524 -11.2499 -11.2444
-11.2328 -11.2295 -11.2274 -11.2233  -8.9814  -8.9512  -6.6624  -6.6618
 -6.6611  -6.6326  -6.6316  -6.6303  -1.2032  -1.1521  -1.0612  -1.0288
 -1.0069  -0.9559  -0.9165  -0.9016  -0.8148  -0.7724  -0.7174  -0.7034
 -0.6625  -0.6485  -0.6112  -0.5904  -0.5826  -0.5719  -0.5682  -0.5544
 -0.5425  -0.5341  -0.5163  -0.5096  -0.4900  -0.4836  -0.4575  -0.4458
 -0.3590  -0.3418  -0.3264  -0.2646
 -- Virtual --
  0.1047   0.1331   0.1446   0.1519   0.1597   0.1716   0.1748   0.1831
  0.1927   0.1972   0.2029   0.2063   0.2295   0.2325   0.2386   0.2434
  0.2514   0.2645   0.2741   0.3057   0.3207   0.3364   0.3560   0.3624
  0.3743   0.3763   0.3786   0.3988   0.4074   0.4117   0.4218   0.4390
  0.4450   0.4465   0.4592   0.4627   0.4784   0.4836   0.4903   0.4971
  0.5106   0.5148   0.5276   0.5356   0.5402   0.5470   0.5516   0.5531
  0.5681   0.5792   0.5932   0.5969   0.6069   0.6151   0.6174   0.6196
  0.6245   0.6280   0.6319   0.6363   0.6406   0.6453   0.6519   0.6567
  0.6594   0.6681   0.6850   0.6874   0.6934   0.7104   0.7230   0.7299
  0.7382   0.7615   0.7727   0.7844   0.7916   0.8002   0.8147   0.8233
  0.8477   0.8540   0.8598   0.8673   0.8852   0.8916   0.9108   0.9179
  0.9357   0.9430   0.9623   0.9652   0.9770   0.9853   0.9959   0.9994
  1.0178   1.0244   1.0311   1.0552   1.0635   1.0709   1.0728   1.0828
  1.0936   1.1033   1.1152   1.1316   1.1396   1.1515   1.1589   1.1645
  1.1722   1.1897   1.2018   1.2064   1.2183   1.2204   1.2322   1.2486
  1.2516   1.2627   1.2738   1.2778   1.2815   1.2883   1.2963   1.3094
  1.3110   1.3446   1.3483   1.3669   1.3808   1.3942   1.4093   1.4118
  1.4301   1.4320   1.4476   1.4606   1.4652   1.4797   1.4849   1.4896
  1.5085   1.5165   1.5217   1.5298   1.5401   1.5426   1.5535   1.5547
  1.5657   1.5812   1.5904   1.5943   1.6120   1.6313   1.6392   1.6514
  1.6550   1.6658   1.6841   1.6886   1.6983   1.7078   1.7257   1.7317
  1.7394   1.7525   1.7742   1.8088   1.8221   1.8272   1.8459   1.8654
  1.8894   1.9139   1.9288   1.9527   1.9682   1.9800   1.9830   2.0135
  2.0191   2.0313   2.0515   2.0655   2.0740   2.0969   2.1318   2.1551
  2.1899   2.1991   2.2055   2.2183   2.2394   2.2642   2.2854   2.2916
  2.3172   2.3314   2.3593   2.3740   2.4162   2.4229   2.4572   2.4648
  2.4961   2.5177   2.5320   2.5434   2.5567   2.5895   2.5945   2.6163
  2.6498   2.6533   2.6574   2.6763   2.6857   2.6929   2.7149   2.7307
  2.7427   2.7486   2.7583   2.7612   2.7768   2.7799   2.8084   2.8126
  2.8344   2.8522   2.8594   2.8772   2.8976   2.9107   2.9155   2.9335
  2.9437   2.9620   2.9709   2.9976   3.0004   3.0171   3.0358   3.0427
  3.0586   3.0733   3.0880   3.1057   3.1140   3.1180   3.1380   3.1405
  3.1548   3.1620   3.1699   3.1755   3.1901   3.1946   3.2104   3.2167
  3.2248   3.2430   3.2468   3.2531   3.2700   3.2832   3.2982   3.3017
  3.3130   3.3219   3.3320   3.3377   3.3429   3.3508   3.3541   3.3684
  3.3730   3.3839   3.3918   3.4074   3.4102   3.4165   3.4184   3.4293
  3.4411   3.4428   3.4579   3.4628   3.4805   3.4919   3.5048   3.5055
  3.5192   3.5211   3.5299   3.5382   3.5510   3.5547   3.5606   3.5771
  3.5957   3.6009   3.6114   3.6231   3.6304   3.6373   3.6468   3.6548
  3.6721   3.6869   3.6959   3.7042   3.7166   3.7232   3.7339   3.7396
  3.7440   3.7540   3.7708   3.7783   3.7918   3.7938   3.8014   3.8135
  3.8223   3.8359   3.8453   3.8581   3.8783   3.8924   3.9057   3.9214
  3.9301   3.9439   3.9548   3.9637   3.9819   3.9910   4.0006   4.0063
  4.0208   4.0405   4.0462   4.0516   4.0765   4.0870   4.0972   4.1184
  4.1287   4.1320   4.1420   4.1501   4.1609   4.1807   4.1816   4.2054
  4.2088   4.2161   4.2246   4.2412   4.2513   4.2630   4.2708   4.2786
  4.2908   4.3073   4.3353   4.3402   4.3445   4.3598   4.3609   4.3659
  4.3748   4.3882   4.4029   4.4101   4.4162   4.4289   4.4429   4.4487
  4.4568   4.4649   4.4891   4.4996   4.5247   4.5249   4.5513   4.5681
  4.5798   4.6026   4.6072   4.6295   4.6444   4.6465   4.6613   4.6797
  4.7172   4.7209   4.7381   4.7650   4.7894   4.8024   4.8179   4.8328
  4.8502   4.8676   4.8963   4.9043   4.9328   4.9633   4.9780   4.9924
  5.0384   5.0545   5.0879   5.1048   5.1199   5.1259   5.1627   5.1913
  5.2010   5.2181   5.2482   5.2658   5.2895   5.2912   5.3053   5.3217
  5.3522   5.3702   5.3776   5.3846   5.4060   5.4195   5.4383   5.4513
  5.4847   5.5136   5.5234   5.5463   5.5478   5.5605   5.5685   5.5770
  5.6222   5.6346   5.6490   5.6757   5.6903   5.6967   5.7062   5.7171
  5.7635   5.7909   5.8500   5.9843   6.0066   6.1269   6.1539   6.1564
  6.2233   6.2280   6.2393   6.2525   6.2755   6.2850   6.3056   6.3384
  6.4288   6.5041   9.5395  10.8243  12.0383  12.9823  13.2017  13.9835
 14.1488  14.3298  14.3980  14.9069
 --------------------------------------------------------------
 
          Ground-State Mulliken Net Atomic Charges

     Atom                 Charge (a.u.)
  ----------------------------------------
      1 C                    -0.074406
      2 C                    -0.315837
      3 C                    -0.048212
      4 H                     0.179227
      5 C                     0.118843
      6 S                    -0.184660
      7 C                    -0.309717
      8 H                     0.121065
      9 H                     0.113725
     10 H                     0.112791
     11 C                    -0.003841
     12 C                    -0.319318
     13 C                     0.044655
     14 H                     0.176652
     15 C                    -0.282588
     16 S                     0.007538
     17 C                    -0.271722
     18 H                     0.102594
     19 H                     0.108455
     20 H                     0.108228
     21 H                     0.196219
     22 H                     0.111492
     23 H                     0.113951
     24 H                     0.194866
  ----------------------------------------
  Sum of atomic charges =     0.000000

 -----------------------------------------------------------------
                    Cartesian Multipole Moments
 -----------------------------------------------------------------
    Charge (ESU x 10^10)
                -0.0000
    Dipole Moment (Debye)
         X       1.5382      Y      -0.5638      Z      -0.9198
       Tot       1.8788
    Quadrupole Moments (Debye-Ang)
        XX     -91.5328     XY      -0.3959     YY     -73.4456
        XZ       0.3856     YZ       4.3465     ZZ     -85.4590
    Octopole Moments (Debye-Ang^2)
       XXX     -39.4126    XXY      45.8105    XYY      -4.4211
       YYY     115.0332    XXZ       0.2456    XYZ       0.1888
       YYZ      -0.8002    XZZ      -9.2580    YZZ      49.4321
       ZZZ      -3.7378
    Hexadecapole Moments (Debye-Ang^3)
      XXXX    -184.9200   XXXY     -86.6855   XXYY    -554.0174
      XYYY     -69.3000   YYYY   -2742.1354   XXXZ      35.6663
      XXYZ     -31.4780   XYYZ       4.4680   YYYZ    -107.7193
      XXZZ    -223.2376   XYZZ     -31.1835   YYZZ    -651.8895
      XZZZ      29.5390   YZZZ     -61.8597   ZZZZ   -1077.8194
 -----------------------------------------------------------------
 Total job time:  653.81s(wall), 650.70s(cpu) 
 Sun Jul 10 00:22:14 2022

        *************************************************************
        *                                                           *
        *  Thank you very much for using Q-Chem.  Have a nice day.  *
        *                                                           *
        *************************************************************


remove work dirs ./qchem1739712.0 -- ./qchem1739712.-1
rm -rf ./qchem1739712
