You are running Q-Chem version: 5.4.0

#
# job setting
#
local host:  exp-3-14
current dir: /expanse/lustre/scratch/theleonzhang/temp_project/Hydrogenated_Rotation_Test
input file:  Methylthiophene_Phi_25_Theta_130_Methylthiophene_Hydrogenated.qcin
output file: 
nprocs     : 0
nthreads   : 1
#
# qchem installation setting
#
QC:          /cm/shared/apps/spack/cpu/opt/spack/linux-centos8-zen2/gcc-10.2.0/qchem-5.4-akfmr7b3t57bfs6qan3padb2wnb2i7cl
QCAUX:       /cm/shared/apps/spack/cpu/opt/spack/linux-centos8-zen2/gcc-10.2.0/qchem-5.4-akfmr7b3t57bfs6qan3padb2wnb2i7cl/qcaux
QCPROG:      /cm/shared/apps/spack/cpu/opt/spack/linux-centos8-zen2/gcc-10.2.0/qchem-5.4-akfmr7b3t57bfs6qan3padb2wnb2i7cl/exe/qcprog.exe_s
QCPROG_S:    /cm/shared/apps/spack/cpu/opt/spack/linux-centos8-zen2/gcc-10.2.0/qchem-5.4-akfmr7b3t57bfs6qan3padb2wnb2i7cl/exe/qcprog.exe_s
PARALLEL:    -DSERIAL
QCMPI:       mpich
#
# qchem directory setting
#
qcrun:       qchem3366512
QCSCRATCH:   .
QCLOCALSCR:  
QCTMPDIR:    .
QCFILEPREF:  ./qchem3366512
QCSAVEDIR:   
workdirs:    ./qchem3366512
workdir0:    ./qchem3366512
partmpdirs =  
#
# parallel setting
#
QCRSH:           ssh
QCMPI:           mpich
QCMPIRUN:        /cm/shared/apps/spack/cpu/opt/spack/linux-centos8-zen2/gcc-10.2.0/qchem-5.4-akfmr7b3t57bfs6qan3padb2wnb2i7cl/bin/mpi/mpirun_qchem
QCMACHINEFILE:   ./qchem3366512/hostfile

#
# env setting
#
exported envs:   QC QCAUX QCSCRATCH QCRUNNAME QCFILEPREF QCPROG QCPROG_S GUIFILE

Running Job 1 of 1 Methylthiophene_Phi_25_Theta_130_Methylthiophene_Hydrogenated.qcin
qchem Methylthiophene_Phi_25_Theta_130_Methylthiophene_Hydrogenated.qcin_3366512.0 ./qchem3366512/ 0
/cm/shared/apps/spack/cpu/opt/spack/linux-centos8-zen2/gcc-10.2.0/qchem-5.4-akfmr7b3t57bfs6qan3padb2wnb2i7cl/exe/qcprog.exe_s Methylthiophene_Phi_25_Theta_130_Methylthiophene_Hydrogenated.qcin_3366512.0 ./qchem3366512/
                  Welcome to Q-Chem
     A Quantum Leap Into The Future Of Chemistry


 Q-Chem 5.4, Q-Chem, Inc., Pleasanton, CA (2021)

 License issued to: University of California, San Diego (site)

 E. Epifanovsky,  A. T. B. Gilbert,  Xintian Feng,  Joonho Lee,  Yuezhi Mao,  
 N. Mardirossian,  P. Pokhilko,  A. White,  M. Wormit,  M. P. Coons,  
 A. L. Dempwolff,  Zhengting Gan,  D. Hait,  P. R. Horn,  L. D. Jacobson,  
 I. Kaliman,  J. Kussmann,  A. W. Lange,  Ka Un Lao,  D. S. Levine,  Jie Liu,  
 S. C. McKenzie,  A. F. Morrison,  K. Nanda,  F. Plasser,  D. R. Rehn,  
 M. L. Vidal,  Zhi-Qiang You,  Ying Zhu,  B. Alam,  B. Albrecht,  
 A. Aldossary,  E. Alguire,  J. H. Andersen,  D. Barton,  K. Begam,  A. Behn,  
 Y. A. Bernard,  E. J. Berquist,  H. Burton,  A. Carreras,  K. Carter-Fenk,  
 R. Chakraborty,  A. D. Chien,  K. D. Closser,  V. Cofer-Shabica,  
 S. Dasgupta,  Jia Deng,  M. de Wergifosse,  M. Diedenhofen,  Hainam Do,  
 S. Ehlert,  Po-Tung Fang,  S. Fatehi,  Qingguo Feng,  J. Gayvert,  
 Qinghui Ge,  G. Gidofalvi,  M. Goldey,  J. Gomes,  C. Gonzalez-Espinoza,  
 S. Gulania,  A. Gunina,  M. W. D. Hanson-Heine,  P. H. P. Harbach,  
 A. W. Hauser,  M. F. Herbst,  M. Hernandez Vera,  M. Hodecker,  
 Z. C. Holden,  S. Houck,  Xunkun Huang,  Kerwin Hui,  B. C. Huynh,  
 M. Ivanov,  Hyunjun Ji,  Hanjie Jiang,  B. Kaduk,  S. Kaehler,  
 K. Khistyaev,  Jaehoon Kim,  P. Klunzinger,  Z. Koczor-Benda,  
 Joong Hoon Koh,  D. Kosenkov,  L. Koulias,  T. Kowalczyk,  C. M. Krauter,  
 K. Kue,  A. Kunitsa,  T. Kus,  A. Landau,  K. V. Lawler,  D. Lefrancois,  
 S. Lehtola,  Rain Li,  Yi-Pei Li,  Jiashu Liang,  M. Liebenthal,  
 Hung-Hsuan Lin,  You-Sheng Lin,  Fenglai Liu,  Kuan-Yu Liu,  
 M. Loipersberger,  A. Luenser,  A. Manjanath,  P. Manohar,  E. Mansoor,  
 S. F. Manzer,  Shan-Ping Mao,  A. V. Marenich,  T. Markovich,  S. Mason,  
 S. A. Maurer,  P. F. McLaughlin,  M. F. S. J. Menger,  J.-M. Mewes,  
 S. A. Mewes,  P. Morgante,  J. W. Mullinax,  T. S. Nguyen-Beck,  
 K. J. Oosterbaan,  G. Paran,  Alexander C. Paul,  Suranjan K. Paul,  
 F. Pavosevic,  Zheng Pei,  S. Prager,  E. I. Proynov,  E. Ramos,  B. Rana,  
 A. E. Rask,  A. Rettig,  R. M. Richard,  F. Rob,  E. Rossomme,  T. Scheele,  
 M. Scheurer,  M. Schneider,  N. Sergueev,  S. M. Sharada,  W. Skomorowski,  
 D. W. Small,  C. J. Stein,  Yu-Chuan Su,  E. J. Sundstrom,  Zhen Tao,  
 J. Thirman,  T. Tsuchimochi,  N. M. Tubman,  S. P. Veccham,  O. Vydrov,  
 J. Wenzel,  J. Witte,  A. Yamada,  Kun Yao,  S. Yeganeh,  S. R. Yost,  
 A. Zech,  Igor Ying Zhang,  Xing Zhang,  Yu Zhang,  D. Zuev,  
 A. Aspuru-Guzik,  A. T. Bell,  N. A. Besley,  K. B. Bravaya,  B. R. Brooks,  
 D. Casanova,  Jeng-Da Chai,  S. Coriani,  C. J. Cramer,  
 A. E. DePrince, III,  R. A. DiStasio Jr.,  A. Dreuw,  B. D. Dunietz,  
 T. R. Furlani,  W. A. Goddard III,  S. Grimme,  S. Hammes-Schiffer,  
 T. Head-Gordon,  W. J. Hehre,  Chao-Ping Hsu,  T.-C. Jagau,  Yousung Jung,  
 A. Klamt,  Jing Kong,  D. S. Lambrecht,  WanZhen Liang,  N. J. Mayhall,  
 C. W. McCurdy,  J. B. Neaton,  C. Ochsenfeld,  J. A. Parkhill,  R. Peverati,  
 V. A. Rassolov,  Yihan Shao,  L. V. Slipchenko,  T. Stauch,  R. P. Steele,  
 J. E. Subotnik,  A. J. W. Thom,  A. Tkatchenko,  D. G. Truhlar,  
 T. Van Voorhis,  T. A. Wesolowski,  K. B. Whaley,  H. L. Woodcock III,  
 P. M. Zimmerman,  S. Faraji,  P. M. W. Gill,  M. Head-Gordon,  
 J. M. Herbert,  A. I. Krylov

 Contributors to earlier versions of Q-Chem not listed above: 
 R. D. Adamson,  B. Austin,  R. Baer,  J. Baker,  G. J. O. Beran,  
 K. Brandhorst,  S. T. Brown,  E. F. C. Byrd,  A. K. Chakraborty,  
 G. K. L. Chan,  Chun-Min Chang,  Yunqing Chen,  C.-L. Cheng,  
 Siu Hung Chien,  D. M. Chipman,  D. L. Crittenden,  H. Dachsel,  
 R. J. Doerksen,  A. D. Dutoi,  R. G. Edgar,  J. Fosso-Tande,  
 L. Fusti-Molnar,  D. Ghosh,  A. Ghysels,  A. Golubeva-Zadorozhnaya,  
 J. Gonthier,  M. S. Gordon,  S. R. Gwaltney,  G. Hawkins,  J. E. Herr,  
 A. Heyden,  S. Hirata,  E. G. Hohenstein,  G. Kedziora,  F. J. Keil,  
 C. Kelley,  Jihan Kim,  R. A. King,  R. Z. Khaliullin,  P. P. Korambath,  
 W. Kurlancheek,  A. Laurent,  A. M. Lee,  M. S. Lee,  S. V. Levchenko,  
 Ching Yeh Lin,  D. Liotard,  E. Livshits,  R. C. Lochan,  I. Lotan,  
 L. A. Martinez-Martinez,  P. E. Maslen,  N. Nair,  D. P. O'Neill,  
 D. Neuhauser,  E. Neuscamman,  C. M. Oana,  R. Olivares-Amaya,  R. Olson,  
 T. M. Perrine,  B. Peters,  P. A. Pieniazek,  A. Prociuk,  Y. M. Rhee,  
 J. Ritchie,  M. A. Rohrdanz,  E. Rosta,  N. J. Russ,  H. F. Schaefer III,  
 M. W. Schmidt,  N. E. Schultz,  S. Sharma,  N. Shenvi,  C. D. Sherrill,  
 A. C. Simmonett,  A. Sodt,  T. Stein,  D. Stuck,  K. S. Thanthiriwatte,  
 V. Vanovschi,  L. Vogt,  Tao Wang,  A. Warshel,  M. A. Watson,  
 C. F. Williams,  Q. Wu,  X. Xu,  Jun Yang,  W. Zhang,  Yan Zhao

 Please cite Q-Chem as follows:
 Y. Shao et al., Mol. Phys. 113, 184-215 (2015)
 DOI: 10.1080/00268976.2014.952696

 Q-Chem 5.4.0 for Intel X86 EM64T Linux

 Parts of Q-Chem use Armadillo 9.800.1 (Horizon Scraper).
 http://arma.sourceforge.net/

 Q-Chem begins on Sun Jul 10 02:12:46 2022  

 Host: 
0

     Scratch files written to ./qchem3366512//
 May1621 |scratch|qcdevops|jenkins|workspace|build_RNUM    
 Processing $rem in /cm/shared/apps/spack/cpu/opt/spack/linux-centos8-zen2/gcc-10.2.0/qchem-5.4-akfmr7b3t57bfs6qan3padb2wnb2i7cl/config/preferences:
 Processing $rem in /home/theleonzhang/.qchemrc:
 Symmetry turned off for PCM/SM12/SMD calculation
 Core orbitals will be frozen

 Checking the input file for inconsistencies... 	...done.

--------------------------------------------------------------
User input:
--------------------------------------------------------------
$molecule
0 1
C	-0.593324	-3.866725	-0.498788
C	0.469446	-3.703963	0.393517
C	0.817050	-2.357056	0.685674
H	0.998381	-4.561092	0.837128
C	-0.000000	-1.440664	-0.000000
S	-1.183149	-2.286957	-0.992768
C	1.931676	-1.978743	1.621254
H	2.425882	-2.878678	2.035845
H	1.563980	-1.376015	2.477868
H	2.711417	-1.375728	1.110719
C	0.000000	0.000000	0.000000
C	0.365003	0.782674	1.099446
C	0.949885	2.036912	0.776721
H	0.209135	0.448431	2.136088
C	1.043159	2.236886	-0.612546
S	0.398297	0.854094	-1.486809
C	1.409609	3.022738	1.814609
H	1.229726	2.636980	2.836676
H	0.877346	3.992870	1.726239
H	2.494910	3.238558	1.726228
H	1.444334	3.097160	-1.161575
H	-1.433894	-4.392713	-0.032646
H	-0.279954	-4.392347	-1.407651
H	-0.694299	-1.440937	0.827254
$end

$rem
JOBTYPE		SP
EXCHANGE	HF
CORRELATION	pRIMP2
BASIS		cc-pvtz
METHOD		rimp2
AUX_BASIS	rimp2-cc-pvtz
SOLVENT_METHOD	PCM
PURECART	11111
SYMMETRY	false
MEM_TOTAL	110000
SCF_CONVERGENCE = 6
THRESH=10
$end



$solvent
dielectric 4.90
$end
--------------------------------------------------------------
 ----------------------------------------------------------------
             Standard Nuclear Orientation (Angstroms)
    I     Atom           X                Y                Z
 ----------------------------------------------------------------
    1      C      -0.5933240000    -3.8667250000    -0.4987880000
    2      C       0.4694460000    -3.7039630000     0.3935170000
    3      C       0.8170500000    -2.3570560000     0.6856740000
    4      H       0.9983810000    -4.5610920000     0.8371280000
    5      C       0.0000000000    -1.4406640000     0.0000000000
    6      S      -1.1831490000    -2.2869570000    -0.9927680000
    7      C       1.9316760000    -1.9787430000     1.6212540000
    8      H       2.4258820000    -2.8786780000     2.0358450000
    9      H       1.5639800000    -1.3760150000     2.4778680000
   10      H       2.7114170000    -1.3757280000     1.1107190000
   11      C       0.0000000000     0.0000000000     0.0000000000
   12      C       0.3650030000     0.7826740000     1.0994460000
   13      C       0.9498850000     2.0369120000     0.7767210000
   14      H       0.2091350000     0.4484310000     2.1360880000
   15      C       1.0431590000     2.2368860000    -0.6125460000
   16      S       0.3982970000     0.8540940000    -1.4868090000
   17      C       1.4096090000     3.0227380000     1.8146090000
   18      H       1.2297260000     2.6369800000     2.8366760000
   19      H       0.8773460000     3.9928700000     1.7262390000
   20      H       2.4949100000     3.2385580000     1.7262280000
   21      H       1.4443340000     3.0971600000    -1.1615750000
   22      H      -1.4338940000    -4.3927130000    -0.0326460000
   23      H      -0.2799540000    -4.3923470000    -1.4076510000
   24      H      -0.6942990000    -1.4409370000     0.8272540000
 ----------------------------------------------------------------
 Nuclear Repulsion Energy =         878.03637552 hartrees
 There are       52 alpha and       52 beta electrons

 Q-Chem warning in module forms1/BasisType.C, line 2236:

 You are not using the predefined 5D/6D in this basis set.

 Requested basis set is cc-pVTZ
 There are 196 shells and 536 basis functions

 Total QAlloc Memory Limit 110000 MB
 Mega-Array Size       188 MB
 MEM_STATIC part       192 MB
 Discretize the solute cavity surface with Lebedev spheres
	Using 110 Lebedev grid points for each H atom
	Using 194 Lebedev grid points for other atoms
	Atomic van der Waals radii will be scaled by 1.20
 Remove points where switching function is < 1.0e-08
 Keep 1599 surface tesserae and discard 2049 interior tesserae
 Molecular Surface Area = 234.272 Angst**2
 Requested basis set is rimp2-cc-pVTZ
 There are 414 shells and 1414 basis functions
 A cutoff of  1.0D-10 yielded  14236 shell pairs
 There are    103326 function pairs (    132475 Cartesian)
 Smallest overlap matrix eigenvalue = 5.55E-05

 Scale SEOQF with 1.000000e-01/1.000000e-01/1.000000e-01

 Standard Electronic Orientation quadrupole field applied
 Nucleus-field energy     =     0.0000000294 hartrees
 Guess from superposition of atomic densities
 Warning:  Energy on first SCF cycle will be non-variational
 SAD guess density has 104.000000 electrons

 -----------------------------------------------------------------------
  General SCF calculation program by
  Eric Jon Sundstrom, Paul Horn, Yuezhi Mao, Dmitri Zuev, Alec White,
  David Stuck, Shaama M.S., Shane Yost, Joonho Lee, David Small,
  Daniel Levine, Susi Lehtola, Hugh Burton, Evgeny Epifanovsky,
  Bang C. Huynh
 -----------------------------------------------------------------------
 Hartree-Fock
 A restricted SCF calculation will be
 performed using DIIS
 SCF converges when DIIS error is below 1.0e-06
 ---------------------------------------
  Cycle       Energy         DIIS error
 ---------------------------------------
    1   -1186.0412346509      2.39e-02  
    2   -1180.6059793012      1.55e-03  
    3   -1180.7303620637      5.85e-04  
    4   -1180.7439772852      3.25e-04  
    5   -1180.7487893253      5.96e-05  
    6   -1180.7490303844      2.41e-05  
    7   -1180.7490870419      9.03e-06  
    8   -1180.7491001173      4.23e-06  
    9   -1180.7491032022      1.58e-06  
   10   -1180.7491037242      5.60e-07  Convergence criterion met
 ---------------------------------------
 SCF time:   CPU 585.43s  wall 589.00s 

************** Final PCM Free Energy Summary **************
 G_electrostatic  =      -0.00969517 hartree =      -6.08381347 kcal/mol
 G_cavitation     =       0.00000000 hartree =       0.00000000 kcal/mol
 G_dispersion     =       0.00000000 hartree =       0.00000000 kcal/mol
 G_repulsion      =       0.00000000 hartree =       0.00000000 kcal/mol
 --------------------------------------------------
 Non-electrostatic Free Energy =       0.00000000 hartree =       0.00000000 kcal/mol
 Total                         =      -0.00969517 hartree =      -6.08381347 kcal/mol
 --------------------------------------------------
 SCF Energy (H0 + V/2)                       =   -1180.74910372 
 Solute Internal Energy (H0)                 =   -1180.73940855 
 Total Free Energy (H0 + V/2 + non-elec)     =   -1180.74910372 hartree
                                             = -740931.24546170 kcal/mol
***********************************************************

 SCF   energy in the final basis set =    -1180.7491037242
 Total energy in the final basis set =    -1180.7491037242


 --------------------------------------------------------------
  Generalized many-body perturbation theory program
  by Joonho Lee, Fazle Rob, Xintian Feng, Evgeny Epifanovsky

 No regularization used 
 (reg. param. = 0.0000e+00)
  (P|Q)^-1/2 Time:  CPU 2.04 s  wall 2.05 s

 In RI-MP2 calculation: 
 # of frozen core orbitals: 20

 Components of the RIMP2 correlation energy:
        aaaa    correlation energy =        -0.2521098347 a.u.
        abab    correlation energy =        -1.5054570255 a.u.
        bbbb    correlation energy =        -0.2521098347 a.u.
        non-Brillouin singles      =        -0.0000000000 a.u.
        total same-spin energy     =        -0.5042196695 a.u.
        total opposite-spin energy =        -1.5054570255 a.u.

 Total  RIMP2   correlation energy =        -2.0096766949 a.u.
        RIMP2         total energy =     -1182.7587804191 a.u.

 RI-MP2 Energy Time:  CPU 81.53 s  wall 81.84 s
 
 --------------------------------------------------------------
 
                    Orbital Energies (a.u.)
 --------------------------------------------------------------
 
 Alpha MOs
 -- Occupied --
-91.9799 -91.9413 -11.2785 -11.2657 -11.2636 -11.2559 -11.2515 -11.2433
-11.2410 -11.2315 -11.2297 -11.2197  -8.9800  -8.9460  -6.6609  -6.6602
 -6.6597  -6.6274  -6.6264  -6.6251  -1.1994  -1.1536  -1.0585  -1.0276
 -1.0033  -0.9621  -0.9123  -0.9011  -0.8150  -0.7607  -0.7324  -0.7069
 -0.6575  -0.6431  -0.6110  -0.5909  -0.5849  -0.5713  -0.5607  -0.5542
 -0.5415  -0.5313  -0.5192  -0.5074  -0.4847  -0.4753  -0.4621  -0.4461
 -0.3551  -0.3421  -0.3195  -0.2728
 -- Virtual --
  0.0905   0.1305   0.1433   0.1484   0.1578   0.1704   0.1745   0.1845
  0.1907   0.1962   0.2029   0.2165   0.2232   0.2333   0.2395   0.2440
  0.2532   0.2632   0.2766   0.2977   0.3126   0.3390   0.3466   0.3499
  0.3661   0.3728   0.3836   0.3954   0.4011   0.4130   0.4134   0.4246
  0.4283   0.4406   0.4520   0.4564   0.4682   0.4771   0.4851   0.4885
  0.4938   0.5027   0.5179   0.5283   0.5389   0.5452   0.5458   0.5558
  0.5675   0.5781   0.5866   0.5921   0.6017   0.6061   0.6139   0.6160
  0.6198   0.6253   0.6349   0.6401   0.6420   0.6493   0.6545   0.6578
  0.6596   0.6719   0.6846   0.6917   0.6964   0.7075   0.7154   0.7282
  0.7367   0.7486   0.7628   0.7712   0.7754   0.7895   0.8046   0.8138
  0.8308   0.8336   0.8534   0.8668   0.8753   0.8861   0.9022   0.9164
  0.9324   0.9426   0.9523   0.9574   0.9749   0.9921   0.9984   1.0135
  1.0187   1.0275   1.0452   1.0475   1.0553   1.0613   1.0677   1.0836
  1.0931   1.0978   1.1284   1.1346   1.1439   1.1549   1.1633   1.1730
  1.1841   1.1908   1.1976   1.2061   1.2184   1.2287   1.2362   1.2387
  1.2534   1.2596   1.2679   1.2793   1.2879   1.2884   1.3149   1.3161
  1.3277   1.3363   1.3569   1.3705   1.3728   1.3845   1.3892   1.4144
  1.4228   1.4378   1.4429   1.4545   1.4706   1.4759   1.4935   1.4983
  1.5081   1.5167   1.5199   1.5260   1.5368   1.5421   1.5496   1.5578
  1.5763   1.5866   1.5896   1.6010   1.6153   1.6204   1.6319   1.6479
  1.6559   1.6626   1.6754   1.6904   1.7068   1.7162   1.7205   1.7334
  1.7471   1.7566   1.7701   1.7944   1.8021   1.8256   1.8527   1.8792
  1.8991   1.9061   1.9439   1.9469   1.9580   1.9606   1.9967   2.0051
  2.0230   2.0300   2.0442   2.0568   2.0895   2.1212   2.1267   2.1692
  2.1858   2.1917   2.2131   2.2243   2.2408   2.2554   2.2575   2.2723
  2.2929   2.3033   2.3209   2.3415   2.3997   2.4337   2.4509   2.4708
  2.4949   2.5096   2.5427   2.5743   2.5833   2.5915   2.6018   2.6230
  2.6438   2.6540   2.6646   2.6689   2.6736   2.6878   2.7074   2.7278
  2.7370   2.7599   2.7665   2.7730   2.7753   2.7960   2.8130   2.8232
  2.8343   2.8586   2.8605   2.8697   2.8871   2.9013   2.9179   2.9313
  2.9504   2.9578   2.9714   2.9961   2.9996   3.0171   3.0311   3.0432
  3.0481   3.0631   3.0876   3.0901   3.1114   3.1177   3.1307   3.1356
  3.1532   3.1628   3.1738   3.1794   3.1885   3.1992   3.2058   3.2210
  3.2219   3.2430   3.2548   3.2693   3.2720   3.2854   3.2928   3.2975
  3.3117   3.3251   3.3298   3.3369   3.3453   3.3541   3.3575   3.3640
  3.3768   3.3814   3.3944   3.3975   3.4057   3.4183   3.4289   3.4337
  3.4346   3.4548   3.4600   3.4655   3.4781   3.4868   3.4979   3.5091
  3.5198   3.5261   3.5391   3.5494   3.5510   3.5605   3.5668   3.5750
  3.5945   3.6101   3.6157   3.6300   3.6335   3.6473   3.6492   3.6632
  3.6711   3.6872   3.6892   3.7017   3.7177   3.7326   3.7332   3.7379
  3.7517   3.7689   3.7718   3.7827   3.7950   3.8031   3.8065   3.8225
  3.8255   3.8488   3.8552   3.8676   3.8873   3.8909   3.9048   3.9249
  3.9368   3.9384   3.9499   3.9601   3.9714   3.9930   3.9953   4.0234
  4.0289   4.0408   4.0513   4.0572   4.0729   4.0769   4.0832   4.1080
  4.1158   4.1312   4.1472   4.1622   4.1733   4.1836   4.1892   4.2023
  4.2108   4.2258   4.2310   4.2369   4.2451   4.2670   4.2716   4.2841
  4.2958   4.3037   4.3106   4.3296   4.3499   4.3609   4.3665   4.3720
  4.3743   4.3972   4.4054   4.4105   4.4114   4.4375   4.4432   4.4538
  4.4603   4.4718   4.4831   4.5023   4.5113   4.5280   4.5345   4.5468
  4.5588   4.5988   4.6120   4.6298   4.6408   4.6491   4.6561   4.6806
  4.6876   4.7275   4.7366   4.7534   4.7756   4.8031   4.8242   4.8497
  4.8592   4.8869   4.8928   4.9246   4.9397   4.9462   4.9595   4.9780
  5.0280   5.0678   5.0858   5.1075   5.1217   5.1262   5.1373   5.1837
  5.1986   5.2018   5.2370   5.2592   5.2758   5.2915   5.3007   5.3229
  5.3428   5.3620   5.3824   5.4008   5.4100   5.4234   5.4368   5.4501
  5.4551   5.5164   5.5230   5.5380   5.5519   5.5605   5.5757   5.5949
  5.6166   5.6232   5.6374   5.6498   5.6691   5.7017   5.7171   5.7512
  5.7711   5.7959   5.8240   5.9812   6.0307   6.0698   6.1319   6.1531
  6.1990   6.2281   6.2336   6.2368   6.2468   6.2907   6.2985   6.3047
  6.3967   6.5383   9.3507  10.5231  12.1047  12.9142  13.1588  13.9101
 14.0997  14.2098  14.3802  15.0174
 --------------------------------------------------------------
 
          Ground-State Mulliken Net Atomic Charges

     Atom                 Charge (a.u.)
  ----------------------------------------
      1 C                    -0.073753
      2 C                    -0.322070
      3 C                    -0.053509
      4 H                     0.177496
      5 C                     0.094781
      6 S                    -0.178542
      7 C                    -0.275220
      8 H                     0.118497
      9 H                     0.096524
     10 H                     0.114307
     11 C                    -0.051713
     12 C                    -0.291015
     13 C                     0.041399
     14 H                     0.192777
     15 C                    -0.241419
     16 S                     0.008919
     17 C                    -0.271400
     18 H                     0.101610
     19 H                     0.108970
     20 H                     0.108079
     21 H                     0.197038
     22 H                     0.109903
     23 H                     0.110462
     24 H                     0.177880
  ----------------------------------------
  Sum of atomic charges =     0.000000

 -----------------------------------------------------------------
                    Cartesian Multipole Moments
 -----------------------------------------------------------------
    Charge (ESU x 10^10)
                -0.0000
    Dipole Moment (Debye)
         X       2.1718      Y       0.4054      Z       3.7511
       Tot       4.3534
    Quadrupole Moments (Debye-Ang)
        XX     -89.4968     XY       2.4030     YY     -75.4590
        XZ       0.5034     YZ      -2.3603     ZZ     -86.3361
    Octopole Moments (Debye-Ang^2)
       XXX     -88.0920    XXY      55.1196    XYY     -18.2233
       YYY     134.6085    XXZ       1.5226    XYZ      -3.2358
       YYZ      -2.1899    XZZ     -24.2753    YZZ      60.0322
       ZZZ       2.8902
    Hexadecapole Moments (Debye-Ang^3)
      XXXX    -651.7313   XXXY    -199.7787   XXYY    -570.5683
      XYYY    -150.7888   YYYY   -2644.8860   XXXZ    -177.5136
      XXYZ     -45.1235   XYYZ     -51.3447   YYYZ     -97.7106
      XXZZ    -237.1356   XYZZ     -64.9658   YYZZ    -602.6985
      XZZZ    -182.9991   YZZZ     -93.9916   ZZZZ    -781.9891
 -----------------------------------------------------------------
 Total job time:  672.26s(wall), 667.86s(cpu) 
 Sun Jul 10 02:23:58 2022

        *************************************************************
        *                                                           *
        *  Thank you very much for using Q-Chem.  Have a nice day.  *
        *                                                           *
        *************************************************************


remove work dirs ./qchem3366512.0 -- ./qchem3366512.-1
rm -rf ./qchem3366512
