You are running Q-Chem version: 5.4.0

#
# job setting
#
local host:  exp-3-14
current dir: /expanse/lustre/scratch/theleonzhang/temp_project/Hydrogenated_Rotation_Test
input file:  Methylthiophene_Phi_25_Theta_270_Methylthiophene_Hydrogenated.qcin
output file: 
nprocs     : 0
nthreads   : 1
#
# qchem installation setting
#
QC:          /cm/shared/apps/spack/cpu/opt/spack/linux-centos8-zen2/gcc-10.2.0/qchem-5.4-akfmr7b3t57bfs6qan3padb2wnb2i7cl
QCAUX:       /cm/shared/apps/spack/cpu/opt/spack/linux-centos8-zen2/gcc-10.2.0/qchem-5.4-akfmr7b3t57bfs6qan3padb2wnb2i7cl/qcaux
QCPROG:      /cm/shared/apps/spack/cpu/opt/spack/linux-centos8-zen2/gcc-10.2.0/qchem-5.4-akfmr7b3t57bfs6qan3padb2wnb2i7cl/exe/qcprog.exe_s
QCPROG_S:    /cm/shared/apps/spack/cpu/opt/spack/linux-centos8-zen2/gcc-10.2.0/qchem-5.4-akfmr7b3t57bfs6qan3padb2wnb2i7cl/exe/qcprog.exe_s
PARALLEL:    -DSERIAL
QCMPI:       mpich
#
# qchem directory setting
#
qcrun:       qchem3442486
QCSCRATCH:   .
QCLOCALSCR:  
QCTMPDIR:    .
QCFILEPREF:  ./qchem3442486
QCSAVEDIR:   
workdirs:    ./qchem3442486
workdir0:    ./qchem3442486
partmpdirs =  
#
# parallel setting
#
QCRSH:           ssh
QCMPI:           mpich
QCMPIRUN:        /cm/shared/apps/spack/cpu/opt/spack/linux-centos8-zen2/gcc-10.2.0/qchem-5.4-akfmr7b3t57bfs6qan3padb2wnb2i7cl/bin/mpi/mpirun_qchem
QCMACHINEFILE:   ./qchem3442486/hostfile

#
# env setting
#
exported envs:   QC QCAUX QCSCRATCH QCRUNNAME QCFILEPREF QCPROG QCPROG_S GUIFILE

Running Job 1 of 1 Methylthiophene_Phi_25_Theta_270_Methylthiophene_Hydrogenated.qcin
qchem Methylthiophene_Phi_25_Theta_270_Methylthiophene_Hydrogenated.qcin_3442486.0 ./qchem3442486/ 0
/cm/shared/apps/spack/cpu/opt/spack/linux-centos8-zen2/gcc-10.2.0/qchem-5.4-akfmr7b3t57bfs6qan3padb2wnb2i7cl/exe/qcprog.exe_s Methylthiophene_Phi_25_Theta_270_Methylthiophene_Hydrogenated.qcin_3442486.0 ./qchem3442486/
                  Welcome to Q-Chem
     A Quantum Leap Into The Future Of Chemistry


 Q-Chem 5.4, Q-Chem, Inc., Pleasanton, CA (2021)

 License issued to: University of California, San Diego (site)

 E. Epifanovsky,  A. T. B. Gilbert,  Xintian Feng,  Joonho Lee,  Yuezhi Mao,  
 N. Mardirossian,  P. Pokhilko,  A. White,  M. Wormit,  M. P. Coons,  
 A. L. Dempwolff,  Zhengting Gan,  D. Hait,  P. R. Horn,  L. D. Jacobson,  
 I. Kaliman,  J. Kussmann,  A. W. Lange,  Ka Un Lao,  D. S. Levine,  Jie Liu,  
 S. C. McKenzie,  A. F. Morrison,  K. Nanda,  F. Plasser,  D. R. Rehn,  
 M. L. Vidal,  Zhi-Qiang You,  Ying Zhu,  B. Alam,  B. Albrecht,  
 A. Aldossary,  E. Alguire,  J. H. Andersen,  D. Barton,  K. Begam,  A. Behn,  
 Y. A. Bernard,  E. J. Berquist,  H. Burton,  A. Carreras,  K. Carter-Fenk,  
 R. Chakraborty,  A. D. Chien,  K. D. Closser,  V. Cofer-Shabica,  
 S. Dasgupta,  Jia Deng,  M. de Wergifosse,  M. Diedenhofen,  Hainam Do,  
 S. Ehlert,  Po-Tung Fang,  S. Fatehi,  Qingguo Feng,  J. Gayvert,  
 Qinghui Ge,  G. Gidofalvi,  M. Goldey,  J. Gomes,  C. Gonzalez-Espinoza,  
 S. Gulania,  A. Gunina,  M. W. D. Hanson-Heine,  P. H. P. Harbach,  
 A. W. Hauser,  M. F. Herbst,  M. Hernandez Vera,  M. Hodecker,  
 Z. C. Holden,  S. Houck,  Xunkun Huang,  Kerwin Hui,  B. C. Huynh,  
 M. Ivanov,  Hyunjun Ji,  Hanjie Jiang,  B. Kaduk,  S. Kaehler,  
 K. Khistyaev,  Jaehoon Kim,  P. Klunzinger,  Z. Koczor-Benda,  
 Joong Hoon Koh,  D. Kosenkov,  L. Koulias,  T. Kowalczyk,  C. M. Krauter,  
 K. Kue,  A. Kunitsa,  T. Kus,  A. Landau,  K. V. Lawler,  D. Lefrancois,  
 S. Lehtola,  Rain Li,  Yi-Pei Li,  Jiashu Liang,  M. Liebenthal,  
 Hung-Hsuan Lin,  You-Sheng Lin,  Fenglai Liu,  Kuan-Yu Liu,  
 M. Loipersberger,  A. Luenser,  A. Manjanath,  P. Manohar,  E. Mansoor,  
 S. F. Manzer,  Shan-Ping Mao,  A. V. Marenich,  T. Markovich,  S. Mason,  
 S. A. Maurer,  P. F. McLaughlin,  M. F. S. J. Menger,  J.-M. Mewes,  
 S. A. Mewes,  P. Morgante,  J. W. Mullinax,  T. S. Nguyen-Beck,  
 K. J. Oosterbaan,  G. Paran,  Alexander C. Paul,  Suranjan K. Paul,  
 F. Pavosevic,  Zheng Pei,  S. Prager,  E. I. Proynov,  E. Ramos,  B. Rana,  
 A. E. Rask,  A. Rettig,  R. M. Richard,  F. Rob,  E. Rossomme,  T. Scheele,  
 M. Scheurer,  M. Schneider,  N. Sergueev,  S. M. Sharada,  W. Skomorowski,  
 D. W. Small,  C. J. Stein,  Yu-Chuan Su,  E. J. Sundstrom,  Zhen Tao,  
 J. Thirman,  T. Tsuchimochi,  N. M. Tubman,  S. P. Veccham,  O. Vydrov,  
 J. Wenzel,  J. Witte,  A. Yamada,  Kun Yao,  S. Yeganeh,  S. R. Yost,  
 A. Zech,  Igor Ying Zhang,  Xing Zhang,  Yu Zhang,  D. Zuev,  
 A. Aspuru-Guzik,  A. T. Bell,  N. A. Besley,  K. B. Bravaya,  B. R. Brooks,  
 D. Casanova,  Jeng-Da Chai,  S. Coriani,  C. J. Cramer,  
 A. E. DePrince, III,  R. A. DiStasio Jr.,  A. Dreuw,  B. D. Dunietz,  
 T. R. Furlani,  W. A. Goddard III,  S. Grimme,  S. Hammes-Schiffer,  
 T. Head-Gordon,  W. J. Hehre,  Chao-Ping Hsu,  T.-C. Jagau,  Yousung Jung,  
 A. Klamt,  Jing Kong,  D. S. Lambrecht,  WanZhen Liang,  N. J. Mayhall,  
 C. W. McCurdy,  J. B. Neaton,  C. Ochsenfeld,  J. A. Parkhill,  R. Peverati,  
 V. A. Rassolov,  Yihan Shao,  L. V. Slipchenko,  T. Stauch,  R. P. Steele,  
 J. E. Subotnik,  A. J. W. Thom,  A. Tkatchenko,  D. G. Truhlar,  
 T. Van Voorhis,  T. A. Wesolowski,  K. B. Whaley,  H. L. Woodcock III,  
 P. M. Zimmerman,  S. Faraji,  P. M. W. Gill,  M. Head-Gordon,  
 J. M. Herbert,  A. I. Krylov

 Contributors to earlier versions of Q-Chem not listed above: 
 R. D. Adamson,  B. Austin,  R. Baer,  J. Baker,  G. J. O. Beran,  
 K. Brandhorst,  S. T. Brown,  E. F. C. Byrd,  A. K. Chakraborty,  
 G. K. L. Chan,  Chun-Min Chang,  Yunqing Chen,  C.-L. Cheng,  
 Siu Hung Chien,  D. M. Chipman,  D. L. Crittenden,  H. Dachsel,  
 R. J. Doerksen,  A. D. Dutoi,  R. G. Edgar,  J. Fosso-Tande,  
 L. Fusti-Molnar,  D. Ghosh,  A. Ghysels,  A. Golubeva-Zadorozhnaya,  
 J. Gonthier,  M. S. Gordon,  S. R. Gwaltney,  G. Hawkins,  J. E. Herr,  
 A. Heyden,  S. Hirata,  E. G. Hohenstein,  G. Kedziora,  F. J. Keil,  
 C. Kelley,  Jihan Kim,  R. A. King,  R. Z. Khaliullin,  P. P. Korambath,  
 W. Kurlancheek,  A. Laurent,  A. M. Lee,  M. S. Lee,  S. V. Levchenko,  
 Ching Yeh Lin,  D. Liotard,  E. Livshits,  R. C. Lochan,  I. Lotan,  
 L. A. Martinez-Martinez,  P. E. Maslen,  N. Nair,  D. P. O'Neill,  
 D. Neuhauser,  E. Neuscamman,  C. M. Oana,  R. Olivares-Amaya,  R. Olson,  
 T. M. Perrine,  B. Peters,  P. A. Pieniazek,  A. Prociuk,  Y. M. Rhee,  
 J. Ritchie,  M. A. Rohrdanz,  E. Rosta,  N. J. Russ,  H. F. Schaefer III,  
 M. W. Schmidt,  N. E. Schultz,  S. Sharma,  N. Shenvi,  C. D. Sherrill,  
 A. C. Simmonett,  A. Sodt,  T. Stein,  D. Stuck,  K. S. Thanthiriwatte,  
 V. Vanovschi,  L. Vogt,  Tao Wang,  A. Warshel,  M. A. Watson,  
 C. F. Williams,  Q. Wu,  X. Xu,  Jun Yang,  W. Zhang,  Yan Zhao

 Please cite Q-Chem as follows:
 Y. Shao et al., Mol. Phys. 113, 184-215 (2015)
 DOI: 10.1080/00268976.2014.952696

 Q-Chem 5.4.0 for Intel X86 EM64T Linux

 Parts of Q-Chem use Armadillo 9.800.1 (Horizon Scraper).
 http://arma.sourceforge.net/

 Q-Chem begins on Sun Jul 10 04:46:56 2022  

 Host: 
0

     Scratch files written to ./qchem3442486//
 May1621 |scratch|qcdevops|jenkins|workspace|build_RNUM    
 Processing $rem in /cm/shared/apps/spack/cpu/opt/spack/linux-centos8-zen2/gcc-10.2.0/qchem-5.4-akfmr7b3t57bfs6qan3padb2wnb2i7cl/config/preferences:
 Processing $rem in /home/theleonzhang/.qchemrc:
 Symmetry turned off for PCM/SM12/SMD calculation
 Core orbitals will be frozen

 Checking the input file for inconsistencies... 	...done.

--------------------------------------------------------------
User input:
--------------------------------------------------------------
$molecule
0 1
C	0.775127	-3.866725	0.000713
C	-0.612565	-3.703963	0.000302
C	-1.066639	-2.357056	-0.000067
H	-1.302900	-4.561092	0.000470
C	-0.000000	-1.440664	-0.000000
S	1.544483	-2.286957	-0.000009
C	-2.521872	-1.978743	-0.000295
H	-3.166949	-2.878678	-0.000221
H	-2.790821	-1.376015	-0.892850
H	-2.791023	-1.375728	0.892005
C	0.000000	0.000000	0.000000
C	0.365003	0.782674	1.099446
C	0.949885	2.036912	0.776721
H	0.209135	0.448431	2.136088
C	1.043159	2.236886	-0.612546
S	0.398297	0.854094	-1.486809
C	1.409609	3.022738	1.814609
H	1.229726	2.636980	2.836676
H	0.877346	3.992870	1.726239
H	2.494910	3.238558	1.726228
H	1.444334	3.097160	-1.161575
H	1.119411	-4.392713	-0.896681
H	1.119277	-4.392347	0.898372
H	-0.000115	-1.440391	1.080000
$end

$rem
JOBTYPE		SP
EXCHANGE	HF
CORRELATION	pRIMP2
BASIS		cc-pvtz
METHOD		rimp2
AUX_BASIS	rimp2-cc-pvtz
SOLVENT_METHOD	PCM
PURECART	11111
SYMMETRY	false
MEM_TOTAL	110000
SCF_CONVERGENCE = 6
THRESH=10
$end



$solvent
dielectric 4.90
$end
--------------------------------------------------------------
 ----------------------------------------------------------------
             Standard Nuclear Orientation (Angstroms)
    I     Atom           X                Y                Z
 ----------------------------------------------------------------
    1      C       0.7751270000    -3.8667250000     0.0007130000
    2      C      -0.6125650000    -3.7039630000     0.0003020000
    3      C      -1.0666390000    -2.3570560000    -0.0000670000
    4      H      -1.3029000000    -4.5610920000     0.0004700000
    5      C       0.0000000000    -1.4406640000     0.0000000000
    6      S       1.5444830000    -2.2869570000    -0.0000090000
    7      C      -2.5218720000    -1.9787430000    -0.0002950000
    8      H      -3.1669490000    -2.8786780000    -0.0002210000
    9      H      -2.7908210000    -1.3760150000    -0.8928500000
   10      H      -2.7910230000    -1.3757280000     0.8920050000
   11      C       0.0000000000     0.0000000000     0.0000000000
   12      C       0.3650030000     0.7826740000     1.0994460000
   13      C       0.9498850000     2.0369120000     0.7767210000
   14      H       0.2091350000     0.4484310000     2.1360880000
   15      C       1.0431590000     2.2368860000    -0.6125460000
   16      S       0.3982970000     0.8540940000    -1.4868090000
   17      C       1.4096090000     3.0227380000     1.8146090000
   18      H       1.2297260000     2.6369800000     2.8366760000
   19      H       0.8773460000     3.9928700000     1.7262390000
   20      H       2.4949100000     3.2385580000     1.7262280000
   21      H       1.4443340000     3.0971600000    -1.1615750000
   22      H       1.1194110000    -4.3927130000    -0.8966810000
   23      H       1.1192770000    -4.3923470000     0.8983720000
   24      H      -0.0001150000    -1.4403910000     1.0800000000
 ----------------------------------------------------------------
 Nuclear Repulsion Energy =         876.06245862 hartrees
 There are       52 alpha and       52 beta electrons

 Q-Chem warning in module forms1/BasisType.C, line 2236:

 You are not using the predefined 5D/6D in this basis set.

 Requested basis set is cc-pVTZ
 There are 196 shells and 536 basis functions

 Total QAlloc Memory Limit 110000 MB
 Mega-Array Size       188 MB
 MEM_STATIC part       192 MB
 Discretize the solute cavity surface with Lebedev spheres
	Using 110 Lebedev grid points for each H atom
	Using 194 Lebedev grid points for other atoms
	Atomic van der Waals radii will be scaled by 1.20
 Remove points where switching function is < 1.0e-08
 Keep 1619 surface tesserae and discard 2029 interior tesserae
 Molecular Surface Area = 238.658 Angst**2
 Requested basis set is rimp2-cc-pVTZ
 There are 414 shells and 1414 basis functions
 A cutoff of  1.0D-10 yielded  13942 shell pairs
 There are    100738 function pairs (    129142 Cartesian)
 Smallest overlap matrix eigenvalue = 7.12E-05

 Scale SEOQF with 1.000000e-01/1.000000e-01/1.000000e-01

 Standard Electronic Orientation quadrupole field applied
 Nucleus-field energy     =     0.0000000362 hartrees
 Guess from superposition of atomic densities
 Warning:  Energy on first SCF cycle will be non-variational
 SAD guess density has 104.000000 electrons

 -----------------------------------------------------------------------
  General SCF calculation program by
  Eric Jon Sundstrom, Paul Horn, Yuezhi Mao, Dmitri Zuev, Alec White,
  David Stuck, Shaama M.S., Shane Yost, Joonho Lee, David Small,
  Daniel Levine, Susi Lehtola, Hugh Burton, Evgeny Epifanovsky,
  Bang C. Huynh
 -----------------------------------------------------------------------
 Hartree-Fock
 A restricted SCF calculation will be
 performed using DIIS
 SCF converges when DIIS error is below 1.0e-06
 ---------------------------------------
  Cycle       Energy         DIIS error
 ---------------------------------------
    1   -1186.0351819253      2.39e-02  
    2   -1180.6120981596      1.54e-03  
    3   -1180.7357111619      5.62e-04  
    4   -1180.7487019250      3.14e-04  
    5   -1180.7531105230      5.87e-05  
    6   -1180.7533492517      2.41e-05  
    7   -1180.7534086075      9.22e-06  
    8   -1180.7534234736      4.46e-06  
    9   -1180.7534270084      1.60e-06  
   10   -1180.7534275728      5.36e-07  Convergence criterion met
 ---------------------------------------
 SCF time:   CPU 560.36s  wall 562.00s 

************** Final PCM Free Energy Summary **************
 G_electrostatic  =      -0.00954598 hartree =      -5.99019547 kcal/mol
 G_cavitation     =       0.00000000 hartree =       0.00000000 kcal/mol
 G_dispersion     =       0.00000000 hartree =       0.00000000 kcal/mol
 G_repulsion      =       0.00000000 hartree =       0.00000000 kcal/mol
 --------------------------------------------------
 Non-electrostatic Free Energy =       0.00000000 hartree =       0.00000000 kcal/mol
 Total                         =      -0.00954598 hartree =      -5.99019547 kcal/mol
 --------------------------------------------------
 SCF Energy (H0 + V/2)                       =   -1180.75342757 
 Solute Internal Energy (H0)                 =   -1180.74388159 
 Total Free Energy (H0 + V/2 + non-elec)     =   -1180.75342757 hartree
                                             = -740933.95871762 kcal/mol
***********************************************************

 SCF   energy in the final basis set =    -1180.7534275728
 Total energy in the final basis set =    -1180.7534275728


 --------------------------------------------------------------
  Generalized many-body perturbation theory program
  by Joonho Lee, Fazle Rob, Xintian Feng, Evgeny Epifanovsky

 No regularization used 
 (reg. param. = 0.0000e+00)
  (P|Q)^-1/2 Time:  CPU 1.88 s  wall 1.89 s

 In RI-MP2 calculation: 
 # of frozen core orbitals: 20

 Components of the RIMP2 correlation energy:
        aaaa    correlation energy =        -0.2515156965 a.u.
        abab    correlation energy =        -1.5039776409 a.u.
        bbbb    correlation energy =        -0.2515156965 a.u.
        non-Brillouin singles      =        -0.0000000000 a.u.
        total same-spin energy     =        -0.5030313930 a.u.
        total opposite-spin energy =        -1.5039776409 a.u.

 Total  RIMP2   correlation energy =        -2.0070090340 a.u.
        RIMP2         total energy =     -1182.7604366067 a.u.

 RI-MP2 Energy Time:  CPU 78.84 s  wall 78.99 s
 
 --------------------------------------------------------------
 
                    Orbital Energies (a.u.)
 --------------------------------------------------------------
 
 Alpha MOs
 -- Occupied --
-91.9791 -91.9410 -11.2763 -11.2685 -11.2601 -11.2536 -11.2508 -11.2466
-11.2400 -11.2311 -11.2293 -11.2171  -8.9793  -8.9456  -6.6602  -6.6596
 -6.6591  -6.6270  -6.6259  -6.6247  -1.1982  -1.1536  -1.0575  -1.0259
 -1.0053  -0.9592  -0.9112  -0.9011  -0.8145  -0.7603  -0.7370  -0.7000
 -0.6602  -0.6400  -0.6104  -0.5887  -0.5809  -0.5713  -0.5655  -0.5500
 -0.5409  -0.5309  -0.5099  -0.5068  -0.4929  -0.4770  -0.4596  -0.4480
 -0.3572  -0.3386  -0.3117  -0.2815
 -- Virtual --
  0.0851   0.1328   0.1418   0.1525   0.1588   0.1711   0.1761   0.1793
  0.1881   0.1978   0.2053   0.2163   0.2278   0.2303   0.2332   0.2449
  0.2485   0.2574   0.2647   0.3017   0.3054   0.3361   0.3409   0.3509
  0.3668   0.3767   0.3789   0.3897   0.3949   0.4025   0.4113   0.4210
  0.4330   0.4406   0.4476   0.4533   0.4670   0.4710   0.4807   0.4842
  0.5015   0.5092   0.5122   0.5230   0.5276   0.5328   0.5454   0.5557
  0.5691   0.5773   0.5904   0.5994   0.6052   0.6080   0.6132   0.6200
  0.6234   0.6291   0.6329   0.6360   0.6425   0.6452   0.6462   0.6541
  0.6616   0.6704   0.6762   0.6827   0.6910   0.6948   0.7169   0.7288
  0.7363   0.7487   0.7520   0.7728   0.7967   0.7981   0.8077   0.8166
  0.8227   0.8360   0.8425   0.8517   0.8687   0.9044   0.9099   0.9184
  0.9311   0.9350   0.9444   0.9535   0.9811   0.9858   0.9979   1.0117
  1.0181   1.0254   1.0373   1.0430   1.0526   1.0617   1.0666   1.0800
  1.0899   1.1011   1.1174   1.1202   1.1310   1.1552   1.1616   1.1688
  1.1742   1.1779   1.1819   1.2083   1.2128   1.2199   1.2376   1.2453
  1.2508   1.2579   1.2644   1.2735   1.2805   1.2867   1.3084   1.3133
  1.3185   1.3323   1.3484   1.3606   1.3698   1.3903   1.4039   1.4121
  1.4170   1.4308   1.4485   1.4557   1.4710   1.4793   1.4915   1.4986
  1.5064   1.5138   1.5166   1.5329   1.5398   1.5407   1.5504   1.5541
  1.5654   1.5738   1.5831   1.5874   1.6026   1.6125   1.6212   1.6353
  1.6405   1.6671   1.6749   1.6812   1.6987   1.7091   1.7215   1.7384
  1.7497   1.7554   1.7693   1.7868   1.8098   1.8127   1.8348   1.8600
  1.8640   1.9160   1.9298   1.9476   1.9586   1.9699   1.9850   1.9933
  2.0241   2.0348   2.0437   2.0666   2.0776   2.1185   2.1261   2.1403
  2.1792   2.1905   2.1989   2.2122   2.2316   2.2498   2.2621   2.2718
  2.2889   2.3340   2.3380   2.3738   2.4190   2.4411   2.4519   2.4679
  2.5023   2.5118   2.5193   2.5459   2.5686   2.5758   2.6070   2.6102
  2.6278   2.6343   2.6621   2.6658   2.6716   2.6950   2.7056   2.7212
  2.7457   2.7552   2.7594   2.7769   2.7799   2.7913   2.8052   2.8345
  2.8432   2.8548   2.8596   2.8794   2.8916   2.8993   2.9102   2.9203
  2.9460   2.9523   2.9727   2.9780   2.9992   3.0161   3.0262   3.0355
  3.0447   3.0576   3.0870   3.0960   3.1126   3.1137   3.1349   3.1450
  3.1554   3.1606   3.1641   3.1741   3.1875   3.1961   3.2028   3.2168
  3.2304   3.2409   3.2479   3.2641   3.2760   3.2836   3.2961   3.3124
  3.3228   3.3269   3.3293   3.3381   3.3458   3.3552   3.3600   3.3663
  3.3686   3.3808   3.3933   3.3950   3.4069   3.4110   3.4206   3.4266
  3.4401   3.4465   3.4561   3.4582   3.4808   3.4958   3.5035   3.5103
  3.5164   3.5317   3.5386   3.5446   3.5490   3.5517   3.5700   3.5809
  3.5935   3.6134   3.6209   3.6251   3.6364   3.6414   3.6459   3.6558
  3.6691   3.6862   3.6956   3.7032   3.7113   3.7234   3.7290   3.7352
  3.7410   3.7561   3.7693   3.7813   3.7858   3.8007   3.8030   3.8217
  3.8283   3.8380   3.8520   3.8612   3.8744   3.8830   3.8954   3.9173
  3.9281   3.9446   3.9538   3.9582   3.9700   3.9756   3.9937   4.0109
  4.0220   4.0346   4.0424   4.0557   4.0715   4.0837   4.0962   4.1065
  4.1173   4.1183   4.1484   4.1532   4.1677   4.1741   4.1837   4.1973
  4.2100   4.2200   4.2362   4.2471   4.2502   4.2631   4.2659   4.2835
  4.2914   4.3046   4.3211   4.3297   4.3389   4.3509   4.3592   4.3629
  4.3726   4.3815   4.3997   4.4015   4.4100   4.4244   4.4276   4.4489
  4.4588   4.4683   4.4814   4.4917   4.4957   4.5187   4.5370   4.5464
  4.5752   4.5909   4.6128   4.6281   4.6355   4.6485   4.6592   4.6726
  4.7033   4.7226   4.7297   4.7570   4.7692   4.8123   4.8246   4.8427
  4.8595   4.8673   4.8947   4.9043   4.9274   4.9637   4.9659   4.9860
  5.0238   5.0464   5.0886   5.1049   5.1149   5.1249   5.1520   5.1670
  5.1816   5.1941   5.2243   5.2587   5.2826   5.2907   5.3122   5.3210
  5.3369   5.3655   5.3815   5.3992   5.4049   5.4248   5.4416   5.4503
  5.4930   5.5100   5.5307   5.5432   5.5477   5.5609   5.5753   5.5804
  5.6238   5.6332   5.6602   5.6806   5.6843   5.7069   5.7141   5.7286
  5.7680   5.7895   5.8286   5.9439   5.9872   6.0380   6.1264   6.1312
  6.2018   6.2199   6.2267   6.2405   6.2510   6.2775   6.2872   6.3218
  6.3759   6.4499   9.4725  10.6238  12.1399  12.8979  13.1683  13.8981
 14.1096  14.2023  14.2922  14.5957
 --------------------------------------------------------------
 
          Ground-State Mulliken Net Atomic Charges

     Atom                 Charge (a.u.)
  ----------------------------------------
      1 C                    -0.073871
      2 C                    -0.326444
      3 C                    -0.035410
      4 H                     0.175012
      5 C                     0.066908
      6 S                    -0.169593
      7 C                    -0.270096
      8 H                     0.112471
      9 H                     0.106783
     10 H                     0.100760
     11 C                    -0.060452
     12 C                    -0.251236
     13 C                     0.034527
     14 H                     0.180185
     15 C                    -0.230674
     16 S                     0.006236
     17 C                    -0.269879
     18 H                     0.102024
     19 H                     0.107571
     20 H                     0.108602
     21 H                     0.197287
     22 H                     0.111255
     23 H                     0.108946
     24 H                     0.169087
  ----------------------------------------
  Sum of atomic charges =     0.000000

 -----------------------------------------------------------------
                    Cartesian Multipole Moments
 -----------------------------------------------------------------
    Charge (ESU x 10^10)
                -0.0000
    Dipole Moment (Debye)
         X      -1.5076      Y       0.6844      Z       2.3195
       Tot       2.8498
    Quadrupole Moments (Debye-Ang)
        XX     -89.7129     XY       7.7341     YY     -75.8673
        XZ       0.7743     YZ      -0.3717     ZZ     -85.9603
    Octopole Moments (Debye-Ang^2)
       XXX     -94.4725    XXY      54.2529    XYY     -14.5335
       YYY     138.7314    XXZ      -1.8167    XYZ      -1.8431
       YYZ      -1.1945    XZZ     -24.3962    YZZ      61.5365
       ZZZ       3.6865
    Hexadecapole Moments (Debye-Ang^3)
      XXXX    -880.4621   XXXY    -150.8537   XXYY    -599.4364
      XYYY    -155.4766   YYYY   -2657.7519   XXXZ     -37.8746
      XXYZ     -31.1675   XYYZ     -17.3272   YYYZ    -100.7722
      XXZZ    -244.9325   XYZZ     -55.6419   YYZZ    -574.2912
      XZZZ     -40.3034   YZZZ     -86.4903   ZZZZ    -536.8582
 -----------------------------------------------------------------
 Total job time:  642.84s(wall), 640.09s(cpu) 
 Sun Jul 10 04:57:39 2022

        *************************************************************
        *                                                           *
        *  Thank you very much for using Q-Chem.  Have a nice day.  *
        *                                                           *
        *************************************************************


remove work dirs ./qchem3442486.0 -- ./qchem3442486.-1
rm -rf ./qchem3442486
