You are running Q-Chem version: 5.4.0

#
# job setting
#
local host:  exp-1-29
current dir: /expanse/lustre/scratch/theleonzhang/temp_project/Hydrogenated_Rotation_Test
input file:  Methylthiophene_Phi_50_Theta_70_Methylthiophene_Hydrogenated.qcin
output file: 
nprocs     : 0
nthreads   : 1
#
# qchem installation setting
#
QC:          /cm/shared/apps/spack/cpu/opt/spack/linux-centos8-zen2/gcc-10.2.0/qchem-5.4-akfmr7b3t57bfs6qan3padb2wnb2i7cl
QCAUX:       /cm/shared/apps/spack/cpu/opt/spack/linux-centos8-zen2/gcc-10.2.0/qchem-5.4-akfmr7b3t57bfs6qan3padb2wnb2i7cl/qcaux
QCPROG:      /cm/shared/apps/spack/cpu/opt/spack/linux-centos8-zen2/gcc-10.2.0/qchem-5.4-akfmr7b3t57bfs6qan3padb2wnb2i7cl/exe/qcprog.exe_s
QCPROG_S:    /cm/shared/apps/spack/cpu/opt/spack/linux-centos8-zen2/gcc-10.2.0/qchem-5.4-akfmr7b3t57bfs6qan3padb2wnb2i7cl/exe/qcprog.exe_s
PARALLEL:    -DSERIAL
QCMPI:       mpich
#
# qchem directory setting
#
qcrun:       qchem1605963
QCSCRATCH:   .
QCLOCALSCR:  
QCTMPDIR:    .
QCFILEPREF:  ./qchem1605963
QCSAVEDIR:   
workdirs:    ./qchem1605963
workdir0:    ./qchem1605963
partmpdirs =  
#
# parallel setting
#
QCRSH:           ssh
QCMPI:           mpich
QCMPIRUN:        /cm/shared/apps/spack/cpu/opt/spack/linux-centos8-zen2/gcc-10.2.0/qchem-5.4-akfmr7b3t57bfs6qan3padb2wnb2i7cl/bin/mpi/mpirun_qchem
QCMACHINEFILE:   ./qchem1605963/hostfile

#
# env setting
#
exported envs:   QC QCAUX QCSCRATCH QCRUNNAME QCFILEPREF QCPROG QCPROG_S GUIFILE

Running Job 1 of 1 Methylthiophene_Phi_50_Theta_70_Methylthiophene_Hydrogenated.qcin
qchem Methylthiophene_Phi_50_Theta_70_Methylthiophene_Hydrogenated.qcin_1605963.0 ./qchem1605963/ 0
/cm/shared/apps/spack/cpu/opt/spack/linux-centos8-zen2/gcc-10.2.0/qchem-5.4-akfmr7b3t57bfs6qan3padb2wnb2i7cl/exe/qcprog.exe_s Methylthiophene_Phi_50_Theta_70_Methylthiophene_Hydrogenated.qcin_1605963.0 ./qchem1605963/
                  Welcome to Q-Chem
     A Quantum Leap Into The Future Of Chemistry


 Q-Chem 5.4, Q-Chem, Inc., Pleasanton, CA (2021)

 License issued to: University of California, San Diego (site)

 E. Epifanovsky,  A. T. B. Gilbert,  Xintian Feng,  Joonho Lee,  Yuezhi Mao,  
 N. Mardirossian,  P. Pokhilko,  A. White,  M. Wormit,  M. P. Coons,  
 A. L. Dempwolff,  Zhengting Gan,  D. Hait,  P. R. Horn,  L. D. Jacobson,  
 I. Kaliman,  J. Kussmann,  A. W. Lange,  Ka Un Lao,  D. S. Levine,  Jie Liu,  
 S. C. McKenzie,  A. F. Morrison,  K. Nanda,  F. Plasser,  D. R. Rehn,  
 M. L. Vidal,  Zhi-Qiang You,  Ying Zhu,  B. Alam,  B. Albrecht,  
 A. Aldossary,  E. Alguire,  J. H. Andersen,  D. Barton,  K. Begam,  A. Behn,  
 Y. A. Bernard,  E. J. Berquist,  H. Burton,  A. Carreras,  K. Carter-Fenk,  
 R. Chakraborty,  A. D. Chien,  K. D. Closser,  V. Cofer-Shabica,  
 S. Dasgupta,  Jia Deng,  M. de Wergifosse,  M. Diedenhofen,  Hainam Do,  
 S. Ehlert,  Po-Tung Fang,  S. Fatehi,  Qingguo Feng,  J. Gayvert,  
 Qinghui Ge,  G. Gidofalvi,  M. Goldey,  J. Gomes,  C. Gonzalez-Espinoza,  
 S. Gulania,  A. Gunina,  M. W. D. Hanson-Heine,  P. H. P. Harbach,  
 A. W. Hauser,  M. F. Herbst,  M. Hernandez Vera,  M. Hodecker,  
 Z. C. Holden,  S. Houck,  Xunkun Huang,  Kerwin Hui,  B. C. Huynh,  
 M. Ivanov,  Hyunjun Ji,  Hanjie Jiang,  B. Kaduk,  S. Kaehler,  
 K. Khistyaev,  Jaehoon Kim,  P. Klunzinger,  Z. Koczor-Benda,  
 Joong Hoon Koh,  D. Kosenkov,  L. Koulias,  T. Kowalczyk,  C. M. Krauter,  
 K. Kue,  A. Kunitsa,  T. Kus,  A. Landau,  K. V. Lawler,  D. Lefrancois,  
 S. Lehtola,  Rain Li,  Yi-Pei Li,  Jiashu Liang,  M. Liebenthal,  
 Hung-Hsuan Lin,  You-Sheng Lin,  Fenglai Liu,  Kuan-Yu Liu,  
 M. Loipersberger,  A. Luenser,  A. Manjanath,  P. Manohar,  E. Mansoor,  
 S. F. Manzer,  Shan-Ping Mao,  A. V. Marenich,  T. Markovich,  S. Mason,  
 S. A. Maurer,  P. F. McLaughlin,  M. F. S. J. Menger,  J.-M. Mewes,  
 S. A. Mewes,  P. Morgante,  J. W. Mullinax,  T. S. Nguyen-Beck,  
 K. J. Oosterbaan,  G. Paran,  Alexander C. Paul,  Suranjan K. Paul,  
 F. Pavosevic,  Zheng Pei,  S. Prager,  E. I. Proynov,  E. Ramos,  B. Rana,  
 A. E. Rask,  A. Rettig,  R. M. Richard,  F. Rob,  E. Rossomme,  T. Scheele,  
 M. Scheurer,  M. Schneider,  N. Sergueev,  S. M. Sharada,  W. Skomorowski,  
 D. W. Small,  C. J. Stein,  Yu-Chuan Su,  E. J. Sundstrom,  Zhen Tao,  
 J. Thirman,  T. Tsuchimochi,  N. M. Tubman,  S. P. Veccham,  O. Vydrov,  
 J. Wenzel,  J. Witte,  A. Yamada,  Kun Yao,  S. Yeganeh,  S. R. Yost,  
 A. Zech,  Igor Ying Zhang,  Xing Zhang,  Yu Zhang,  D. Zuev,  
 A. Aspuru-Guzik,  A. T. Bell,  N. A. Besley,  K. B. Bravaya,  B. R. Brooks,  
 D. Casanova,  Jeng-Da Chai,  S. Coriani,  C. J. Cramer,  
 A. E. DePrince, III,  R. A. DiStasio Jr.,  A. Dreuw,  B. D. Dunietz,  
 T. R. Furlani,  W. A. Goddard III,  S. Grimme,  S. Hammes-Schiffer,  
 T. Head-Gordon,  W. J. Hehre,  Chao-Ping Hsu,  T.-C. Jagau,  Yousung Jung,  
 A. Klamt,  Jing Kong,  D. S. Lambrecht,  WanZhen Liang,  N. J. Mayhall,  
 C. W. McCurdy,  J. B. Neaton,  C. Ochsenfeld,  J. A. Parkhill,  R. Peverati,  
 V. A. Rassolov,  Yihan Shao,  L. V. Slipchenko,  T. Stauch,  R. P. Steele,  
 J. E. Subotnik,  A. J. W. Thom,  A. Tkatchenko,  D. G. Truhlar,  
 T. Van Voorhis,  T. A. Wesolowski,  K. B. Whaley,  H. L. Woodcock III,  
 P. M. Zimmerman,  S. Faraji,  P. M. W. Gill,  M. Head-Gordon,  
 J. M. Herbert,  A. I. Krylov

 Contributors to earlier versions of Q-Chem not listed above: 
 R. D. Adamson,  B. Austin,  R. Baer,  J. Baker,  G. J. O. Beran,  
 K. Brandhorst,  S. T. Brown,  E. F. C. Byrd,  A. K. Chakraborty,  
 G. K. L. Chan,  Chun-Min Chang,  Yunqing Chen,  C.-L. Cheng,  
 Siu Hung Chien,  D. M. Chipman,  D. L. Crittenden,  H. Dachsel,  
 R. J. Doerksen,  A. D. Dutoi,  R. G. Edgar,  J. Fosso-Tande,  
 L. Fusti-Molnar,  D. Ghosh,  A. Ghysels,  A. Golubeva-Zadorozhnaya,  
 J. Gonthier,  M. S. Gordon,  S. R. Gwaltney,  G. Hawkins,  J. E. Herr,  
 A. Heyden,  S. Hirata,  E. G. Hohenstein,  G. Kedziora,  F. J. Keil,  
 C. Kelley,  Jihan Kim,  R. A. King,  R. Z. Khaliullin,  P. P. Korambath,  
 W. Kurlancheek,  A. Laurent,  A. M. Lee,  M. S. Lee,  S. V. Levchenko,  
 Ching Yeh Lin,  D. Liotard,  E. Livshits,  R. C. Lochan,  I. Lotan,  
 L. A. Martinez-Martinez,  P. E. Maslen,  N. Nair,  D. P. O'Neill,  
 D. Neuhauser,  E. Neuscamman,  C. M. Oana,  R. Olivares-Amaya,  R. Olson,  
 T. M. Perrine,  B. Peters,  P. A. Pieniazek,  A. Prociuk,  Y. M. Rhee,  
 J. Ritchie,  M. A. Rohrdanz,  E. Rosta,  N. J. Russ,  H. F. Schaefer III,  
 M. W. Schmidt,  N. E. Schultz,  S. Sharma,  N. Shenvi,  C. D. Sherrill,  
 A. C. Simmonett,  A. Sodt,  T. Stein,  D. Stuck,  K. S. Thanthiriwatte,  
 V. Vanovschi,  L. Vogt,  Tao Wang,  A. Warshel,  M. A. Watson,  
 C. F. Williams,  Q. Wu,  X. Xu,  Jun Yang,  W. Zhang,  Yan Zhao

 Please cite Q-Chem as follows:
 Y. Shao et al., Mol. Phys. 113, 184-215 (2015)
 DOI: 10.1080/00268976.2014.952696

 Q-Chem 5.4.0 for Intel X86 EM64T Linux

 Parts of Q-Chem use Armadillo 9.800.1 (Horizon Scraper).
 http://arma.sourceforge.net/

 Q-Chem begins on Sat Jul  9 20:29:48 2022  

 Host: 
0

     Scratch files written to ./qchem1605963//
 May1621 |scratch|qcdevops|jenkins|workspace|build_RNUM    
 Processing $rem in /cm/shared/apps/spack/cpu/opt/spack/linux-centos8-zen2/gcc-10.2.0/qchem-5.4-akfmr7b3t57bfs6qan3padb2wnb2i7cl/config/preferences:
 Processing $rem in /home/theleonzhang/.qchemrc:
 Symmetry turned off for PCM/SM12/SMD calculation
 Core orbitals will be frozen

 Checking the input file for inconsistencies... 	...done.

--------------------------------------------------------------
User input:
--------------------------------------------------------------
$molecule
0 1
C	-0.728625	-3.866725	0.264439
C	0.575519	-3.703963	-0.209794
C	1.002336	-2.357056	-0.364749
H	1.224165	-4.561092	-0.446060
C	0.000000	-1.440664	0.000000
S	-1.451336	-2.286957	0.528253
C	2.369885	-1.978743	-0.862253
H	2.976034	-2.878678	-1.082953
H	2.927887	-1.376015	-0.115513
H	2.317620	-1.375728	-1.792797
C	0.000000	0.000000	0.000000
C	0.661577	0.555087	1.099446
C	1.721724	1.444630	0.776721
H	0.379056	0.318032	2.136088
C	1.890772	1.586449	-0.612546
S	0.721935	0.605744	-1.486809
C	2.555004	2.143805	1.814609
H	2.228946	1.870211	2.836676
H	2.482605	3.247987	1.726239
H	3.629830	1.880735	1.726228
H	2.617927	2.196579	-1.161575
H	-0.745219	-4.392713	1.225465
H	-1.359038	-4.392347	-0.461378
H	-0.369273	-1.440391	-1.014907
$end

$rem
JOBTYPE		SP
EXCHANGE	HF
CORRELATION	pRIMP2
BASIS		cc-pvtz
METHOD		rimp2
AUX_BASIS	rimp2-cc-pvtz
SOLVENT_METHOD	PCM
PURECART	11111
SYMMETRY	false
MEM_TOTAL	110000
SCF_CONVERGENCE = 6
THRESH=10
$end



$solvent
dielectric 4.90
$end
--------------------------------------------------------------
 ----------------------------------------------------------------
             Standard Nuclear Orientation (Angstroms)
    I     Atom           X                Y                Z
 ----------------------------------------------------------------
    1      C      -0.7286250000    -3.8667250000     0.2644390000
    2      C       0.5755190000    -3.7039630000    -0.2097940000
    3      C       1.0023360000    -2.3570560000    -0.3647490000
    4      H       1.2241650000    -4.5610920000    -0.4460600000
    5      C       0.0000000000    -1.4406640000     0.0000000000
    6      S      -1.4513360000    -2.2869570000     0.5282530000
    7      C       2.3698850000    -1.9787430000    -0.8622530000
    8      H       2.9760340000    -2.8786780000    -1.0829530000
    9      H       2.9278870000    -1.3760150000    -0.1155130000
   10      H       2.3176200000    -1.3757280000    -1.7927970000
   11      C       0.0000000000     0.0000000000     0.0000000000
   12      C       0.6615770000     0.5550870000     1.0994460000
   13      C       1.7217240000     1.4446300000     0.7767210000
   14      H       0.3790560000     0.3180320000     2.1360880000
   15      C       1.8907720000     1.5864490000    -0.6125460000
   16      S       0.7219350000     0.6057440000    -1.4868090000
   17      C       2.5550040000     2.1438050000     1.8146090000
   18      H       2.2289460000     1.8702110000     2.8366760000
   19      H       2.4826050000     3.2479870000     1.7262390000
   20      H       3.6298300000     1.8807350000     1.7262280000
   21      H       2.6179270000     2.1965790000    -1.1615750000
   22      H      -0.7452190000    -4.3927130000     1.2254650000
   23      H      -1.3590380000    -4.3923470000    -0.4613780000
   24      H      -0.3692730000    -1.4403910000    -1.0149070000
 ----------------------------------------------------------------
 Nuclear Repulsion Energy =         895.04822573 hartrees
 There are       52 alpha and       52 beta electrons

 Q-Chem warning in module forms1/BasisType.C, line 2236:

 You are not using the predefined 5D/6D in this basis set.

 Requested basis set is cc-pVTZ
 There are 196 shells and 536 basis functions

 Total QAlloc Memory Limit 110000 MB
 Mega-Array Size       188 MB
 MEM_STATIC part       192 MB
 Discretize the solute cavity surface with Lebedev spheres
	Using 110 Lebedev grid points for each H atom
	Using 194 Lebedev grid points for other atoms
	Atomic van der Waals radii will be scaled by 1.20
 Remove points where switching function is < 1.0e-08
 Keep 1570 surface tesserae and discard 2078 interior tesserae
 Molecular Surface Area = 228.844 Angst**2
 Requested basis set is rimp2-cc-pVTZ
 There are 414 shells and 1414 basis functions
 A cutoff of  1.0D-10 yielded  14677 shell pairs
 There are    106763 function pairs (    137050 Cartesian)
 Smallest overlap matrix eigenvalue = 7.05E-05

 Scale SEOQF with 1.000000e-01/1.000000e-01/1.000000e-01

 Standard Electronic Orientation quadrupole field applied
 Nucleus-field energy     =     0.0000000313 hartrees
 Guess from superposition of atomic densities
 Warning:  Energy on first SCF cycle will be non-variational
 SAD guess density has 104.000000 electrons

 -----------------------------------------------------------------------
  General SCF calculation program by
  Eric Jon Sundstrom, Paul Horn, Yuezhi Mao, Dmitri Zuev, Alec White,
  David Stuck, Shaama M.S., Shane Yost, Joonho Lee, David Small,
  Daniel Levine, Susi Lehtola, Hugh Burton, Evgeny Epifanovsky,
  Bang C. Huynh
 -----------------------------------------------------------------------
 Hartree-Fock
 A restricted SCF calculation will be
 performed using DIIS
 SCF converges when DIIS error is below 1.0e-06
 ---------------------------------------
  Cycle       Energy         DIIS error
 ---------------------------------------
    1   -1186.1334945551      2.40e-02  
    2   -1180.5576794795      1.54e-03  
    3   -1180.6841281354      5.51e-04  
    4   -1180.6975736199      2.91e-04  
    5   -1180.7015571775      6.13e-05  
    6   -1180.7018339615      2.60e-05  
    7   -1180.7019149141      1.25e-05  
    8   -1180.7019405201      5.83e-06  
    9   -1180.7019481475      2.49e-06  
   10   -1180.7019494375      8.51e-07  Convergence criterion met
 ---------------------------------------
 SCF time:   CPU 618.39s  wall 620.00s 

************** Final PCM Free Energy Summary **************
 G_electrostatic  =      -0.00938184 hartree =      -5.88719355 kcal/mol
 G_cavitation     =       0.00000000 hartree =       0.00000000 kcal/mol
 G_dispersion     =       0.00000000 hartree =       0.00000000 kcal/mol
 G_repulsion      =       0.00000000 hartree =       0.00000000 kcal/mol
 --------------------------------------------------
 Non-electrostatic Free Energy =       0.00000000 hartree =       0.00000000 kcal/mol
 Total                         =      -0.00938184 hartree =      -5.88719355 kcal/mol
 --------------------------------------------------
 SCF Energy (H0 + V/2)                       =   -1180.70194944 
 Solute Internal Energy (H0)                 =   -1180.69256760 
 Total Free Energy (H0 + V/2 + non-elec)     =   -1180.70194944 hartree
                                             = -740901.65570019 kcal/mol
***********************************************************

 SCF   energy in the final basis set =    -1180.7019494375
 Total energy in the final basis set =    -1180.7019494375


 --------------------------------------------------------------
  Generalized many-body perturbation theory program
  by Joonho Lee, Fazle Rob, Xintian Feng, Evgeny Epifanovsky

 No regularization used 
 (reg. param. = 0.0000e+00)
  (P|Q)^-1/2 Time:  CPU 1.89 s  wall 1.90 s

 In RI-MP2 calculation: 
 # of frozen core orbitals: 20

 Components of the RIMP2 correlation energy:
        aaaa    correlation energy =        -0.2541738933 a.u.
        abab    correlation energy =        -1.5119477760 a.u.
        bbbb    correlation energy =        -0.2541738933 a.u.
        non-Brillouin singles      =        -0.0000000000 a.u.
        total same-spin energy     =        -0.5083477866 a.u.
        total opposite-spin energy =        -1.5119477760 a.u.

 Total  RIMP2   correlation energy =        -2.0202955626 a.u.
        RIMP2         total energy =     -1182.7222450001 a.u.

 RI-MP2 Energy Time:  CPU 81.63 s  wall 81.89 s
 
 --------------------------------------------------------------
 
                    Orbital Energies (a.u.)
 --------------------------------------------------------------
 
 Alpha MOs
 -- Occupied --
-91.9829 -91.9347 -11.2826 -11.2583 -11.2574 -11.2534 -11.2523 -11.2502
-11.2364 -11.2305 -11.2255 -11.2145  -8.9837  -8.9394  -6.6645  -6.6637
 -6.6634  -6.6208  -6.6198  -6.6186  -1.2019  -1.1539  -1.0592  -1.0210
 -1.0054  -0.9643  -0.9107  -0.9014  -0.8047  -0.7677  -0.7395  -0.7087
 -0.6500  -0.6286  -0.6135  -0.5884  -0.5801  -0.5726  -0.5702  -0.5537
 -0.5424  -0.5250  -0.5207  -0.5049  -0.4886  -0.4653  -0.4554  -0.4396
 -0.3505  -0.3432  -0.3166  -0.2721
 -- Virtual --
  0.0659   0.1331   0.1366   0.1525   0.1624   0.1661   0.1751   0.1856
  0.1863   0.1973   0.2031   0.2089   0.2249   0.2345   0.2422   0.2534
  0.2554   0.2616   0.2712   0.2875   0.2970   0.3261   0.3460   0.3541
  0.3603   0.3708   0.3782   0.3882   0.3946   0.3996   0.4138   0.4265
  0.4358   0.4452   0.4488   0.4574   0.4643   0.4755   0.4775   0.4902
  0.4974   0.5097   0.5235   0.5319   0.5372   0.5483   0.5505   0.5659
  0.5705   0.5761   0.5860   0.5981   0.6022   0.6119   0.6165   0.6192
  0.6229   0.6305   0.6353   0.6364   0.6423   0.6496   0.6532   0.6639
  0.6765   0.6797   0.6856   0.6899   0.7009   0.7049   0.7157   0.7294
  0.7348   0.7489   0.7609   0.7753   0.7782   0.7863   0.8057   0.8239
  0.8301   0.8468   0.8572   0.8694   0.8819   0.8893   0.9007   0.9126
  0.9252   0.9382   0.9520   0.9553   0.9746   1.0046   1.0107   1.0252
  1.0302   1.0339   1.0397   1.0523   1.0647   1.0666   1.0797   1.0824
  1.0920   1.1107   1.1288   1.1333   1.1380   1.1634   1.1730   1.1753
  1.1874   1.1903   1.2091   1.2178   1.2221   1.2302   1.2371   1.2466
  1.2533   1.2600   1.2705   1.2750   1.2868   1.2962   1.3046   1.3077
  1.3151   1.3378   1.3605   1.3662   1.3865   1.3952   1.4151   1.4229
  1.4268   1.4473   1.4545   1.4588   1.4768   1.4804   1.4920   1.4978
  1.4989   1.5080   1.5218   1.5281   1.5374   1.5522   1.5543   1.5584
  1.5645   1.5802   1.5836   1.5989   1.6074   1.6281   1.6424   1.6540
  1.6575   1.6710   1.6816   1.6909   1.7000   1.7162   1.7206   1.7488
  1.7559   1.7644   1.7682   1.7812   1.7990   1.8338   1.8415   1.8610
  1.8860   1.9140   1.9380   1.9473   1.9812   1.9840   1.9911   2.0073
  2.0302   2.0342   2.0568   2.0650   2.0777   2.1225   2.1322   2.1517
  2.1781   2.1896   2.2002   2.2259   2.2308   2.2473   2.2713   2.2754
  2.2941   2.3160   2.3300   2.3679   2.4129   2.4445   2.4587   2.4819
  2.5009   2.5052   2.5411   2.5457   2.5928   2.6039   2.6247   2.6351
  2.6385   2.6544   2.6706   2.6796   2.6932   2.7053   2.7098   2.7328
  2.7516   2.7614   2.7721   2.7881   2.7922   2.8049   2.8216   2.8363
  2.8397   2.8480   2.8613   2.8713   2.8991   2.9054   2.9152   2.9271
  2.9568   2.9717   2.9770   2.9944   3.0118   3.0154   3.0380   3.0484
  3.0560   3.0795   3.0911   3.1114   3.1131   3.1265   3.1364   3.1517
  3.1577   3.1602   3.1665   3.1835   3.1912   3.2085   3.2144   3.2246
  3.2393   3.2503   3.2540   3.2626   3.2803   3.2863   3.2868   3.3155
  3.3174   3.3225   3.3385   3.3403   3.3489   3.3575   3.3654   3.3733
  3.3751   3.3915   3.3952   3.4071   3.4184   3.4230   3.4344   3.4441
  3.4515   3.4656   3.4684   3.4762   3.4882   3.4921   3.5001   3.5085
  3.5197   3.5224   3.5383   3.5448   3.5616   3.5628   3.5788   3.5852
  3.6070   3.6222   3.6255   3.6296   3.6339   3.6480   3.6604   3.6649
  3.6819   3.6997   3.7117   3.7136   3.7240   3.7309   3.7349   3.7408
  3.7591   3.7629   3.7764   3.7880   3.7958   3.8042   3.8122   3.8143
  3.8505   3.8626   3.8697   3.8817   3.8905   3.8953   3.9153   3.9255
  3.9380   3.9513   3.9631   3.9796   3.9917   4.0020   4.0213   4.0215
  4.0313   4.0459   4.0557   4.0683   4.0868   4.0991   4.1071   4.1201
  4.1271   4.1365   4.1578   4.1693   4.1763   4.1853   4.1906   4.2084
  4.2203   4.2262   4.2344   4.2496   4.2637   4.2730   4.2767   4.2867
  4.2943   4.3080   4.3223   4.3367   4.3465   4.3646   4.3739   4.3806
  4.3903   4.3942   4.4019   4.4042   4.4223   4.4344   4.4420   4.4555
  4.4589   4.4608   4.4923   4.5001   4.5095   4.5221   4.5403   4.5594
  4.5783   4.5949   4.6091   4.6243   4.6375   4.6453   4.6608   4.6758
  4.6922   4.7302   4.7338   4.7643   4.7777   4.8138   4.8406   4.8510
  4.8806   4.8959   4.9051   4.9154   4.9369   4.9565   4.9777   4.9891
  5.0248   5.0457   5.0582   5.0982   5.1123   5.1331   5.1477   5.1777
  5.1882   5.2062   5.2309   5.2658   5.2869   5.3001   5.3107   5.3179
  5.3500   5.3702   5.3885   5.4048   5.4095   5.4250   5.4502   5.4552
  5.4750   5.5149   5.5309   5.5475   5.5510   5.5588   5.5800   5.5985
  5.6209   5.6254   5.6352   5.6743   5.6817   5.6950   5.7032   5.7205
  5.7673   5.7926   5.8161   5.9764   6.0092   6.0953   6.1385   6.1823
  6.1963   6.2310   6.2359   6.2584   6.2675   6.2989   6.3126   6.3229
  6.3895   6.4281   9.5070  10.3692  12.4817  12.8560  13.1731  13.9781
 14.0795  14.2452  14.3821  14.7662
 --------------------------------------------------------------
 
          Ground-State Mulliken Net Atomic Charges

     Atom                 Charge (a.u.)
  ----------------------------------------
      1 C                    -0.069760
      2 C                    -0.335831
      3 C                    -0.028426
      4 H                     0.174558
      5 C                     0.075267
      6 S                    -0.206640
      7 C                    -0.295900
      8 H                     0.117713
      9 H                     0.112838
     10 H                     0.113476
     11 C                    -0.140050
     12 C                    -0.149682
     13 C                    -0.009309
     14 H                     0.189860
     15 C                    -0.183978
     16 S                     0.014087
     17 C                    -0.269746
     18 H                     0.103693
     19 H                     0.109029
     20 H                     0.104760
     21 H                     0.201402
     22 H                     0.107827
     23 H                     0.104891
     24 H                     0.159919
  ----------------------------------------
  Sum of atomic charges =     0.000000

 -----------------------------------------------------------------
                    Cartesian Multipole Moments
 -----------------------------------------------------------------
    Charge (ESU x 10^10)
                -0.0000
    Dipole Moment (Debye)
         X       4.3640      Y       1.1123      Z      -0.0407
       Tot       4.5037
    Quadrupole Moments (Debye-Ang)
        XX     -84.8699     XY       3.1079     YY     -81.7761
        XZ       0.6339     YZ       3.1556     ZZ     -85.4607
    Octopole Moments (Debye-Ang^2)
       XXX    -141.0719    XXY      86.2966    XYY     -42.7296
       YYY     185.8072    XXZ      -6.8508    XYZ      -1.6193
       YYZ      -4.4537    XZZ     -47.1590    YZZ      79.2345
       ZZZ       6.0829
    Hexadecapole Moments (Debye-Ang^3)
      XXXX   -1190.0882   XXXY    -235.3183   XXYY    -584.0990
      XYYY    -220.1490   YYYY   -2336.8666   XXXZ       6.3336
      XXYZ     -16.6996   XYYZ      -6.7967   YYYZ     -62.2150
      XXZZ    -297.7136   XYZZ     -71.3185   YYZZ    -528.6449
      XZZZ      20.5961   YZZZ     -61.5407   ZZZZ    -602.6488
 -----------------------------------------------------------------
 Total job time:  704.72s(wall), 700.93s(cpu) 
 Sat Jul  9 20:41:32 2022

        *************************************************************
        *                                                           *
        *  Thank you very much for using Q-Chem.  Have a nice day.  *
        *                                                           *
        *************************************************************


remove work dirs ./qchem1605963.0 -- ./qchem1605963.-1
rm -rf ./qchem1605963
