You are running Q-Chem version: 5.4.0

#
# job setting
#
local host:  exp-2-27
current dir: /expanse/lustre/scratch/theleonzhang/temp_project/Hydrogenated_Rotation_Test
input file:  Methylthiophene_Phi_15_Theta_330_Methylthiophene_Hydrogenated.qcin
output file: 
nprocs     : 0
nthreads   : 1
#
# qchem installation setting
#
QC:          /cm/shared/apps/spack/cpu/opt/spack/linux-centos8-zen2/gcc-10.2.0/qchem-5.4-akfmr7b3t57bfs6qan3padb2wnb2i7cl
QCAUX:       /cm/shared/apps/spack/cpu/opt/spack/linux-centos8-zen2/gcc-10.2.0/qchem-5.4-akfmr7b3t57bfs6qan3padb2wnb2i7cl/qcaux
QCPROG:      /cm/shared/apps/spack/cpu/opt/spack/linux-centos8-zen2/gcc-10.2.0/qchem-5.4-akfmr7b3t57bfs6qan3padb2wnb2i7cl/exe/qcprog.exe_s
QCPROG_S:    /cm/shared/apps/spack/cpu/opt/spack/linux-centos8-zen2/gcc-10.2.0/qchem-5.4-akfmr7b3t57bfs6qan3padb2wnb2i7cl/exe/qcprog.exe_s
PARALLEL:    -DSERIAL
QCMPI:       mpich
#
# qchem directory setting
#
qcrun:       qchem1700497
QCSCRATCH:   .
QCLOCALSCR:  
QCTMPDIR:    .
QCFILEPREF:  ./qchem1700497
QCSAVEDIR:   
workdirs:    ./qchem1700497
workdir0:    ./qchem1700497
partmpdirs =  
#
# parallel setting
#
QCRSH:           ssh
QCMPI:           mpich
QCMPIRUN:        /cm/shared/apps/spack/cpu/opt/spack/linux-centos8-zen2/gcc-10.2.0/qchem-5.4-akfmr7b3t57bfs6qan3padb2wnb2i7cl/bin/mpi/mpirun_qchem
QCMACHINEFILE:   ./qchem1700497/hostfile

#
# env setting
#
exported envs:   QC QCAUX QCSCRATCH QCRUNNAME QCFILEPREF QCPROG QCPROG_S GUIFILE

Running Job 1 of 1 Methylthiophene_Phi_15_Theta_330_Methylthiophene_Hydrogenated.qcin
qchem Methylthiophene_Phi_15_Theta_330_Methylthiophene_Hydrogenated.qcin_1700497.0 ./qchem1700497/ 0
/cm/shared/apps/spack/cpu/opt/spack/linux-centos8-zen2/gcc-10.2.0/qchem-5.4-akfmr7b3t57bfs6qan3padb2wnb2i7cl/exe/qcprog.exe_s Methylthiophene_Phi_15_Theta_330_Methylthiophene_Hydrogenated.qcin_1700497.0 ./qchem1700497/
                  Welcome to Q-Chem
     A Quantum Leap Into The Future Of Chemistry


 Q-Chem 5.4, Q-Chem, Inc., Pleasanton, CA (2021)

 License issued to: University of California, San Diego (site)

 E. Epifanovsky,  A. T. B. Gilbert,  Xintian Feng,  Joonho Lee,  Yuezhi Mao,  
 N. Mardirossian,  P. Pokhilko,  A. White,  M. Wormit,  M. P. Coons,  
 A. L. Dempwolff,  Zhengting Gan,  D. Hait,  P. R. Horn,  L. D. Jacobson,  
 I. Kaliman,  J. Kussmann,  A. W. Lange,  Ka Un Lao,  D. S. Levine,  Jie Liu,  
 S. C. McKenzie,  A. F. Morrison,  K. Nanda,  F. Plasser,  D. R. Rehn,  
 M. L. Vidal,  Zhi-Qiang You,  Ying Zhu,  B. Alam,  B. Albrecht,  
 A. Aldossary,  E. Alguire,  J. H. Andersen,  D. Barton,  K. Begam,  A. Behn,  
 Y. A. Bernard,  E. J. Berquist,  H. Burton,  A. Carreras,  K. Carter-Fenk,  
 R. Chakraborty,  A. D. Chien,  K. D. Closser,  V. Cofer-Shabica,  
 S. Dasgupta,  Jia Deng,  M. de Wergifosse,  M. Diedenhofen,  Hainam Do,  
 S. Ehlert,  Po-Tung Fang,  S. Fatehi,  Qingguo Feng,  J. Gayvert,  
 Qinghui Ge,  G. Gidofalvi,  M. Goldey,  J. Gomes,  C. Gonzalez-Espinoza,  
 S. Gulania,  A. Gunina,  M. W. D. Hanson-Heine,  P. H. P. Harbach,  
 A. W. Hauser,  M. F. Herbst,  M. Hernandez Vera,  M. Hodecker,  
 Z. C. Holden,  S. Houck,  Xunkun Huang,  Kerwin Hui,  B. C. Huynh,  
 M. Ivanov,  Hyunjun Ji,  Hanjie Jiang,  B. Kaduk,  S. Kaehler,  
 K. Khistyaev,  Jaehoon Kim,  P. Klunzinger,  Z. Koczor-Benda,  
 Joong Hoon Koh,  D. Kosenkov,  L. Koulias,  T. Kowalczyk,  C. M. Krauter,  
 K. Kue,  A. Kunitsa,  T. Kus,  A. Landau,  K. V. Lawler,  D. Lefrancois,  
 S. Lehtola,  Rain Li,  Yi-Pei Li,  Jiashu Liang,  M. Liebenthal,  
 Hung-Hsuan Lin,  You-Sheng Lin,  Fenglai Liu,  Kuan-Yu Liu,  
 M. Loipersberger,  A. Luenser,  A. Manjanath,  P. Manohar,  E. Mansoor,  
 S. F. Manzer,  Shan-Ping Mao,  A. V. Marenich,  T. Markovich,  S. Mason,  
 S. A. Maurer,  P. F. McLaughlin,  M. F. S. J. Menger,  J.-M. Mewes,  
 S. A. Mewes,  P. Morgante,  J. W. Mullinax,  T. S. Nguyen-Beck,  
 K. J. Oosterbaan,  G. Paran,  Alexander C. Paul,  Suranjan K. Paul,  
 F. Pavosevic,  Zheng Pei,  S. Prager,  E. I. Proynov,  E. Ramos,  B. Rana,  
 A. E. Rask,  A. Rettig,  R. M. Richard,  F. Rob,  E. Rossomme,  T. Scheele,  
 M. Scheurer,  M. Schneider,  N. Sergueev,  S. M. Sharada,  W. Skomorowski,  
 D. W. Small,  C. J. Stein,  Yu-Chuan Su,  E. J. Sundstrom,  Zhen Tao,  
 J. Thirman,  T. Tsuchimochi,  N. M. Tubman,  S. P. Veccham,  O. Vydrov,  
 J. Wenzel,  J. Witte,  A. Yamada,  Kun Yao,  S. Yeganeh,  S. R. Yost,  
 A. Zech,  Igor Ying Zhang,  Xing Zhang,  Yu Zhang,  D. Zuev,  
 A. Aspuru-Guzik,  A. T. Bell,  N. A. Besley,  K. B. Bravaya,  B. R. Brooks,  
 D. Casanova,  Jeng-Da Chai,  S. Coriani,  C. J. Cramer,  
 A. E. DePrince, III,  R. A. DiStasio Jr.,  A. Dreuw,  B. D. Dunietz,  
 T. R. Furlani,  W. A. Goddard III,  S. Grimme,  S. Hammes-Schiffer,  
 T. Head-Gordon,  W. J. Hehre,  Chao-Ping Hsu,  T.-C. Jagau,  Yousung Jung,  
 A. Klamt,  Jing Kong,  D. S. Lambrecht,  WanZhen Liang,  N. J. Mayhall,  
 C. W. McCurdy,  J. B. Neaton,  C. Ochsenfeld,  J. A. Parkhill,  R. Peverati,  
 V. A. Rassolov,  Yihan Shao,  L. V. Slipchenko,  T. Stauch,  R. P. Steele,  
 J. E. Subotnik,  A. J. W. Thom,  A. Tkatchenko,  D. G. Truhlar,  
 T. Van Voorhis,  T. A. Wesolowski,  K. B. Whaley,  H. L. Woodcock III,  
 P. M. Zimmerman,  S. Faraji,  P. M. W. Gill,  M. Head-Gordon,  
 J. M. Herbert,  A. I. Krylov

 Contributors to earlier versions of Q-Chem not listed above: 
 R. D. Adamson,  B. Austin,  R. Baer,  J. Baker,  G. J. O. Beran,  
 K. Brandhorst,  S. T. Brown,  E. F. C. Byrd,  A. K. Chakraborty,  
 G. K. L. Chan,  Chun-Min Chang,  Yunqing Chen,  C.-L. Cheng,  
 Siu Hung Chien,  D. M. Chipman,  D. L. Crittenden,  H. Dachsel,  
 R. J. Doerksen,  A. D. Dutoi,  R. G. Edgar,  J. Fosso-Tande,  
 L. Fusti-Molnar,  D. Ghosh,  A. Ghysels,  A. Golubeva-Zadorozhnaya,  
 J. Gonthier,  M. S. Gordon,  S. R. Gwaltney,  G. Hawkins,  J. E. Herr,  
 A. Heyden,  S. Hirata,  E. G. Hohenstein,  G. Kedziora,  F. J. Keil,  
 C. Kelley,  Jihan Kim,  R. A. King,  R. Z. Khaliullin,  P. P. Korambath,  
 W. Kurlancheek,  A. Laurent,  A. M. Lee,  M. S. Lee,  S. V. Levchenko,  
 Ching Yeh Lin,  D. Liotard,  E. Livshits,  R. C. Lochan,  I. Lotan,  
 L. A. Martinez-Martinez,  P. E. Maslen,  N. Nair,  D. P. O'Neill,  
 D. Neuhauser,  E. Neuscamman,  C. M. Oana,  R. Olivares-Amaya,  R. Olson,  
 T. M. Perrine,  B. Peters,  P. A. Pieniazek,  A. Prociuk,  Y. M. Rhee,  
 J. Ritchie,  M. A. Rohrdanz,  E. Rosta,  N. J. Russ,  H. F. Schaefer III,  
 M. W. Schmidt,  N. E. Schultz,  S. Sharma,  N. Shenvi,  C. D. Sherrill,  
 A. C. Simmonett,  A. Sodt,  T. Stein,  D. Stuck,  K. S. Thanthiriwatte,  
 V. Vanovschi,  L. Vogt,  Tao Wang,  A. Warshel,  M. A. Watson,  
 C. F. Williams,  Q. Wu,  X. Xu,  Jun Yang,  W. Zhang,  Yan Zhao

 Please cite Q-Chem as follows:
 Y. Shao et al., Mol. Phys. 113, 184-215 (2015)
 DOI: 10.1080/00268976.2014.952696

 Q-Chem 5.4.0 for Intel X86 EM64T Linux

 Parts of Q-Chem use Armadillo 9.800.1 (Horizon Scraper).
 http://arma.sourceforge.net/

 Q-Chem begins on Sun Jul 10 05:41:18 2022  

 Host: 
0

     Scratch files written to ./qchem1700497//
 May1621 |scratch|qcdevops|jenkins|workspace|build_RNUM    
 Processing $rem in /cm/shared/apps/spack/cpu/opt/spack/linux-centos8-zen2/gcc-10.2.0/qchem-5.4-akfmr7b3t57bfs6qan3padb2wnb2i7cl/config/preferences:
 Processing $rem in /home/theleonzhang/.qchemrc:
 Symmetry turned off for PCM/SM12/SMD calculation
 Core orbitals will be frozen

 Checking the input file for inconsistencies... 	...done.

--------------------------------------------------------------
User input:
--------------------------------------------------------------
$molecule
0 1
C	0.386946	-3.866725	0.671636
C	-0.306544	-3.703963	-0.530345
C	-0.533261	-2.357056	-0.923770
H	-0.651857	-4.561092	-1.128109
C	0.000000	-1.440664	0.000000
S	0.772250	-2.286957	1.337557
C	-1.260680	-1.978743	-2.184153
H	-1.583283	-2.878678	-2.742769
H	-0.622180	-1.376015	-2.863347
H	-2.168011	-1.375728	-1.971094
C	0.000000	0.000000	0.000000
C	0.223548	0.834165	1.099446
C	0.581748	2.170912	0.776721
H	0.128089	0.477934	2.136088
C	0.638880	2.384045	-0.612546
S	0.243934	0.910282	-1.486809
C	0.863301	3.221592	1.814609
H	0.753137	2.810458	2.836676
H	0.170663	4.084559	1.726239
H	1.894637	3.622593	1.726228
H	0.884575	3.300913	-1.161575
H	1.336254	-4.392713	0.521098
H	-0.218374	-4.392347	1.418509
H	-0.935365	-1.440391	0.539900
$end

$rem
JOBTYPE		SP
EXCHANGE	HF
CORRELATION	pRIMP2
BASIS		cc-pvtz
METHOD		rimp2
AUX_BASIS	rimp2-cc-pvtz
SOLVENT_METHOD	PCM
PURECART	11111
SYMMETRY	false
MEM_TOTAL	110000
SCF_CONVERGENCE = 6
THRESH=10
$end



$solvent
dielectric 4.90
$end
--------------------------------------------------------------
 ----------------------------------------------------------------
             Standard Nuclear Orientation (Angstroms)
    I     Atom           X                Y                Z
 ----------------------------------------------------------------
    1      C       0.3869460000    -3.8667250000     0.6716360000
    2      C      -0.3065440000    -3.7039630000    -0.5303450000
    3      C      -0.5332610000    -2.3570560000    -0.9237700000
    4      H      -0.6518570000    -4.5610920000    -1.1281090000
    5      C       0.0000000000    -1.4406640000     0.0000000000
    6      S       0.7722500000    -2.2869570000     1.3375570000
    7      C      -1.2606800000    -1.9787430000    -2.1841530000
    8      H      -1.5832830000    -2.8786780000    -2.7427690000
    9      H      -0.6221800000    -1.3760150000    -2.8633470000
   10      H      -2.1680110000    -1.3757280000    -1.9710940000
   11      C       0.0000000000     0.0000000000     0.0000000000
   12      C       0.2235480000     0.8341650000     1.0994460000
   13      C       0.5817480000     2.1709120000     0.7767210000
   14      H       0.1280890000     0.4779340000     2.1360880000
   15      C       0.6388800000     2.3840450000    -0.6125460000
   16      S       0.2439340000     0.9102820000    -1.4868090000
   17      C       0.8633010000     3.2215920000     1.8146090000
   18      H       0.7531370000     2.8104580000     2.8366760000
   19      H       0.1706630000     4.0845590000     1.7262390000
   20      H       1.8946370000     3.6225930000     1.7262280000
   21      H       0.8845750000     3.3009130000    -1.1615750000
   22      H       1.3362540000    -4.3927130000     0.5210980000
   23      H      -0.2183740000    -4.3923470000     1.4185090000
   24      H      -0.9353650000    -1.4403910000     0.5399000000
 ----------------------------------------------------------------
 Nuclear Repulsion Energy =         875.99078696 hartrees
 There are       52 alpha and       52 beta electrons

 Q-Chem warning in module forms1/BasisType.C, line 2236:

 You are not using the predefined 5D/6D in this basis set.

 Requested basis set is cc-pVTZ
 There are 196 shells and 536 basis functions

 Total QAlloc Memory Limit 110000 MB
 Mega-Array Size       188 MB
 MEM_STATIC part       192 MB
 Discretize the solute cavity surface with Lebedev spheres
	Using 110 Lebedev grid points for each H atom
	Using 194 Lebedev grid points for other atoms
	Atomic van der Waals radii will be scaled by 1.20
 Remove points where switching function is < 1.0e-08
 Keep 1583 surface tesserae and discard 2065 interior tesserae
 Molecular Surface Area = 232.628 Angst**2
 Requested basis set is rimp2-cc-pVTZ
 There are 414 shells and 1414 basis functions
 A cutoff of  1.0D-10 yielded  13863 shell pairs
 There are    100527 function pairs (    128921 Cartesian)
 Smallest overlap matrix eigenvalue = 5.92E-05

 Scale SEOQF with 1.000000e-01/1.000000e-01/1.000000e-01

 Standard Electronic Orientation quadrupole field applied
 Nucleus-field energy     =     0.0000000247 hartrees
 Guess from superposition of atomic densities
 Warning:  Energy on first SCF cycle will be non-variational
 SAD guess density has 104.000000 electrons

 -----------------------------------------------------------------------
  General SCF calculation program by
  Eric Jon Sundstrom, Paul Horn, Yuezhi Mao, Dmitri Zuev, Alec White,
  David Stuck, Shaama M.S., Shane Yost, Joonho Lee, David Small,
  Daniel Levine, Susi Lehtola, Hugh Burton, Evgeny Epifanovsky,
  Bang C. Huynh
 -----------------------------------------------------------------------
 Hartree-Fock
 A restricted SCF calculation will be
 performed using DIIS
 SCF converges when DIIS error is below 1.0e-06
 ---------------------------------------
  Cycle       Energy         DIIS error
 ---------------------------------------
    1   -1186.0381598083      2.39e-02  
    2   -1180.6090817740      1.57e-03  
    3   -1180.7340297262      6.36e-04  
    4   -1180.7491582779      3.48e-04  
    5   -1180.7546939972      5.84e-05  
    6   -1180.7549370121      2.43e-05  
    7   -1180.7549934709      8.57e-06  
    8   -1180.7550057094      4.16e-06  
    9   -1180.7550084505      1.42e-06  
   10   -1180.7550088794      5.10e-07  Convergence criterion met
 ---------------------------------------
 SCF time:   CPU 571.93s  wall 575.00s 

************** Final PCM Free Energy Summary **************
 G_electrostatic  =      -0.00844523 hartree =      -5.29945935 kcal/mol
 G_cavitation     =       0.00000000 hartree =       0.00000000 kcal/mol
 G_dispersion     =       0.00000000 hartree =       0.00000000 kcal/mol
 G_repulsion      =       0.00000000 hartree =       0.00000000 kcal/mol
 --------------------------------------------------
 Non-electrostatic Free Energy =       0.00000000 hartree =       0.00000000 kcal/mol
 Total                         =      -0.00844523 hartree =      -5.29945935 kcal/mol
 --------------------------------------------------
 SCF Energy (H0 + V/2)                       =   -1180.75500888 
 Solute Internal Energy (H0)                 =   -1180.74656365 
 Total Free Energy (H0 + V/2 + non-elec)     =   -1180.75500888 hartree
                                             = -740934.95100252 kcal/mol
***********************************************************

 SCF   energy in the final basis set =    -1180.7550088794
 Total energy in the final basis set =    -1180.7550088794


 --------------------------------------------------------------
  Generalized many-body perturbation theory program
  by Joonho Lee, Fazle Rob, Xintian Feng, Evgeny Epifanovsky

 No regularization used 
 (reg. param. = 0.0000e+00)
  (P|Q)^-1/2 Time:  CPU 1.94 s  wall 1.95 s

 In RI-MP2 calculation: 
 # of frozen core orbitals: 20

 Components of the RIMP2 correlation energy:
        aaaa    correlation energy =        -0.2516972252 a.u.
        abab    correlation energy =        -1.5036611664 a.u.
        bbbb    correlation energy =        -0.2516972252 a.u.
        non-Brillouin singles      =        -0.0000000000 a.u.
        total same-spin energy     =        -0.5033944505 a.u.
        total opposite-spin energy =        -1.5036611664 a.u.

 Total  RIMP2   correlation energy =        -2.0070556169 a.u.
        RIMP2         total energy =     -1182.7620644963 a.u.

 RI-MP2 Energy Time:  CPU 80.67 s  wall 80.96 s
 
 --------------------------------------------------------------
 
                    Orbital Energies (a.u.)
 --------------------------------------------------------------
 
 Alpha MOs
 -- Occupied --
-91.9813 -91.9450 -11.2868 -11.2649 -11.2585 -11.2570 -11.2508 -11.2428
-11.2352 -11.2330 -11.2281 -11.2218  -8.9813  -8.9496  -6.6622  -6.6616
 -6.6610  -6.6310  -6.6299  -6.6286  -1.2011  -1.1528  -1.0598  -1.0278
 -1.0073  -0.9567  -0.9153  -0.9013  -0.8154  -0.7703  -0.7222  -0.7014
 -0.6614  -0.6454  -0.6108  -0.5886  -0.5822  -0.5741  -0.5678  -0.5538
 -0.5418  -0.5342  -0.5149  -0.5088  -0.4882  -0.4823  -0.4584  -0.4479
 -0.3575  -0.3425  -0.3235  -0.2661
 -- Virtual --
  0.0980   0.1324   0.1439   0.1484   0.1584   0.1697   0.1771   0.1832
  0.1931   0.1977   0.2050   0.2082   0.2271   0.2320   0.2391   0.2411
  0.2544   0.2646   0.2755   0.2988   0.3282   0.3360   0.3485   0.3583
  0.3680   0.3782   0.3831   0.3925   0.4007   0.4106   0.4146   0.4259
  0.4386   0.4540   0.4586   0.4656   0.4732   0.4753   0.4813   0.5045
  0.5055   0.5173   0.5257   0.5324   0.5337   0.5421   0.5428   0.5501
  0.5630   0.5758   0.5782   0.6003   0.6061   0.6122   0.6143   0.6173
  0.6221   0.6253   0.6337   0.6374   0.6403   0.6447   0.6460   0.6556
  0.6624   0.6755   0.6843   0.6930   0.6971   0.7072   0.7192   0.7243
  0.7355   0.7502   0.7573   0.7815   0.7945   0.8032   0.8074   0.8193
  0.8345   0.8468   0.8554   0.8687   0.8834   0.8963   0.9002   0.9161
  0.9252   0.9395   0.9437   0.9606   0.9766   0.9894   1.0019   1.0117
  1.0208   1.0263   1.0377   1.0490   1.0554   1.0658   1.0756   1.0834
  1.0906   1.0971   1.1064   1.1189   1.1421   1.1502   1.1574   1.1640
  1.1680   1.1861   1.1974   1.2051   1.2215   1.2258   1.2324   1.2427
  1.2521   1.2725   1.2754   1.2799   1.2841   1.2881   1.3009   1.3112
  1.3200   1.3274   1.3369   1.3590   1.3891   1.3960   1.3992   1.4080
  1.4178   1.4299   1.4430   1.4615   1.4697   1.4754   1.4844   1.4965
  1.5053   1.5136   1.5211   1.5269   1.5327   1.5374   1.5513   1.5595
  1.5640   1.5800   1.5922   1.5952   1.6087   1.6215   1.6324   1.6386
  1.6549   1.6669   1.6793   1.6856   1.6974   1.7207   1.7216   1.7392
  1.7415   1.7589   1.7759   1.7992   1.8120   1.8219   1.8319   1.8507
  1.8840   1.9198   1.9329   1.9404   1.9539   1.9734   1.9860   2.0073
  2.0168   2.0216   2.0412   2.0585   2.0717   2.0917   2.1540   2.1610
  2.1849   2.2008   2.2110   2.2197   2.2332   2.2523   2.2724   2.2764
  2.2952   2.3148   2.3236   2.3674   2.4103   2.4284   2.4574   2.4745
  2.4961   2.5094   2.5354   2.5582   2.5805   2.5882   2.5958   2.6177
  2.6355   2.6498   2.6547   2.6642   2.6804   2.6891   2.6997   2.7257
  2.7435   2.7488   2.7618   2.7710   2.7747   2.7804   2.7947   2.8173
  2.8233   2.8409   2.8535   2.8872   2.8952   2.9029   2.9162   2.9245
  2.9469   2.9502   2.9670   2.9758   2.9962   3.0130   3.0286   3.0399
  3.0515   3.0789   3.0864   3.1007   3.1126   3.1136   3.1255   3.1396
  3.1488   3.1584   3.1692   3.1730   3.1775   3.1935   3.2133   3.2222
  3.2266   3.2455   3.2495   3.2538   3.2727   3.2814   3.2904   3.3007
  3.3061   3.3246   3.3283   3.3376   3.3401   3.3486   3.3547   3.3659
  3.3774   3.3818   3.3913   3.4009   3.4073   3.4156   3.4196   3.4250
  3.4350   3.4448   3.4589   3.4720   3.4726   3.4862   3.4982   3.5004
  3.5131   3.5189   3.5245   3.5445   3.5512   3.5588   3.5686   3.5724
  3.5908   3.5960   3.6130   3.6261   3.6278   3.6413   3.6489   3.6617
  3.6698   3.6809   3.6912   3.7028   3.7172   3.7242   3.7283   3.7412
  3.7424   3.7543   3.7701   3.7798   3.7803   3.7925   3.8081   3.8100
  3.8278   3.8334   3.8544   3.8606   3.8739   3.8877   3.9111   3.9133
  3.9364   3.9424   3.9470   3.9730   3.9798   3.9812   4.0037   4.0100
  4.0288   4.0413   4.0498   4.0516   4.0710   4.0867   4.0937   4.1033
  4.1221   4.1350   4.1421   4.1510   4.1634   4.1662   4.1849   4.2090
  4.2139   4.2145   4.2306   4.2385   4.2475   4.2740   4.2805   4.2828
  4.2853   4.2975   4.3184   4.3322   4.3473   4.3503   4.3560   4.3651
  4.3728   4.3880   4.4029   4.4082   4.4108   4.4198   4.4271   4.4533
  4.4608   4.4727   4.4810   4.4889   4.5110   4.5266   4.5473   4.5835
  4.5895   4.5942   4.6053   4.6248   4.6282   4.6429   4.6657   4.6897
  4.7040   4.7195   4.7358   4.7543   4.7815   4.8080   4.8259   4.8482
  4.8507   4.8687   4.8844   4.9003   4.9167   4.9586   4.9724   4.9865
  5.0191   5.0525   5.0664   5.1009   5.1143   5.1254   5.1542   5.1647
  5.1943   5.2223   5.2442   5.2648   5.2798   5.2897   5.3063   5.3180
  5.3426   5.3705   5.3780   5.3880   5.4095   5.4212   5.4404   5.4572
  5.4695   5.5080   5.5167   5.5418   5.5555   5.5574   5.5701   5.5831
  5.6233   5.6340   5.6517   5.6686   5.6800   5.7013   5.7088   5.7347
  5.7579   5.7866   5.8404   5.9850   6.0201   6.1067   6.1326   6.1420
  6.2170   6.2248   6.2283   6.2495   6.2559   6.2850   6.3041   6.3248
  6.3895   6.4948   9.5980  10.7405  12.0830  12.9915  13.1854  13.9430
 14.1337  14.2629  14.3517  14.6882
 --------------------------------------------------------------
 
          Ground-State Mulliken Net Atomic Charges

     Atom                 Charge (a.u.)
  ----------------------------------------
      1 C                    -0.077624
      2 C                    -0.321677
      3 C                    -0.045436
      4 H                     0.178077
      5 C                     0.126098
      6 S                    -0.176862
      7 C                    -0.294237
      8 H                     0.117768
      9 H                     0.111119
     10 H                     0.111940
     11 C                    -0.025710
     12 C                    -0.328196
     13 C                     0.053306
     14 H                     0.181353
     15 C                    -0.268416
     16 S                     0.010877
     17 C                    -0.272934
     18 H                     0.102700
     19 H                     0.107879
     20 H                     0.109138
     21 H                     0.194487
     22 H                     0.113515
     23 H                     0.110665
     24 H                     0.182171
  ----------------------------------------
  Sum of atomic charges =     0.000000

 -----------------------------------------------------------------
                    Cartesian Multipole Moments
 -----------------------------------------------------------------
    Charge (ESU x 10^10)
                -0.0000
    Dipole Moment (Debye)
         X      -1.5875      Y      -0.1581      Z      -0.1923
       Tot       1.6069
    Quadrupole Moments (Debye-Ang)
        XX     -91.2436     XY       5.6089     YY     -73.9710
        XZ       0.3973     YZ       3.5173     ZZ     -85.4934
    Octopole Moments (Debye-Ang^2)
       XXX     -54.3946    XXY      48.5016    XYY     -10.1595
       YYY     121.2102    XXZ      -2.1791    XYZ      -2.6376
       YYZ      -0.7035    XZZ     -19.7388    YZZ      52.0554
       ZZZ       0.2856
    Hexadecapole Moments (Debye-Ang^3)
      XXXX    -353.0896   XXXY    -124.8575   XXYY    -563.4380
      XYYY     -95.3572   YYYY   -2722.3846   XXXZ    -150.2428
      XXYZ     -22.7954   XYYZ     -39.1541   YYYZ    -105.0189
      XXZZ    -223.0720   XYZZ     -19.2866   YYZZ    -632.7324
      XZZZ    -143.2202   YZZZ     -71.5572   ZZZZ    -960.6595
 -----------------------------------------------------------------
 Total job time:  659.30s(wall), 653.51s(cpu) 
 Sun Jul 10 05:52:17 2022

        *************************************************************
        *                                                           *
        *  Thank you very much for using Q-Chem.  Have a nice day.  *
        *                                                           *
        *************************************************************


remove work dirs ./qchem1700497.0 -- ./qchem1700497.-1
rm -rf ./qchem1700497
