You are running Q-Chem version: 5.4.0

#
# job setting
#
local host:  exp-1-29
current dir: /expanse/lustre/scratch/theleonzhang/temp_project/Hydrogenated_Rotation_Test
input file:  Methylthiophene_Phi_50_Theta_20_Methylthiophene_Hydrogenated.qcin
output file: 
nprocs     : 0
nthreads   : 1
#
# qchem installation setting
#
QC:          /cm/shared/apps/spack/cpu/opt/spack/linux-centos8-zen2/gcc-10.2.0/qchem-5.4-akfmr7b3t57bfs6qan3padb2wnb2i7cl
QCAUX:       /cm/shared/apps/spack/cpu/opt/spack/linux-centos8-zen2/gcc-10.2.0/qchem-5.4-akfmr7b3t57bfs6qan3padb2wnb2i7cl/qcaux
QCPROG:      /cm/shared/apps/spack/cpu/opt/spack/linux-centos8-zen2/gcc-10.2.0/qchem-5.4-akfmr7b3t57bfs6qan3padb2wnb2i7cl/exe/qcprog.exe_s
QCPROG_S:    /cm/shared/apps/spack/cpu/opt/spack/linux-centos8-zen2/gcc-10.2.0/qchem-5.4-akfmr7b3t57bfs6qan3padb2wnb2i7cl/exe/qcprog.exe_s
PARALLEL:    -DSERIAL
QCMPI:       mpich
#
# qchem directory setting
#
qcrun:       qchem1586958
QCSCRATCH:   .
QCLOCALSCR:  
QCTMPDIR:    .
QCFILEPREF:  ./qchem1586958
QCSAVEDIR:   
workdirs:    ./qchem1586958
workdir0:    ./qchem1586958
partmpdirs =  
#
# parallel setting
#
QCRSH:           ssh
QCMPI:           mpich
QCMPIRUN:        /cm/shared/apps/spack/cpu/opt/spack/linux-centos8-zen2/gcc-10.2.0/qchem-5.4-akfmr7b3t57bfs6qan3padb2wnb2i7cl/bin/mpi/mpirun_qchem
QCMACHINEFILE:   ./qchem1586958/hostfile

#
# env setting
#
exported envs:   QC QCAUX QCSCRATCH QCRUNNAME QCFILEPREF QCPROG QCPROG_S GUIFILE

Running Job 1 of 1 Methylthiophene_Phi_50_Theta_20_Methylthiophene_Hydrogenated.qcin
qchem Methylthiophene_Phi_50_Theta_20_Methylthiophene_Hydrogenated.qcin_1586958.0 ./qchem1586958/ 0
/cm/shared/apps/spack/cpu/opt/spack/linux-centos8-zen2/gcc-10.2.0/qchem-5.4-akfmr7b3t57bfs6qan3padb2wnb2i7cl/exe/qcprog.exe_s Methylthiophene_Phi_50_Theta_20_Methylthiophene_Hydrogenated.qcin_1586958.0 ./qchem1586958/
                  Welcome to Q-Chem
     A Quantum Leap Into The Future Of Chemistry


 Q-Chem 5.4, Q-Chem, Inc., Pleasanton, CA (2021)

 License issued to: University of California, San Diego (site)

 E. Epifanovsky,  A. T. B. Gilbert,  Xintian Feng,  Joonho Lee,  Yuezhi Mao,  
 N. Mardirossian,  P. Pokhilko,  A. White,  M. Wormit,  M. P. Coons,  
 A. L. Dempwolff,  Zhengting Gan,  D. Hait,  P. R. Horn,  L. D. Jacobson,  
 I. Kaliman,  J. Kussmann,  A. W. Lange,  Ka Un Lao,  D. S. Levine,  Jie Liu,  
 S. C. McKenzie,  A. F. Morrison,  K. Nanda,  F. Plasser,  D. R. Rehn,  
 M. L. Vidal,  Zhi-Qiang You,  Ying Zhu,  B. Alam,  B. Albrecht,  
 A. Aldossary,  E. Alguire,  J. H. Andersen,  D. Barton,  K. Begam,  A. Behn,  
 Y. A. Bernard,  E. J. Berquist,  H. Burton,  A. Carreras,  K. Carter-Fenk,  
 R. Chakraborty,  A. D. Chien,  K. D. Closser,  V. Cofer-Shabica,  
 S. Dasgupta,  Jia Deng,  M. de Wergifosse,  M. Diedenhofen,  Hainam Do,  
 S. Ehlert,  Po-Tung Fang,  S. Fatehi,  Qingguo Feng,  J. Gayvert,  
 Qinghui Ge,  G. Gidofalvi,  M. Goldey,  J. Gomes,  C. Gonzalez-Espinoza,  
 S. Gulania,  A. Gunina,  M. W. D. Hanson-Heine,  P. H. P. Harbach,  
 A. W. Hauser,  M. F. Herbst,  M. Hernandez Vera,  M. Hodecker,  
 Z. C. Holden,  S. Houck,  Xunkun Huang,  Kerwin Hui,  B. C. Huynh,  
 M. Ivanov,  Hyunjun Ji,  Hanjie Jiang,  B. Kaduk,  S. Kaehler,  
 K. Khistyaev,  Jaehoon Kim,  P. Klunzinger,  Z. Koczor-Benda,  
 Joong Hoon Koh,  D. Kosenkov,  L. Koulias,  T. Kowalczyk,  C. M. Krauter,  
 K. Kue,  A. Kunitsa,  T. Kus,  A. Landau,  K. V. Lawler,  D. Lefrancois,  
 S. Lehtola,  Rain Li,  Yi-Pei Li,  Jiashu Liang,  M. Liebenthal,  
 Hung-Hsuan Lin,  You-Sheng Lin,  Fenglai Liu,  Kuan-Yu Liu,  
 M. Loipersberger,  A. Luenser,  A. Manjanath,  P. Manohar,  E. Mansoor,  
 S. F. Manzer,  Shan-Ping Mao,  A. V. Marenich,  T. Markovich,  S. Mason,  
 S. A. Maurer,  P. F. McLaughlin,  M. F. S. J. Menger,  J.-M. Mewes,  
 S. A. Mewes,  P. Morgante,  J. W. Mullinax,  T. S. Nguyen-Beck,  
 K. J. Oosterbaan,  G. Paran,  Alexander C. Paul,  Suranjan K. Paul,  
 F. Pavosevic,  Zheng Pei,  S. Prager,  E. I. Proynov,  E. Ramos,  B. Rana,  
 A. E. Rask,  A. Rettig,  R. M. Richard,  F. Rob,  E. Rossomme,  T. Scheele,  
 M. Scheurer,  M. Schneider,  N. Sergueev,  S. M. Sharada,  W. Skomorowski,  
 D. W. Small,  C. J. Stein,  Yu-Chuan Su,  E. J. Sundstrom,  Zhen Tao,  
 J. Thirman,  T. Tsuchimochi,  N. M. Tubman,  S. P. Veccham,  O. Vydrov,  
 J. Wenzel,  J. Witte,  A. Yamada,  Kun Yao,  S. Yeganeh,  S. R. Yost,  
 A. Zech,  Igor Ying Zhang,  Xing Zhang,  Yu Zhang,  D. Zuev,  
 A. Aspuru-Guzik,  A. T. Bell,  N. A. Besley,  K. B. Bravaya,  B. R. Brooks,  
 D. Casanova,  Jeng-Da Chai,  S. Coriani,  C. J. Cramer,  
 A. E. DePrince, III,  R. A. DiStasio Jr.,  A. Dreuw,  B. D. Dunietz,  
 T. R. Furlani,  W. A. Goddard III,  S. Grimme,  S. Hammes-Schiffer,  
 T. Head-Gordon,  W. J. Hehre,  Chao-Ping Hsu,  T.-C. Jagau,  Yousung Jung,  
 A. Klamt,  Jing Kong,  D. S. Lambrecht,  WanZhen Liang,  N. J. Mayhall,  
 C. W. McCurdy,  J. B. Neaton,  C. Ochsenfeld,  J. A. Parkhill,  R. Peverati,  
 V. A. Rassolov,  Yihan Shao,  L. V. Slipchenko,  T. Stauch,  R. P. Steele,  
 J. E. Subotnik,  A. J. W. Thom,  A. Tkatchenko,  D. G. Truhlar,  
 T. Van Voorhis,  T. A. Wesolowski,  K. B. Whaley,  H. L. Woodcock III,  
 P. M. Zimmerman,  S. Faraji,  P. M. W. Gill,  M. Head-Gordon,  
 J. M. Herbert,  A. I. Krylov

 Contributors to earlier versions of Q-Chem not listed above: 
 R. D. Adamson,  B. Austin,  R. Baer,  J. Baker,  G. J. O. Beran,  
 K. Brandhorst,  S. T. Brown,  E. F. C. Byrd,  A. K. Chakraborty,  
 G. K. L. Chan,  Chun-Min Chang,  Yunqing Chen,  C.-L. Cheng,  
 Siu Hung Chien,  D. M. Chipman,  D. L. Crittenden,  H. Dachsel,  
 R. J. Doerksen,  A. D. Dutoi,  R. G. Edgar,  J. Fosso-Tande,  
 L. Fusti-Molnar,  D. Ghosh,  A. Ghysels,  A. Golubeva-Zadorozhnaya,  
 J. Gonthier,  M. S. Gordon,  S. R. Gwaltney,  G. Hawkins,  J. E. Herr,  
 A. Heyden,  S. Hirata,  E. G. Hohenstein,  G. Kedziora,  F. J. Keil,  
 C. Kelley,  Jihan Kim,  R. A. King,  R. Z. Khaliullin,  P. P. Korambath,  
 W. Kurlancheek,  A. Laurent,  A. M. Lee,  M. S. Lee,  S. V. Levchenko,  
 Ching Yeh Lin,  D. Liotard,  E. Livshits,  R. C. Lochan,  I. Lotan,  
 L. A. Martinez-Martinez,  P. E. Maslen,  N. Nair,  D. P. O'Neill,  
 D. Neuhauser,  E. Neuscamman,  C. M. Oana,  R. Olivares-Amaya,  R. Olson,  
 T. M. Perrine,  B. Peters,  P. A. Pieniazek,  A. Prociuk,  Y. M. Rhee,  
 J. Ritchie,  M. A. Rohrdanz,  E. Rosta,  N. J. Russ,  H. F. Schaefer III,  
 M. W. Schmidt,  N. E. Schultz,  S. Sharma,  N. Shenvi,  C. D. Sherrill,  
 A. C. Simmonett,  A. Sodt,  T. Stein,  D. Stuck,  K. S. Thanthiriwatte,  
 V. Vanovschi,  L. Vogt,  Tao Wang,  A. Warshel,  M. A. Watson,  
 C. F. Williams,  Q. Wu,  X. Xu,  Jun Yang,  W. Zhang,  Yan Zhao

 Please cite Q-Chem as follows:
 Y. Shao et al., Mol. Phys. 113, 184-215 (2015)
 DOI: 10.1080/00268976.2014.952696

 Q-Chem 5.4.0 for Intel X86 EM64T Linux

 Parts of Q-Chem use Armadillo 9.800.1 (Horizon Scraper).
 http://arma.sourceforge.net/

 Q-Chem begins on Sat Jul  9 19:31:07 2022  

 Host: 
0

     Scratch files written to ./qchem1586958//
 May1621 |scratch|qcdevops|jenkins|workspace|build_RNUM    
 Processing $rem in /cm/shared/apps/spack/cpu/opt/spack/linux-centos8-zen2/gcc-10.2.0/qchem-5.4-akfmr7b3t57bfs6qan3padb2wnb2i7cl/config/preferences:
 Processing $rem in /home/theleonzhang/.qchemrc:
 Symmetry turned off for PCM/SM12/SMD calculation
 Core orbitals will be frozen

 Checking the input file for inconsistencies... 	...done.

--------------------------------------------------------------
User input:
--------------------------------------------------------------
$molecule
0 1
C	-0.265779	-3.866725	0.728138
C	0.209225	-3.703963	-0.575726
C	0.364875	-2.357056	-1.002290
H	0.445176	-4.561092	-1.224486
C	0.000000	-1.440664	0.000000
S	-0.528236	-2.286957	1.451343
C	0.862808	-1.978743	-2.369683
H	1.083368	-2.878678	-2.975883
H	1.793522	-1.376015	-2.317142
H	0.116375	-1.375728	-2.927787
C	0.000000	0.000000	0.000000
C	0.661577	0.555087	1.099446
C	1.721724	1.444630	0.776721
H	0.379056	0.318032	2.136088
C	1.890772	1.586449	-0.612546
S	0.721935	0.605744	-1.486809
C	2.555004	2.143805	1.814609
H	2.228946	1.870211	2.836676
H	2.482605	3.247987	1.726239
H	3.629830	1.880735	1.726228
H	2.617927	2.196579	-1.161575
H	0.459743	-4.392713	1.358585
H	-1.227009	-4.392347	0.744515
H	-1.014829	-1.440391	-0.369490
$end

$rem
JOBTYPE		SP
EXCHANGE	HF
CORRELATION	pRIMP2
BASIS		cc-pvtz
METHOD		rimp2
AUX_BASIS	rimp2-cc-pvtz
SOLVENT_METHOD	PCM
PURECART	11111
SYMMETRY	false
MEM_TOTAL	110000
SCF_CONVERGENCE = 6
THRESH=10
$end



$solvent
dielectric 4.90
$end
--------------------------------------------------------------
 ----------------------------------------------------------------
             Standard Nuclear Orientation (Angstroms)
    I     Atom           X                Y                Z
 ----------------------------------------------------------------
    1      C      -0.2657790000    -3.8667250000     0.7281380000
    2      C       0.2092250000    -3.7039630000    -0.5757260000
    3      C       0.3648750000    -2.3570560000    -1.0022900000
    4      H       0.4451760000    -4.5610920000    -1.2244860000
    5      C       0.0000000000    -1.4406640000     0.0000000000
    6      S      -0.5282360000    -2.2869570000     1.4513430000
    7      C       0.8628080000    -1.9787430000    -2.3696830000
    8      H       1.0833680000    -2.8786780000    -2.9758830000
    9      H       1.7935220000    -1.3760150000    -2.3171420000
   10      H       0.1163750000    -1.3757280000    -2.9277870000
   11      C       0.0000000000     0.0000000000     0.0000000000
   12      C       0.6615770000     0.5550870000     1.0994460000
   13      C       1.7217240000     1.4446300000     0.7767210000
   14      H       0.3790560000     0.3180320000     2.1360880000
   15      C       1.8907720000     1.5864490000    -0.6125460000
   16      S       0.7219350000     0.6057440000    -1.4868090000
   17      C       2.5550040000     2.1438050000     1.8146090000
   18      H       2.2289460000     1.8702110000     2.8366760000
   19      H       2.4826050000     3.2479870000     1.7262390000
   20      H       3.6298300000     1.8807350000     1.7262280000
   21      H       2.6179270000     2.1965790000    -1.1615750000
   22      H       0.4597430000    -4.3927130000     1.3585850000
   23      H      -1.2270090000    -4.3923470000     0.7445150000
   24      H      -1.0148290000    -1.4403910000    -0.3694900000
 ----------------------------------------------------------------
 Nuclear Repulsion Energy =         896.15274917 hartrees
 There are       52 alpha and       52 beta electrons

 Q-Chem warning in module forms1/BasisType.C, line 2236:

 You are not using the predefined 5D/6D in this basis set.

 Requested basis set is cc-pVTZ
 There are 196 shells and 536 basis functions

 Total QAlloc Memory Limit 110000 MB
 Mega-Array Size       188 MB
 MEM_STATIC part       192 MB
 Discretize the solute cavity surface with Lebedev spheres
	Using 110 Lebedev grid points for each H atom
	Using 194 Lebedev grid points for other atoms
	Atomic van der Waals radii will be scaled by 1.20
 Remove points where switching function is < 1.0e-08
 Keep 1549 surface tesserae and discard 2099 interior tesserae
 Molecular Surface Area = 225.857 Angst**2
 Requested basis set is rimp2-cc-pVTZ
 There are 414 shells and 1414 basis functions
 A cutoff of  1.0D-10 yielded  14437 shell pairs
 There are    104457 function pairs (    133861 Cartesian)
 Smallest overlap matrix eigenvalue = 6.17E-05

 Scale SEOQF with 1.000000e-01/1.000000e-01/1.000000e-01

 Standard Electronic Orientation quadrupole field applied
 Nucleus-field energy     =     0.0000000188 hartrees
 Guess from superposition of atomic densities
 Warning:  Energy on first SCF cycle will be non-variational
 SAD guess density has 104.000000 electrons

 -----------------------------------------------------------------------
  General SCF calculation program by
  Eric Jon Sundstrom, Paul Horn, Yuezhi Mao, Dmitri Zuev, Alec White,
  David Stuck, Shaama M.S., Shane Yost, Joonho Lee, David Small,
  Daniel Levine, Susi Lehtola, Hugh Burton, Evgeny Epifanovsky,
  Bang C. Huynh
 -----------------------------------------------------------------------
 Hartree-Fock
 A restricted SCF calculation will be
 performed using DIIS
 SCF converges when DIIS error is below 1.0e-06
 ---------------------------------------
  Cycle       Energy         DIIS error
 ---------------------------------------
    1   -1186.1860613550      2.41e-02  
    2   -1180.5329772257      1.55e-03  
    3   -1180.6600293927      5.92e-04  
    4   -1180.6743937795      3.20e-04  
    5   -1180.6792322776      6.64e-05  
    6   -1180.6795358561      2.70e-05  
    7   -1180.6796204380      1.23e-05  
    8   -1180.6796442636      5.85e-06  
    9   -1180.6796515470      2.66e-06  
   10   -1180.6796530180      1.02e-06  
   11   -1180.6796532568      4.87e-07  Convergence criterion met
 ---------------------------------------
 SCF time:   CPU 655.54s  wall 657.00s 

************** Final PCM Free Energy Summary **************
 G_electrostatic  =      -0.00835344 hartree =      -5.24186119 kcal/mol
 G_cavitation     =       0.00000000 hartree =       0.00000000 kcal/mol
 G_dispersion     =       0.00000000 hartree =       0.00000000 kcal/mol
 G_repulsion      =       0.00000000 hartree =       0.00000000 kcal/mol
 --------------------------------------------------
 Non-electrostatic Free Energy =       0.00000000 hartree =       0.00000000 kcal/mol
 Total                         =      -0.00835344 hartree =      -5.24186119 kcal/mol
 --------------------------------------------------
 SCF Energy (H0 + V/2)                       =   -1180.67965326 
 Solute Internal Energy (H0)                 =   -1180.67129982 
 Total Free Energy (H0 + V/2 + non-elec)     =   -1180.67965326 hartree
                                             = -740887.66463561 kcal/mol
***********************************************************

 SCF   energy in the final basis set =    -1180.6796532568
 Total energy in the final basis set =    -1180.6796532568


 --------------------------------------------------------------
  Generalized many-body perturbation theory program
  by Joonho Lee, Fazle Rob, Xintian Feng, Evgeny Epifanovsky

 No regularization used 
 (reg. param. = 0.0000e+00)
  (P|Q)^-1/2 Time:  CPU 1.90 s  wall 1.90 s

 In RI-MP2 calculation: 
 # of frozen core orbitals: 20

 Components of the RIMP2 correlation energy:
        aaaa    correlation energy =        -0.2554103224 a.u.
        abab    correlation energy =        -1.5153076897 a.u.
        bbbb    correlation energy =        -0.2554103224 a.u.
        non-Brillouin singles      =        -0.0000000000 a.u.
        total same-spin energy     =        -0.5108206447 a.u.
        total opposite-spin energy =        -1.5153076897 a.u.

 Total  RIMP2   correlation energy =        -2.0261283344 a.u.
        RIMP2         total energy =     -1182.7057815911 a.u.

 RI-MP2 Energy Time:  CPU 80.28 s  wall 80.48 s
 
 --------------------------------------------------------------
 
                    Orbital Energies (a.u.)
 --------------------------------------------------------------
 
 Alpha MOs
 -- Occupied --
-91.9759 -91.9399 -11.2748 -11.2630 -11.2616 -11.2502 -11.2497 -11.2464
-11.2394 -11.2283 -11.2273 -11.2136  -8.9777  -8.9445  -6.6583  -6.6576
 -6.6572  -6.6259  -6.6250  -6.6237  -1.2022  -1.1525  -1.0589  -1.0265
 -1.0056  -0.9578  -0.9124  -0.9040  -0.8061  -0.7725  -0.7228  -0.7079
 -0.6504  -0.6413  -0.6123  -0.5944  -0.5831  -0.5730  -0.5677  -0.5478
 -0.5401  -0.5311  -0.5195  -0.5175  -0.4872  -0.4568  -0.4503  -0.4378
 -0.3537  -0.3343  -0.3250  -0.2577
 -- Virtual --
  0.0734   0.1341   0.1411   0.1552   0.1612   0.1686   0.1738   0.1840
  0.1891   0.1955   0.2038   0.2086   0.2132   0.2335   0.2386   0.2462
  0.2527   0.2673   0.2770   0.3063   0.3205   0.3317   0.3416   0.3610
  0.3656   0.3668   0.3832   0.3954   0.4005   0.4079   0.4238   0.4283
  0.4419   0.4517   0.4608   0.4645   0.4733   0.4800   0.4853   0.4915
  0.5021   0.5174   0.5268   0.5349   0.5359   0.5486   0.5520   0.5693
  0.5786   0.5820   0.5894   0.5914   0.6014   0.6110   0.6176   0.6211
  0.6219   0.6225   0.6337   0.6385   0.6418   0.6458   0.6547   0.6574
  0.6683   0.6769   0.6812   0.6913   0.6959   0.7094   0.7211   0.7283
  0.7469   0.7574   0.7638   0.7667   0.7854   0.7933   0.8180   0.8196
  0.8397   0.8509   0.8527   0.8583   0.8677   0.8968   0.9094   0.9210
  0.9316   0.9507   0.9558   0.9607   0.9683   0.9815   0.9933   1.0114
  1.0266   1.0375   1.0388   1.0509   1.0626   1.0734   1.0788   1.0872
  1.1027   1.1036   1.1247   1.1385   1.1500   1.1536   1.1694   1.1753
  1.1868   1.1964   1.2014   1.2132   1.2141   1.2276   1.2428   1.2494
  1.2556   1.2652   1.2694   1.2755   1.2948   1.3028   1.3053   1.3197
  1.3301   1.3440   1.3521   1.3725   1.3914   1.4062   1.4085   1.4167
  1.4224   1.4290   1.4476   1.4587   1.4644   1.4782   1.4810   1.5011
  1.5080   1.5184   1.5237   1.5247   1.5356   1.5422   1.5541   1.5596
  1.5677   1.5796   1.5887   1.5980   1.6168   1.6326   1.6375   1.6491
  1.6508   1.6517   1.6722   1.6839   1.6982   1.7084   1.7195   1.7371
  1.7424   1.7537   1.7781   1.7898   1.8285   1.8443   1.8488   1.8588
  1.8913   1.9176   1.9438   1.9551   1.9742   1.9969   2.0170   2.0229
  2.0377   2.0488   2.0526   2.0965   2.1114   2.1224   2.1305   2.1393
  2.1860   2.1878   2.2131   2.2149   2.2267   2.2364   2.2657   2.2924
  2.3077   2.3264   2.3349   2.3578   2.4315   2.4579   2.4625   2.4850
  2.5040   2.5313   2.5456   2.5533   2.5882   2.6014   2.6077   2.6165
  2.6384   2.6453   2.6706   2.6739   2.6841   2.7113   2.7207   2.7357
  2.7416   2.7569   2.7744   2.7796   2.7928   2.8092   2.8229   2.8310
  2.8361   2.8499   2.8544   2.8833   2.9005   2.9154   2.9256   2.9304
  2.9488   2.9759   2.9840   3.0095   3.0173   3.0193   3.0351   3.0412
  3.0711   3.0899   3.0957   3.1093   3.1126   3.1345   3.1439   3.1468
  3.1604   3.1662   3.1749   3.1919   3.1989   3.2028   3.2135   3.2187
  3.2257   3.2533   3.2564   3.2624   3.2680   3.2713   3.2812   3.3055
  3.3106   3.3211   3.3383   3.3462   3.3495   3.3570   3.3649   3.3787
  3.3832   3.3861   3.4029   3.4124   3.4198   3.4249   3.4280   3.4339
  3.4453   3.4539   3.4628   3.4760   3.4880   3.4929   3.4995   3.5105
  3.5146   3.5268   3.5410   3.5520   3.5529   3.5697   3.5732   3.5857
  3.6022   3.6114   3.6188   3.6295   3.6370   3.6624   3.6671   3.6787
  3.6887   3.7004   3.7017   3.7113   3.7268   3.7373   3.7437   3.7587
  3.7702   3.7768   3.7848   3.8047   3.8086   3.8112   3.8239   3.8317
  3.8469   3.8532   3.8639   3.8786   3.8870   3.9013   3.9240   3.9319
  3.9392   3.9547   3.9697   3.9720   3.9830   4.0060   4.0196   4.0247
  4.0404   4.0430   4.0548   4.0591   4.0656   4.0932   4.0964   4.1160
  4.1324   4.1435   4.1531   4.1701   4.1807   4.1849   4.2044   4.2101
  4.2160   4.2261   4.2341   4.2429   4.2517   4.2663   4.2830   4.2938
  4.3045   4.3083   4.3205   4.3370   4.3435   4.3647   4.3716   4.3818
  4.3851   4.3951   4.4033   4.4191   4.4222   4.4392   4.4530   4.4547
  4.4719   4.4886   4.5083   4.5131   4.5203   4.5378   4.5496   4.5818
  4.5902   4.5957   4.6043   4.6297   4.6497   4.6610   4.6769   4.6820
  4.6979   4.7398   4.7545   4.7657   4.7871   4.8093   4.8356   4.8406
  4.8812   4.8921   4.8962   4.9191   4.9363   4.9476   4.9704   5.0044
  5.0115   5.0419   5.0559   5.1051   5.1161   5.1348   5.1389   5.1688
  5.1878   5.1943   5.2307   5.2756   5.2822   5.2921   5.3065   5.3145
  5.3531   5.3739   5.3797   5.3944   5.4103   5.4165   5.4431   5.4541
  5.4796   5.4965   5.5257   5.5431   5.5563   5.5619   5.5784   5.5842
  5.6221   5.6338   5.6426   5.6549   5.6975   5.7002   5.7200   5.7520
  5.7686   5.7959   5.8219   5.9916   6.0372   6.1058   6.1348   6.1691
  6.2072   6.2297   6.2498   6.2568   6.2787   6.2993   6.3052   6.3389
  6.3894   6.4273   9.3596  10.5223  12.3425  12.8594  13.1748  13.8974
 14.1354  14.2392  14.3410  14.7661
 --------------------------------------------------------------
 
          Ground-State Mulliken Net Atomic Charges

     Atom                 Charge (a.u.)
  ----------------------------------------
      1 C                    -0.068537
      2 C                    -0.344690
      3 C                    -0.045672
      4 H                     0.176490
      5 C                     0.064861
      6 S                    -0.205171
      7 C                    -0.273639
      8 H                     0.109906
      9 H                     0.116941
     10 H                     0.103917
     11 C                    -0.115892
     12 C                    -0.167382
     13 C                     0.001146
     14 H                     0.188625
     15 C                    -0.214578
     16 S                     0.020105
     17 C                    -0.269159
     18 H                     0.102829
     19 H                     0.107093
     20 H                     0.105105
     21 H                     0.199563
     22 H                     0.110106
     23 H                     0.108483
     24 H                     0.189552
  ----------------------------------------
  Sum of atomic charges =     0.000000

 -----------------------------------------------------------------
                    Cartesian Multipole Moments
 -----------------------------------------------------------------
    Charge (ESU x 10^10)
                -0.0000
    Dipole Moment (Debye)
         X       2.1149      Y       0.5149      Z      -1.3070
       Tot       2.5389
    Quadrupole Moments (Debye-Ang)
        XX     -84.7649     XY       5.6075     YY     -81.9375
        XZ      -0.0951     YZ       4.2379     ZZ     -85.3259
    Octopole Moments (Debye-Ang^2)
       XXX    -147.3162    XXY      86.8640    XYY     -44.6585
       YYY     182.1275    XXZ      -3.6957    XYZ       0.1451
       YYZ      -0.7803    XZZ     -43.8364    YZZ      75.3302
       ZZZ      -2.0651
    Hexadecapole Moments (Debye-Ang^3)
      XXXX    -754.8112   XXXY    -211.9528   XXYY    -531.8317
      XYYY    -220.3302   YYYY   -2332.3719   XXXZ      11.0535
      XXYZ     -26.4311   XYYZ     -10.5947   YYYZ     -72.2644
      XXZZ    -295.9196   XYZZ     -80.5461   YYZZ    -582.5881
      XZZZ       8.3567   YZZZ     -33.8424   ZZZZ   -1036.1021
 -----------------------------------------------------------------
 Total job time:  739.98s(wall), 736.73s(cpu) 
 Sat Jul  9 19:43:27 2022

        *************************************************************
        *                                                           *
        *  Thank you very much for using Q-Chem.  Have a nice day.  *
        *                                                           *
        *************************************************************


remove work dirs ./qchem1586958.0 -- ./qchem1586958.-1
rm -rf ./qchem1586958
