You are running Q-Chem version: 5.4.0

#
# job setting
#
local host:  exp-3-14
current dir: /expanse/lustre/scratch/theleonzhang/temp_project/Hydrogenated_Rotation_Test
input file:  Methylthiophene_Phi_25_Theta_60_Methylthiophene_Hydrogenated.qcin
output file: 
nprocs     : 0
nthreads   : 1
#
# qchem installation setting
#
QC:          /cm/shared/apps/spack/cpu/opt/spack/linux-centos8-zen2/gcc-10.2.0/qchem-5.4-akfmr7b3t57bfs6qan3padb2wnb2i7cl
QCAUX:       /cm/shared/apps/spack/cpu/opt/spack/linux-centos8-zen2/gcc-10.2.0/qchem-5.4-akfmr7b3t57bfs6qan3padb2wnb2i7cl/qcaux
QCPROG:      /cm/shared/apps/spack/cpu/opt/spack/linux-centos8-zen2/gcc-10.2.0/qchem-5.4-akfmr7b3t57bfs6qan3padb2wnb2i7cl/exe/qcprog.exe_s
QCPROG_S:    /cm/shared/apps/spack/cpu/opt/spack/linux-centos8-zen2/gcc-10.2.0/qchem-5.4-akfmr7b3t57bfs6qan3padb2wnb2i7cl/exe/qcprog.exe_s
PARALLEL:    -DSERIAL
QCMPI:       mpich
#
# qchem directory setting
#
qcrun:       qchem3323388
QCSCRATCH:   .
QCLOCALSCR:  
QCTMPDIR:    .
QCFILEPREF:  ./qchem3323388
QCSAVEDIR:   
workdirs:    ./qchem3323388
workdir0:    ./qchem3323388
partmpdirs =  
#
# parallel setting
#
QCRSH:           ssh
QCMPI:           mpich
QCMPIRUN:        /cm/shared/apps/spack/cpu/opt/spack/linux-centos8-zen2/gcc-10.2.0/qchem-5.4-akfmr7b3t57bfs6qan3padb2wnb2i7cl/bin/mpi/mpirun_qchem
QCMACHINEFILE:   ./qchem3323388/hostfile

#
# env setting
#
exported envs:   QC QCAUX QCSCRATCH QCRUNNAME QCFILEPREF QCPROG QCPROG_S GUIFILE

Running Job 1 of 1 Methylthiophene_Phi_25_Theta_60_Methylthiophene_Hydrogenated.qcin
qchem Methylthiophene_Phi_25_Theta_60_Methylthiophene_Hydrogenated.qcin_3323388.0 ./qchem3323388/ 0
/cm/shared/apps/spack/cpu/opt/spack/linux-centos8-zen2/gcc-10.2.0/qchem-5.4-akfmr7b3t57bfs6qan3padb2wnb2i7cl/exe/qcprog.exe_s Methylthiophene_Phi_25_Theta_60_Methylthiophene_Hydrogenated.qcin_3323388.0 ./qchem3323388/
                  Welcome to Q-Chem
     A Quantum Leap Into The Future Of Chemistry


 Q-Chem 5.4, Q-Chem, Inc., Pleasanton, CA (2021)

 License issued to: University of California, San Diego (site)

 E. Epifanovsky,  A. T. B. Gilbert,  Xintian Feng,  Joonho Lee,  Yuezhi Mao,  
 N. Mardirossian,  P. Pokhilko,  A. White,  M. Wormit,  M. P. Coons,  
 A. L. Dempwolff,  Zhengting Gan,  D. Hait,  P. R. Horn,  L. D. Jacobson,  
 I. Kaliman,  J. Kussmann,  A. W. Lange,  Ka Un Lao,  D. S. Levine,  Jie Liu,  
 S. C. McKenzie,  A. F. Morrison,  K. Nanda,  F. Plasser,  D. R. Rehn,  
 M. L. Vidal,  Zhi-Qiang You,  Ying Zhu,  B. Alam,  B. Albrecht,  
 A. Aldossary,  E. Alguire,  J. H. Andersen,  D. Barton,  K. Begam,  A. Behn,  
 Y. A. Bernard,  E. J. Berquist,  H. Burton,  A. Carreras,  K. Carter-Fenk,  
 R. Chakraborty,  A. D. Chien,  K. D. Closser,  V. Cofer-Shabica,  
 S. Dasgupta,  Jia Deng,  M. de Wergifosse,  M. Diedenhofen,  Hainam Do,  
 S. Ehlert,  Po-Tung Fang,  S. Fatehi,  Qingguo Feng,  J. Gayvert,  
 Qinghui Ge,  G. Gidofalvi,  M. Goldey,  J. Gomes,  C. Gonzalez-Espinoza,  
 S. Gulania,  A. Gunina,  M. W. D. Hanson-Heine,  P. H. P. Harbach,  
 A. W. Hauser,  M. F. Herbst,  M. Hernandez Vera,  M. Hodecker,  
 Z. C. Holden,  S. Houck,  Xunkun Huang,  Kerwin Hui,  B. C. Huynh,  
 M. Ivanov,  Hyunjun Ji,  Hanjie Jiang,  B. Kaduk,  S. Kaehler,  
 K. Khistyaev,  Jaehoon Kim,  P. Klunzinger,  Z. Koczor-Benda,  
 Joong Hoon Koh,  D. Kosenkov,  L. Koulias,  T. Kowalczyk,  C. M. Krauter,  
 K. Kue,  A. Kunitsa,  T. Kus,  A. Landau,  K. V. Lawler,  D. Lefrancois,  
 S. Lehtola,  Rain Li,  Yi-Pei Li,  Jiashu Liang,  M. Liebenthal,  
 Hung-Hsuan Lin,  You-Sheng Lin,  Fenglai Liu,  Kuan-Yu Liu,  
 M. Loipersberger,  A. Luenser,  A. Manjanath,  P. Manohar,  E. Mansoor,  
 S. F. Manzer,  Shan-Ping Mao,  A. V. Marenich,  T. Markovich,  S. Mason,  
 S. A. Maurer,  P. F. McLaughlin,  M. F. S. J. Menger,  J.-M. Mewes,  
 S. A. Mewes,  P. Morgante,  J. W. Mullinax,  T. S. Nguyen-Beck,  
 K. J. Oosterbaan,  G. Paran,  Alexander C. Paul,  Suranjan K. Paul,  
 F. Pavosevic,  Zheng Pei,  S. Prager,  E. I. Proynov,  E. Ramos,  B. Rana,  
 A. E. Rask,  A. Rettig,  R. M. Richard,  F. Rob,  E. Rossomme,  T. Scheele,  
 M. Scheurer,  M. Schneider,  N. Sergueev,  S. M. Sharada,  W. Skomorowski,  
 D. W. Small,  C. J. Stein,  Yu-Chuan Su,  E. J. Sundstrom,  Zhen Tao,  
 J. Thirman,  T. Tsuchimochi,  N. M. Tubman,  S. P. Veccham,  O. Vydrov,  
 J. Wenzel,  J. Witte,  A. Yamada,  Kun Yao,  S. Yeganeh,  S. R. Yost,  
 A. Zech,  Igor Ying Zhang,  Xing Zhang,  Yu Zhang,  D. Zuev,  
 A. Aspuru-Guzik,  A. T. Bell,  N. A. Besley,  K. B. Bravaya,  B. R. Brooks,  
 D. Casanova,  Jeng-Da Chai,  S. Coriani,  C. J. Cramer,  
 A. E. DePrince, III,  R. A. DiStasio Jr.,  A. Dreuw,  B. D. Dunietz,  
 T. R. Furlani,  W. A. Goddard III,  S. Grimme,  S. Hammes-Schiffer,  
 T. Head-Gordon,  W. J. Hehre,  Chao-Ping Hsu,  T.-C. Jagau,  Yousung Jung,  
 A. Klamt,  Jing Kong,  D. S. Lambrecht,  WanZhen Liang,  N. J. Mayhall,  
 C. W. McCurdy,  J. B. Neaton,  C. Ochsenfeld,  J. A. Parkhill,  R. Peverati,  
 V. A. Rassolov,  Yihan Shao,  L. V. Slipchenko,  T. Stauch,  R. P. Steele,  
 J. E. Subotnik,  A. J. W. Thom,  A. Tkatchenko,  D. G. Truhlar,  
 T. Van Voorhis,  T. A. Wesolowski,  K. B. Whaley,  H. L. Woodcock III,  
 P. M. Zimmerman,  S. Faraji,  P. M. W. Gill,  M. Head-Gordon,  
 J. M. Herbert,  A. I. Krylov

 Contributors to earlier versions of Q-Chem not listed above: 
 R. D. Adamson,  B. Austin,  R. Baer,  J. Baker,  G. J. O. Beran,  
 K. Brandhorst,  S. T. Brown,  E. F. C. Byrd,  A. K. Chakraborty,  
 G. K. L. Chan,  Chun-Min Chang,  Yunqing Chen,  C.-L. Cheng,  
 Siu Hung Chien,  D. M. Chipman,  D. L. Crittenden,  H. Dachsel,  
 R. J. Doerksen,  A. D. Dutoi,  R. G. Edgar,  J. Fosso-Tande,  
 L. Fusti-Molnar,  D. Ghosh,  A. Ghysels,  A. Golubeva-Zadorozhnaya,  
 J. Gonthier,  M. S. Gordon,  S. R. Gwaltney,  G. Hawkins,  J. E. Herr,  
 A. Heyden,  S. Hirata,  E. G. Hohenstein,  G. Kedziora,  F. J. Keil,  
 C. Kelley,  Jihan Kim,  R. A. King,  R. Z. Khaliullin,  P. P. Korambath,  
 W. Kurlancheek,  A. Laurent,  A. M. Lee,  M. S. Lee,  S. V. Levchenko,  
 Ching Yeh Lin,  D. Liotard,  E. Livshits,  R. C. Lochan,  I. Lotan,  
 L. A. Martinez-Martinez,  P. E. Maslen,  N. Nair,  D. P. O'Neill,  
 D. Neuhauser,  E. Neuscamman,  C. M. Oana,  R. Olivares-Amaya,  R. Olson,  
 T. M. Perrine,  B. Peters,  P. A. Pieniazek,  A. Prociuk,  Y. M. Rhee,  
 J. Ritchie,  M. A. Rohrdanz,  E. Rosta,  N. J. Russ,  H. F. Schaefer III,  
 M. W. Schmidt,  N. E. Schultz,  S. Sharma,  N. Shenvi,  C. D. Sherrill,  
 A. C. Simmonett,  A. Sodt,  T. Stein,  D. Stuck,  K. S. Thanthiriwatte,  
 V. Vanovschi,  L. Vogt,  Tao Wang,  A. Warshel,  M. A. Watson,  
 C. F. Williams,  Q. Wu,  X. Xu,  Jun Yang,  W. Zhang,  Yan Zhao

 Please cite Q-Chem as follows:
 Y. Shao et al., Mol. Phys. 113, 184-215 (2015)
 DOI: 10.1080/00268976.2014.952696

 Q-Chem 5.4.0 for Intel X86 EM64T Linux

 Parts of Q-Chem use Armadillo 9.800.1 (Horizon Scraper).
 http://arma.sourceforge.net/

 Q-Chem begins on Sun Jul 10 00:54:19 2022  

 Host: 
0

     Scratch files written to ./qchem3323388//
 May1621 |scratch|qcdevops|jenkins|workspace|build_RNUM    
 Processing $rem in /cm/shared/apps/spack/cpu/opt/spack/linux-centos8-zen2/gcc-10.2.0/qchem-5.4-akfmr7b3t57bfs6qan3padb2wnb2i7cl/config/preferences:
 Processing $rem in /home/theleonzhang/.qchemrc:
 Symmetry turned off for PCM/SM12/SMD calculation
 Core orbitals will be frozen

 Checking the input file for inconsistencies... 	...done.

--------------------------------------------------------------
User input:
--------------------------------------------------------------
$molecule
0 1
C	-0.671636	-3.866725	0.386946
C	0.530345	-3.703963	-0.306544
C	0.923770	-2.357056	-0.533261
H	1.128109	-4.561092	-0.651857
C	-0.000000	-1.440664	-0.000000
S	-1.337557	-2.286957	0.772250
C	2.184153	-1.978743	-1.260680
H	2.742769	-2.878678	-1.583283
H	2.863347	-1.376015	-0.622180
H	1.971094	-1.375728	-2.168011
C	0.000000	0.000000	0.000000
C	0.365003	0.782674	1.099446
C	0.949885	2.036912	0.776721
H	0.209135	0.448431	2.136088
C	1.043159	2.236886	-0.612546
S	0.398297	0.854094	-1.486809
C	1.409609	3.022738	1.814609
H	1.229726	2.636980	2.836676
H	0.877346	3.992870	1.726239
H	2.494910	3.238558	1.726228
H	1.444334	3.097160	-1.161575
H	-0.521098	-4.392713	1.336254
H	-1.418509	-4.392347	-0.218374
H	-0.539900	-1.440391	-0.935365
$end

$rem
JOBTYPE		SP
EXCHANGE	HF
CORRELATION	pRIMP2
BASIS		cc-pvtz
METHOD		rimp2
AUX_BASIS	rimp2-cc-pvtz
SOLVENT_METHOD	PCM
PURECART	11111
SYMMETRY	false
MEM_TOTAL	110000
SCF_CONVERGENCE = 6
THRESH=10
$end



$solvent
dielectric 4.90
$end
--------------------------------------------------------------
 ----------------------------------------------------------------
             Standard Nuclear Orientation (Angstroms)
    I     Atom           X                Y                Z
 ----------------------------------------------------------------
    1      C      -0.6716360000    -3.8667250000     0.3869460000
    2      C       0.5303450000    -3.7039630000    -0.3065440000
    3      C       0.9237700000    -2.3570560000    -0.5332610000
    4      H       1.1281090000    -4.5610920000    -0.6518570000
    5      C       0.0000000000    -1.4406640000     0.0000000000
    6      S      -1.3375570000    -2.2869570000     0.7722500000
    7      C       2.1841530000    -1.9787430000    -1.2606800000
    8      H       2.7427690000    -2.8786780000    -1.5832830000
    9      H       2.8633470000    -1.3760150000    -0.6221800000
   10      H       1.9710940000    -1.3757280000    -2.1680110000
   11      C       0.0000000000     0.0000000000     0.0000000000
   12      C       0.3650030000     0.7826740000     1.0994460000
   13      C       0.9498850000     2.0369120000     0.7767210000
   14      H       0.2091350000     0.4484310000     2.1360880000
   15      C       1.0431590000     2.2368860000    -0.6125460000
   16      S       0.3982970000     0.8540940000    -1.4868090000
   17      C       1.4096090000     3.0227380000     1.8146090000
   18      H       1.2297260000     2.6369800000     2.8366760000
   19      H       0.8773460000     3.9928700000     1.7262390000
   20      H       2.4949100000     3.2385580000     1.7262280000
   21      H       1.4443340000     3.0971600000    -1.1615750000
   22      H      -0.5210980000    -4.3927130000     1.3362540000
   23      H      -1.4185090000    -4.3923470000    -0.2183740000
   24      H      -0.5399000000    -1.4403910000    -0.9353650000
 ----------------------------------------------------------------
 Nuclear Repulsion Energy =         878.28944202 hartrees
 There are       52 alpha and       52 beta electrons

 Q-Chem warning in module forms1/BasisType.C, line 2236:

 You are not using the predefined 5D/6D in this basis set.

 Requested basis set is cc-pVTZ
 There are 196 shells and 536 basis functions

 Total QAlloc Memory Limit 110000 MB
 Mega-Array Size       188 MB
 MEM_STATIC part       192 MB
 Discretize the solute cavity surface with Lebedev spheres
	Using 110 Lebedev grid points for each H atom
	Using 194 Lebedev grid points for other atoms
	Atomic van der Waals radii will be scaled by 1.20
 Remove points where switching function is < 1.0e-08
 Keep 1604 surface tesserae and discard 2044 interior tesserae
 Molecular Surface Area = 234.561 Angst**2
 Requested basis set is rimp2-cc-pVTZ
 There are 414 shells and 1414 basis functions
 A cutoff of  1.0D-10 yielded  14129 shell pairs
 There are    102375 function pairs (    131279 Cartesian)
 Smallest overlap matrix eigenvalue = 6.02E-05

 Scale SEOQF with 1.000000e-01/1.000000e-01/1.000000e-01

 Standard Electronic Orientation quadrupole field applied
 Nucleus-field energy     =     0.0000000321 hartrees
 Guess from superposition of atomic densities
 Warning:  Energy on first SCF cycle will be non-variational
 SAD guess density has 104.000000 electrons

 -----------------------------------------------------------------------
  General SCF calculation program by
  Eric Jon Sundstrom, Paul Horn, Yuezhi Mao, Dmitri Zuev, Alec White,
  David Stuck, Shaama M.S., Shane Yost, Joonho Lee, David Small,
  Daniel Levine, Susi Lehtola, Hugh Burton, Evgeny Epifanovsky,
  Bang C. Huynh
 -----------------------------------------------------------------------
 Hartree-Fock
 A restricted SCF calculation will be
 performed using DIIS
 SCF converges when DIIS error is below 1.0e-06
 ---------------------------------------
  Cycle       Energy         DIIS error
 ---------------------------------------
    1   -1186.0435590775      2.39e-02  
    2   -1180.5998164050      1.56e-03  
    3   -1180.7250622727      6.04e-04  
    4   -1180.7392899347      3.29e-04  
    5   -1180.7442757179      6.28e-05  
    6   -1180.7445396940      2.54e-05  
    7   -1180.7446055883      9.97e-06  
    8   -1180.7446215288      4.67e-06  
    9   -1180.7446254026      1.69e-06  
   10   -1180.7446260055      5.63e-07  Convergence criterion met
 ---------------------------------------
 SCF time:   CPU 580.86s  wall 583.00s 

************** Final PCM Free Energy Summary **************
 G_electrostatic  =      -0.00821278 hartree =      -5.15359500 kcal/mol
 G_cavitation     =       0.00000000 hartree =       0.00000000 kcal/mol
 G_dispersion     =       0.00000000 hartree =       0.00000000 kcal/mol
 G_repulsion      =       0.00000000 hartree =       0.00000000 kcal/mol
 --------------------------------------------------
 Non-electrostatic Free Energy =       0.00000000 hartree =       0.00000000 kcal/mol
 Total                         =      -0.00821278 hartree =      -5.15359500 kcal/mol
 --------------------------------------------------
 SCF Energy (H0 + V/2)                       =   -1180.74462601 
 Solute Internal Energy (H0)                 =   -1180.73641323 
 Total Free Energy (H0 + V/2 + non-elec)     =   -1180.74462601 hartree
                                             = -740928.43565083 kcal/mol
***********************************************************

 SCF   energy in the final basis set =    -1180.7446260055
 Total energy in the final basis set =    -1180.7446260055


 --------------------------------------------------------------
  Generalized many-body perturbation theory program
  by Joonho Lee, Fazle Rob, Xintian Feng, Evgeny Epifanovsky

 No regularization used 
 (reg. param. = 0.0000e+00)
  (P|Q)^-1/2 Time:  CPU 1.91 s  wall 1.92 s

 In RI-MP2 calculation: 
 # of frozen core orbitals: 20

 Components of the RIMP2 correlation energy:
        aaaa    correlation energy =        -0.2519603584 a.u.
        abab    correlation energy =        -1.5054310885 a.u.
        bbbb    correlation energy =        -0.2519603584 a.u.
        non-Brillouin singles      =        -0.0000000000 a.u.
        total same-spin energy     =        -0.5039207169 a.u.
        total opposite-spin energy =        -1.5054310885 a.u.

 Total  RIMP2   correlation energy =        -2.0093518054 a.u.
        RIMP2         total energy =     -1182.7539778109 a.u.

 RI-MP2 Energy Time:  CPU 80.77 s  wall 81.12 s
 
 --------------------------------------------------------------
 
                    Orbital Energies (a.u.)
 --------------------------------------------------------------
 
 Alpha MOs
 -- Occupied --
-91.9852 -91.9407 -11.2752 -11.2683 -11.2626 -11.2545 -11.2513 -11.2403
-11.2401 -11.2292 -11.2289 -11.2183  -8.9851  -8.9452  -6.6660  -6.6655
 -6.6649  -6.6266  -6.6256  -6.6244  -1.1987  -1.1537  -1.0589  -1.0239
 -1.0050  -0.9619  -0.9124  -0.9012  -0.8104  -0.7676  -0.7338  -0.7059
 -0.6528  -0.6345  -0.6111  -0.5895  -0.5761  -0.5745  -0.5703  -0.5528
 -0.5422  -0.5290  -0.5161  -0.5061  -0.4903  -0.4749  -0.4619  -0.4454
 -0.3542  -0.3427  -0.3170  -0.2751
 -- Virtual --
  0.0890   0.1316   0.1411   0.1513   0.1612   0.1661   0.1777   0.1863
  0.1879   0.1955   0.2013   0.2080   0.2213   0.2370   0.2415   0.2433
  0.2550   0.2584   0.2692   0.2921   0.3084   0.3341   0.3426   0.3535
  0.3570   0.3729   0.3769   0.3875   0.3960   0.4048   0.4191   0.4341
  0.4392   0.4451   0.4531   0.4570   0.4637   0.4794   0.4819   0.4943
  0.5073   0.5123   0.5246   0.5307   0.5377   0.5449   0.5504   0.5534
  0.5693   0.5756   0.5802   0.5934   0.5945   0.6101   0.6140   0.6207
  0.6256   0.6292   0.6341   0.6368   0.6426   0.6450   0.6531   0.6563
  0.6635   0.6759   0.6786   0.6863   0.6913   0.7011   0.7094   0.7278
  0.7304   0.7457   0.7519   0.7672   0.7810   0.7934   0.8003   0.8302
  0.8310   0.8383   0.8565   0.8623   0.8665   0.8819   0.8969   0.9112
  0.9302   0.9360   0.9514   0.9650   0.9704   0.9913   1.0011   1.0132
  1.0168   1.0259   1.0363   1.0434   1.0505   1.0594   1.0741   1.0786
  1.0933   1.1035   1.1156   1.1260   1.1382   1.1475   1.1606   1.1772
  1.1811   1.1851   1.1977   1.2065   1.2231   1.2244   1.2348   1.2484
  1.2554   1.2565   1.2617   1.2729   1.2862   1.2918   1.2975   1.3077
  1.3131   1.3235   1.3387   1.3549   1.3861   1.3891   1.4128   1.4147
  1.4256   1.4270   1.4423   1.4647   1.4743   1.4817   1.4898   1.4953
  1.5014   1.5059   1.5190   1.5227   1.5364   1.5413   1.5477   1.5569
  1.5637   1.5782   1.5806   1.5912   1.6163   1.6231   1.6310   1.6426
  1.6604   1.6612   1.6802   1.6840   1.7006   1.7044   1.7228   1.7315
  1.7367   1.7543   1.7875   1.7942   1.8065   1.8216   1.8523   1.8561
  1.8827   1.8941   1.9316   1.9439   1.9640   1.9739   1.9886   2.0040
  2.0162   2.0339   2.0463   2.0674   2.0794   2.1023   2.1377   2.1678
  2.1783   2.1901   2.2092   2.2235   2.2403   2.2472   2.2586   2.2919
  2.3060   2.3236   2.3334   2.3552   2.3909   2.4279   2.4584   2.4655
  2.5024   2.5040   2.5365   2.5572   2.5707   2.5824   2.6027   2.6216
  2.6378   2.6529   2.6648   2.6693   2.6730   2.6918   2.7088   2.7319
  2.7467   2.7533   2.7663   2.7743   2.7800   2.7840   2.8002   2.8195
  2.8267   2.8455   2.8582   2.8779   2.8915   2.9011   2.9099   2.9269
  2.9414   2.9572   2.9735   2.9756   3.0088   3.0155   3.0329   3.0442
  3.0646   3.0738   3.0927   3.1030   3.1118   3.1180   3.1276   3.1456
  3.1499   3.1578   3.1678   3.1855   3.1894   3.1925   3.2066   3.2213
  3.2299   3.2383   3.2542   3.2547   3.2705   3.2899   3.2946   3.3043
  3.3119   3.3191   3.3319   3.3408   3.3429   3.3512   3.3609   3.3715
  3.3804   3.3845   3.3907   3.3997   3.4050   3.4092   3.4200   3.4298
  3.4482   3.4529   3.4626   3.4705   3.4733   3.4907   3.4967   3.5002
  3.5098   3.5263   3.5322   3.5413   3.5479   3.5533   3.5657   3.5723
  3.5933   3.6092   3.6183   3.6310   3.6379   3.6446   3.6527   3.6577
  3.6740   3.6819   3.7014   3.7084   3.7251   3.7299   3.7336   3.7402
  3.7528   3.7596   3.7645   3.7743   3.7781   3.7912   3.8049   3.8257
  3.8364   3.8463   3.8617   3.8640   3.8733   3.8796   3.9006   3.9139
  3.9217   3.9363   3.9516   3.9606   3.9752   3.9850   3.9967   4.0096
  4.0204   4.0350   4.0528   4.0592   4.0755   4.0915   4.1007   4.1051
  4.1138   4.1404   4.1446   4.1623   4.1695   4.1777   4.1845   4.2015
  4.2114   4.2234   4.2371   4.2449   4.2525   4.2610   4.2653   4.2809
  4.2867   4.2956   4.3176   4.3322   4.3407   4.3521   4.3611   4.3765
  4.3823   4.3913   4.4004   4.4026   4.4170   4.4328   4.4444   4.4566
  4.4654   4.4677   4.4687   4.4821   4.4908   4.5147   4.5234   4.5602
  4.5695   4.5805   4.6062   4.6261   4.6417   4.6481   4.6531   4.6654
  4.6802   4.6985   4.7401   4.7465   4.7685   4.7971   4.8297   4.8396
  4.8610   4.8821   4.8978   4.9046   4.9358   4.9442   4.9805   4.9967
  5.0147   5.0266   5.0839   5.1104   5.1178   5.1303   5.1349   5.1721
  5.1825   5.2167   5.2297   5.2662   5.2819   5.2912   5.3130   5.3229
  5.3454   5.3587   5.3834   5.3942   5.4157   5.4194   5.4438   5.4554
  5.4771   5.5144   5.5262   5.5372   5.5532   5.5630   5.5707   5.5874
  5.6208   5.6300   5.6325   5.6616   5.6813   5.6928   5.7047   5.7413
  5.7700   5.7862   5.8278   5.9706   5.9968   6.1148   6.1208   6.1439
  6.2173   6.2229   6.2258   6.2397   6.2606   6.2928   6.3053   6.3103
  6.3970   6.4601   9.4474  10.4093  12.1197  12.9092  13.1613  13.9794
 14.0813  14.2272  14.3737  14.7844
 --------------------------------------------------------------
 
          Ground-State Mulliken Net Atomic Charges

     Atom                 Charge (a.u.)
  ----------------------------------------
      1 C                    -0.072867
      2 C                    -0.330485
      3 C                    -0.024359
      4 H                     0.176317
      5 C                     0.071924
      6 S                    -0.180950
      7 C                    -0.273842
      8 H                     0.113814
      9 H                     0.112310
     10 H                     0.104975
     11 C                    -0.099300
     12 C                    -0.220346
     13 C                     0.021554
     14 H                     0.187267
     15 C                    -0.231719
     16 S                     0.009962
     17 C                    -0.270811
     18 H                     0.103235
     19 H                     0.107913
     20 H                     0.106986
     21 H                     0.198693
     22 H                     0.110889
     23 H                     0.109465
     24 H                     0.169372
  ----------------------------------------
  Sum of atomic charges =     0.000000

 -----------------------------------------------------------------
                    Cartesian Multipole Moments
 -----------------------------------------------------------------
    Charge (ESU x 10^10)
                -0.0000
    Dipole Moment (Debye)
         X       2.6540      Y       0.7334      Z      -0.4529
       Tot       2.7905
    Quadrupole Moments (Debye-Ang)
        XX     -89.6062     XY       1.9180     YY     -75.8637
        XZ       0.4029     YZ       3.8397     ZZ     -86.0249
    Octopole Moments (Debye-Ang^2)
       XXX     -86.3557    XXY      55.0312    XYY     -18.0344
       YYY     138.0098    XXZ      -5.0353    XYZ       0.4198
       YYZ      -4.8671    XZZ     -25.0154    YZZ      61.5349
       ZZZ       5.4831
    Hexadecapole Moments (Debye-Ang^3)
      XXXX    -743.6576   XXXY    -206.9818   XXYY    -583.1850
      XYYY    -150.2362   YYYY   -2654.0084   XXXZ      78.8970
      XXYZ     -16.2791   XYYZ       9.4915   YYYZ     -96.0741
      XXZZ    -238.9315   XYZZ     -60.6414   YYZZ    -592.3194
      XZZZ      85.2148   YZZZ     -86.2007   ZZZZ    -684.4886
 -----------------------------------------------------------------
 Total job time:  667.00s(wall), 662.55s(cpu) 
 Sun Jul 10 01:05:26 2022

        *************************************************************
        *                                                           *
        *  Thank you very much for using Q-Chem.  Have a nice day.  *
        *                                                           *
        *************************************************************


remove work dirs ./qchem3323388.0 -- ./qchem3323388.-1
rm -rf ./qchem3323388
