You are running Q-Chem version: 5.4.0

#
# job setting
#
local host:  exp-7-31
current dir: /expanse/lustre/scratch/theleonzhang/temp_project/Hydrogenated_Rotation_Test
input file:  Methylthiophene_Phi_50_Theta_270_Methylthiophene_Hydrogenated_Alternate.qcin
output file: 
nprocs     : 0
nthreads   : 1
#
# qchem installation setting
#
QC:          /cm/shared/apps/spack/cpu/opt/spack/linux-centos8-zen2/gcc-10.2.0/qchem-5.4-akfmr7b3t57bfs6qan3padb2wnb2i7cl
QCAUX:       /cm/shared/apps/spack/cpu/opt/spack/linux-centos8-zen2/gcc-10.2.0/qchem-5.4-akfmr7b3t57bfs6qan3padb2wnb2i7cl/qcaux
QCPROG:      /cm/shared/apps/spack/cpu/opt/spack/linux-centos8-zen2/gcc-10.2.0/qchem-5.4-akfmr7b3t57bfs6qan3padb2wnb2i7cl/exe/qcprog.exe_s
QCPROG_S:    /cm/shared/apps/spack/cpu/opt/spack/linux-centos8-zen2/gcc-10.2.0/qchem-5.4-akfmr7b3t57bfs6qan3padb2wnb2i7cl/exe/qcprog.exe_s
PARALLEL:    -DSERIAL
QCMPI:       mpich
#
# qchem directory setting
#
qcrun:       qchem2609806
QCSCRATCH:   .
QCLOCALSCR:  
QCTMPDIR:    .
QCFILEPREF:  ./qchem2609806
QCSAVEDIR:   
workdirs:    ./qchem2609806
workdir0:    ./qchem2609806
partmpdirs =  
#
# parallel setting
#
QCRSH:           ssh
QCMPI:           mpich
QCMPIRUN:        /cm/shared/apps/spack/cpu/opt/spack/linux-centos8-zen2/gcc-10.2.0/qchem-5.4-akfmr7b3t57bfs6qan3padb2wnb2i7cl/bin/mpi/mpirun_qchem
QCMACHINEFILE:   ./qchem2609806/hostfile

#
# env setting
#
exported envs:   QC QCAUX QCSCRATCH QCRUNNAME QCFILEPREF QCPROG QCPROG_S GUIFILE

Running Job 1 of 1 Methylthiophene_Phi_50_Theta_270_Methylthiophene_Hydrogenated_Alternate.qcin
qchem Methylthiophene_Phi_50_Theta_270_Methylthiophene_Hydrogenated_Alternate.qcin_2609806.0 ./qchem2609806/ 0
/cm/shared/apps/spack/cpu/opt/spack/linux-centos8-zen2/gcc-10.2.0/qchem-5.4-akfmr7b3t57bfs6qan3padb2wnb2i7cl/exe/qcprog.exe_s Methylthiophene_Phi_50_Theta_270_Methylthiophene_Hydrogenated_Alternate.qcin_2609806.0 ./qchem2609806/
                  Welcome to Q-Chem
     A Quantum Leap Into The Future Of Chemistry


 Q-Chem 5.4, Q-Chem, Inc., Pleasanton, CA (2021)

 License issued to: University of California, San Diego (site)

 E. Epifanovsky,  A. T. B. Gilbert,  Xintian Feng,  Joonho Lee,  Yuezhi Mao,  
 N. Mardirossian,  P. Pokhilko,  A. White,  M. Wormit,  M. P. Coons,  
 A. L. Dempwolff,  Zhengting Gan,  D. Hait,  P. R. Horn,  L. D. Jacobson,  
 I. Kaliman,  J. Kussmann,  A. W. Lange,  Ka Un Lao,  D. S. Levine,  Jie Liu,  
 S. C. McKenzie,  A. F. Morrison,  K. Nanda,  F. Plasser,  D. R. Rehn,  
 M. L. Vidal,  Zhi-Qiang You,  Ying Zhu,  B. Alam,  B. Albrecht,  
 A. Aldossary,  E. Alguire,  J. H. Andersen,  D. Barton,  K. Begam,  A. Behn,  
 Y. A. Bernard,  E. J. Berquist,  H. Burton,  A. Carreras,  K. Carter-Fenk,  
 R. Chakraborty,  A. D. Chien,  K. D. Closser,  V. Cofer-Shabica,  
 S. Dasgupta,  Jia Deng,  M. de Wergifosse,  M. Diedenhofen,  Hainam Do,  
 S. Ehlert,  Po-Tung Fang,  S. Fatehi,  Qingguo Feng,  J. Gayvert,  
 Qinghui Ge,  G. Gidofalvi,  M. Goldey,  J. Gomes,  C. Gonzalez-Espinoza,  
 S. Gulania,  A. Gunina,  M. W. D. Hanson-Heine,  P. H. P. Harbach,  
 A. W. Hauser,  M. F. Herbst,  M. Hernandez Vera,  M. Hodecker,  
 Z. C. Holden,  S. Houck,  Xunkun Huang,  Kerwin Hui,  B. C. Huynh,  
 M. Ivanov,  Hyunjun Ji,  Hanjie Jiang,  B. Kaduk,  S. Kaehler,  
 K. Khistyaev,  Jaehoon Kim,  P. Klunzinger,  Z. Koczor-Benda,  
 Joong Hoon Koh,  D. Kosenkov,  L. Koulias,  T. Kowalczyk,  C. M. Krauter,  
 K. Kue,  A. Kunitsa,  T. Kus,  A. Landau,  K. V. Lawler,  D. Lefrancois,  
 S. Lehtola,  Rain Li,  Yi-Pei Li,  Jiashu Liang,  M. Liebenthal,  
 Hung-Hsuan Lin,  You-Sheng Lin,  Fenglai Liu,  Kuan-Yu Liu,  
 M. Loipersberger,  A. Luenser,  A. Manjanath,  P. Manohar,  E. Mansoor,  
 S. F. Manzer,  Shan-Ping Mao,  A. V. Marenich,  T. Markovich,  S. Mason,  
 S. A. Maurer,  P. F. McLaughlin,  M. F. S. J. Menger,  J.-M. Mewes,  
 S. A. Mewes,  P. Morgante,  J. W. Mullinax,  T. S. Nguyen-Beck,  
 K. J. Oosterbaan,  G. Paran,  Alexander C. Paul,  Suranjan K. Paul,  
 F. Pavosevic,  Zheng Pei,  S. Prager,  E. I. Proynov,  E. Ramos,  B. Rana,  
 A. E. Rask,  A. Rettig,  R. M. Richard,  F. Rob,  E. Rossomme,  T. Scheele,  
 M. Scheurer,  M. Schneider,  N. Sergueev,  S. M. Sharada,  W. Skomorowski,  
 D. W. Small,  C. J. Stein,  Yu-Chuan Su,  E. J. Sundstrom,  Zhen Tao,  
 J. Thirman,  T. Tsuchimochi,  N. M. Tubman,  S. P. Veccham,  O. Vydrov,  
 J. Wenzel,  J. Witte,  A. Yamada,  Kun Yao,  S. Yeganeh,  S. R. Yost,  
 A. Zech,  Igor Ying Zhang,  Xing Zhang,  Yu Zhang,  D. Zuev,  
 A. Aspuru-Guzik,  A. T. Bell,  N. A. Besley,  K. B. Bravaya,  B. R. Brooks,  
 D. Casanova,  Jeng-Da Chai,  S. Coriani,  C. J. Cramer,  
 A. E. DePrince, III,  R. A. DiStasio Jr.,  A. Dreuw,  B. D. Dunietz,  
 T. R. Furlani,  W. A. Goddard III,  S. Grimme,  S. Hammes-Schiffer,  
 T. Head-Gordon,  W. J. Hehre,  Chao-Ping Hsu,  T.-C. Jagau,  Yousung Jung,  
 A. Klamt,  Jing Kong,  D. S. Lambrecht,  WanZhen Liang,  N. J. Mayhall,  
 C. W. McCurdy,  J. B. Neaton,  C. Ochsenfeld,  J. A. Parkhill,  R. Peverati,  
 V. A. Rassolov,  Yihan Shao,  L. V. Slipchenko,  T. Stauch,  R. P. Steele,  
 J. E. Subotnik,  A. J. W. Thom,  A. Tkatchenko,  D. G. Truhlar,  
 T. Van Voorhis,  T. A. Wesolowski,  K. B. Whaley,  H. L. Woodcock III,  
 P. M. Zimmerman,  S. Faraji,  P. M. W. Gill,  M. Head-Gordon,  
 J. M. Herbert,  A. I. Krylov

 Contributors to earlier versions of Q-Chem not listed above: 
 R. D. Adamson,  B. Austin,  R. Baer,  J. Baker,  G. J. O. Beran,  
 K. Brandhorst,  S. T. Brown,  E. F. C. Byrd,  A. K. Chakraborty,  
 G. K. L. Chan,  Chun-Min Chang,  Yunqing Chen,  C.-L. Cheng,  
 Siu Hung Chien,  D. M. Chipman,  D. L. Crittenden,  H. Dachsel,  
 R. J. Doerksen,  A. D. Dutoi,  R. G. Edgar,  J. Fosso-Tande,  
 L. Fusti-Molnar,  D. Ghosh,  A. Ghysels,  A. Golubeva-Zadorozhnaya,  
 J. Gonthier,  M. S. Gordon,  S. R. Gwaltney,  G. Hawkins,  J. E. Herr,  
 A. Heyden,  S. Hirata,  E. G. Hohenstein,  G. Kedziora,  F. J. Keil,  
 C. Kelley,  Jihan Kim,  R. A. King,  R. Z. Khaliullin,  P. P. Korambath,  
 W. Kurlancheek,  A. Laurent,  A. M. Lee,  M. S. Lee,  S. V. Levchenko,  
 Ching Yeh Lin,  D. Liotard,  E. Livshits,  R. C. Lochan,  I. Lotan,  
 L. A. Martinez-Martinez,  P. E. Maslen,  N. Nair,  D. P. O'Neill,  
 D. Neuhauser,  E. Neuscamman,  C. M. Oana,  R. Olivares-Amaya,  R. Olson,  
 T. M. Perrine,  B. Peters,  P. A. Pieniazek,  A. Prociuk,  Y. M. Rhee,  
 J. Ritchie,  M. A. Rohrdanz,  E. Rosta,  N. J. Russ,  H. F. Schaefer III,  
 M. W. Schmidt,  N. E. Schultz,  S. Sharma,  N. Shenvi,  C. D. Sherrill,  
 A. C. Simmonett,  A. Sodt,  T. Stein,  D. Stuck,  K. S. Thanthiriwatte,  
 V. Vanovschi,  L. Vogt,  Tao Wang,  A. Warshel,  M. A. Watson,  
 C. F. Williams,  Q. Wu,  X. Xu,  Jun Yang,  W. Zhang,  Yan Zhao

 Please cite Q-Chem as follows:
 Y. Shao et al., Mol. Phys. 113, 184-215 (2015)
 DOI: 10.1080/00268976.2014.952696

 Q-Chem 5.4.0 for Intel X86 EM64T Linux

 Parts of Q-Chem use Armadillo 9.800.1 (Horizon Scraper).
 http://arma.sourceforge.net/

 Q-Chem begins on Sun Jul 10 05:41:25 2022  

 Host: 
0

     Scratch files written to ./qchem2609806//
 May1621 |scratch|qcdevops|jenkins|workspace|build_RNUM    
 Processing $rem in /cm/shared/apps/spack/cpu/opt/spack/linux-centos8-zen2/gcc-10.2.0/qchem-5.4-akfmr7b3t57bfs6qan3padb2wnb2i7cl/config/preferences:
 Processing $rem in /home/theleonzhang/.qchemrc:
 Symmetry turned off for PCM/SM12/SMD calculation
 Core orbitals will be frozen

 Checking the input file for inconsistencies... 	...done.

--------------------------------------------------------------
User input:
--------------------------------------------------------------
$molecule
0 1
C	0.775127	-3.866725	0.000713
C	-0.612565	-3.703963	0.000302
C	-1.066639	-2.357056	-0.000067
H	-1.302900	-4.561092	0.000470
C	0.000000	-1.440664	0.000000
S	1.544483	-2.286957	-0.000009
C	-2.521872	-1.978743	-0.000295
H	-3.166949	-2.878678	-0.000221
H	-2.790821	-1.376015	-0.892850
H	-2.791023	-1.375728	0.892005
C	0.000000	0.000000	0.000000
C	0.661577	0.555087	1.099446
C	1.721724	1.444630	0.776721
H	0.379056	0.318032	2.136088
C	1.890772	1.586449	-0.612546
S	0.721935	0.605744	-1.486809
C	2.555004	2.143805	1.814609
H	2.228946	1.870211	2.836676
H	2.482605	3.247987	1.726239
H	3.629830	1.880735	1.726228
H	2.617927	2.196579	-1.161575
H	1.119411	-4.392713	-0.896681
H	1.119277	-4.392347	0.898372
H	0.000115	-1.440937	-1.080000
$end

$rem
JOBTYPE		SP
EXCHANGE	HF
CORRELATION	pRIMP2
BASIS		cc-pvtz
METHOD		rimp2
AUX_BASIS	rimp2-cc-pvtz
SOLVENT_METHOD	PCM
PURECART	11111
SYMMETRY	false
MEM_TOTAL	110000
SCF_CONVERGENCE = 6
THRESH=10
$end



$solvent
dielectric 4.90
$end
--------------------------------------------------------------
 ----------------------------------------------------------------
             Standard Nuclear Orientation (Angstroms)
    I     Atom           X                Y                Z
 ----------------------------------------------------------------
    1      C       0.7751270000    -3.8667250000     0.0007130000
    2      C      -0.6125650000    -3.7039630000     0.0003020000
    3      C      -1.0666390000    -2.3570560000    -0.0000670000
    4      H      -1.3029000000    -4.5610920000     0.0004700000
    5      C       0.0000000000    -1.4406640000     0.0000000000
    6      S       1.5444830000    -2.2869570000    -0.0000090000
    7      C      -2.5218720000    -1.9787430000    -0.0002950000
    8      H      -3.1669490000    -2.8786780000    -0.0002210000
    9      H      -2.7908210000    -1.3760150000    -0.8928500000
   10      H      -2.7910230000    -1.3757280000     0.8920050000
   11      C       0.0000000000     0.0000000000     0.0000000000
   12      C       0.6615770000     0.5550870000     1.0994460000
   13      C       1.7217240000     1.4446300000     0.7767210000
   14      H       0.3790560000     0.3180320000     2.1360880000
   15      C       1.8907720000     1.5864490000    -0.6125460000
   16      S       0.7219350000     0.6057440000    -1.4868090000
   17      C       2.5550040000     2.1438050000     1.8146090000
   18      H       2.2289460000     1.8702110000     2.8366760000
   19      H       2.4826050000     3.2479870000     1.7262390000
   20      H       3.6298300000     1.8807350000     1.7262280000
   21      H       2.6179270000     2.1965790000    -1.1615750000
   22      H       1.1194110000    -4.3927130000    -0.8966810000
   23      H       1.1192770000    -4.3923470000     0.8983720000
   24      H       0.0001150000    -1.4409370000    -1.0800000000
 ----------------------------------------------------------------
 Nuclear Repulsion Energy =         893.14463424 hartrees
 There are       52 alpha and       52 beta electrons

 Q-Chem warning in module forms1/BasisType.C, line 2236:

 You are not using the predefined 5D/6D in this basis set.

 Requested basis set is cc-pVTZ
 There are 196 shells and 536 basis functions

 Total QAlloc Memory Limit 110000 MB
 Mega-Array Size       188 MB
 MEM_STATIC part       192 MB
 Discretize the solute cavity surface with Lebedev spheres
	Using 110 Lebedev grid points for each H atom
	Using 194 Lebedev grid points for other atoms
	Atomic van der Waals radii will be scaled by 1.20
 Remove points where switching function is < 1.0e-08
 Keep 1584 surface tesserae and discard 2064 interior tesserae
 Molecular Surface Area = 234.609 Angst**2
 Requested basis set is rimp2-cc-pVTZ
 There are 414 shells and 1414 basis functions
 A cutoff of  1.0D-10 yielded  14228 shell pairs
 There are    103076 function pairs (    132231 Cartesian)
 Smallest overlap matrix eigenvalue = 6.61E-05

 Scale SEOQF with 1.000000e-01/1.000000e-01/1.000000e-01

 Standard Electronic Orientation quadrupole field applied
 Nucleus-field energy     =     0.0000000332 hartrees
 Guess from superposition of atomic densities
 Warning:  Energy on first SCF cycle will be non-variational
 SAD guess density has 104.000000 electrons

 -----------------------------------------------------------------------
  General SCF calculation program by
  Eric Jon Sundstrom, Paul Horn, Yuezhi Mao, Dmitri Zuev, Alec White,
  David Stuck, Shaama M.S., Shane Yost, Joonho Lee, David Small,
  Daniel Levine, Susi Lehtola, Hugh Burton, Evgeny Epifanovsky,
  Bang C. Huynh
 -----------------------------------------------------------------------
 Hartree-Fock
 A restricted SCF calculation will be
 performed using DIIS
 SCF converges when DIIS error is below 1.0e-06
 ---------------------------------------
  Cycle       Energy         DIIS error
 ---------------------------------------
    1   -1186.1188527793      2.40e-02  
    2   -1180.5656320766      1.54e-03  
    3   -1180.6918391053      5.37e-04  
    4   -1180.7050859155      2.74e-04  
    5   -1180.7086498451      5.67e-05  
    6   -1180.7088945065      2.42e-05  
    7   -1180.7089627858      1.13e-05  
    8   -1180.7089829385      5.26e-06  
    9   -1180.7089885659      2.14e-06  
   10   -1180.7089895591      7.25e-07  Convergence criterion met
 ---------------------------------------
 SCF time:   CPU 584.07s  wall 587.00s 

************** Final PCM Free Energy Summary **************
 G_electrostatic  =      -0.00937235 hartree =      -5.88123725 kcal/mol
 G_cavitation     =       0.00000000 hartree =       0.00000000 kcal/mol
 G_dispersion     =       0.00000000 hartree =       0.00000000 kcal/mol
 G_repulsion      =       0.00000000 hartree =       0.00000000 kcal/mol
 --------------------------------------------------
 Non-electrostatic Free Energy =       0.00000000 hartree =       0.00000000 kcal/mol
 Total                         =      -0.00937235 hartree =      -5.88123725 kcal/mol
 --------------------------------------------------
 SCF Energy (H0 + V/2)                       =   -1180.70898956 
 Solute Internal Energy (H0)                 =   -1180.69961721 
 Total Free Energy (H0 + V/2 + non-elec)     =   -1180.70898956 hartree
                                             = -740906.07344318 kcal/mol
***********************************************************

 SCF   energy in the final basis set =    -1180.7089895591
 Total energy in the final basis set =    -1180.7089895591


 --------------------------------------------------------------
  Generalized many-body perturbation theory program
  by Joonho Lee, Fazle Rob, Xintian Feng, Evgeny Epifanovsky

 No regularization used 
 (reg. param. = 0.0000e+00)
  (P|Q)^-1/2 Time:  CPU 1.89 s  wall 1.90 s

 In RI-MP2 calculation: 
 # of frozen core orbitals: 20

 Components of the RIMP2 correlation energy:
        aaaa    correlation energy =        -0.2532649269 a.u.
        abab    correlation energy =        -1.5094491360 a.u.
        bbbb    correlation energy =        -0.2532649269 a.u.
        non-Brillouin singles      =        -0.0000000000 a.u.
        total same-spin energy     =        -0.5065298539 a.u.
        total opposite-spin energy =        -1.5094491360 a.u.

 Total  RIMP2   correlation energy =        -2.0159789899 a.u.
        RIMP2         total energy =     -1182.7249685490 a.u.

 RI-MP2 Energy Time:  CPU 80.04 s  wall 80.33 s
 
 --------------------------------------------------------------
 
                    Orbital Energies (a.u.)
 --------------------------------------------------------------
 
 Alpha MOs
 -- Occupied --
-91.9817 -91.9351 -11.2822 -11.2572 -11.2561 -11.2535 -11.2514 -11.2490
-11.2371 -11.2294 -11.2292 -11.2118  -8.9824  -8.9401  -6.6633  -6.6625
 -6.6621  -6.6215  -6.6205  -6.6192  -1.2020  -1.1534  -1.0584  -1.0247
 -1.0010  -0.9633  -0.9104  -0.9003  -0.8083  -0.7622  -0.7446  -0.7030
 -0.6500  -0.6283  -0.6140  -0.5864  -0.5777  -0.5758  -0.5657  -0.5513
 -0.5412  -0.5321  -0.5070  -0.5059  -0.4877  -0.4683  -0.4620  -0.4441
 -0.3599  -0.3314  -0.3134  -0.2767
 -- Virtual --
  0.0635   0.1301   0.1418   0.1530   0.1607   0.1690   0.1765   0.1836
  0.1865   0.2008   0.2058   0.2185   0.2197   0.2331   0.2383   0.2452
  0.2473   0.2534   0.2699   0.2943   0.3089   0.3136   0.3420   0.3535
  0.3629   0.3759   0.3792   0.3812   0.3910   0.3984   0.4104   0.4199
  0.4276   0.4424   0.4470   0.4597   0.4711   0.4756   0.4872   0.4916
  0.5005   0.5025   0.5161   0.5224   0.5322   0.5370   0.5516   0.5661
  0.5674   0.5722   0.5893   0.6014   0.6055   0.6115   0.6166   0.6211
  0.6265   0.6279   0.6364   0.6411   0.6431   0.6477   0.6509   0.6579
  0.6643   0.6700   0.6781   0.6850   0.6975   0.7103   0.7223   0.7326
  0.7334   0.7456   0.7611   0.7687   0.7724   0.7959   0.8054   0.8261
  0.8289   0.8419   0.8468   0.8607   0.8733   0.8928   0.9086   0.9120
  0.9205   0.9479   0.9503   0.9564   0.9668   0.9881   0.9917   1.0205
  1.0300   1.0368   1.0437   1.0511   1.0620   1.0710   1.0788   1.0859
  1.0936   1.1009   1.1217   1.1325   1.1447   1.1514   1.1615   1.1714
  1.1795   1.1875   1.2029   1.2101   1.2163   1.2327   1.2366   1.2447
  1.2574   1.2611   1.2675   1.2726   1.2785   1.2869   1.3035   1.3207
  1.3233   1.3375   1.3585   1.3673   1.3790   1.3866   1.4052   1.4105
  1.4160   1.4345   1.4512   1.4545   1.4662   1.4775   1.4801   1.4951
  1.5083   1.5142   1.5210   1.5286   1.5381   1.5434   1.5535   1.5655
  1.5716   1.5793   1.5812   1.5863   1.6162   1.6254   1.6420   1.6499
  1.6571   1.6607   1.6678   1.6781   1.7029   1.7148   1.7223   1.7291
  1.7400   1.7524   1.7651   1.7896   1.7936   1.8148   1.8391   1.8455
  1.8826   1.9090   1.9292   1.9416   1.9570   1.9668   1.9820   2.0084
  2.0178   2.0289   2.0427   2.0641   2.0873   2.1062   2.1405   2.1693
  2.1812   2.1884   2.1999   2.2218   2.2315   2.2408   2.2602   2.2860
  2.2975   2.3284   2.3479   2.3707   2.3936   2.4511   2.4674   2.4745
  2.4918   2.5096   2.5227   2.5358   2.5809   2.6086   2.6284   2.6378
  2.6480   2.6589   2.6643   2.6799   2.6854   2.6888   2.6993   2.7186
  2.7423   2.7572   2.7783   2.7855   2.7898   2.7969   2.7999   2.8205
  2.8372   2.8468   2.8723   2.8837   2.8912   2.8993   2.9098   2.9403
  2.9545   2.9708   2.9786   2.9977   3.0018   3.0183   3.0316   3.0455
  3.0580   3.0672   3.0916   3.1105   3.1184   3.1243   3.1361   3.1484
  3.1570   3.1596   3.1710   3.1761   3.1906   3.2088   3.2133   3.2167
  3.2277   3.2414   3.2513   3.2538   3.2635   3.2714   3.2912   3.3062
  3.3115   3.3245   3.3271   3.3428   3.3491   3.3520   3.3586   3.3637
  3.3719   3.3810   3.3905   3.3929   3.4038   3.4108   3.4220   3.4299
  3.4401   3.4577   3.4670   3.4680   3.4924   3.4976   3.5016   3.5121
  3.5168   3.5296   3.5388   3.5554   3.5604   3.5682   3.5773   3.5842
  3.5915   3.6147   3.6260   3.6348   3.6440   3.6548   3.6628   3.6699
  3.6796   3.6946   3.7100   3.7154   3.7193   3.7276   3.7345   3.7530
  3.7549   3.7575   3.7721   3.7767   3.7921   3.7974   3.8088   3.8251
  3.8302   3.8531   3.8598   3.8694   3.8768   3.9009   3.9051   3.9243
  3.9412   3.9459   3.9623   3.9780   3.9804   3.9990   4.0005   4.0141
  4.0307   4.0366   4.0515   4.0623   4.0683   4.0795   4.1002   4.1158
  4.1240   4.1425   4.1461   4.1537   4.1763   4.1795   4.1980   4.2101
  4.2148   4.2276   4.2352   4.2441   4.2567   4.2688   4.2725   4.2895
  4.2906   4.3028   4.3232   4.3269   4.3420   4.3468   4.3609   4.3690
  4.3709   4.3949   4.3999   4.4032   4.4102   4.4187   4.4447   4.4501
  4.4561   4.4629   4.4738   4.4876   4.5147   4.5203   4.5406   4.5467
  4.5653   4.5889   4.6131   4.6226   4.6343   4.6555   4.6644   4.6746
  4.6948   4.7059   4.7210   4.7718   4.7940   4.8154   4.8296   4.8512
  4.8726   4.8988   4.9089   4.9199   4.9314   4.9346   4.9745   4.9975
  5.0193   5.0496   5.0565   5.1033   5.1072   5.1312   5.1453   5.1660
  5.1962   5.2237   5.2288   5.2686   5.2910   5.2934   5.3086   5.3178
  5.3368   5.3697   5.3772   5.3952   5.4067   5.4175   5.4460   5.4524
  5.4777   5.5039   5.5151   5.5432   5.5517   5.5626   5.5755   5.5959
  5.6157   5.6294   5.6405   5.6711   5.6848   5.7010   5.7176   5.7223
  5.7573   5.7906   5.8192   5.9491   6.0202   6.0341   6.0861   6.1389
  6.2069   6.2133   6.2261   6.2310   6.2441   6.2755   6.2929   6.3311
  6.3867   6.4101   9.3925  10.4653  12.5491  12.8423  13.1604  13.8965
 14.0912  14.2192  14.2852  14.6178
 --------------------------------------------------------------
 
          Ground-State Mulliken Net Atomic Charges

     Atom                 Charge (a.u.)
  ----------------------------------------
      1 C                    -0.078450
      2 C                    -0.332790
      3 C                    -0.054115
      4 H                     0.173154
      5 C                     0.062825
      6 S                    -0.186900
      7 C                    -0.271855
      8 H                     0.112418
      9 H                     0.101706
     10 H                     0.104583
     11 C                    -0.125394
     12 C                    -0.163679
     13 C                     0.012725
     14 H                     0.184005
     15 C                    -0.191270
     16 S                     0.017833
     17 C                    -0.268245
     18 H                     0.102945
     19 H                     0.107765
     20 H                     0.106946
     21 H                     0.201100
     22 H                     0.107587
     23 H                     0.109938
     24 H                     0.167168
  ----------------------------------------
  Sum of atomic charges =     0.000000

 -----------------------------------------------------------------
                    Cartesian Multipole Moments
 -----------------------------------------------------------------
    Charge (ESU x 10^10)
                -0.0000
    Dipole Moment (Debye)
         X      -0.1994      Y       1.0707      Z       0.9011
       Tot       1.4135
    Quadrupole Moments (Debye-Ang)
        XX     -84.8245     XY       9.5964     YY     -81.7445
        XZ       0.1836     YZ       1.8810     ZZ     -85.2651
    Octopole Moments (Debye-Ang^2)
       XXX    -150.4344    XXY      85.4935    XYY     -39.8178
       YYY     186.5623    XXZ      -3.5110    XYZ      -1.3161
       YYZ      -4.9976    XZZ     -45.2260    YZZ      79.0498
       ZZZ       5.4862
    Hexadecapole Moments (Debye-Ang^3)
      XXXX   -1251.5229   XXXY    -172.7958   XXYY    -590.2960
      XYYY    -225.2835   YYYY   -2342.1020   XXXZ     -84.1911
      XXYZ     -28.1708   XYYZ     -33.9031   YYYZ     -62.0393
      XXZZ    -300.5357   XYZZ     -70.4165   YYZZ    -518.8198
      XZZZ     -75.6624   YZZZ     -61.8713   ZZZZ    -532.3436
 -----------------------------------------------------------------
 Total job time:  668.69s(wall), 665.00s(cpu) 
 Sun Jul 10 05:52:34 2022

        *************************************************************
        *                                                           *
        *  Thank you very much for using Q-Chem.  Have a nice day.  *
        *                                                           *
        *************************************************************


remove work dirs ./qchem2609806.0 -- ./qchem2609806.-1
rm -rf ./qchem2609806
