You are running Q-Chem version: 5.4.0

#
# job setting
#
local host:  exp-1-12
current dir: /expanse/lustre/scratch/theleonzhang/temp_project/Hydrogenated_Rotation_Test
input file:  Methylthiophene_Phi_40_Theta_0_Methylthiophene_Hydrogenated.qcin
output file: 
nprocs     : 0
nthreads   : 1
#
# qchem installation setting
#
QC:          /cm/shared/apps/spack/cpu/opt/spack/linux-centos8-zen2/gcc-10.2.0/qchem-5.4-akfmr7b3t57bfs6qan3padb2wnb2i7cl
QCAUX:       /cm/shared/apps/spack/cpu/opt/spack/linux-centos8-zen2/gcc-10.2.0/qchem-5.4-akfmr7b3t57bfs6qan3padb2wnb2i7cl/qcaux
QCPROG:      /cm/shared/apps/spack/cpu/opt/spack/linux-centos8-zen2/gcc-10.2.0/qchem-5.4-akfmr7b3t57bfs6qan3padb2wnb2i7cl/exe/qcprog.exe_s
QCPROG_S:    /cm/shared/apps/spack/cpu/opt/spack/linux-centos8-zen2/gcc-10.2.0/qchem-5.4-akfmr7b3t57bfs6qan3padb2wnb2i7cl/exe/qcprog.exe_s
PARALLEL:    -DSERIAL
QCMPI:       mpich
#
# qchem directory setting
#
qcrun:       qchem117563
QCSCRATCH:   .
QCLOCALSCR:  
QCTMPDIR:    .
QCFILEPREF:  ./qchem117563
QCSAVEDIR:   
workdirs:    ./qchem117563
workdir0:    ./qchem117563
partmpdirs =  
#
# parallel setting
#
QCRSH:           ssh
QCMPI:           mpich
QCMPIRUN:        /cm/shared/apps/spack/cpu/opt/spack/linux-centos8-zen2/gcc-10.2.0/qchem-5.4-akfmr7b3t57bfs6qan3padb2wnb2i7cl/bin/mpi/mpirun_qchem
QCMACHINEFILE:   ./qchem117563/hostfile

#
# env setting
#
exported envs:   QC QCAUX QCSCRATCH QCRUNNAME QCFILEPREF QCPROG QCPROG_S GUIFILE

Running Job 1 of 1 Methylthiophene_Phi_40_Theta_0_Methylthiophene_Hydrogenated.qcin
qchem Methylthiophene_Phi_40_Theta_0_Methylthiophene_Hydrogenated.qcin_117563.0 ./qchem117563/ 0
/cm/shared/apps/spack/cpu/opt/spack/linux-centos8-zen2/gcc-10.2.0/qchem-5.4-akfmr7b3t57bfs6qan3padb2wnb2i7cl/exe/qcprog.exe_s Methylthiophene_Phi_40_Theta_0_Methylthiophene_Hydrogenated.qcin_117563.0 ./qchem117563/
                  Welcome to Q-Chem
     A Quantum Leap Into The Future Of Chemistry


 Q-Chem 5.4, Q-Chem, Inc., Pleasanton, CA (2021)

 License issued to: University of California, San Diego (site)

 E. Epifanovsky,  A. T. B. Gilbert,  Xintian Feng,  Joonho Lee,  Yuezhi Mao,  
 N. Mardirossian,  P. Pokhilko,  A. White,  M. Wormit,  M. P. Coons,  
 A. L. Dempwolff,  Zhengting Gan,  D. Hait,  P. R. Horn,  L. D. Jacobson,  
 I. Kaliman,  J. Kussmann,  A. W. Lange,  Ka Un Lao,  D. S. Levine,  Jie Liu,  
 S. C. McKenzie,  A. F. Morrison,  K. Nanda,  F. Plasser,  D. R. Rehn,  
 M. L. Vidal,  Zhi-Qiang You,  Ying Zhu,  B. Alam,  B. Albrecht,  
 A. Aldossary,  E. Alguire,  J. H. Andersen,  D. Barton,  K. Begam,  A. Behn,  
 Y. A. Bernard,  E. J. Berquist,  H. Burton,  A. Carreras,  K. Carter-Fenk,  
 R. Chakraborty,  A. D. Chien,  K. D. Closser,  V. Cofer-Shabica,  
 S. Dasgupta,  Jia Deng,  M. de Wergifosse,  M. Diedenhofen,  Hainam Do,  
 S. Ehlert,  Po-Tung Fang,  S. Fatehi,  Qingguo Feng,  J. Gayvert,  
 Qinghui Ge,  G. Gidofalvi,  M. Goldey,  J. Gomes,  C. Gonzalez-Espinoza,  
 S. Gulania,  A. Gunina,  M. W. D. Hanson-Heine,  P. H. P. Harbach,  
 A. W. Hauser,  M. F. Herbst,  M. Hernandez Vera,  M. Hodecker,  
 Z. C. Holden,  S. Houck,  Xunkun Huang,  Kerwin Hui,  B. C. Huynh,  
 M. Ivanov,  Hyunjun Ji,  Hanjie Jiang,  B. Kaduk,  S. Kaehler,  
 K. Khistyaev,  Jaehoon Kim,  P. Klunzinger,  Z. Koczor-Benda,  
 Joong Hoon Koh,  D. Kosenkov,  L. Koulias,  T. Kowalczyk,  C. M. Krauter,  
 K. Kue,  A. Kunitsa,  T. Kus,  A. Landau,  K. V. Lawler,  D. Lefrancois,  
 S. Lehtola,  Rain Li,  Yi-Pei Li,  Jiashu Liang,  M. Liebenthal,  
 Hung-Hsuan Lin,  You-Sheng Lin,  Fenglai Liu,  Kuan-Yu Liu,  
 M. Loipersberger,  A. Luenser,  A. Manjanath,  P. Manohar,  E. Mansoor,  
 S. F. Manzer,  Shan-Ping Mao,  A. V. Marenich,  T. Markovich,  S. Mason,  
 S. A. Maurer,  P. F. McLaughlin,  M. F. S. J. Menger,  J.-M. Mewes,  
 S. A. Mewes,  P. Morgante,  J. W. Mullinax,  T. S. Nguyen-Beck,  
 K. J. Oosterbaan,  G. Paran,  Alexander C. Paul,  Suranjan K. Paul,  
 F. Pavosevic,  Zheng Pei,  S. Prager,  E. I. Proynov,  E. Ramos,  B. Rana,  
 A. E. Rask,  A. Rettig,  R. M. Richard,  F. Rob,  E. Rossomme,  T. Scheele,  
 M. Scheurer,  M. Schneider,  N. Sergueev,  S. M. Sharada,  W. Skomorowski,  
 D. W. Small,  C. J. Stein,  Yu-Chuan Su,  E. J. Sundstrom,  Zhen Tao,  
 J. Thirman,  T. Tsuchimochi,  N. M. Tubman,  S. P. Veccham,  O. Vydrov,  
 J. Wenzel,  J. Witte,  A. Yamada,  Kun Yao,  S. Yeganeh,  S. R. Yost,  
 A. Zech,  Igor Ying Zhang,  Xing Zhang,  Yu Zhang,  D. Zuev,  
 A. Aspuru-Guzik,  A. T. Bell,  N. A. Besley,  K. B. Bravaya,  B. R. Brooks,  
 D. Casanova,  Jeng-Da Chai,  S. Coriani,  C. J. Cramer,  
 A. E. DePrince, III,  R. A. DiStasio Jr.,  A. Dreuw,  B. D. Dunietz,  
 T. R. Furlani,  W. A. Goddard III,  S. Grimme,  S. Hammes-Schiffer,  
 T. Head-Gordon,  W. J. Hehre,  Chao-Ping Hsu,  T.-C. Jagau,  Yousung Jung,  
 A. Klamt,  Jing Kong,  D. S. Lambrecht,  WanZhen Liang,  N. J. Mayhall,  
 C. W. McCurdy,  J. B. Neaton,  C. Ochsenfeld,  J. A. Parkhill,  R. Peverati,  
 V. A. Rassolov,  Yihan Shao,  L. V. Slipchenko,  T. Stauch,  R. P. Steele,  
 J. E. Subotnik,  A. J. W. Thom,  A. Tkatchenko,  D. G. Truhlar,  
 T. Van Voorhis,  T. A. Wesolowski,  K. B. Whaley,  H. L. Woodcock III,  
 P. M. Zimmerman,  S. Faraji,  P. M. W. Gill,  M. Head-Gordon,  
 J. M. Herbert,  A. I. Krylov

 Contributors to earlier versions of Q-Chem not listed above: 
 R. D. Adamson,  B. Austin,  R. Baer,  J. Baker,  G. J. O. Beran,  
 K. Brandhorst,  S. T. Brown,  E. F. C. Byrd,  A. K. Chakraborty,  
 G. K. L. Chan,  Chun-Min Chang,  Yunqing Chen,  C.-L. Cheng,  
 Siu Hung Chien,  D. M. Chipman,  D. L. Crittenden,  H. Dachsel,  
 R. J. Doerksen,  A. D. Dutoi,  R. G. Edgar,  J. Fosso-Tande,  
 L. Fusti-Molnar,  D. Ghosh,  A. Ghysels,  A. Golubeva-Zadorozhnaya,  
 J. Gonthier,  M. S. Gordon,  S. R. Gwaltney,  G. Hawkins,  J. E. Herr,  
 A. Heyden,  S. Hirata,  E. G. Hohenstein,  G. Kedziora,  F. J. Keil,  
 C. Kelley,  Jihan Kim,  R. A. King,  R. Z. Khaliullin,  P. P. Korambath,  
 W. Kurlancheek,  A. Laurent,  A. M. Lee,  M. S. Lee,  S. V. Levchenko,  
 Ching Yeh Lin,  D. Liotard,  E. Livshits,  R. C. Lochan,  I. Lotan,  
 L. A. Martinez-Martinez,  P. E. Maslen,  N. Nair,  D. P. O'Neill,  
 D. Neuhauser,  E. Neuscamman,  C. M. Oana,  R. Olivares-Amaya,  R. Olson,  
 T. M. Perrine,  B. Peters,  P. A. Pieniazek,  A. Prociuk,  Y. M. Rhee,  
 J. Ritchie,  M. A. Rohrdanz,  E. Rosta,  N. J. Russ,  H. F. Schaefer III,  
 M. W. Schmidt,  N. E. Schultz,  S. Sharma,  N. Shenvi,  C. D. Sherrill,  
 A. C. Simmonett,  A. Sodt,  T. Stein,  D. Stuck,  K. S. Thanthiriwatte,  
 V. Vanovschi,  L. Vogt,  Tao Wang,  A. Warshel,  M. A. Watson,  
 C. F. Williams,  Q. Wu,  X. Xu,  Jun Yang,  W. Zhang,  Yan Zhao

 Please cite Q-Chem as follows:
 Y. Shao et al., Mol. Phys. 113, 184-215 (2015)
 DOI: 10.1080/00268976.2014.952696

 Q-Chem 5.4.0 for Intel X86 EM64T Linux

 Parts of Q-Chem use Armadillo 9.800.1 (Horizon Scraper).
 http://arma.sourceforge.net/

 Q-Chem begins on Sat Jul  9 19:02:27 2022  

 Host: 
0

     Scratch files written to ./qchem117563//
 May1621 |scratch|qcdevops|jenkins|workspace|build_RNUM    
 Processing $rem in /cm/shared/apps/spack/cpu/opt/spack/linux-centos8-zen2/gcc-10.2.0/qchem-5.4-akfmr7b3t57bfs6qan3padb2wnb2i7cl/config/preferences:
 Processing $rem in /home/theleonzhang/.qchemrc:
 Symmetry turned off for PCM/SM12/SMD calculation
 Core orbitals will be frozen

 Checking the input file for inconsistencies... 	...done.

--------------------------------------------------------------
User input:
--------------------------------------------------------------
$molecule
0 1
C	0.670748	-3.808105	0.775127
C	0.642889	-3.647744	-0.612565
C	0.409365	-2.321236	-1.066639
H	0.791563	-4.491881	-1.302900
C	0.250169	-1.418777	0.000000
S	0.397135	-2.252211	1.544483
C	0.343896	-1.948630	-2.521872
H	0.500095	-2.834906	-3.166949
H	1.118228	-1.200068	-2.790821
H	-0.639561	-1.509723	-2.791023
C	0.000000	0.000000	0.000000
C	0.431829	0.747884	1.099446
C	1.123799	1.946373	0.776721
H	0.247423	0.428497	2.136088
C	1.234147	2.137457	-0.612546
S	0.471221	0.816130	-1.486809
C	1.667694	2.888380	1.814609
H	1.454874	2.519768	2.836676
H	1.222009	3.901210	1.726239
H	2.767675	3.008788	1.726228
H	1.708773	2.959493	-1.161575
H	1.645845	-4.170271	1.119411
H	-0.122001	-4.481618	1.119277
H	-0.813471	-1.606048	-0.000115
$end

$rem
JOBTYPE		SP
EXCHANGE	HF
CORRELATION	pRIMP2
BASIS		cc-pvtz
METHOD		rimp2
AUX_BASIS	rimp2-cc-pvtz
SOLVENT_METHOD	PCM
PURECART	11111
SYMMETRY	false
MEM_TOTAL	110000
SCF_CONVERGENCE = 6
THRESH=10
$end



$solvent
dielectric 4.90
$end
--------------------------------------------------------------
 ----------------------------------------------------------------
             Standard Nuclear Orientation (Angstroms)
    I     Atom           X                Y                Z
 ----------------------------------------------------------------
    1      C       0.6707480000    -3.8081050000     0.7751270000
    2      C       0.6428890000    -3.6477440000    -0.6125650000
    3      C       0.4093650000    -2.3212360000    -1.0666390000
    4      H       0.7915630000    -4.4918810000    -1.3029000000
    5      C       0.2501690000    -1.4187770000     0.0000000000
    6      S       0.3971350000    -2.2522110000     1.5444830000
    7      C       0.3438960000    -1.9486300000    -2.5218720000
    8      H       0.5000950000    -2.8349060000    -3.1669490000
    9      H       1.1182280000    -1.2000680000    -2.7908210000
   10      H      -0.6395610000    -1.5097230000    -2.7910230000
   11      C       0.0000000000     0.0000000000     0.0000000000
   12      C       0.4318290000     0.7478840000     1.0994460000
   13      C       1.1237990000     1.9463730000     0.7767210000
   14      H       0.2474230000     0.4284970000     2.1360880000
   15      C       1.2341470000     2.1374570000    -0.6125460000
   16      S       0.4712210000     0.8161300000    -1.4868090000
   17      C       1.6676940000     2.8883800000     1.8146090000
   18      H       1.4548740000     2.5197680000     2.8366760000
   19      H       1.2220090000     3.9012100000     1.7262390000
   20      H       2.7676750000     3.0087880000     1.7262280000
   21      H       1.7087730000     2.9594930000    -1.1615750000
   22      H       1.6458450000    -4.1702710000     1.1194110000
   23      H      -0.1220010000    -4.4816180000     1.1192770000
   24      H      -0.8134710000    -1.6060480000    -0.0001150000
 ----------------------------------------------------------------
 Nuclear Repulsion Energy =         888.14729847 hartrees
 There are       52 alpha and       52 beta electrons

 Q-Chem warning in module forms1/BasisType.C, line 2236:

 You are not using the predefined 5D/6D in this basis set.

 Requested basis set is cc-pVTZ
 There are 196 shells and 536 basis functions

 Total QAlloc Memory Limit 110000 MB
 Mega-Array Size       188 MB
 MEM_STATIC part       192 MB
 Discretize the solute cavity surface with Lebedev spheres
	Using 110 Lebedev grid points for each H atom
	Using 194 Lebedev grid points for other atoms
	Atomic van der Waals radii will be scaled by 1.20
 Remove points where switching function is < 1.0e-08
 Keep 1560 surface tesserae and discard 2088 interior tesserae
 Molecular Surface Area = 227.514 Angst**2
 Requested basis set is rimp2-cc-pVTZ
 There are 414 shells and 1414 basis functions
 A cutoff of  1.0D-10 yielded  14189 shell pairs
 There are    102883 function pairs (    131950 Cartesian)
 Smallest overlap matrix eigenvalue = 6.26E-05

 Scale SEOQF with 1.000000e-01/1.000000e-01/1.000000e-01

 Standard Electronic Orientation quadrupole field applied
 Nucleus-field energy     =     0.0000000189 hartrees
 Guess from superposition of atomic densities
 Warning:  Energy on first SCF cycle will be non-variational
 SAD guess density has 104.000000 electrons

 -----------------------------------------------------------------------
  General SCF calculation program by
  Eric Jon Sundstrom, Paul Horn, Yuezhi Mao, Dmitri Zuev, Alec White,
  David Stuck, Shaama M.S., Shane Yost, Joonho Lee, David Small,
  Daniel Levine, Susi Lehtola, Hugh Burton, Evgeny Epifanovsky,
  Bang C. Huynh
 -----------------------------------------------------------------------
 Hartree-Fock
 A restricted SCF calculation will be
 performed using DIIS
 SCF converges when DIIS error is below 1.0e-06
 ---------------------------------------
  Cycle       Energy         DIIS error
 ---------------------------------------
    1   -1186.1176647273      2.40e-02  
    2   -1180.5650320891      1.56e-03  
    3   -1180.6914738478      6.19e-04  
    4   -1180.7063243417      3.39e-04  
    5   -1180.7116721519      6.39e-05  
    6   -1180.7119533323      2.57e-05  
    7   -1180.7120216760      1.02e-05  
    8   -1180.7120374993      4.74e-06  
    9   -1180.7120415711      1.95e-06  
   10   -1180.7120423338      7.58e-07  Convergence criterion met
 ---------------------------------------
 SCF time:   CPU 589.61s  wall 592.00s 

************** Final PCM Free Energy Summary **************
 G_electrostatic  =      -0.00799709 hartree =      -5.01825161 kcal/mol
 G_cavitation     =       0.00000000 hartree =       0.00000000 kcal/mol
 G_dispersion     =       0.00000000 hartree =       0.00000000 kcal/mol
 G_repulsion      =       0.00000000 hartree =       0.00000000 kcal/mol
 --------------------------------------------------
 Non-electrostatic Free Energy =       0.00000000 hartree =       0.00000000 kcal/mol
 Total                         =      -0.00799709 hartree =      -5.01825161 kcal/mol
 --------------------------------------------------
 SCF Energy (H0 + V/2)                       =   -1180.71204233 
 Solute Internal Energy (H0)                 =   -1180.70404524 
 Total Free Energy (H0 + V/2 + non-elec)     =   -1180.71204233 hartree
                                             = -740907.98908823 kcal/mol
***********************************************************

 SCF   energy in the final basis set =    -1180.7120423338
 Total energy in the final basis set =    -1180.7120423338


 --------------------------------------------------------------
  Generalized many-body perturbation theory program
  by Joonho Lee, Fazle Rob, Xintian Feng, Evgeny Epifanovsky

 No regularization used 
 (reg. param. = 0.0000e+00)
  (P|Q)^-1/2 Time:  CPU 2.28 s  wall 2.29 s

 In RI-MP2 calculation: 
 # of frozen core orbitals: 20

 Components of the RIMP2 correlation energy:
        aaaa    correlation energy =        -0.2539199508 a.u.
        abab    correlation energy =        -1.5108171138 a.u.
        bbbb    correlation energy =        -0.2539199508 a.u.
        non-Brillouin singles      =        -0.0000000000 a.u.
        total same-spin energy     =        -0.5078399016 a.u.
        total opposite-spin energy =        -1.5108171138 a.u.

 Total  RIMP2   correlation energy =        -2.0186570154 a.u.
        RIMP2         total energy =     -1182.7306993492 a.u.

 RI-MP2 Energy Time:  CPU 116.27 s  wall 116.65 s
 
 --------------------------------------------------------------
 
                    Orbital Energies (a.u.)
 --------------------------------------------------------------
 
 Alpha MOs
 -- Occupied --
-91.9775 -91.9430 -11.2745 -11.2650 -11.2644 -11.2537 -11.2503 -11.2413
-11.2411 -11.2296 -11.2279 -11.2170  -8.9785  -8.9477  -6.6593  -6.6586
 -6.6580  -6.6290  -6.6280  -6.6267  -1.2018  -1.1527  -1.0592  -1.0273
 -1.0064  -0.9568  -0.9140  -0.9028  -0.8110  -0.7721  -0.7196  -0.7050
 -0.6544  -0.6453  -0.6111  -0.5922  -0.5832  -0.5740  -0.5673  -0.5515
 -0.5398  -0.5340  -0.5166  -0.5152  -0.4868  -0.4664  -0.4550  -0.4410
 -0.3568  -0.3387  -0.3267  -0.2582
 -- Virtual --
  0.0824   0.1348   0.1435   0.1528   0.1604   0.1699   0.1808   0.1846
  0.1851   0.1941   0.2046   0.2115   0.2183   0.2331   0.2398   0.2462
  0.2510   0.2698   0.2787   0.3015   0.3172   0.3337   0.3433   0.3661
  0.3678   0.3708   0.3787   0.4024   0.4067   0.4148   0.4222   0.4248
  0.4487   0.4510   0.4563   0.4624   0.4772   0.4796   0.4823   0.4951
  0.5040   0.5141   0.5287   0.5321   0.5384   0.5463   0.5546   0.5704
  0.5744   0.5768   0.5834   0.5967   0.6003   0.6123   0.6158   0.6186
  0.6222   0.6279   0.6319   0.6364   0.6389   0.6475   0.6539   0.6615
  0.6654   0.6776   0.6878   0.6905   0.6930   0.7013   0.7199   0.7377
  0.7444   0.7535   0.7634   0.7711   0.7764   0.7869   0.8126   0.8214
  0.8375   0.8399   0.8578   0.8653   0.8728   0.8934   0.9017   0.9235
  0.9305   0.9445   0.9565   0.9619   0.9730   0.9829   0.9951   0.9998
  1.0223   1.0247   1.0351   1.0481   1.0530   1.0663   1.0771   1.0865
  1.0968   1.1021   1.1174   1.1336   1.1433   1.1480   1.1595   1.1609
  1.1809   1.1941   1.1950   1.2111   1.2200   1.2264   1.2322   1.2452
  1.2618   1.2685   1.2744   1.2850   1.2877   1.2958   1.3014   1.3106
  1.3196   1.3378   1.3561   1.3682   1.3780   1.3838   1.3960   1.4051
  1.4173   1.4317   1.4494   1.4595   1.4639   1.4746   1.4860   1.4885
  1.4979   1.5146   1.5232   1.5332   1.5382   1.5406   1.5478   1.5522
  1.5693   1.5789   1.5874   1.6010   1.6038   1.6289   1.6321   1.6495
  1.6550   1.6635   1.6726   1.6855   1.6965   1.7079   1.7245   1.7283
  1.7378   1.7646   1.7804   1.7950   1.8084   1.8323   1.8428   1.8517
  1.8893   1.9225   1.9437   1.9531   1.9734   1.9813   1.9927   2.0200
  2.0258   2.0558   2.0714   2.0804   2.1029   2.1131   2.1251   2.1547
  2.1836   2.1885   2.2018   2.2171   2.2199   2.2399   2.2647   2.2918
  2.2985   2.3139   2.3388   2.3750   2.4198   2.4332   2.4536   2.4721
  2.4944   2.5120   2.5394   2.5535   2.5664   2.5923   2.6072   2.6181
  2.6318   2.6411   2.6602   2.6710   2.6814   2.6985   2.7100   2.7212
  2.7436   2.7527   2.7637   2.7801   2.7924   2.8021   2.8206   2.8270
  2.8377   2.8413   2.8552   2.8756   2.8930   2.9037   2.9171   2.9454
  2.9584   2.9751   2.9857   2.9918   3.0003   3.0221   3.0364   3.0432
  3.0632   3.0696   3.0830   3.1043   3.1123   3.1270   3.1347   3.1456
  3.1502   3.1605   3.1769   3.1867   3.1967   3.1976   3.2051   3.2164
  3.2269   3.2371   3.2568   3.2594   3.2731   3.2793   3.2826   3.3049
  3.3095   3.3198   3.3390   3.3424   3.3461   3.3534   3.3590   3.3662
  3.3762   3.3842   3.3930   3.4004   3.4043   3.4194   3.4278   3.4354
  3.4383   3.4474   3.4587   3.4811   3.4889   3.4902   3.4994   3.5108
  3.5223   3.5278   3.5420   3.5488   3.5569   3.5597   3.5750   3.5903
  3.5921   3.6147   3.6182   3.6214   3.6331   3.6438   3.6549   3.6712
  3.6846   3.6970   3.7023   3.7133   3.7202   3.7371   3.7394   3.7497
  3.7542   3.7605   3.7704   3.7889   3.8035   3.8074   3.8125   3.8220
  3.8371   3.8483   3.8503   3.8687   3.8795   3.8953   3.9003   3.9246
  3.9448   3.9503   3.9560   3.9640   3.9797   3.9898   4.0093   4.0154
  4.0284   4.0438   4.0471   4.0554   4.0629   4.0783   4.0993   4.1117
  4.1199   4.1352   4.1497   4.1633   4.1740   4.1856   4.1873   4.2025
  4.2118   4.2198   4.2365   4.2456   4.2518   4.2682   4.2774   4.2803
  4.2936   4.3106   4.3152   4.3442   4.3458   4.3549   4.3584   4.3787
  4.3864   4.3902   4.4036   4.4123   4.4141   4.4381   4.4446   4.4523
  4.4657   4.4810   4.4889   4.4970   4.5071   4.5265   4.5592   4.5812
  4.5870   4.5919   4.6044   4.6240   4.6480   4.6618   4.6695   4.6851
  4.6995   4.7410   4.7653   4.7720   4.7954   4.8060   4.8147   4.8333
  4.8688   4.8753   4.8934   4.9204   4.9340   4.9465   4.9622   4.9816
  5.0338   5.0513   5.0569   5.1005   5.1167   5.1292   5.1454   5.1676
  5.1936   5.2166   5.2258   5.2681   5.2878   5.2928   5.3106   5.3152
  5.3490   5.3697   5.3724   5.3956   5.4073   5.4180   5.4414   5.4533
  5.4824   5.5096   5.5276   5.5441   5.5572   5.5600   5.5703   5.5955
  5.6214   5.6250   5.6429   5.6496   5.6899   5.6985   5.7097   5.7285
  5.7647   5.7973   5.8287   5.9853   6.0120   6.0841   6.1143   6.1379
  6.2162   6.2244   6.2300   6.2447   6.2581   6.2831   6.2923   6.3105
  6.4060   6.4192   9.4073  10.5689  12.2577  12.8669  13.1794  13.8322
 14.1044  14.2350  14.3279  14.6926
 --------------------------------------------------------------
 
          Ground-State Mulliken Net Atomic Charges

     Atom                 Charge (a.u.)
  ----------------------------------------
      1 C                    -0.072705
      2 C                    -0.338485
      3 C                    -0.035022
      4 H                     0.177554
      5 C                     0.094410
      6 S                    -0.196082
      7 C                    -0.303438
      8 H                     0.117473
      9 H                     0.116901
     10 H                     0.111502
     11 C                    -0.052767
     12 C                    -0.261034
     13 C                     0.038346
     14 H                     0.184440
     15 C                    -0.248307
     16 S                     0.015493
     17 C                    -0.269136
     18 H                     0.102832
     19 H                     0.108078
     20 H                     0.107031
     21 H                     0.196648
     22 H                     0.111300
     23 H                     0.110987
     24 H                     0.183981
  ----------------------------------------
  Sum of atomic charges =     0.000000

 -----------------------------------------------------------------
                    Cartesian Multipole Moments
 -----------------------------------------------------------------
    Charge (ESU x 10^10)
                -0.0000
    Dipole Moment (Debye)
         X       0.4220      Y       0.2368      Z      -1.0170
       Tot       1.1263
    Quadrupole Moments (Debye-Ang)
        XX     -89.3267     XY       4.7150     YY     -76.7731
        XZ      -0.5690     YZ       4.2726     ZZ     -85.3103
    Octopole Moments (Debye-Ang^2)
       XXX    -164.6725    XXY      61.3628    XYY     -34.5148
       YYY     137.1012    XXZ      -0.4162    XYZ      -0.3407
       YYZ      -1.0348    XZZ     -50.1533    YZZ      56.9581
       ZZZ      -3.5448
    Hexadecapole Moments (Debye-Ang^3)
      XXXX    -444.1835   XXXY     -34.3503   XXYY    -523.7412
      XYYY     -48.0973   YYYY   -2553.8250   XXXZ     -48.4350
      XXYZ     -32.4248   XYYZ     -24.5719   YYYZ     -97.7519
      XXZZ    -263.0076   XYZZ      -8.3396   YYZZ    -620.0738
      XZZZ     -59.3323   YZZZ     -48.4342   ZZZZ   -1095.0108
 -----------------------------------------------------------------
 Total job time:  710.97s(wall), 706.91s(cpu) 
 Sat Jul  9 19:14:18 2022

        *************************************************************
        *                                                           *
        *  Thank you very much for using Q-Chem.  Have a nice day.  *
        *                                                           *
        *************************************************************


remove work dirs ./qchem117563.0 -- ./qchem117563.-1
rm -rf ./qchem117563
