You are running Q-Chem version: 5.4.0

#
# job setting
#
local host:  exp-2-29
current dir: /expanse/lustre/scratch/theleonzhang/temp_project/Hydrogenated_Rotation_Test
input file:  Methylthiophene_Phi_5_Theta_80_Methylthiophene_Hydrogenated.qcin
output file: 
nprocs     : 0
nthreads   : 1
#
# qchem installation setting
#
QC:          /cm/shared/apps/spack/cpu/opt/spack/linux-centos8-zen2/gcc-10.2.0/qchem-5.4-akfmr7b3t57bfs6qan3padb2wnb2i7cl
QCAUX:       /cm/shared/apps/spack/cpu/opt/spack/linux-centos8-zen2/gcc-10.2.0/qchem-5.4-akfmr7b3t57bfs6qan3padb2wnb2i7cl/qcaux
QCPROG:      /cm/shared/apps/spack/cpu/opt/spack/linux-centos8-zen2/gcc-10.2.0/qchem-5.4-akfmr7b3t57bfs6qan3padb2wnb2i7cl/exe/qcprog.exe_s
QCPROG_S:    /cm/shared/apps/spack/cpu/opt/spack/linux-centos8-zen2/gcc-10.2.0/qchem-5.4-akfmr7b3t57bfs6qan3padb2wnb2i7cl/exe/qcprog.exe_s
PARALLEL:    -DSERIAL
QCMPI:       mpich
#
# qchem directory setting
#
qcrun:       qchem305717
QCSCRATCH:   .
QCLOCALSCR:  
QCTMPDIR:    .
QCFILEPREF:  ./qchem305717
QCSAVEDIR:   
workdirs:    ./qchem305717
workdir0:    ./qchem305717
partmpdirs =  
#
# parallel setting
#
QCRSH:           ssh
QCMPI:           mpich
QCMPIRUN:        /cm/shared/apps/spack/cpu/opt/spack/linux-centos8-zen2/gcc-10.2.0/qchem-5.4-akfmr7b3t57bfs6qan3padb2wnb2i7cl/bin/mpi/mpirun_qchem
QCMACHINEFILE:   ./qchem305717/hostfile

#
# env setting
#
exported envs:   QC QCAUX QCSCRATCH QCRUNNAME QCFILEPREF QCPROG QCPROG_S GUIFILE

Running Job 1 of 1 Methylthiophene_Phi_5_Theta_80_Methylthiophene_Hydrogenated.qcin
qchem Methylthiophene_Phi_5_Theta_80_Methylthiophene_Hydrogenated.qcin_305717.0 ./qchem305717/ 0
/cm/shared/apps/spack/cpu/opt/spack/linux-centos8-zen2/gcc-10.2.0/qchem-5.4-akfmr7b3t57bfs6qan3padb2wnb2i7cl/exe/qcprog.exe_s Methylthiophene_Phi_5_Theta_80_Methylthiophene_Hydrogenated.qcin_305717.0 ./qchem305717/
                  Welcome to Q-Chem
     A Quantum Leap Into The Future Of Chemistry


 Q-Chem 5.4, Q-Chem, Inc., Pleasanton, CA (2021)

 License issued to: University of California, San Diego (site)

 E. Epifanovsky,  A. T. B. Gilbert,  Xintian Feng,  Joonho Lee,  Yuezhi Mao,  
 N. Mardirossian,  P. Pokhilko,  A. White,  M. Wormit,  M. P. Coons,  
 A. L. Dempwolff,  Zhengting Gan,  D. Hait,  P. R. Horn,  L. D. Jacobson,  
 I. Kaliman,  J. Kussmann,  A. W. Lange,  Ka Un Lao,  D. S. Levine,  Jie Liu,  
 S. C. McKenzie,  A. F. Morrison,  K. Nanda,  F. Plasser,  D. R. Rehn,  
 M. L. Vidal,  Zhi-Qiang You,  Ying Zhu,  B. Alam,  B. Albrecht,  
 A. Aldossary,  E. Alguire,  J. H. Andersen,  D. Barton,  K. Begam,  A. Behn,  
 Y. A. Bernard,  E. J. Berquist,  H. Burton,  A. Carreras,  K. Carter-Fenk,  
 R. Chakraborty,  A. D. Chien,  K. D. Closser,  V. Cofer-Shabica,  
 S. Dasgupta,  Jia Deng,  M. de Wergifosse,  M. Diedenhofen,  Hainam Do,  
 S. Ehlert,  Po-Tung Fang,  S. Fatehi,  Qingguo Feng,  J. Gayvert,  
 Qinghui Ge,  G. Gidofalvi,  M. Goldey,  J. Gomes,  C. Gonzalez-Espinoza,  
 S. Gulania,  A. Gunina,  M. W. D. Hanson-Heine,  P. H. P. Harbach,  
 A. W. Hauser,  M. F. Herbst,  M. Hernandez Vera,  M. Hodecker,  
 Z. C. Holden,  S. Houck,  Xunkun Huang,  Kerwin Hui,  B. C. Huynh,  
 M. Ivanov,  Hyunjun Ji,  Hanjie Jiang,  B. Kaduk,  S. Kaehler,  
 K. Khistyaev,  Jaehoon Kim,  P. Klunzinger,  Z. Koczor-Benda,  
 Joong Hoon Koh,  D. Kosenkov,  L. Koulias,  T. Kowalczyk,  C. M. Krauter,  
 K. Kue,  A. Kunitsa,  T. Kus,  A. Landau,  K. V. Lawler,  D. Lefrancois,  
 S. Lehtola,  Rain Li,  Yi-Pei Li,  Jiashu Liang,  M. Liebenthal,  
 Hung-Hsuan Lin,  You-Sheng Lin,  Fenglai Liu,  Kuan-Yu Liu,  
 M. Loipersberger,  A. Luenser,  A. Manjanath,  P. Manohar,  E. Mansoor,  
 S. F. Manzer,  Shan-Ping Mao,  A. V. Marenich,  T. Markovich,  S. Mason,  
 S. A. Maurer,  P. F. McLaughlin,  M. F. S. J. Menger,  J.-M. Mewes,  
 S. A. Mewes,  P. Morgante,  J. W. Mullinax,  T. S. Nguyen-Beck,  
 K. J. Oosterbaan,  G. Paran,  Alexander C. Paul,  Suranjan K. Paul,  
 F. Pavosevic,  Zheng Pei,  S. Prager,  E. I. Proynov,  E. Ramos,  B. Rana,  
 A. E. Rask,  A. Rettig,  R. M. Richard,  F. Rob,  E. Rossomme,  T. Scheele,  
 M. Scheurer,  M. Schneider,  N. Sergueev,  S. M. Sharada,  W. Skomorowski,  
 D. W. Small,  C. J. Stein,  Yu-Chuan Su,  E. J. Sundstrom,  Zhen Tao,  
 J. Thirman,  T. Tsuchimochi,  N. M. Tubman,  S. P. Veccham,  O. Vydrov,  
 J. Wenzel,  J. Witte,  A. Yamada,  Kun Yao,  S. Yeganeh,  S. R. Yost,  
 A. Zech,  Igor Ying Zhang,  Xing Zhang,  Yu Zhang,  D. Zuev,  
 A. Aspuru-Guzik,  A. T. Bell,  N. A. Besley,  K. B. Bravaya,  B. R. Brooks,  
 D. Casanova,  Jeng-Da Chai,  S. Coriani,  C. J. Cramer,  
 A. E. DePrince, III,  R. A. DiStasio Jr.,  A. Dreuw,  B. D. Dunietz,  
 T. R. Furlani,  W. A. Goddard III,  S. Grimme,  S. Hammes-Schiffer,  
 T. Head-Gordon,  W. J. Hehre,  Chao-Ping Hsu,  T.-C. Jagau,  Yousung Jung,  
 A. Klamt,  Jing Kong,  D. S. Lambrecht,  WanZhen Liang,  N. J. Mayhall,  
 C. W. McCurdy,  J. B. Neaton,  C. Ochsenfeld,  J. A. Parkhill,  R. Peverati,  
 V. A. Rassolov,  Yihan Shao,  L. V. Slipchenko,  T. Stauch,  R. P. Steele,  
 J. E. Subotnik,  A. J. W. Thom,  A. Tkatchenko,  D. G. Truhlar,  
 T. Van Voorhis,  T. A. Wesolowski,  K. B. Whaley,  H. L. Woodcock III,  
 P. M. Zimmerman,  S. Faraji,  P. M. W. Gill,  M. Head-Gordon,  
 J. M. Herbert,  A. I. Krylov

 Contributors to earlier versions of Q-Chem not listed above: 
 R. D. Adamson,  B. Austin,  R. Baer,  J. Baker,  G. J. O. Beran,  
 K. Brandhorst,  S. T. Brown,  E. F. C. Byrd,  A. K. Chakraborty,  
 G. K. L. Chan,  Chun-Min Chang,  Yunqing Chen,  C.-L. Cheng,  
 Siu Hung Chien,  D. M. Chipman,  D. L. Crittenden,  H. Dachsel,  
 R. J. Doerksen,  A. D. Dutoi,  R. G. Edgar,  J. Fosso-Tande,  
 L. Fusti-Molnar,  D. Ghosh,  A. Ghysels,  A. Golubeva-Zadorozhnaya,  
 J. Gonthier,  M. S. Gordon,  S. R. Gwaltney,  G. Hawkins,  J. E. Herr,  
 A. Heyden,  S. Hirata,  E. G. Hohenstein,  G. Kedziora,  F. J. Keil,  
 C. Kelley,  Jihan Kim,  R. A. King,  R. Z. Khaliullin,  P. P. Korambath,  
 W. Kurlancheek,  A. Laurent,  A. M. Lee,  M. S. Lee,  S. V. Levchenko,  
 Ching Yeh Lin,  D. Liotard,  E. Livshits,  R. C. Lochan,  I. Lotan,  
 L. A. Martinez-Martinez,  P. E. Maslen,  N. Nair,  D. P. O'Neill,  
 D. Neuhauser,  E. Neuscamman,  C. M. Oana,  R. Olivares-Amaya,  R. Olson,  
 T. M. Perrine,  B. Peters,  P. A. Pieniazek,  A. Prociuk,  Y. M. Rhee,  
 J. Ritchie,  M. A. Rohrdanz,  E. Rosta,  N. J. Russ,  H. F. Schaefer III,  
 M. W. Schmidt,  N. E. Schultz,  S. Sharma,  N. Shenvi,  C. D. Sherrill,  
 A. C. Simmonett,  A. Sodt,  T. Stein,  D. Stuck,  K. S. Thanthiriwatte,  
 V. Vanovschi,  L. Vogt,  Tao Wang,  A. Warshel,  M. A. Watson,  
 C. F. Williams,  Q. Wu,  X. Xu,  Jun Yang,  W. Zhang,  Yan Zhao

 Please cite Q-Chem as follows:
 Y. Shao et al., Mol. Phys. 113, 184-215 (2015)
 DOI: 10.1080/00268976.2014.952696

 Q-Chem 5.4.0 for Intel X86 EM64T Linux

 Parts of Q-Chem use Armadillo 9.800.1 (Horizon Scraper).
 http://arma.sourceforge.net/

 Q-Chem begins on Sun Jul 10 00:57:44 2022  

 Host: 
0

     Scratch files written to ./qchem305717//
 May1621 |scratch|qcdevops|jenkins|workspace|build_RNUM    
 Processing $rem in /cm/shared/apps/spack/cpu/opt/spack/linux-centos8-zen2/gcc-10.2.0/qchem-5.4-akfmr7b3t57bfs6qan3padb2wnb2i7cl/config/preferences:
 Processing $rem in /home/theleonzhang/.qchemrc:
 Symmetry turned off for PCM/SM12/SMD calculation
 Core orbitals will be frozen

 Checking the input file for inconsistencies... 	...done.

--------------------------------------------------------------
User input:
--------------------------------------------------------------
$molecule
0 1
C	-0.763475	-3.866725	0.133897
C	0.603206	-3.703963	-0.106669
C	1.050446	-2.357056	-0.185154
H	1.283024	-4.561092	-0.226709
C	-0.000000	-1.440664	-0.000000
S	-1.521018	-2.286957	0.268206
C	2.483610	-1.978743	-0.437628
H	3.118875	-2.878678	-0.549717
H	2.903464	-1.376015	0.394664
H	2.593726	-1.375728	-1.363110
C	0.000000	0.000000	0.000000
C	0.075300	0.860311	1.099446
C	0.195935	2.238951	0.776721
H	0.043151	0.492916	2.136088
C	0.215188	2.458766	-0.612546
S	0.082160	0.938811	-1.486809
C	0.290762	3.322559	1.814609
H	0.253664	2.898542	2.836676
H	-0.541206	4.052140	1.726239
H	1.236797	3.896558	1.726228
H	0.297938	3.404370	-1.161575
H	-0.946698	-4.392713	1.077442
H	-1.258274	-4.392347	-0.690363
H	0.187427	-1.440937	1.063612
$end

$rem
JOBTYPE		SP
EXCHANGE	HF
CORRELATION	pRIMP2
BASIS		cc-pvtz
METHOD		rimp2
AUX_BASIS	rimp2-cc-pvtz
SOLVENT_METHOD	PCM
PURECART	11111
SYMMETRY	false
MEM_TOTAL	110000
SCF_CONVERGENCE = 6
THRESH=10
$end



$solvent
dielectric 4.90
$end
--------------------------------------------------------------
 ----------------------------------------------------------------
             Standard Nuclear Orientation (Angstroms)
    I     Atom           X                Y                Z
 ----------------------------------------------------------------
    1      C      -0.7634750000    -3.8667250000     0.1338970000
    2      C       0.6032060000    -3.7039630000    -0.1066690000
    3      C       1.0504460000    -2.3570560000    -0.1851540000
    4      H       1.2830240000    -4.5610920000    -0.2267090000
    5      C       0.0000000000    -1.4406640000     0.0000000000
    6      S      -1.5210180000    -2.2869570000     0.2682060000
    7      C       2.4836100000    -1.9787430000    -0.4376280000
    8      H       3.1188750000    -2.8786780000    -0.5497170000
    9      H       2.9034640000    -1.3760150000     0.3946640000
   10      H       2.5937260000    -1.3757280000    -1.3631100000
   11      C       0.0000000000     0.0000000000     0.0000000000
   12      C       0.0753000000     0.8603110000     1.0994460000
   13      C       0.1959350000     2.2389510000     0.7767210000
   14      H       0.0431510000     0.4929160000     2.1360880000
   15      C       0.2151880000     2.4587660000    -0.6125460000
   16      S       0.0821600000     0.9388110000    -1.4868090000
   17      C       0.2907620000     3.3225590000     1.8146090000
   18      H       0.2536640000     2.8985420000     2.8366760000
   19      H      -0.5412060000     4.0521400000     1.7262390000
   20      H       1.2367970000     3.8965580000     1.7262280000
   21      H       0.2979380000     3.4043700000    -1.1615750000
   22      H      -0.9466980000    -4.3927130000     1.0774420000
   23      H      -1.2582740000    -4.3923470000    -0.6903630000
   24      H       0.1874270000    -1.4409370000     1.0636120000
 ----------------------------------------------------------------
 Nuclear Repulsion Energy =         871.52255947 hartrees
 There are       52 alpha and       52 beta electrons

 Q-Chem warning in module forms1/BasisType.C, line 2236:

 You are not using the predefined 5D/6D in this basis set.

 Requested basis set is cc-pVTZ
 There are 196 shells and 536 basis functions

 Total QAlloc Memory Limit 110000 MB
 Mega-Array Size       188 MB
 MEM_STATIC part       192 MB
 Discretize the solute cavity surface with Lebedev spheres
	Using 110 Lebedev grid points for each H atom
	Using 194 Lebedev grid points for other atoms
	Atomic van der Waals radii will be scaled by 1.20
 Remove points where switching function is < 1.0e-08
 Keep 1632 surface tesserae and discard 2016 interior tesserae
 Molecular Surface Area = 239.310 Angst**2
 Requested basis set is rimp2-cc-pVTZ
 There are 414 shells and 1414 basis functions
 A cutoff of  1.0D-10 yielded  13934 shell pairs
 There are    101186 function pairs (    129925 Cartesian)
 Smallest overlap matrix eigenvalue = 5.95E-05

 Scale SEOQF with 1.000000e-01/1.000000e-01/1.000000e-01

 Standard Electronic Orientation quadrupole field applied
 Nucleus-field energy     =     0.0000000369 hartrees
 Guess from superposition of atomic densities
 Warning:  Energy on first SCF cycle will be non-variational
 SAD guess density has 104.000000 electrons

 -----------------------------------------------------------------------
  General SCF calculation program by
  Eric Jon Sundstrom, Paul Horn, Yuezhi Mao, Dmitri Zuev, Alec White,
  David Stuck, Shaama M.S., Shane Yost, Joonho Lee, David Small,
  Daniel Levine, Susi Lehtola, Hugh Burton, Evgeny Epifanovsky,
  Bang C. Huynh
 -----------------------------------------------------------------------
 Hartree-Fock
 A restricted SCF calculation will be
 performed using DIIS
 SCF converges when DIIS error is below 1.0e-06
 ---------------------------------------
  Cycle       Energy         DIIS error
 ---------------------------------------
    1   -1186.0176723757      2.39e-02  
    2   -1180.6216217249      1.55e-03  
    3   -1180.7451235976      5.86e-04  
    4   -1180.7585937472      3.29e-04  
    5   -1180.7634652353      5.80e-05  
    6   -1180.7637025067      2.39e-05  
    7   -1180.7637596675      8.90e-06  
    8   -1180.7637733866      4.28e-06  
    9   -1180.7637764733      1.49e-06  
   10   -1180.7637769425      5.00e-07  Convergence criterion met
 ---------------------------------------
 SCF time:   CPU 566.12s  wall 568.00s 

************** Final PCM Free Energy Summary **************
 G_electrostatic  =      -0.00911680 hartree =      -5.72087583 kcal/mol
 G_cavitation     =       0.00000000 hartree =       0.00000000 kcal/mol
 G_dispersion     =       0.00000000 hartree =       0.00000000 kcal/mol
 G_repulsion      =       0.00000000 hartree =       0.00000000 kcal/mol
 --------------------------------------------------
 Non-electrostatic Free Energy =       0.00000000 hartree =       0.00000000 kcal/mol
 Total                         =      -0.00911680 hartree =      -5.72087583 kcal/mol
 --------------------------------------------------
 SCF Energy (H0 + V/2)                       =   -1180.76377694 
 Solute Internal Energy (H0)                 =   -1180.75466015 
 Total Free Energy (H0 + V/2 + non-elec)     =   -1180.76377694 hartree
                                             = -740940.45304517 kcal/mol
***********************************************************

 SCF   energy in the final basis set =    -1180.7637769425
 Total energy in the final basis set =    -1180.7637769425


 --------------------------------------------------------------
  Generalized many-body perturbation theory program
  by Joonho Lee, Fazle Rob, Xintian Feng, Evgeny Epifanovsky

 No regularization used 
 (reg. param. = 0.0000e+00)
  (P|Q)^-1/2 Time:  CPU 1.88 s  wall 1.89 s

 In RI-MP2 calculation: 
 # of frozen core orbitals: 20

 Components of the RIMP2 correlation energy:
        aaaa    correlation energy =        -0.2510797459 a.u.
        abab    correlation energy =        -1.5024339667 a.u.
        bbbb    correlation energy =        -0.2510797459 a.u.
        non-Brillouin singles      =        -0.0000000000 a.u.
        total same-spin energy     =        -0.5021594918 a.u.
        total opposite-spin energy =        -1.5024339667 a.u.

 Total  RIMP2   correlation energy =        -2.0045934584 a.u.
        RIMP2         total energy =     -1182.7683704010 a.u.

 RI-MP2 Energy Time:  CPU 80.31 s  wall 80.56 s
 
 --------------------------------------------------------------
 
                    Orbital Energies (a.u.)
 --------------------------------------------------------------
 
 Alpha MOs
 -- Occupied --
-91.9807 -91.9408 -11.2817 -11.2647 -11.2630 -11.2555 -11.2509 -11.2437
-11.2407 -11.2314 -11.2294 -11.2196  -8.9806  -8.9455  -6.6615  -6.6610
 -6.6604  -6.6269  -6.6259  -6.6246  -1.1981  -1.1537  -1.0582  -1.0255
 -1.0066  -0.9596  -0.9121  -0.9012  -0.8148  -0.7628  -0.7350  -0.7016
 -0.6612  -0.6410  -0.6105  -0.5887  -0.5797  -0.5720  -0.5665  -0.5507
 -0.5417  -0.5302  -0.5144  -0.5055  -0.4928  -0.4809  -0.4595  -0.4485
 -0.3557  -0.3420  -0.3127  -0.2809
 -- Virtual --
  0.0956   0.1329   0.1414   0.1505   0.1581   0.1711   0.1783   0.1802
  0.1879   0.1958   0.2040   0.2124   0.2293   0.2330   0.2367   0.2454
  0.2491   0.2597   0.2622   0.2956   0.3044   0.3380   0.3473   0.3536
  0.3693   0.3708   0.3769   0.3945   0.3971   0.4031   0.4115   0.4232
  0.4300   0.4463   0.4540   0.4576   0.4664   0.4709   0.4814   0.4876
  0.5069   0.5100   0.5196   0.5278   0.5308   0.5432   0.5465   0.5555
  0.5657   0.5749   0.5828   0.5836   0.6027   0.6074   0.6153   0.6174
  0.6246   0.6276   0.6345   0.6404   0.6431   0.6456   0.6483   0.6537
  0.6607   0.6662   0.6814   0.6858   0.6917   0.7034   0.7126   0.7261
  0.7304   0.7488   0.7563   0.7686   0.7841   0.8022   0.8049   0.8229
  0.8276   0.8386   0.8503   0.8545   0.8777   0.8876   0.8953   0.9154
  0.9249   0.9471   0.9489   0.9633   0.9738   0.9875   0.9931   1.0066
  1.0138   1.0241   1.0322   1.0486   1.0556   1.0710   1.0725   1.0852
  1.0945   1.0949   1.1053   1.1212   1.1256   1.1520   1.1624   1.1685
  1.1760   1.1962   1.2002   1.2059   1.2151   1.2227   1.2322   1.2465
  1.2516   1.2609   1.2614   1.2748   1.2833   1.2858   1.3021   1.3110
  1.3227   1.3351   1.3455   1.3510   1.3604   1.3970   1.4052   1.4152
  1.4255   1.4318   1.4445   1.4547   1.4694   1.4825   1.4894   1.4982
  1.5045   1.5141   1.5173   1.5336   1.5362   1.5453   1.5472   1.5541
  1.5690   1.5755   1.5872   1.5986   1.6043   1.6154   1.6237   1.6361
  1.6470   1.6732   1.6845   1.6910   1.6999   1.7159   1.7207   1.7365
  1.7472   1.7561   1.7792   1.7871   1.7951   1.8283   1.8367   1.8606
  1.8736   1.9066   1.9223   1.9332   1.9465   1.9703   1.9921   2.0062
  2.0146   2.0175   2.0406   2.0608   2.0727   2.1339   2.1416   2.1535
  2.1829   2.1987   2.2076   2.2172   2.2306   2.2490   2.2699   2.2721
  2.3077   2.3317   2.3391   2.3628   2.4081   2.4204   2.4501   2.4684
  2.4894   2.4954   2.5357   2.5400   2.5731   2.5799   2.6128   2.6203
  2.6310   2.6339   2.6573   2.6629   2.6790   2.6865   2.7100   2.7148
  2.7360   2.7482   2.7572   2.7627   2.7773   2.7830   2.7922   2.8136
  2.8358   2.8441   2.8563   2.8763   2.8892   2.9099   2.9135   2.9228
  2.9308   2.9542   2.9709   2.9828   3.0147   3.0203   3.0263   3.0392
  3.0433   3.0880   3.0934   3.1025   3.1106   3.1167   3.1274   3.1417
  3.1534   3.1542   3.1674   3.1694   3.1802   3.1894   3.2035   3.2127
  3.2317   3.2389   3.2522   3.2651   3.2785   3.2912   3.2976   3.3056
  3.3111   3.3180   3.3304   3.3347   3.3460   3.3544   3.3578   3.3727
  3.3779   3.3881   3.3943   3.3976   3.4013   3.4051   3.4216   3.4339
  3.4413   3.4521   3.4585   3.4678   3.4746   3.4864   3.5058   3.5130
  3.5147   3.5270   3.5320   3.5343   3.5461   3.5571   3.5675   3.5794
  3.5931   3.6041   3.6114   3.6200   3.6259   3.6297   3.6423   3.6600
  3.6704   3.6783   3.6874   3.6973   3.7083   3.7180   3.7341   3.7362
  3.7382   3.7515   3.7632   3.7785   3.7913   3.7993   3.8028   3.8081
  3.8255   3.8353   3.8497   3.8660   3.8786   3.8805   3.8984   3.9119
  3.9265   3.9435   3.9510   3.9699   3.9750   3.9863   4.0001   4.0128
  4.0228   4.0393   4.0446   4.0490   4.0760   4.0774   4.0853   4.1032
  4.1207   4.1309   4.1384   4.1590   4.1690   4.1803   4.1876   4.2001
  4.2088   4.2192   4.2304   4.2436   4.2530   4.2588   4.2722   4.2813
  4.2947   4.3038   4.3146   4.3339   4.3353   4.3535   4.3619   4.3648
  4.3746   4.3968   4.4005   4.4095   4.4112   4.4175   4.4262   4.4461
  4.4612   4.4741   4.4818   4.4856   4.5028   4.5113   4.5379   4.5516
  4.5719   4.5881   4.6143   4.6288   4.6313   4.6515   4.6611   4.6696
  4.6962   4.7223   4.7341   4.7600   4.7789   4.8065   4.8146   4.8361
  4.8561   4.8619   4.8902   4.8963   4.9379   4.9465   4.9825   4.9945
  5.0247   5.0413   5.0898   5.1047   5.1149   5.1298   5.1480   5.1834
  5.1921   5.2134   5.2323   5.2719   5.2839   5.2928   5.3120   5.3197
  5.3442   5.3644   5.3802   5.3997   5.4132   5.4292   5.4400   5.4550
  5.4750   5.5202   5.5253   5.5413   5.5502   5.5595   5.5747   5.5997
  5.6234   5.6284   5.6469   5.6497   5.6762   5.6963   5.7108   5.7332
  5.7772   5.8042   5.8373   5.9816   5.9974   6.0819   6.1241   6.1481
  6.2059   6.2160   6.2261   6.2378   6.2489   6.2800   6.3034   6.3298
  6.3825   6.4945   9.5107  10.5550  12.0515  12.9562  13.1656  13.9513
 14.1022  14.2044  14.3251  14.7483
 --------------------------------------------------------------
 
          Ground-State Mulliken Net Atomic Charges

     Atom                 Charge (a.u.)
  ----------------------------------------
      1 C                    -0.079122
      2 C                    -0.327748
      3 C                    -0.016343
      4 H                     0.176686
      5 C                     0.085320
      6 S                    -0.177524
      7 C                    -0.265729
      8 H                     0.113099
      9 H                     0.102361
     10 H                     0.106382
     11 C                    -0.083192
     12 C                    -0.243524
     13 C                     0.022152
     14 H                     0.182564
     15 C                    -0.237490
     16 S                     0.006679
     17 C                    -0.271782
     18 H                     0.102169
     19 H                     0.108763
     20 H                     0.107961
     21 H                     0.196769
     22 H                     0.111170
     23 H                     0.112818
     24 H                     0.167563
  ----------------------------------------
  Sum of atomic charges =     0.000000

 -----------------------------------------------------------------
                    Cartesian Multipole Moments
 -----------------------------------------------------------------
    Charge (ESU x 10^10)
                -0.0000
    Dipole Moment (Debye)
         X       2.6988      Y       0.5673      Z       1.8620
       Tot       3.3275
    Quadrupole Moments (Debye-Ang)
        XX     -91.7969     XY      -2.9444     YY     -73.7239
        XZ      -0.2253     YZ       0.4207     ZZ     -85.9398
    Octopole Moments (Debye-Ang^2)
       XXX     -13.6673    XXY      41.0471    XYY      -3.0208
       YYY     125.6813    XXZ      -2.9625    XYZ       1.3369
       YYZ      -1.1817    XZZ      -7.1246    YZZ      55.3071
       ZZZ       4.5049
    Hexadecapole Moments (Debye-Ang^3)
      XXXX    -695.4190   XXXY     -79.1786   XXYY    -617.5929
      XYYY     -33.8253   YYYY   -2780.0045   XXXZ      35.5641
      XXYZ     -23.9632   XYYZ       4.2787   YYYZ    -112.3431
      XXZZ    -219.9574   XYZZ     -10.8224   YYZZ    -598.4886
      XZZZ      41.7945   YZZZ     -96.7933   ZZZZ    -554.8456
 -----------------------------------------------------------------
 Total job time:  651.37s(wall), 647.31s(cpu) 
 Sun Jul 10 01:08:36 2022

        *************************************************************
        *                                                           *
        *  Thank you very much for using Q-Chem.  Have a nice day.  *
        *                                                           *
        *************************************************************


remove work dirs ./qchem305717.0 -- ./qchem305717.-1
rm -rf ./qchem305717
