You are running Q-Chem version: 5.4.0

#
# job setting
#
local host:  exp-2-23
current dir: /expanse/lustre/scratch/theleonzhang/temp_project/Hydrogenated_Rotation_Test
input file:  Methylthiophene_Phi_25_Theta_230_Methylthiophene_Hydrogenated_Alternate.qcin
output file: 
nprocs     : 0
nthreads   : 1
#
# qchem installation setting
#
QC:          /cm/shared/apps/spack/cpu/opt/spack/linux-centos8-zen2/gcc-10.2.0/qchem-5.4-akfmr7b3t57bfs6qan3padb2wnb2i7cl
QCAUX:       /cm/shared/apps/spack/cpu/opt/spack/linux-centos8-zen2/gcc-10.2.0/qchem-5.4-akfmr7b3t57bfs6qan3padb2wnb2i7cl/qcaux
QCPROG:      /cm/shared/apps/spack/cpu/opt/spack/linux-centos8-zen2/gcc-10.2.0/qchem-5.4-akfmr7b3t57bfs6qan3padb2wnb2i7cl/exe/qcprog.exe_s
QCPROG_S:    /cm/shared/apps/spack/cpu/opt/spack/linux-centos8-zen2/gcc-10.2.0/qchem-5.4-akfmr7b3t57bfs6qan3padb2wnb2i7cl/exe/qcprog.exe_s
PARALLEL:    -DSERIAL
QCMPI:       mpich
#
# qchem directory setting
#
qcrun:       qchem4047562
QCSCRATCH:   .
QCLOCALSCR:  
QCTMPDIR:    .
QCFILEPREF:  ./qchem4047562
QCSAVEDIR:   
workdirs:    ./qchem4047562
workdir0:    ./qchem4047562
partmpdirs =  
#
# parallel setting
#
QCRSH:           ssh
QCMPI:           mpich
QCMPIRUN:        /cm/shared/apps/spack/cpu/opt/spack/linux-centos8-zen2/gcc-10.2.0/qchem-5.4-akfmr7b3t57bfs6qan3padb2wnb2i7cl/bin/mpi/mpirun_qchem
QCMACHINEFILE:   ./qchem4047562/hostfile

#
# env setting
#
exported envs:   QC QCAUX QCSCRATCH QCRUNNAME QCFILEPREF QCPROG QCPROG_S GUIFILE

Running Job 1 of 1 Methylthiophene_Phi_25_Theta_230_Methylthiophene_Hydrogenated_Alternate.qcin
qchem Methylthiophene_Phi_25_Theta_230_Methylthiophene_Hydrogenated_Alternate.qcin_4047562.0 ./qchem4047562/ 0
/cm/shared/apps/spack/cpu/opt/spack/linux-centos8-zen2/gcc-10.2.0/qchem-5.4-akfmr7b3t57bfs6qan3padb2wnb2i7cl/exe/qcprog.exe_s Methylthiophene_Phi_25_Theta_230_Methylthiophene_Hydrogenated_Alternate.qcin_4047562.0 ./qchem4047562/
                  Welcome to Q-Chem
     A Quantum Leap Into The Future Of Chemistry


 Q-Chem 5.4, Q-Chem, Inc., Pleasanton, CA (2021)

 License issued to: University of California, San Diego (site)

 E. Epifanovsky,  A. T. B. Gilbert,  Xintian Feng,  Joonho Lee,  Yuezhi Mao,  
 N. Mardirossian,  P. Pokhilko,  A. White,  M. Wormit,  M. P. Coons,  
 A. L. Dempwolff,  Zhengting Gan,  D. Hait,  P. R. Horn,  L. D. Jacobson,  
 I. Kaliman,  J. Kussmann,  A. W. Lange,  Ka Un Lao,  D. S. Levine,  Jie Liu,  
 S. C. McKenzie,  A. F. Morrison,  K. Nanda,  F. Plasser,  D. R. Rehn,  
 M. L. Vidal,  Zhi-Qiang You,  Ying Zhu,  B. Alam,  B. Albrecht,  
 A. Aldossary,  E. Alguire,  J. H. Andersen,  D. Barton,  K. Begam,  A. Behn,  
 Y. A. Bernard,  E. J. Berquist,  H. Burton,  A. Carreras,  K. Carter-Fenk,  
 R. Chakraborty,  A. D. Chien,  K. D. Closser,  V. Cofer-Shabica,  
 S. Dasgupta,  Jia Deng,  M. de Wergifosse,  M. Diedenhofen,  Hainam Do,  
 S. Ehlert,  Po-Tung Fang,  S. Fatehi,  Qingguo Feng,  J. Gayvert,  
 Qinghui Ge,  G. Gidofalvi,  M. Goldey,  J. Gomes,  C. Gonzalez-Espinoza,  
 S. Gulania,  A. Gunina,  M. W. D. Hanson-Heine,  P. H. P. Harbach,  
 A. W. Hauser,  M. F. Herbst,  M. Hernandez Vera,  M. Hodecker,  
 Z. C. Holden,  S. Houck,  Xunkun Huang,  Kerwin Hui,  B. C. Huynh,  
 M. Ivanov,  Hyunjun Ji,  Hanjie Jiang,  B. Kaduk,  S. Kaehler,  
 K. Khistyaev,  Jaehoon Kim,  P. Klunzinger,  Z. Koczor-Benda,  
 Joong Hoon Koh,  D. Kosenkov,  L. Koulias,  T. Kowalczyk,  C. M. Krauter,  
 K. Kue,  A. Kunitsa,  T. Kus,  A. Landau,  K. V. Lawler,  D. Lefrancois,  
 S. Lehtola,  Rain Li,  Yi-Pei Li,  Jiashu Liang,  M. Liebenthal,  
 Hung-Hsuan Lin,  You-Sheng Lin,  Fenglai Liu,  Kuan-Yu Liu,  
 M. Loipersberger,  A. Luenser,  A. Manjanath,  P. Manohar,  E. Mansoor,  
 S. F. Manzer,  Shan-Ping Mao,  A. V. Marenich,  T. Markovich,  S. Mason,  
 S. A. Maurer,  P. F. McLaughlin,  M. F. S. J. Menger,  J.-M. Mewes,  
 S. A. Mewes,  P. Morgante,  J. W. Mullinax,  T. S. Nguyen-Beck,  
 K. J. Oosterbaan,  G. Paran,  Alexander C. Paul,  Suranjan K. Paul,  
 F. Pavosevic,  Zheng Pei,  S. Prager,  E. I. Proynov,  E. Ramos,  B. Rana,  
 A. E. Rask,  A. Rettig,  R. M. Richard,  F. Rob,  E. Rossomme,  T. Scheele,  
 M. Scheurer,  M. Schneider,  N. Sergueev,  S. M. Sharada,  W. Skomorowski,  
 D. W. Small,  C. J. Stein,  Yu-Chuan Su,  E. J. Sundstrom,  Zhen Tao,  
 J. Thirman,  T. Tsuchimochi,  N. M. Tubman,  S. P. Veccham,  O. Vydrov,  
 J. Wenzel,  J. Witte,  A. Yamada,  Kun Yao,  S. Yeganeh,  S. R. Yost,  
 A. Zech,  Igor Ying Zhang,  Xing Zhang,  Yu Zhang,  D. Zuev,  
 A. Aspuru-Guzik,  A. T. Bell,  N. A. Besley,  K. B. Bravaya,  B. R. Brooks,  
 D. Casanova,  Jeng-Da Chai,  S. Coriani,  C. J. Cramer,  
 A. E. DePrince, III,  R. A. DiStasio Jr.,  A. Dreuw,  B. D. Dunietz,  
 T. R. Furlani,  W. A. Goddard III,  S. Grimme,  S. Hammes-Schiffer,  
 T. Head-Gordon,  W. J. Hehre,  Chao-Ping Hsu,  T.-C. Jagau,  Yousung Jung,  
 A. Klamt,  Jing Kong,  D. S. Lambrecht,  WanZhen Liang,  N. J. Mayhall,  
 C. W. McCurdy,  J. B. Neaton,  C. Ochsenfeld,  J. A. Parkhill,  R. Peverati,  
 V. A. Rassolov,  Yihan Shao,  L. V. Slipchenko,  T. Stauch,  R. P. Steele,  
 J. E. Subotnik,  A. J. W. Thom,  A. Tkatchenko,  D. G. Truhlar,  
 T. Van Voorhis,  T. A. Wesolowski,  K. B. Whaley,  H. L. Woodcock III,  
 P. M. Zimmerman,  S. Faraji,  P. M. W. Gill,  M. Head-Gordon,  
 J. M. Herbert,  A. I. Krylov

 Contributors to earlier versions of Q-Chem not listed above: 
 R. D. Adamson,  B. Austin,  R. Baer,  J. Baker,  G. J. O. Beran,  
 K. Brandhorst,  S. T. Brown,  E. F. C. Byrd,  A. K. Chakraborty,  
 G. K. L. Chan,  Chun-Min Chang,  Yunqing Chen,  C.-L. Cheng,  
 Siu Hung Chien,  D. M. Chipman,  D. L. Crittenden,  H. Dachsel,  
 R. J. Doerksen,  A. D. Dutoi,  R. G. Edgar,  J. Fosso-Tande,  
 L. Fusti-Molnar,  D. Ghosh,  A. Ghysels,  A. Golubeva-Zadorozhnaya,  
 J. Gonthier,  M. S. Gordon,  S. R. Gwaltney,  G. Hawkins,  J. E. Herr,  
 A. Heyden,  S. Hirata,  E. G. Hohenstein,  G. Kedziora,  F. J. Keil,  
 C. Kelley,  Jihan Kim,  R. A. King,  R. Z. Khaliullin,  P. P. Korambath,  
 W. Kurlancheek,  A. Laurent,  A. M. Lee,  M. S. Lee,  S. V. Levchenko,  
 Ching Yeh Lin,  D. Liotard,  E. Livshits,  R. C. Lochan,  I. Lotan,  
 L. A. Martinez-Martinez,  P. E. Maslen,  N. Nair,  D. P. O'Neill,  
 D. Neuhauser,  E. Neuscamman,  C. M. Oana,  R. Olivares-Amaya,  R. Olson,  
 T. M. Perrine,  B. Peters,  P. A. Pieniazek,  A. Prociuk,  Y. M. Rhee,  
 J. Ritchie,  M. A. Rohrdanz,  E. Rosta,  N. J. Russ,  H. F. Schaefer III,  
 M. W. Schmidt,  N. E. Schultz,  S. Sharma,  N. Shenvi,  C. D. Sherrill,  
 A. C. Simmonett,  A. Sodt,  T. Stein,  D. Stuck,  K. S. Thanthiriwatte,  
 V. Vanovschi,  L. Vogt,  Tao Wang,  A. Warshel,  M. A. Watson,  
 C. F. Williams,  Q. Wu,  X. Xu,  Jun Yang,  W. Zhang,  Yan Zhao

 Please cite Q-Chem as follows:
 Y. Shao et al., Mol. Phys. 113, 184-215 (2015)
 DOI: 10.1080/00268976.2014.952696

 Q-Chem 5.4.0 for Intel X86 EM64T Linux

 Parts of Q-Chem use Armadillo 9.800.1 (Horizon Scraper).
 http://arma.sourceforge.net/

 Q-Chem begins on Sun Jul 10 05:01:52 2022  

 Host: 
0

     Scratch files written to ./qchem4047562//
 May1621 |scratch|qcdevops|jenkins|workspace|build_RNUM    
 Processing $rem in /cm/shared/apps/spack/cpu/opt/spack/linux-centos8-zen2/gcc-10.2.0/qchem-5.4-akfmr7b3t57bfs6qan3padb2wnb2i7cl/config/preferences:
 Processing $rem in /home/theleonzhang/.qchemrc:
 Symmetry turned off for PCM/SM12/SMD calculation
 Core orbitals will be frozen

 Checking the input file for inconsistencies... 	...done.

--------------------------------------------------------------
User input:
--------------------------------------------------------------
$molecule
0 1
C	0.594240	-3.866725	-0.497696
C	-0.469057	-3.703963	0.393981
C	-0.817136	-2.357056	0.685571
H	-0.997777	-4.561092	0.837848
C	-0.000000	-1.440664	-0.000000
S	1.183137	-2.286957	-0.992782
C	-1.932056	-1.978743	1.620802
H	-2.426166	-2.878678	2.035506
H	-2.711806	-1.376015	1.109943
H	-1.564678	-1.375728	2.477350
C	0.000000	0.000000	0.000000
C	0.365003	0.782674	1.099446
C	0.949885	2.036912	0.776721
H	0.209135	0.448431	2.136088
C	1.043159	2.236886	-0.612546
S	0.398297	0.854094	-1.486809
C	1.409609	3.022738	1.814609
H	1.229726	2.636980	2.836676
H	0.877346	3.992870	1.726239
H	2.494910	3.238558	1.726228
H	1.444334	3.097160	-1.161575
H	0.281143	-4.392713	-1.406441
H	1.434879	-4.392347	-0.031265
H	0.694122	-1.440391	0.827402
$end

$rem
JOBTYPE		SP
EXCHANGE	HF
CORRELATION	pRIMP2
BASIS		cc-pvtz
METHOD		rimp2
AUX_BASIS	rimp2-cc-pvtz
SOLVENT_METHOD	PCM
PURECART	11111
SYMMETRY	false
MEM_TOTAL	110000
SCF_CONVERGENCE = 6
THRESH=10
$end



$solvent
dielectric 4.90
$end
--------------------------------------------------------------
 ----------------------------------------------------------------
             Standard Nuclear Orientation (Angstroms)
    I     Atom           X                Y                Z
 ----------------------------------------------------------------
    1      C       0.5942400000    -3.8667250000    -0.4976960000
    2      C      -0.4690570000    -3.7039630000     0.3939810000
    3      C      -0.8171360000    -2.3570560000     0.6855710000
    4      H      -0.9977770000    -4.5610920000     0.8378480000
    5      C       0.0000000000    -1.4406640000     0.0000000000
    6      S       1.1831370000    -2.2869570000    -0.9927820000
    7      C      -1.9320560000    -1.9787430000     1.6208020000
    8      H      -2.4261660000    -2.8786780000     2.0355060000
    9      H      -2.7118060000    -1.3760150000     1.1099430000
   10      H      -1.5646780000    -1.3757280000     2.4773500000
   11      C       0.0000000000     0.0000000000     0.0000000000
   12      C       0.3650030000     0.7826740000     1.0994460000
   13      C       0.9498850000     2.0369120000     0.7767210000
   14      H       0.2091350000     0.4484310000     2.1360880000
   15      C       1.0431590000     2.2368860000    -0.6125460000
   16      S       0.3982970000     0.8540940000    -1.4868090000
   17      C       1.4096090000     3.0227380000     1.8146090000
   18      H       1.2297260000     2.6369800000     2.8366760000
   19      H       0.8773460000     3.9928700000     1.7262390000
   20      H       2.4949100000     3.2385580000     1.7262280000
   21      H       1.4443340000     3.0971600000    -1.1615750000
   22      H       0.2811430000    -4.3927130000    -1.4064410000
   23      H       1.4348790000    -4.3923470000    -0.0312650000
   24      H       0.6941220000    -1.4403910000     0.8274020000
 ----------------------------------------------------------------
 Nuclear Repulsion Energy =         878.31770142 hartrees
 There are       52 alpha and       52 beta electrons

 Q-Chem warning in module forms1/BasisType.C, line 2236:

 You are not using the predefined 5D/6D in this basis set.

 Requested basis set is cc-pVTZ
 There are 196 shells and 536 basis functions

 Total QAlloc Memory Limit 110000 MB
 Mega-Array Size       188 MB
 MEM_STATIC part       192 MB
 Discretize the solute cavity surface with Lebedev spheres
	Using 110 Lebedev grid points for each H atom
	Using 194 Lebedev grid points for other atoms
	Atomic van der Waals radii will be scaled by 1.20
 Remove points where switching function is < 1.0e-08
 Keep 1610 surface tesserae and discard 2038 interior tesserae
 Molecular Surface Area = 235.512 Angst**2
 Requested basis set is rimp2-cc-pVTZ
 There are 414 shells and 1414 basis functions
 A cutoff of  1.0D-10 yielded  14045 shell pairs
 There are    101701 function pairs (    130378 Cartesian)
 Smallest overlap matrix eigenvalue = 6.99E-05

 Scale SEOQF with 1.000000e-01/1.000000e-01/1.000000e-01

 Standard Electronic Orientation quadrupole field applied
 Nucleus-field energy     =     0.0000000294 hartrees
 Guess from superposition of atomic densities
 Warning:  Energy on first SCF cycle will be non-variational
 SAD guess density has 104.000000 electrons

 -----------------------------------------------------------------------
  General SCF calculation program by
  Eric Jon Sundstrom, Paul Horn, Yuezhi Mao, Dmitri Zuev, Alec White,
  David Stuck, Shaama M.S., Shane Yost, Joonho Lee, David Small,
  Daniel Levine, Susi Lehtola, Hugh Burton, Evgeny Epifanovsky,
  Bang C. Huynh
 -----------------------------------------------------------------------
 Hartree-Fock
 A restricted SCF calculation will be
 performed using DIIS
 SCF converges when DIIS error is below 1.0e-06
 ---------------------------------------
  Cycle       Energy         DIIS error
 ---------------------------------------
    1   -1186.0502720167      2.39e-02  
    2   -1180.6019733396      1.56e-03  
    3   -1180.7268961660      6.07e-04  
    4   -1180.7411283706      3.37e-04  
    5   -1180.7463106141      6.01e-05  
    6   -1180.7465616174      2.45e-05  
    7   -1180.7466213523      9.03e-06  
    8   -1180.7466349775      4.34e-06  
    9   -1180.7466381424      1.55e-06  
   10   -1180.7466386735      5.30e-07  Convergence criterion met
 ---------------------------------------
 SCF time:   CPU 562.79s  wall 565.00s 

************** Final PCM Free Energy Summary **************
 G_electrostatic  =      -0.00961832 hartree =      -6.03558848 kcal/mol
 G_cavitation     =       0.00000000 hartree =       0.00000000 kcal/mol
 G_dispersion     =       0.00000000 hartree =       0.00000000 kcal/mol
 G_repulsion      =       0.00000000 hartree =       0.00000000 kcal/mol
 --------------------------------------------------
 Non-electrostatic Free Energy =       0.00000000 hartree =       0.00000000 kcal/mol
 Total                         =      -0.00961832 hartree =      -6.03558848 kcal/mol
 --------------------------------------------------
 SCF Energy (H0 + V/2)                       =   -1180.74663867 
 Solute Internal Energy (H0)                 =   -1180.73702035 
 Total Free Energy (H0 + V/2 + non-elec)     =   -1180.74663867 hartree
                                             = -740929.69861906 kcal/mol
***********************************************************

 SCF   energy in the final basis set =    -1180.7466386735
 Total energy in the final basis set =    -1180.7466386735


 --------------------------------------------------------------
  Generalized many-body perturbation theory program
  by Joonho Lee, Fazle Rob, Xintian Feng, Evgeny Epifanovsky

 No regularization used 
 (reg. param. = 0.0000e+00)
  (P|Q)^-1/2 Time:  CPU 1.89 s  wall 1.89 s

 In RI-MP2 calculation: 
 # of frozen core orbitals: 20

 Components of the RIMP2 correlation energy:
        aaaa    correlation energy =        -0.2518592429 a.u.
        abab    correlation energy =        -1.5046612002 a.u.
        bbbb    correlation energy =        -0.2518592429 a.u.
        non-Brillouin singles      =        -0.0000000000 a.u.
        total same-spin energy     =        -0.5037184858 a.u.
        total opposite-spin energy =        -1.5046612002 a.u.

 Total  RIMP2   correlation energy =        -2.0083796860 a.u.
        RIMP2         total energy =     -1182.7550183595 a.u.

 RI-MP2 Energy Time:  CPU 79.29 s  wall 79.46 s
 
 --------------------------------------------------------------
 
                    Orbital Energies (a.u.)
 --------------------------------------------------------------
 
 Alpha MOs
 -- Occupied --
-91.9829 -91.9430 -11.2823 -11.2619 -11.2615 -11.2548 -11.2510 -11.2404
-11.2385 -11.2324 -11.2290 -11.2180  -8.9826  -8.9475  -6.6635  -6.6629
 -6.6624  -6.6289  -6.6278  -6.6265  -1.2003  -1.1528  -1.0584  -1.0286
 -1.0026  -0.9606  -0.9117  -0.9007  -0.8161  -0.7591  -0.7318  -0.7027
 -0.6617  -0.6432  -0.6099  -0.5887  -0.5838  -0.5701  -0.5623  -0.5528
 -0.5417  -0.5317  -0.5140  -0.5063  -0.4899  -0.4786  -0.4650  -0.4448
 -0.3555  -0.3425  -0.3198  -0.2683
 -- Virtual --
  0.0880   0.1334   0.1443   0.1543   0.1586   0.1692   0.1723   0.1853
  0.1975   0.1989   0.2033   0.2156   0.2227   0.2323   0.2361   0.2418
  0.2508   0.2594   0.2784   0.2950   0.3176   0.3384   0.3462   0.3598
  0.3696   0.3767   0.3778   0.3827   0.3940   0.4025   0.4102   0.4223
  0.4362   0.4427   0.4448   0.4672   0.4705   0.4742   0.4852   0.4940
  0.5016   0.5106   0.5227   0.5290   0.5305   0.5390   0.5522   0.5538
  0.5722   0.5743   0.5841   0.5889   0.5900   0.6114   0.6169   0.6213
  0.6259   0.6283   0.6334   0.6382   0.6410   0.6442   0.6510   0.6554
  0.6642   0.6777   0.6801   0.6925   0.6982   0.7041   0.7087   0.7150
  0.7335   0.7433   0.7561   0.7772   0.7855   0.7908   0.8093   0.8201
  0.8282   0.8463   0.8516   0.8584   0.8742   0.8936   0.9013   0.9089
  0.9199   0.9463   0.9491   0.9613   0.9732   0.9924   1.0024   1.0076
  1.0194   1.0317   1.0347   1.0383   1.0477   1.0701   1.0734   1.0825
  1.0873   1.0980   1.1148   1.1201   1.1390   1.1508   1.1548   1.1738
  1.1801   1.1867   1.1949   1.2046   1.2107   1.2241   1.2332   1.2379
  1.2539   1.2630   1.2659   1.2724   1.2807   1.2864   1.3004   1.3176
  1.3258   1.3274   1.3508   1.3651   1.3777   1.3866   1.4042   1.4204
  1.4251   1.4422   1.4508   1.4601   1.4640   1.4738   1.4842   1.4947
  1.5004   1.5155   1.5216   1.5310   1.5388   1.5445   1.5486   1.5536
  1.5612   1.5783   1.5810   1.5925   1.6186   1.6214   1.6282   1.6470
  1.6504   1.6596   1.6866   1.6922   1.6970   1.7147   1.7287   1.7330
  1.7505   1.7606   1.7663   1.7767   1.7954   1.8098   1.8412   1.8670
  1.8720   1.9051   1.9341   1.9369   1.9575   1.9713   1.9909   2.0034
  2.0208   2.0294   2.0374   2.0507   2.1065   2.1258   2.1412   2.1507
  2.1857   2.2027   2.2081   2.2268   2.2385   2.2410   2.2715   2.2831
  2.2860   2.3050   2.3232   2.3736   2.4151   2.4245   2.4524   2.4780
  2.4915   2.5136   2.5156   2.5496   2.5761   2.5867   2.5972   2.6039
  2.6110   2.6335   2.6612   2.6702   2.6757   2.6846   2.7027   2.7329
  2.7439   2.7606   2.7674   2.7754   2.7765   2.7841   2.8044   2.8368
  2.8404   2.8434   2.8661   2.8691   2.9040   2.9074   2.9150   2.9302
  2.9467   2.9486   2.9653   2.9761   3.0039   3.0152   3.0307   3.0372
  3.0400   3.0828   3.0905   3.1059   3.1129   3.1188   3.1352   3.1437
  3.1449   3.1583   3.1695   3.1734   3.1799   3.1927   3.1979   3.2067
  3.2288   3.2439   3.2520   3.2555   3.2755   3.2793   3.2947   3.3155
  3.3192   3.3275   3.3348   3.3383   3.3465   3.3514   3.3611   3.3700
  3.3762   3.3882   3.4020   3.4078   3.4134   3.4148   3.4160   3.4276
  3.4365   3.4431   3.4496   3.4694   3.4769   3.4836   3.4982   3.5071
  3.5231   3.5276   3.5294   3.5389   3.5446   3.5711   3.5868   3.5894
  3.5938   3.6053   3.6120   3.6220   3.6316   3.6364   3.6479   3.6550
  3.6633   3.6755   3.6844   3.7127   3.7155   3.7218   3.7292   3.7382
  3.7437   3.7610   3.7635   3.7774   3.7842   3.7961   3.8145   3.8271
  3.8345   3.8466   3.8479   3.8626   3.8824   3.8915   3.9005   3.9153
  3.9187   3.9458   3.9556   3.9583   3.9633   3.9834   4.0028   4.0194
  4.0236   4.0317   4.0448   4.0536   4.0854   4.0891   4.0911   4.1143
  4.1306   4.1381   4.1443   4.1508   4.1599   4.1681   4.1860   4.1892
  4.2118   4.2155   4.2358   4.2418   4.2482   4.2618   4.2817   4.2901
  4.2988   4.3015   4.3089   4.3210   4.3405   4.3591   4.3706   4.3729
  4.3827   4.3850   4.3938   4.3994   4.4018   4.4191   4.4373   4.4582
  4.4635   4.4681   4.4793   4.4828   4.5011   4.5141   4.5304   4.5620
  4.5706   4.5932   4.6039   4.6312   4.6400   4.6435   4.6668   4.6763
  4.6908   4.7236   4.7316   4.7502   4.7703   4.8261   4.8432   4.8566
  4.8699   4.8790   4.9043   4.9128   4.9273   4.9693   4.9843   4.9945
  5.0363   5.0577   5.0894   5.0983   5.1120   5.1260   5.1460   5.1801
  5.1962   5.2032   5.2347   5.2615   5.2786   5.2889   5.3081   5.3297
  5.3353   5.3638   5.3750   5.3906   5.4084   5.4276   5.4365   5.4453
  5.4843   5.5145   5.5332   5.5424   5.5501   5.5626   5.5643   5.5867
  5.6237   5.6344   5.6399   5.6576   5.6740   5.6975   5.7044   5.7347
  5.7761   5.8039   5.8267   5.9549   6.0170   6.0919   6.1214   6.1543
  6.2136   6.2250   6.2273   6.2400   6.2536   6.2832   6.2899   6.3113
  6.3781   6.4597   9.3306  10.6378  12.1700  12.9277  13.1908  13.9144
 14.0876  14.2048  14.3564  14.6363
 --------------------------------------------------------------
 
          Ground-State Mulliken Net Atomic Charges

     Atom                 Charge (a.u.)
  ----------------------------------------
      1 C                    -0.076543
      2 C                    -0.326959
      3 C                    -0.041591
      4 H                     0.174957
      5 C                     0.065604
      6 S                    -0.171137
      7 C                    -0.274272
      8 H                     0.114804
      9 H                     0.109826
     10 H                     0.100015
     11 C                    -0.048119
     12 C                    -0.253073
     13 C                     0.024712
     14 H                     0.186093
     15 C                    -0.244307
     16 S                     0.009025
     17 C                    -0.271741
     18 H                     0.101308
     19 H                     0.108171
     20 H                     0.108176
     21 H                     0.196346
     22 H                     0.109586
     23 H                     0.110747
     24 H                     0.188374
  ----------------------------------------
  Sum of atomic charges =     0.000000

 -----------------------------------------------------------------
                    Cartesian Multipole Moments
 -----------------------------------------------------------------
    Charge (ESU x 10^10)
                -0.0000
    Dipole Moment (Debye)
         X      -0.5459      Y       0.2731      Z       3.5423
       Tot       3.5945
    Quadrupole Moments (Debye-Ang)
        XX     -89.4627     XY       5.6439     YY     -76.1461
        XZ       0.4429     YZ      -2.3278     ZZ     -86.0488
    Octopole Moments (Debye-Ang^2)
       XXX     -90.5010    XXY      54.3719    XYY     -13.8615
       YYY     135.7347    XXZ       1.3357    XYZ       1.5360
       YYZ      -2.3079    XZZ     -28.5634    YZZ      59.8239
       ZZZ       1.6487
    Hexadecapole Moments (Debye-Ang^3)
      XXXX    -651.5473   XXXY    -174.8495   XXYY    -570.7840
      XYYY    -159.2703   YYYY   -2657.4720   XXXZ      97.1646
      XXYZ     -44.8933   XYYZ      12.4685   YYYZ     -96.4019
      XXZZ    -236.5304   XYZZ     -41.5416   YYZZ    -602.7817
      XZZZ      99.9580   YZZZ     -94.6815   ZZZZ    -779.8261
 -----------------------------------------------------------------
 Total job time:  645.93s(wall), 642.96s(cpu) 
 Sun Jul 10 05:12:38 2022

        *************************************************************
        *                                                           *
        *  Thank you very much for using Q-Chem.  Have a nice day.  *
        *                                                           *
        *************************************************************


remove work dirs ./qchem4047562.0 -- ./qchem4047562.-1
rm -rf ./qchem4047562
