You are running Q-Chem version: 5.4.0

#
# job setting
#
local host:  exp-4-52
current dir: /expanse/lustre/scratch/theleonzhang/temp_project/Hydrogenated_Rotation_Test
input file:  Methylthiophene_Phi_5_Theta_330_Methylthiophene_Hydrogenated_Alternate.qcin
output file: 
nprocs     : 0
nthreads   : 1
#
# qchem installation setting
#
QC:          /cm/shared/apps/spack/cpu/opt/spack/linux-centos8-zen2/gcc-10.2.0/qchem-5.4-akfmr7b3t57bfs6qan3padb2wnb2i7cl
QCAUX:       /cm/shared/apps/spack/cpu/opt/spack/linux-centos8-zen2/gcc-10.2.0/qchem-5.4-akfmr7b3t57bfs6qan3padb2wnb2i7cl/qcaux
QCPROG:      /cm/shared/apps/spack/cpu/opt/spack/linux-centos8-zen2/gcc-10.2.0/qchem-5.4-akfmr7b3t57bfs6qan3padb2wnb2i7cl/exe/qcprog.exe_s
QCPROG_S:    /cm/shared/apps/spack/cpu/opt/spack/linux-centos8-zen2/gcc-10.2.0/qchem-5.4-akfmr7b3t57bfs6qan3padb2wnb2i7cl/exe/qcprog.exe_s
PARALLEL:    -DSERIAL
QCMPI:       mpich
#
# qchem directory setting
#
qcrun:       qchem2114383
QCSCRATCH:   .
QCLOCALSCR:  
QCTMPDIR:    .
QCFILEPREF:  ./qchem2114383
QCSAVEDIR:   
workdirs:    ./qchem2114383
workdir0:    ./qchem2114383
partmpdirs =  
#
# parallel setting
#
QCRSH:           ssh
QCMPI:           mpich
QCMPIRUN:        /cm/shared/apps/spack/cpu/opt/spack/linux-centos8-zen2/gcc-10.2.0/qchem-5.4-akfmr7b3t57bfs6qan3padb2wnb2i7cl/bin/mpi/mpirun_qchem
QCMACHINEFILE:   ./qchem2114383/hostfile

#
# env setting
#
exported envs:   QC QCAUX QCSCRATCH QCRUNNAME QCFILEPREF QCPROG QCPROG_S GUIFILE

Running Job 1 of 1 Methylthiophene_Phi_5_Theta_330_Methylthiophene_Hydrogenated_Alternate.qcin
qchem Methylthiophene_Phi_5_Theta_330_Methylthiophene_Hydrogenated_Alternate.qcin_2114383.0 ./qchem2114383/ 0
/cm/shared/apps/spack/cpu/opt/spack/linux-centos8-zen2/gcc-10.2.0/qchem-5.4-akfmr7b3t57bfs6qan3padb2wnb2i7cl/exe/qcprog.exe_s Methylthiophene_Phi_5_Theta_330_Methylthiophene_Hydrogenated_Alternate.qcin_2114383.0 ./qchem2114383/
                  Welcome to Q-Chem
     A Quantum Leap Into The Future Of Chemistry


 Q-Chem 5.4, Q-Chem, Inc., Pleasanton, CA (2021)

 License issued to: University of California, San Diego (site)

 E. Epifanovsky,  A. T. B. Gilbert,  Xintian Feng,  Joonho Lee,  Yuezhi Mao,  
 N. Mardirossian,  P. Pokhilko,  A. White,  M. Wormit,  M. P. Coons,  
 A. L. Dempwolff,  Zhengting Gan,  D. Hait,  P. R. Horn,  L. D. Jacobson,  
 I. Kaliman,  J. Kussmann,  A. W. Lange,  Ka Un Lao,  D. S. Levine,  Jie Liu,  
 S. C. McKenzie,  A. F. Morrison,  K. Nanda,  F. Plasser,  D. R. Rehn,  
 M. L. Vidal,  Zhi-Qiang You,  Ying Zhu,  B. Alam,  B. Albrecht,  
 A. Aldossary,  E. Alguire,  J. H. Andersen,  D. Barton,  K. Begam,  A. Behn,  
 Y. A. Bernard,  E. J. Berquist,  H. Burton,  A. Carreras,  K. Carter-Fenk,  
 R. Chakraborty,  A. D. Chien,  K. D. Closser,  V. Cofer-Shabica,  
 S. Dasgupta,  Jia Deng,  M. de Wergifosse,  M. Diedenhofen,  Hainam Do,  
 S. Ehlert,  Po-Tung Fang,  S. Fatehi,  Qingguo Feng,  J. Gayvert,  
 Qinghui Ge,  G. Gidofalvi,  M. Goldey,  J. Gomes,  C. Gonzalez-Espinoza,  
 S. Gulania,  A. Gunina,  M. W. D. Hanson-Heine,  P. H. P. Harbach,  
 A. W. Hauser,  M. F. Herbst,  M. Hernandez Vera,  M. Hodecker,  
 Z. C. Holden,  S. Houck,  Xunkun Huang,  Kerwin Hui,  B. C. Huynh,  
 M. Ivanov,  Hyunjun Ji,  Hanjie Jiang,  B. Kaduk,  S. Kaehler,  
 K. Khistyaev,  Jaehoon Kim,  P. Klunzinger,  Z. Koczor-Benda,  
 Joong Hoon Koh,  D. Kosenkov,  L. Koulias,  T. Kowalczyk,  C. M. Krauter,  
 K. Kue,  A. Kunitsa,  T. Kus,  A. Landau,  K. V. Lawler,  D. Lefrancois,  
 S. Lehtola,  Rain Li,  Yi-Pei Li,  Jiashu Liang,  M. Liebenthal,  
 Hung-Hsuan Lin,  You-Sheng Lin,  Fenglai Liu,  Kuan-Yu Liu,  
 M. Loipersberger,  A. Luenser,  A. Manjanath,  P. Manohar,  E. Mansoor,  
 S. F. Manzer,  Shan-Ping Mao,  A. V. Marenich,  T. Markovich,  S. Mason,  
 S. A. Maurer,  P. F. McLaughlin,  M. F. S. J. Menger,  J.-M. Mewes,  
 S. A. Mewes,  P. Morgante,  J. W. Mullinax,  T. S. Nguyen-Beck,  
 K. J. Oosterbaan,  G. Paran,  Alexander C. Paul,  Suranjan K. Paul,  
 F. Pavosevic,  Zheng Pei,  S. Prager,  E. I. Proynov,  E. Ramos,  B. Rana,  
 A. E. Rask,  A. Rettig,  R. M. Richard,  F. Rob,  E. Rossomme,  T. Scheele,  
 M. Scheurer,  M. Schneider,  N. Sergueev,  S. M. Sharada,  W. Skomorowski,  
 D. W. Small,  C. J. Stein,  Yu-Chuan Su,  E. J. Sundstrom,  Zhen Tao,  
 J. Thirman,  T. Tsuchimochi,  N. M. Tubman,  S. P. Veccham,  O. Vydrov,  
 J. Wenzel,  J. Witte,  A. Yamada,  Kun Yao,  S. Yeganeh,  S. R. Yost,  
 A. Zech,  Igor Ying Zhang,  Xing Zhang,  Yu Zhang,  D. Zuev,  
 A. Aspuru-Guzik,  A. T. Bell,  N. A. Besley,  K. B. Bravaya,  B. R. Brooks,  
 D. Casanova,  Jeng-Da Chai,  S. Coriani,  C. J. Cramer,  
 A. E. DePrince, III,  R. A. DiStasio Jr.,  A. Dreuw,  B. D. Dunietz,  
 T. R. Furlani,  W. A. Goddard III,  S. Grimme,  S. Hammes-Schiffer,  
 T. Head-Gordon,  W. J. Hehre,  Chao-Ping Hsu,  T.-C. Jagau,  Yousung Jung,  
 A. Klamt,  Jing Kong,  D. S. Lambrecht,  WanZhen Liang,  N. J. Mayhall,  
 C. W. McCurdy,  J. B. Neaton,  C. Ochsenfeld,  J. A. Parkhill,  R. Peverati,  
 V. A. Rassolov,  Yihan Shao,  L. V. Slipchenko,  T. Stauch,  R. P. Steele,  
 J. E. Subotnik,  A. J. W. Thom,  A. Tkatchenko,  D. G. Truhlar,  
 T. Van Voorhis,  T. A. Wesolowski,  K. B. Whaley,  H. L. Woodcock III,  
 P. M. Zimmerman,  S. Faraji,  P. M. W. Gill,  M. Head-Gordon,  
 J. M. Herbert,  A. I. Krylov

 Contributors to earlier versions of Q-Chem not listed above: 
 R. D. Adamson,  B. Austin,  R. Baer,  J. Baker,  G. J. O. Beran,  
 K. Brandhorst,  S. T. Brown,  E. F. C. Byrd,  A. K. Chakraborty,  
 G. K. L. Chan,  Chun-Min Chang,  Yunqing Chen,  C.-L. Cheng,  
 Siu Hung Chien,  D. M. Chipman,  D. L. Crittenden,  H. Dachsel,  
 R. J. Doerksen,  A. D. Dutoi,  R. G. Edgar,  J. Fosso-Tande,  
 L. Fusti-Molnar,  D. Ghosh,  A. Ghysels,  A. Golubeva-Zadorozhnaya,  
 J. Gonthier,  M. S. Gordon,  S. R. Gwaltney,  G. Hawkins,  J. E. Herr,  
 A. Heyden,  S. Hirata,  E. G. Hohenstein,  G. Kedziora,  F. J. Keil,  
 C. Kelley,  Jihan Kim,  R. A. King,  R. Z. Khaliullin,  P. P. Korambath,  
 W. Kurlancheek,  A. Laurent,  A. M. Lee,  M. S. Lee,  S. V. Levchenko,  
 Ching Yeh Lin,  D. Liotard,  E. Livshits,  R. C. Lochan,  I. Lotan,  
 L. A. Martinez-Martinez,  P. E. Maslen,  N. Nair,  D. P. O'Neill,  
 D. Neuhauser,  E. Neuscamman,  C. M. Oana,  R. Olivares-Amaya,  R. Olson,  
 T. M. Perrine,  B. Peters,  P. A. Pieniazek,  A. Prociuk,  Y. M. Rhee,  
 J. Ritchie,  M. A. Rohrdanz,  E. Rosta,  N. J. Russ,  H. F. Schaefer III,  
 M. W. Schmidt,  N. E. Schultz,  S. Sharma,  N. Shenvi,  C. D. Sherrill,  
 A. C. Simmonett,  A. Sodt,  T. Stein,  D. Stuck,  K. S. Thanthiriwatte,  
 V. Vanovschi,  L. Vogt,  Tao Wang,  A. Warshel,  M. A. Watson,  
 C. F. Williams,  Q. Wu,  X. Xu,  Jun Yang,  W. Zhang,  Yan Zhao

 Please cite Q-Chem as follows:
 Y. Shao et al., Mol. Phys. 113, 184-215 (2015)
 DOI: 10.1080/00268976.2014.952696

 Q-Chem 5.4.0 for Intel X86 EM64T Linux

 Parts of Q-Chem use Armadillo 9.800.1 (Horizon Scraper).
 http://arma.sourceforge.net/

 Q-Chem begins on Sun Jul 10 06:30:27 2022  

 Host: 
0

     Scratch files written to ./qchem2114383//
 May1621 |scratch|qcdevops|jenkins|workspace|build_RNUM    
 Processing $rem in /cm/shared/apps/spack/cpu/opt/spack/linux-centos8-zen2/gcc-10.2.0/qchem-5.4-akfmr7b3t57bfs6qan3padb2wnb2i7cl/config/preferences:
 Processing $rem in /home/theleonzhang/.qchemrc:
 Symmetry turned off for PCM/SM12/SMD calculation
 Core orbitals will be frozen

 Checking the input file for inconsistencies... 	...done.

--------------------------------------------------------------
User input:
--------------------------------------------------------------
$molecule
0 1
C	0.386946	-3.866725	0.671636
C	-0.306544	-3.703963	-0.530345
C	-0.533261	-2.357056	-0.923770
H	-0.651857	-4.561092	-1.128109
C	-0.000000	-1.440664	-0.000000
S	0.772250	-2.286957	1.337557
C	-1.260680	-1.978743	-2.184153
H	-1.583283	-2.878678	-2.742769
H	-0.622180	-1.376015	-2.863347
H	-2.168011	-1.375728	-1.971094
C	0.000000	0.000000	0.000000
C	0.075300	0.860311	1.099446
C	0.195935	2.238951	0.776721
H	0.043151	0.492916	2.136088
C	0.215188	2.458766	-0.612546
S	0.082160	0.938811	-1.486809
C	0.290762	3.322559	1.814609
H	0.253664	2.898542	2.836676
H	-0.541206	4.052140	1.726239
H	1.236797	3.896558	1.726228
H	0.297938	3.404370	-1.161575
H	1.336254	-4.392713	0.521098
H	-0.218374	-4.392347	1.418509
H	0.935365	-1.440937	-0.539900
$end

$rem
JOBTYPE		SP
EXCHANGE	HF
CORRELATION	pRIMP2
BASIS		cc-pvtz
METHOD		rimp2
AUX_BASIS	rimp2-cc-pvtz
SOLVENT_METHOD	PCM
PURECART	11111
SYMMETRY	false
MEM_TOTAL	110000
SCF_CONVERGENCE = 6
THRESH=10
$end



$solvent
dielectric 4.90
$end
--------------------------------------------------------------
 ----------------------------------------------------------------
             Standard Nuclear Orientation (Angstroms)
    I     Atom           X                Y                Z
 ----------------------------------------------------------------
    1      C       0.3869460000    -3.8667250000     0.6716360000
    2      C      -0.3065440000    -3.7039630000    -0.5303450000
    3      C      -0.5332610000    -2.3570560000    -0.9237700000
    4      H      -0.6518570000    -4.5610920000    -1.1281090000
    5      C       0.0000000000    -1.4406640000     0.0000000000
    6      S       0.7722500000    -2.2869570000     1.3375570000
    7      C      -1.2606800000    -1.9787430000    -2.1841530000
    8      H      -1.5832830000    -2.8786780000    -2.7427690000
    9      H      -0.6221800000    -1.3760150000    -2.8633470000
   10      H      -2.1680110000    -1.3757280000    -1.9710940000
   11      C       0.0000000000     0.0000000000     0.0000000000
   12      C       0.0753000000     0.8603110000     1.0994460000
   13      C       0.1959350000     2.2389510000     0.7767210000
   14      H       0.0431510000     0.4929160000     2.1360880000
   15      C       0.2151880000     2.4587660000    -0.6125460000
   16      S       0.0821600000     0.9388110000    -1.4868090000
   17      C       0.2907620000     3.3225590000     1.8146090000
   18      H       0.2536640000     2.8985420000     2.8366760000
   19      H      -0.5412060000     4.0521400000     1.7262390000
   20      H       1.2367970000     3.8965580000     1.7262280000
   21      H       0.2979380000     3.4043700000    -1.1615750000
   22      H       1.3362540000    -4.3927130000     0.5210980000
   23      H      -0.2183740000    -4.3923470000     1.4185090000
   24      H       0.9353650000    -1.4409370000    -0.5399000000
 ----------------------------------------------------------------
 Nuclear Repulsion Energy =         875.12973406 hartrees
 There are       52 alpha and       52 beta electrons

 Q-Chem warning in module forms1/BasisType.C, line 2236:

 You are not using the predefined 5D/6D in this basis set.

 Requested basis set is cc-pVTZ
 There are 196 shells and 536 basis functions

 Total QAlloc Memory Limit 110000 MB
 Mega-Array Size       188 MB
 MEM_STATIC part       192 MB
 Discretize the solute cavity surface with Lebedev spheres
	Using 110 Lebedev grid points for each H atom
	Using 194 Lebedev grid points for other atoms
	Atomic van der Waals radii will be scaled by 1.20
 Remove points where switching function is < 1.0e-08
 Keep 1595 surface tesserae and discard 2053 interior tesserae
 Molecular Surface Area = 233.318 Angst**2
 Requested basis set is rimp2-cc-pVTZ
 There are 414 shells and 1414 basis functions
 A cutoff of  1.0D-10 yielded  13842 shell pairs
 There are    100258 function pairs (    128543 Cartesian)
 Smallest overlap matrix eigenvalue = 4.75E-05

 Scale SEOQF with 1.000000e-01/1.000000e-01/1.000000e-01

 Standard Electronic Orientation quadrupole field applied
 Nucleus-field energy     =     0.0000000251 hartrees
 Guess from superposition of atomic densities
 Warning:  Energy on first SCF cycle will be non-variational
 SAD guess density has 104.000000 electrons

 -----------------------------------------------------------------------
  General SCF calculation program by
  Eric Jon Sundstrom, Paul Horn, Yuezhi Mao, Dmitri Zuev, Alec White,
  David Stuck, Shaama M.S., Shane Yost, Joonho Lee, David Small,
  Daniel Levine, Susi Lehtola, Hugh Burton, Evgeny Epifanovsky,
  Bang C. Huynh
 -----------------------------------------------------------------------
 Hartree-Fock
 A restricted SCF calculation will be
 performed using DIIS
 SCF converges when DIIS error is below 1.0e-06
 ---------------------------------------
  Cycle       Energy         DIIS error
 ---------------------------------------
    1   -1186.0393699995      2.39e-02  
    2   -1180.6129067590      1.58e-03  
    3   -1180.7385782290      6.59e-04  
    4   -1180.7545897228      3.51e-04  
    5   -1180.7602955694      5.93e-05  
    6   -1180.7605443922      2.47e-05  
    7   -1180.7606028362      8.68e-06  
    8   -1180.7606151522      4.18e-06  
    9   -1180.7606177802      1.36e-06  
   10   -1180.7606181783      4.97e-07  Convergence criterion met
 ---------------------------------------
 SCF time:   CPU 566.58s  wall 568.00s 

************** Final PCM Free Energy Summary **************
 G_electrostatic  =      -0.00812199 hartree =      -5.09662381 kcal/mol
 G_cavitation     =       0.00000000 hartree =       0.00000000 kcal/mol
 G_dispersion     =       0.00000000 hartree =       0.00000000 kcal/mol
 G_repulsion      =       0.00000000 hartree =       0.00000000 kcal/mol
 --------------------------------------------------
 Non-electrostatic Free Energy =       0.00000000 hartree =       0.00000000 kcal/mol
 Total                         =      -0.00812199 hartree =      -5.09662381 kcal/mol
 --------------------------------------------------
 SCF Energy (H0 + V/2)                       =   -1180.76061818 
 Solute Internal Energy (H0)                 =   -1180.75249619 
 Total Free Energy (H0 + V/2 + non-elec)     =   -1180.76061818 hartree
                                             = -740938.47089067 kcal/mol
***********************************************************

 SCF   energy in the final basis set =    -1180.7606181783
 Total energy in the final basis set =    -1180.7606181783


 --------------------------------------------------------------
  Generalized many-body perturbation theory program
  by Joonho Lee, Fazle Rob, Xintian Feng, Evgeny Epifanovsky

 No regularization used 
 (reg. param. = 0.0000e+00)
  (P|Q)^-1/2 Time:  CPU 1.89 s  wall 1.90 s

 In RI-MP2 calculation: 
 # of frozen core orbitals: 20

 Components of the RIMP2 correlation energy:
        aaaa    correlation energy =        -0.2511374014 a.u.
        abab    correlation energy =        -1.5022480171 a.u.
        bbbb    correlation energy =        -0.2511374014 a.u.
        non-Brillouin singles      =        -0.0000000000 a.u.
        total same-spin energy     =        -0.5022748027 a.u.
        total opposite-spin energy =        -1.5022480171 a.u.

 Total  RIMP2   correlation energy =        -2.0045228198 a.u.
        RIMP2         total energy =     -1182.7651409981 a.u.

 RI-MP2 Energy Time:  CPU 79.17 s  wall 79.51 s
 
 --------------------------------------------------------------
 
                    Orbital Energies (a.u.)
 --------------------------------------------------------------
 
 Alpha MOs
 -- Occupied --
-91.9821 -91.9458 -11.2883 -11.2651 -11.2608 -11.2567 -11.2500 -11.2434
-11.2329 -11.2326 -11.2277 -11.2229  -8.9822  -8.9502  -6.6632  -6.6626
 -6.6619  -6.6316  -6.6306  -6.6293  -1.2019  -1.1528  -1.0608  -1.0277
 -1.0059  -0.9583  -0.9160  -0.9012  -0.8145  -0.7714  -0.7230  -0.7043
 -0.6571  -0.6449  -0.6109  -0.5932  -0.5798  -0.5726  -0.5689  -0.5537
 -0.5426  -0.5339  -0.5147  -0.5081  -0.4880  -0.4860  -0.4600  -0.4463
 -0.3581  -0.3428  -0.3247  -0.2683
 -- Virtual --
  0.1013   0.1354   0.1435   0.1507   0.1598   0.1719   0.1814   0.1832
  0.1922   0.1996   0.2010   0.2081   0.2163   0.2321   0.2389   0.2429
  0.2501   0.2663   0.2723   0.3031   0.3201   0.3380   0.3482   0.3609
  0.3671   0.3769   0.3823   0.3995   0.4024   0.4085   0.4172   0.4203
  0.4426   0.4525   0.4615   0.4697   0.4763   0.4769   0.4809   0.4893
  0.5060   0.5178   0.5282   0.5319   0.5356   0.5404   0.5448   0.5523
  0.5727   0.5740   0.5836   0.6006   0.6067   0.6114   0.6161   0.6183
  0.6202   0.6277   0.6304   0.6325   0.6409   0.6432   0.6491   0.6554
  0.6674   0.6783   0.6852   0.6928   0.6972   0.7049   0.7140   0.7232
  0.7390   0.7469   0.7702   0.7811   0.7943   0.8047   0.8082   0.8227
  0.8387   0.8518   0.8532   0.8703   0.8793   0.8943   0.9001   0.9174
  0.9256   0.9390   0.9465   0.9687   0.9748   0.9845   1.0034   1.0056
  1.0184   1.0197   1.0411   1.0438   1.0593   1.0660   1.0762   1.0851
  1.0908   1.0955   1.1094   1.1214   1.1469   1.1499   1.1551   1.1661
  1.1769   1.1836   1.1920   1.2130   1.2158   1.2272   1.2338   1.2435
  1.2600   1.2623   1.2747   1.2790   1.2827   1.2891   1.2990   1.3127
  1.3221   1.3396   1.3400   1.3706   1.3854   1.3958   1.4040   1.4158
  1.4254   1.4278   1.4505   1.4678   1.4738   1.4767   1.4860   1.4904
  1.5040   1.5100   1.5153   1.5230   1.5312   1.5375   1.5444   1.5613
  1.5653   1.5795   1.5917   1.5996   1.6009   1.6218   1.6255   1.6392
  1.6533   1.6674   1.6750   1.6847   1.6959   1.7076   1.7241   1.7300
  1.7503   1.7663   1.8006   1.8139   1.8173   1.8241   1.8347   1.8575
  1.8674   1.9205   1.9265   1.9422   1.9613   1.9805   1.9921   2.0050
  2.0183   2.0362   2.0449   2.0592   2.0634   2.0966   2.1361   2.1580
  2.1855   2.1938   2.2143   2.2208   2.2267   2.2655   2.2823   2.2892
  2.3026   2.3229   2.3357   2.3685   2.4159   2.4280   2.4488   2.4639
  2.4973   2.5070   2.5310   2.5440   2.5637   2.5947   2.5967   2.6152
  2.6421   2.6600   2.6629   2.6744   2.6814   2.6855   2.7031   2.7202
  2.7319   2.7427   2.7575   2.7683   2.7700   2.7765   2.8066   2.8097
  2.8318   2.8444   2.8564   2.8768   2.8953   2.9035   2.9100   2.9177
  2.9534   2.9627   2.9728   2.9762   2.9896   3.0157   3.0252   3.0357
  3.0470   3.0622   3.0873   3.1054   3.1132   3.1241   3.1324   3.1431
  3.1491   3.1547   3.1622   3.1769   3.1821   3.1935   3.2089   3.2261
  3.2397   3.2415   3.2447   3.2556   3.2686   3.2768   3.2996   3.3026
  3.3116   3.3148   3.3312   3.3383   3.3479   3.3519   3.3629   3.3709
  3.3770   3.3808   3.3876   3.3947   3.4057   3.4065   3.4285   3.4377
  3.4479   3.4511   3.4539   3.4667   3.4686   3.4738   3.4865   3.5093
  3.5183   3.5194   3.5271   3.5334   3.5430   3.5480   3.5686   3.5833
  3.5865   3.6049   3.6090   3.6250   3.6357   3.6392   3.6454   3.6601
  3.6681   3.6809   3.6961   3.7136   3.7200   3.7234   3.7346   3.7447
  3.7524   3.7641   3.7705   3.7792   3.7853   3.7988   3.8019   3.8205
  3.8295   3.8432   3.8512   3.8578   3.8617   3.8923   3.9018   3.9104
  3.9191   3.9307   3.9631   3.9717   3.9815   3.9842   3.9933   4.0043
  4.0132   4.0404   4.0547   4.0594   4.0690   4.0836   4.0971   4.1149
  4.1203   4.1323   4.1425   4.1497   4.1641   4.1783   4.1819   4.1964
  4.2054   4.2128   4.2281   4.2380   4.2521   4.2643   4.2716   4.2793
  4.2871   4.2932   4.3001   4.3310   4.3437   4.3524   4.3598   4.3705
  4.3881   4.3937   4.4025   4.4045   4.4165   4.4279   4.4329   4.4487
  4.4541   4.4726   4.4760   4.4883   4.5123   4.5218   4.5490   4.5694
  4.5863   4.5895   4.6093   4.6169   4.6241   4.6388   4.6689   4.6838
  4.6981   4.7139   4.7441   4.7701   4.7862   4.7952   4.8087   4.8312
  4.8563   4.8777   4.8807   4.9056   4.9174   4.9472   4.9536   4.9874
  5.0420   5.0679   5.0889   5.1142   5.1235   5.1264   5.1566   5.1885
  5.2031   5.2193   5.2482   5.2663   5.2842   5.2886   5.3095   5.3284
  5.3498   5.3529   5.3851   5.3909   5.4047   5.4210   5.4382   5.4524
  5.4747   5.5124   5.5300   5.5444   5.5525   5.5629   5.5716   5.5831
  5.6078   5.6268   5.6469   5.6595   5.6782   5.7045   5.7054   5.7449
  5.7543   5.7872   5.8425   5.9740   6.0135   6.1045   6.1382   6.1510
  6.2162   6.2275   6.2290   6.2522   6.2768   6.2916   6.3237   6.3627
  6.4061   6.5280   9.5934  10.8008  11.9246  12.9688  13.2113  13.9643
 14.1069  14.2510  14.4473  14.8035
 --------------------------------------------------------------
 
          Ground-State Mulliken Net Atomic Charges

     Atom                 Charge (a.u.)
  ----------------------------------------
      1 C                    -0.075407
      2 C                    -0.316344
      3 C                    -0.063164
      4 H                     0.178298
      5 C                     0.155660
      6 S                    -0.180259
      7 C                    -0.292069
      8 H                     0.117344
      9 H                     0.105108
     10 H                     0.117731
     11 C                    -0.057143
     12 C                    -0.298806
     13 C                     0.040935
     14 H                     0.182751
     15 C                    -0.267183
     16 S                     0.003305
     17 C                    -0.273034
     18 H                     0.102903
     19 H                     0.108083
     20 H                     0.108709
     21 H                     0.196321
     22 H                     0.112986
     23 H                     0.112063
     24 H                     0.181212
  ----------------------------------------
  Sum of atomic charges =     0.000000

 -----------------------------------------------------------------
                    Cartesian Multipole Moments
 -----------------------------------------------------------------
    Charge (ESU x 10^10)
                -0.0000
    Dipole Moment (Debye)
         X      -0.3786      Y      -0.2205      Z      -1.0983
       Tot       1.1825
    Quadrupole Moments (Debye-Ang)
        XX     -91.3709     XY       1.3510     YY     -72.9933
        XZ       0.4947     YZ       4.9559     ZZ     -86.0388
    Octopole Moments (Debye-Ang^2)
       XXX     -18.3072    XXY      42.3820    XYY      -0.3829
       YYY     116.5314    XXZ      -2.0423    XYZ      -3.0991
       YYZ      -3.1770    XZZ      -9.3264    YZZ      51.4558
       ZZZ       0.5969
    Hexadecapole Moments (Debye-Ang^3)
      XXXX    -288.6870   XXXY     -43.4494   XXYY    -567.1833
      XYYY     -37.0644   YYYY   -2760.0742   XXXZ    -132.0610
      XXYZ     -23.3873   XYYZ     -29.4902   YYYZ    -107.4239
      XXZZ    -213.6962   XYZZ       3.1768   YYZZ    -644.1575
      XZZZ    -125.5074   YZZZ     -74.2269   ZZZZ    -966.8750
 -----------------------------------------------------------------
 Total job time:  650.41s(wall), 646.62s(cpu) 
 Sun Jul 10 06:41:17 2022

        *************************************************************
        *                                                           *
        *  Thank you very much for using Q-Chem.  Have a nice day.  *
        *                                                           *
        *************************************************************


remove work dirs ./qchem2114383.0 -- ./qchem2114383.-1
rm -rf ./qchem2114383
