You are running Q-Chem version: 5.4.0

#
# job setting
#
local host:  exp-2-27
current dir: /expanse/lustre/scratch/theleonzhang/temp_project/Hydrogenated_Rotation_Test
input file:  Methylthiophene_Phi_15_Theta_60_Methylthiophene_Hydrogenated.qcin
output file: 
nprocs     : 0
nthreads   : 1
#
# qchem installation setting
#
QC:          /cm/shared/apps/spack/cpu/opt/spack/linux-centos8-zen2/gcc-10.2.0/qchem-5.4-akfmr7b3t57bfs6qan3padb2wnb2i7cl
QCAUX:       /cm/shared/apps/spack/cpu/opt/spack/linux-centos8-zen2/gcc-10.2.0/qchem-5.4-akfmr7b3t57bfs6qan3padb2wnb2i7cl/qcaux
QCPROG:      /cm/shared/apps/spack/cpu/opt/spack/linux-centos8-zen2/gcc-10.2.0/qchem-5.4-akfmr7b3t57bfs6qan3padb2wnb2i7cl/exe/qcprog.exe_s
QCPROG_S:    /cm/shared/apps/spack/cpu/opt/spack/linux-centos8-zen2/gcc-10.2.0/qchem-5.4-akfmr7b3t57bfs6qan3padb2wnb2i7cl/exe/qcprog.exe_s
PARALLEL:    -DSERIAL
QCMPI:       mpich
#
# qchem directory setting
#
qcrun:       qchem1575813
QCSCRATCH:   .
QCLOCALSCR:  
QCTMPDIR:    .
QCFILEPREF:  ./qchem1575813
QCSAVEDIR:   
workdirs:    ./qchem1575813
workdir0:    ./qchem1575813
partmpdirs =  
#
# parallel setting
#
QCRSH:           ssh
QCMPI:           mpich
QCMPIRUN:        /cm/shared/apps/spack/cpu/opt/spack/linux-centos8-zen2/gcc-10.2.0/qchem-5.4-akfmr7b3t57bfs6qan3padb2wnb2i7cl/bin/mpi/mpirun_qchem
QCMACHINEFILE:   ./qchem1575813/hostfile

#
# env setting
#
exported envs:   QC QCAUX QCSCRATCH QCRUNNAME QCFILEPREF QCPROG QCPROG_S GUIFILE

Running Job 1 of 1 Methylthiophene_Phi_15_Theta_60_Methylthiophene_Hydrogenated.qcin
qchem Methylthiophene_Phi_15_Theta_60_Methylthiophene_Hydrogenated.qcin_1575813.0 ./qchem1575813/ 0
/cm/shared/apps/spack/cpu/opt/spack/linux-centos8-zen2/gcc-10.2.0/qchem-5.4-akfmr7b3t57bfs6qan3padb2wnb2i7cl/exe/qcprog.exe_s Methylthiophene_Phi_15_Theta_60_Methylthiophene_Hydrogenated.qcin_1575813.0 ./qchem1575813/
                  Welcome to Q-Chem
     A Quantum Leap Into The Future Of Chemistry


 Q-Chem 5.4, Q-Chem, Inc., Pleasanton, CA (2021)

 License issued to: University of California, San Diego (site)

 E. Epifanovsky,  A. T. B. Gilbert,  Xintian Feng,  Joonho Lee,  Yuezhi Mao,  
 N. Mardirossian,  P. Pokhilko,  A. White,  M. Wormit,  M. P. Coons,  
 A. L. Dempwolff,  Zhengting Gan,  D. Hait,  P. R. Horn,  L. D. Jacobson,  
 I. Kaliman,  J. Kussmann,  A. W. Lange,  Ka Un Lao,  D. S. Levine,  Jie Liu,  
 S. C. McKenzie,  A. F. Morrison,  K. Nanda,  F. Plasser,  D. R. Rehn,  
 M. L. Vidal,  Zhi-Qiang You,  Ying Zhu,  B. Alam,  B. Albrecht,  
 A. Aldossary,  E. Alguire,  J. H. Andersen,  D. Barton,  K. Begam,  A. Behn,  
 Y. A. Bernard,  E. J. Berquist,  H. Burton,  A. Carreras,  K. Carter-Fenk,  
 R. Chakraborty,  A. D. Chien,  K. D. Closser,  V. Cofer-Shabica,  
 S. Dasgupta,  Jia Deng,  M. de Wergifosse,  M. Diedenhofen,  Hainam Do,  
 S. Ehlert,  Po-Tung Fang,  S. Fatehi,  Qingguo Feng,  J. Gayvert,  
 Qinghui Ge,  G. Gidofalvi,  M. Goldey,  J. Gomes,  C. Gonzalez-Espinoza,  
 S. Gulania,  A. Gunina,  M. W. D. Hanson-Heine,  P. H. P. Harbach,  
 A. W. Hauser,  M. F. Herbst,  M. Hernandez Vera,  M. Hodecker,  
 Z. C. Holden,  S. Houck,  Xunkun Huang,  Kerwin Hui,  B. C. Huynh,  
 M. Ivanov,  Hyunjun Ji,  Hanjie Jiang,  B. Kaduk,  S. Kaehler,  
 K. Khistyaev,  Jaehoon Kim,  P. Klunzinger,  Z. Koczor-Benda,  
 Joong Hoon Koh,  D. Kosenkov,  L. Koulias,  T. Kowalczyk,  C. M. Krauter,  
 K. Kue,  A. Kunitsa,  T. Kus,  A. Landau,  K. V. Lawler,  D. Lefrancois,  
 S. Lehtola,  Rain Li,  Yi-Pei Li,  Jiashu Liang,  M. Liebenthal,  
 Hung-Hsuan Lin,  You-Sheng Lin,  Fenglai Liu,  Kuan-Yu Liu,  
 M. Loipersberger,  A. Luenser,  A. Manjanath,  P. Manohar,  E. Mansoor,  
 S. F. Manzer,  Shan-Ping Mao,  A. V. Marenich,  T. Markovich,  S. Mason,  
 S. A. Maurer,  P. F. McLaughlin,  M. F. S. J. Menger,  J.-M. Mewes,  
 S. A. Mewes,  P. Morgante,  J. W. Mullinax,  T. S. Nguyen-Beck,  
 K. J. Oosterbaan,  G. Paran,  Alexander C. Paul,  Suranjan K. Paul,  
 F. Pavosevic,  Zheng Pei,  S. Prager,  E. I. Proynov,  E. Ramos,  B. Rana,  
 A. E. Rask,  A. Rettig,  R. M. Richard,  F. Rob,  E. Rossomme,  T. Scheele,  
 M. Scheurer,  M. Schneider,  N. Sergueev,  S. M. Sharada,  W. Skomorowski,  
 D. W. Small,  C. J. Stein,  Yu-Chuan Su,  E. J. Sundstrom,  Zhen Tao,  
 J. Thirman,  T. Tsuchimochi,  N. M. Tubman,  S. P. Veccham,  O. Vydrov,  
 J. Wenzel,  J. Witte,  A. Yamada,  Kun Yao,  S. Yeganeh,  S. R. Yost,  
 A. Zech,  Igor Ying Zhang,  Xing Zhang,  Yu Zhang,  D. Zuev,  
 A. Aspuru-Guzik,  A. T. Bell,  N. A. Besley,  K. B. Bravaya,  B. R. Brooks,  
 D. Casanova,  Jeng-Da Chai,  S. Coriani,  C. J. Cramer,  
 A. E. DePrince, III,  R. A. DiStasio Jr.,  A. Dreuw,  B. D. Dunietz,  
 T. R. Furlani,  W. A. Goddard III,  S. Grimme,  S. Hammes-Schiffer,  
 T. Head-Gordon,  W. J. Hehre,  Chao-Ping Hsu,  T.-C. Jagau,  Yousung Jung,  
 A. Klamt,  Jing Kong,  D. S. Lambrecht,  WanZhen Liang,  N. J. Mayhall,  
 C. W. McCurdy,  J. B. Neaton,  C. Ochsenfeld,  J. A. Parkhill,  R. Peverati,  
 V. A. Rassolov,  Yihan Shao,  L. V. Slipchenko,  T. Stauch,  R. P. Steele,  
 J. E. Subotnik,  A. J. W. Thom,  A. Tkatchenko,  D. G. Truhlar,  
 T. Van Voorhis,  T. A. Wesolowski,  K. B. Whaley,  H. L. Woodcock III,  
 P. M. Zimmerman,  S. Faraji,  P. M. W. Gill,  M. Head-Gordon,  
 J. M. Herbert,  A. I. Krylov

 Contributors to earlier versions of Q-Chem not listed above: 
 R. D. Adamson,  B. Austin,  R. Baer,  J. Baker,  G. J. O. Beran,  
 K. Brandhorst,  S. T. Brown,  E. F. C. Byrd,  A. K. Chakraborty,  
 G. K. L. Chan,  Chun-Min Chang,  Yunqing Chen,  C.-L. Cheng,  
 Siu Hung Chien,  D. M. Chipman,  D. L. Crittenden,  H. Dachsel,  
 R. J. Doerksen,  A. D. Dutoi,  R. G. Edgar,  J. Fosso-Tande,  
 L. Fusti-Molnar,  D. Ghosh,  A. Ghysels,  A. Golubeva-Zadorozhnaya,  
 J. Gonthier,  M. S. Gordon,  S. R. Gwaltney,  G. Hawkins,  J. E. Herr,  
 A. Heyden,  S. Hirata,  E. G. Hohenstein,  G. Kedziora,  F. J. Keil,  
 C. Kelley,  Jihan Kim,  R. A. King,  R. Z. Khaliullin,  P. P. Korambath,  
 W. Kurlancheek,  A. Laurent,  A. M. Lee,  M. S. Lee,  S. V. Levchenko,  
 Ching Yeh Lin,  D. Liotard,  E. Livshits,  R. C. Lochan,  I. Lotan,  
 L. A. Martinez-Martinez,  P. E. Maslen,  N. Nair,  D. P. O'Neill,  
 D. Neuhauser,  E. Neuscamman,  C. M. Oana,  R. Olivares-Amaya,  R. Olson,  
 T. M. Perrine,  B. Peters,  P. A. Pieniazek,  A. Prociuk,  Y. M. Rhee,  
 J. Ritchie,  M. A. Rohrdanz,  E. Rosta,  N. J. Russ,  H. F. Schaefer III,  
 M. W. Schmidt,  N. E. Schultz,  S. Sharma,  N. Shenvi,  C. D. Sherrill,  
 A. C. Simmonett,  A. Sodt,  T. Stein,  D. Stuck,  K. S. Thanthiriwatte,  
 V. Vanovschi,  L. Vogt,  Tao Wang,  A. Warshel,  M. A. Watson,  
 C. F. Williams,  Q. Wu,  X. Xu,  Jun Yang,  W. Zhang,  Yan Zhao

 Please cite Q-Chem as follows:
 Y. Shao et al., Mol. Phys. 113, 184-215 (2015)
 DOI: 10.1080/00268976.2014.952696

 Q-Chem 5.4.0 for Intel X86 EM64T Linux

 Parts of Q-Chem use Armadillo 9.800.1 (Horizon Scraper).
 http://arma.sourceforge.net/

 Q-Chem begins on Sun Jul 10 00:44:58 2022  

 Host: 
0

     Scratch files written to ./qchem1575813//
 May1621 |scratch|qcdevops|jenkins|workspace|build_RNUM    
 Processing $rem in /cm/shared/apps/spack/cpu/opt/spack/linux-centos8-zen2/gcc-10.2.0/qchem-5.4-akfmr7b3t57bfs6qan3padb2wnb2i7cl/config/preferences:
 Processing $rem in /home/theleonzhang/.qchemrc:
 Symmetry turned off for PCM/SM12/SMD calculation
 Core orbitals will be frozen

 Checking the input file for inconsistencies... 	...done.

--------------------------------------------------------------
User input:
--------------------------------------------------------------
$molecule
0 1
C	-0.671636	-3.866725	0.386946
C	0.530345	-3.703963	-0.306544
C	0.923770	-2.357056	-0.533261
H	1.128109	-4.561092	-0.651857
C	0.000000	-1.440664	0.000000
S	-1.337557	-2.286957	0.772250
C	2.184153	-1.978743	-1.260680
H	2.742769	-2.878678	-1.583283
H	2.863347	-1.376015	-0.622180
H	1.971094	-1.375728	-2.168011
C	0.000000	0.000000	0.000000
C	0.223548	0.834165	1.099446
C	0.581748	2.170912	0.776721
H	0.128089	0.477934	2.136088
C	0.638880	2.384045	-0.612546
S	0.243934	0.910282	-1.486809
C	0.863301	3.221592	1.814609
H	0.753137	2.810458	2.836676
H	0.170663	4.084559	1.726239
H	1.894637	3.622593	1.726228
H	0.884575	3.300913	-1.161575
H	-0.521098	-4.392713	1.336254
H	-1.418509	-4.392347	-0.218374
H	0.539900	-1.440937	0.935365
$end

$rem
JOBTYPE		SP
EXCHANGE	HF
CORRELATION	pRIMP2
BASIS		cc-pvtz
METHOD		rimp2
AUX_BASIS	rimp2-cc-pvtz
SOLVENT_METHOD	PCM
PURECART	11111
SYMMETRY	false
MEM_TOTAL	110000
SCF_CONVERGENCE = 6
THRESH=10
$end



$solvent
dielectric 4.90
$end
--------------------------------------------------------------
 ----------------------------------------------------------------
             Standard Nuclear Orientation (Angstroms)
    I     Atom           X                Y                Z
 ----------------------------------------------------------------
    1      C      -0.6716360000    -3.8667250000     0.3869460000
    2      C       0.5303450000    -3.7039630000    -0.3065440000
    3      C       0.9237700000    -2.3570560000    -0.5332610000
    4      H       1.1281090000    -4.5610920000    -0.6518570000
    5      C       0.0000000000    -1.4406640000     0.0000000000
    6      S      -1.3375570000    -2.2869570000     0.7722500000
    7      C       2.1841530000    -1.9787430000    -1.2606800000
    8      H       2.7427690000    -2.8786780000    -1.5832830000
    9      H       2.8633470000    -1.3760150000    -0.6221800000
   10      H       1.9710940000    -1.3757280000    -2.1680110000
   11      C       0.0000000000     0.0000000000     0.0000000000
   12      C       0.2235480000     0.8341650000     1.0994460000
   13      C       0.5817480000     2.1709120000     0.7767210000
   14      H       0.1280890000     0.4779340000     2.1360880000
   15      C       0.6388800000     2.3840450000    -0.6125460000
   16      S       0.2439340000     0.9102820000    -1.4868090000
   17      C       0.8633010000     3.2215920000     1.8146090000
   18      H       0.7531370000     2.8104580000     2.8366760000
   19      H       0.1706630000     4.0845590000     1.7262390000
   20      H       1.8946370000     3.6225930000     1.7262280000
   21      H       0.8845750000     3.3009130000    -1.1615750000
   22      H      -0.5210980000    -4.3927130000     1.3362540000
   23      H      -1.4185090000    -4.3923470000    -0.2183740000
   24      H       0.5399000000    -1.4409370000     0.9353650000
 ----------------------------------------------------------------
 Nuclear Repulsion Energy =         874.58925128 hartrees
 There are       52 alpha and       52 beta electrons

 Q-Chem warning in module forms1/BasisType.C, line 2236:

 You are not using the predefined 5D/6D in this basis set.

 Requested basis set is cc-pVTZ
 There are 196 shells and 536 basis functions

 Total QAlloc Memory Limit 110000 MB
 Mega-Array Size       188 MB
 MEM_STATIC part       192 MB
 Discretize the solute cavity surface with Lebedev spheres
	Using 110 Lebedev grid points for each H atom
	Using 194 Lebedev grid points for other atoms
	Atomic van der Waals radii will be scaled by 1.20
 Remove points where switching function is < 1.0e-08
 Keep 1593 surface tesserae and discard 2055 interior tesserae
 Molecular Surface Area = 235.613 Angst**2
 Requested basis set is rimp2-cc-pVTZ
 There are 414 shells and 1414 basis functions
 A cutoff of  1.0D-10 yielded  14031 shell pairs
 There are    101807 function pairs (    130590 Cartesian)
 Smallest overlap matrix eigenvalue = 5.86E-05

 Scale SEOQF with 1.000000e-01/1.000000e-01/1.000000e-01

 Standard Electronic Orientation quadrupole field applied
 Nucleus-field energy     =     0.0000000329 hartrees
 Guess from superposition of atomic densities
 Warning:  Energy on first SCF cycle will be non-variational
 SAD guess density has 104.000000 electrons

 -----------------------------------------------------------------------
  General SCF calculation program by
  Eric Jon Sundstrom, Paul Horn, Yuezhi Mao, Dmitri Zuev, Alec White,
  David Stuck, Shaama M.S., Shane Yost, Joonho Lee, David Small,
  Daniel Levine, Susi Lehtola, Hugh Burton, Evgeny Epifanovsky,
  Bang C. Huynh
 -----------------------------------------------------------------------
 Hartree-Fock
 A restricted SCF calculation will be
 performed using DIIS
 SCF converges when DIIS error is below 1.0e-06
 ---------------------------------------
  Cycle       Energy         DIIS error
 ---------------------------------------
    1   -1186.0332084756      2.39e-02  
    2   -1180.6122478110      1.55e-03  
    3   -1180.7364073604      6.03e-04  
    4   -1180.7504279378      3.38e-04  
    5   -1180.7556053699      5.89e-05  
    6   -1180.7558513176      2.43e-05  
    7   -1180.7559103138      9.03e-06  
    8   -1180.7559242521      4.33e-06  
    9   -1180.7559274488      1.53e-06  
   10   -1180.7559279523      5.12e-07  Convergence criterion met
 ---------------------------------------
 SCF time:   CPU 571.19s  wall 576.00s 

************** Final PCM Free Energy Summary **************
 G_electrostatic  =      -0.00868288 hartree =      -5.44858781 kcal/mol
 G_cavitation     =       0.00000000 hartree =       0.00000000 kcal/mol
 G_dispersion     =       0.00000000 hartree =       0.00000000 kcal/mol
 G_repulsion      =       0.00000000 hartree =       0.00000000 kcal/mol
 --------------------------------------------------
 Non-electrostatic Free Energy =       0.00000000 hartree =       0.00000000 kcal/mol
 Total                         =      -0.00868288 hartree =      -5.44858781 kcal/mol
 --------------------------------------------------
 SCF Energy (H0 + V/2)                       =   -1180.75592795 
 Solute Internal Energy (H0)                 =   -1180.74724507 
 Total Free Energy (H0 + V/2 + non-elec)     =   -1180.75592795 hartree
                                             = -740935.52772944 kcal/mol
***********************************************************

 SCF   energy in the final basis set =    -1180.7559279523
 Total energy in the final basis set =    -1180.7559279523


 --------------------------------------------------------------
  Generalized many-body perturbation theory program
  by Joonho Lee, Fazle Rob, Xintian Feng, Evgeny Epifanovsky

 No regularization used 
 (reg. param. = 0.0000e+00)
  (P|Q)^-1/2 Time:  CPU 1.90 s  wall 1.90 s

 In RI-MP2 calculation: 
 # of frozen core orbitals: 20

 Components of the RIMP2 correlation energy:
        aaaa    correlation energy =        -0.2515980165 a.u.
        abab    correlation energy =        -1.5037115070 a.u.
        bbbb    correlation energy =        -0.2515980165 a.u.
        non-Brillouin singles      =        -0.0000000000 a.u.
        total same-spin energy     =        -0.5031960329 a.u.
        total opposite-spin energy =        -1.5037115070 a.u.

 Total  RIMP2   correlation energy =        -2.0069075399 a.u.
        RIMP2         total energy =     -1182.7628354922 a.u.

 RI-MP2 Energy Time:  CPU 79.71 s  wall 79.93 s
 
 --------------------------------------------------------------
 
                    Orbital Energies (a.u.)
 --------------------------------------------------------------
 
 Alpha MOs
 -- Occupied --
-91.9819 -91.9408 -11.2829 -11.2637 -11.2624 -11.2556 -11.2510 -11.2409
-11.2404 -11.2307 -11.2291 -11.2199  -8.9818  -8.9456  -6.6627  -6.6622
 -6.6616  -6.6269  -6.6259  -6.6246  -1.1993  -1.1533  -1.0587  -1.0251
 -1.0075  -0.9583  -0.9124  -0.9014  -0.8135  -0.7659  -0.7315  -0.7005
 -0.6618  -0.6417  -0.6103  -0.5871  -0.5798  -0.5731  -0.5675  -0.5517
 -0.5421  -0.5310  -0.5153  -0.5058  -0.4930  -0.4784  -0.4587  -0.4482
 -0.3551  -0.3436  -0.3168  -0.2731
 -- Virtual --
  0.0945   0.1332   0.1418   0.1520   0.1580   0.1698   0.1776   0.1795
  0.1929   0.1970   0.2031   0.2070   0.2273   0.2341   0.2395   0.2437
  0.2516   0.2603   0.2697   0.2935   0.3162   0.3374   0.3467   0.3541
  0.3640   0.3705   0.3783   0.3925   0.3986   0.3999   0.4142   0.4307
  0.4355   0.4474   0.4538   0.4622   0.4625   0.4743   0.4856   0.4907
  0.5089   0.5151   0.5166   0.5328   0.5352   0.5407   0.5486   0.5542
  0.5620   0.5717   0.5802   0.5907   0.5930   0.6098   0.6164   0.6196
  0.6234   0.6298   0.6321   0.6393   0.6444   0.6500   0.6504   0.6583
  0.6619   0.6727   0.6824   0.6874   0.6930   0.7039   0.7101   0.7262
  0.7329   0.7475   0.7502   0.7662   0.7892   0.7934   0.8042   0.8252
  0.8271   0.8384   0.8533   0.8611   0.8641   0.8786   0.8934   0.9145
  0.9314   0.9507   0.9586   0.9670   0.9777   0.9841   1.0024   1.0049
  1.0144   1.0239   1.0296   1.0378   1.0499   1.0744   1.0764   1.0827
  1.0935   1.0985   1.1089   1.1253   1.1339   1.1496   1.1581   1.1712
  1.1773   1.1938   1.2017   1.2033   1.2175   1.2239   1.2300   1.2427
  1.2546   1.2582   1.2647   1.2764   1.2825   1.2853   1.3020   1.3138
  1.3217   1.3330   1.3364   1.3557   1.3755   1.4016   1.4053   1.4154
  1.4215   1.4438   1.4485   1.4537   1.4739   1.4819   1.4928   1.4985
  1.5043   1.5153   1.5233   1.5294   1.5364   1.5456   1.5486   1.5507
  1.5649   1.5749   1.5845   1.5934   1.6061   1.6142   1.6179   1.6393
  1.6506   1.6556   1.6830   1.6844   1.6992   1.7095   1.7220   1.7342
  1.7409   1.7601   1.7845   1.7941   1.8068   1.8239   1.8427   1.8612
  1.8705   1.9040   1.9348   1.9414   1.9521   1.9786   1.9852   2.0006
  2.0215   2.0320   2.0430   2.0562   2.0793   2.1040   2.1269   2.1616
  2.1879   2.1924   2.2057   2.2166   2.2357   2.2596   2.2770   2.2866
  2.3196   2.3430   2.3506   2.3655   2.3991   2.4229   2.4419   2.4632
  2.4957   2.5105   2.5377   2.5506   2.5691   2.5799   2.6090   2.6174
  2.6384   2.6502   2.6596   2.6620   2.6774   2.7028   2.7180   2.7306
  2.7425   2.7468   2.7569   2.7656   2.7772   2.7866   2.7910   2.8019
  2.8262   2.8483   2.8529   2.8756   2.8784   2.9088   2.9170   2.9267
  2.9387   2.9434   2.9560   2.9719   3.0113   3.0260   3.0329   3.0405
  3.0422   3.0862   3.0876   3.1078   3.1120   3.1219   3.1278   3.1341
  3.1468   3.1577   3.1607   3.1699   3.1871   3.1932   3.1988   3.2057
  3.2233   3.2421   3.2535   3.2675   3.2818   3.2862   3.2927   3.3048
  3.3165   3.3242   3.3274   3.3426   3.3434   3.3534   3.3571   3.3691
  3.3770   3.3883   3.3956   3.3988   3.4042   3.4104   3.4242   3.4329
  3.4409   3.4448   3.4562   3.4685   3.4751   3.4798   3.4925   3.5011
  3.5169   3.5260   3.5301   3.5347   3.5472   3.5508   3.5724   3.5805
  3.5948   3.5976   3.6100   3.6182   3.6329   3.6392   3.6477   3.6581
  3.6650   3.6793   3.6860   3.7024   3.7056   3.7255   3.7330   3.7356
  3.7512   3.7552   3.7654   3.7805   3.7849   3.7909   3.8022   3.8128
  3.8256   3.8367   3.8551   3.8633   3.8772   3.8822   3.8969   3.9194
  3.9253   3.9450   3.9500   3.9719   3.9733   3.9774   4.0032   4.0094
  4.0283   4.0435   4.0487   4.0602   4.0751   4.0856   4.0962   4.1140
  4.1225   4.1361   4.1449   4.1571   4.1690   4.1724   4.1825   4.1927
  4.2122   4.2186   4.2362   4.2450   4.2533   4.2642   4.2710   4.2808
  4.2946   4.3050   4.3202   4.3294   4.3320   4.3482   4.3596   4.3641
  4.3799   4.3954   4.4015   4.4093   4.4186   4.4299   4.4319   4.4465
  4.4610   4.4732   4.4735   4.4856   4.4949   4.5106   4.5364   4.5529
  4.5687   4.5882   4.6012   4.6302   4.6428   4.6531   4.6627   4.6786
  4.7004   4.7173   4.7308   4.7637   4.7811   4.8072   4.8180   4.8513
  4.8567   4.8676   4.8860   4.9042   4.9426   4.9561   4.9835   5.0007
  5.0187   5.0382   5.0937   5.1007   5.1177   5.1272   5.1449   5.1743
  5.1824   5.2122   5.2287   5.2723   5.2807   5.2831   5.3110   5.3176
  5.3401   5.3640   5.3830   5.4002   5.4076   5.4263   5.4416   5.4518
  5.4753   5.5152   5.5237   5.5417   5.5503   5.5639   5.5682   5.5954
  5.6232   5.6270   5.6420   5.6491   5.6716   5.6964   5.7018   5.7303
  5.7774   5.8043   5.8308   5.9790   5.9950   6.1081   6.1270   6.1361
  6.2081   6.2230   6.2270   6.2411   6.2568   6.2852   6.2989   6.3264
  6.3910   6.4817   9.4701  10.4790  12.0563  12.9448  13.1566  13.9678
 14.1071  14.2290  14.2888  14.7384
 --------------------------------------------------------------
 
          Ground-State Mulliken Net Atomic Charges

     Atom                 Charge (a.u.)
  ----------------------------------------
      1 C                    -0.076327
      2 C                    -0.325619
      3 C                    -0.020764
      4 H                     0.177029
      5 C                     0.067689
      6 S                    -0.179742
      7 C                    -0.274273
      8 H                     0.114544
      9 H                     0.107293
     10 H                     0.108964
     11 C                    -0.057172
     12 C                    -0.257435
     13 C                     0.027978
     14 H                     0.182970
     15 C                    -0.246296
     16 S                     0.007922
     17 C                    -0.271252
     18 H                     0.102424
     19 H                     0.108583
     20 H                     0.107699
     21 H                     0.196263
     22 H                     0.110213
     23 H                     0.112305
     24 H                     0.177006
  ----------------------------------------
  Sum of atomic charges =     0.000000

 -----------------------------------------------------------------
                    Cartesian Multipole Moments
 -----------------------------------------------------------------
    Charge (ESU x 10^10)
                -0.0000
    Dipole Moment (Debye)
         X       3.0026      Y       0.3821      Z       0.9149
       Tot       3.1621
    Quadrupole Moments (Debye-Ang)
        XX     -91.3486     XY      -1.2746     YY     -74.6899
        XZ       0.0803     YZ       1.7344     ZZ     -85.6216
    Octopole Moments (Debye-Ang^2)
       XXX     -53.6613    XXY      47.0083    XYY      -8.5165
       YYY     127.8309    XXZ      -5.0004    XYZ       1.8292
       YYZ      -0.9192    XZZ     -15.2868    YZZ      55.6193
       ZZZ       4.4984
    Hexadecapole Moments (Debye-Ang^3)
      XXXX    -638.7083   XXXY    -148.5930   XXYY    -598.2270
      XYYY     -98.7855   YYYY   -2737.3889   XXXZ      94.4306
      XXYZ     -15.6093   XYYZ      14.5371   YYYZ    -106.7396
      XXZZ    -222.3053   XYZZ     -41.8117   YYZZ    -603.4132
      XZZZ      99.5392   YZZZ     -91.5932   ZZZZ    -681.9426
 -----------------------------------------------------------------
 Total job time:  660.49s(wall), 651.80s(cpu) 
 Sun Jul 10 00:55:58 2022

        *************************************************************
        *                                                           *
        *  Thank you very much for using Q-Chem.  Have a nice day.  *
        *                                                           *
        *************************************************************


remove work dirs ./qchem1575813.0 -- ./qchem1575813.-1
rm -rf ./qchem1575813
