You are running Q-Chem version: 5.4.0

#
# job setting
#
local host:  exp-1-44
current dir: /expanse/lustre/scratch/theleonzhang/temp_project/Hydrogenated_Rotation_Test
input file:  Methylthiophene_Phi_20_Theta_120_Methylthiophene_Hydrogenated.qcin
output file: 
nprocs     : 0
nthreads   : 1
#
# qchem installation setting
#
QC:          /cm/shared/apps/spack/cpu/opt/spack/linux-centos8-zen2/gcc-10.2.0/qchem-5.4-akfmr7b3t57bfs6qan3padb2wnb2i7cl
QCAUX:       /cm/shared/apps/spack/cpu/opt/spack/linux-centos8-zen2/gcc-10.2.0/qchem-5.4-akfmr7b3t57bfs6qan3padb2wnb2i7cl/qcaux
QCPROG:      /cm/shared/apps/spack/cpu/opt/spack/linux-centos8-zen2/gcc-10.2.0/qchem-5.4-akfmr7b3t57bfs6qan3padb2wnb2i7cl/exe/qcprog.exe_s
QCPROG_S:    /cm/shared/apps/spack/cpu/opt/spack/linux-centos8-zen2/gcc-10.2.0/qchem-5.4-akfmr7b3t57bfs6qan3padb2wnb2i7cl/exe/qcprog.exe_s
PARALLEL:    -DSERIAL
QCMPI:       mpich
#
# qchem directory setting
#
qcrun:       qchem1559643
QCSCRATCH:   .
QCLOCALSCR:  
QCTMPDIR:    .
QCFILEPREF:  ./qchem1559643
QCSAVEDIR:   
workdirs:    ./qchem1559643
workdir0:    ./qchem1559643
partmpdirs =  
#
# parallel setting
#
QCRSH:           ssh
QCMPI:           mpich
QCMPIRUN:        /cm/shared/apps/spack/cpu/opt/spack/linux-centos8-zen2/gcc-10.2.0/qchem-5.4-akfmr7b3t57bfs6qan3padb2wnb2i7cl/bin/mpi/mpirun_qchem
QCMACHINEFILE:   ./qchem1559643/hostfile

#
# env setting
#
exported envs:   QC QCAUX QCSCRATCH QCRUNNAME QCFILEPREF QCPROG QCPROG_S GUIFILE

Running Job 1 of 1 Methylthiophene_Phi_20_Theta_120_Methylthiophene_Hydrogenated.qcin
qchem Methylthiophene_Phi_20_Theta_120_Methylthiophene_Hydrogenated.qcin_1559643.0 ./qchem1559643/ 0
/cm/shared/apps/spack/cpu/opt/spack/linux-centos8-zen2/gcc-10.2.0/qchem-5.4-akfmr7b3t57bfs6qan3padb2wnb2i7cl/exe/qcprog.exe_s Methylthiophene_Phi_20_Theta_120_Methylthiophene_Hydrogenated.qcin_1559643.0 ./qchem1559643/
                  Welcome to Q-Chem
     A Quantum Leap Into The Future Of Chemistry


 Q-Chem 5.4, Q-Chem, Inc., Pleasanton, CA (2021)

 License issued to: University of California, San Diego (site)

 E. Epifanovsky,  A. T. B. Gilbert,  Xintian Feng,  Joonho Lee,  Yuezhi Mao,  
 N. Mardirossian,  P. Pokhilko,  A. White,  M. Wormit,  M. P. Coons,  
 A. L. Dempwolff,  Zhengting Gan,  D. Hait,  P. R. Horn,  L. D. Jacobson,  
 I. Kaliman,  J. Kussmann,  A. W. Lange,  Ka Un Lao,  D. S. Levine,  Jie Liu,  
 S. C. McKenzie,  A. F. Morrison,  K. Nanda,  F. Plasser,  D. R. Rehn,  
 M. L. Vidal,  Zhi-Qiang You,  Ying Zhu,  B. Alam,  B. Albrecht,  
 A. Aldossary,  E. Alguire,  J. H. Andersen,  D. Barton,  K. Begam,  A. Behn,  
 Y. A. Bernard,  E. J. Berquist,  H. Burton,  A. Carreras,  K. Carter-Fenk,  
 R. Chakraborty,  A. D. Chien,  K. D. Closser,  V. Cofer-Shabica,  
 S. Dasgupta,  Jia Deng,  M. de Wergifosse,  M. Diedenhofen,  Hainam Do,  
 S. Ehlert,  Po-Tung Fang,  S. Fatehi,  Qingguo Feng,  J. Gayvert,  
 Qinghui Ge,  G. Gidofalvi,  M. Goldey,  J. Gomes,  C. Gonzalez-Espinoza,  
 S. Gulania,  A. Gunina,  M. W. D. Hanson-Heine,  P. H. P. Harbach,  
 A. W. Hauser,  M. F. Herbst,  M. Hernandez Vera,  M. Hodecker,  
 Z. C. Holden,  S. Houck,  Xunkun Huang,  Kerwin Hui,  B. C. Huynh,  
 M. Ivanov,  Hyunjun Ji,  Hanjie Jiang,  B. Kaduk,  S. Kaehler,  
 K. Khistyaev,  Jaehoon Kim,  P. Klunzinger,  Z. Koczor-Benda,  
 Joong Hoon Koh,  D. Kosenkov,  L. Koulias,  T. Kowalczyk,  C. M. Krauter,  
 K. Kue,  A. Kunitsa,  T. Kus,  A. Landau,  K. V. Lawler,  D. Lefrancois,  
 S. Lehtola,  Rain Li,  Yi-Pei Li,  Jiashu Liang,  M. Liebenthal,  
 Hung-Hsuan Lin,  You-Sheng Lin,  Fenglai Liu,  Kuan-Yu Liu,  
 M. Loipersberger,  A. Luenser,  A. Manjanath,  P. Manohar,  E. Mansoor,  
 S. F. Manzer,  Shan-Ping Mao,  A. V. Marenich,  T. Markovich,  S. Mason,  
 S. A. Maurer,  P. F. McLaughlin,  M. F. S. J. Menger,  J.-M. Mewes,  
 S. A. Mewes,  P. Morgante,  J. W. Mullinax,  T. S. Nguyen-Beck,  
 K. J. Oosterbaan,  G. Paran,  Alexander C. Paul,  Suranjan K. Paul,  
 F. Pavosevic,  Zheng Pei,  S. Prager,  E. I. Proynov,  E. Ramos,  B. Rana,  
 A. E. Rask,  A. Rettig,  R. M. Richard,  F. Rob,  E. Rossomme,  T. Scheele,  
 M. Scheurer,  M. Schneider,  N. Sergueev,  S. M. Sharada,  W. Skomorowski,  
 D. W. Small,  C. J. Stein,  Yu-Chuan Su,  E. J. Sundstrom,  Zhen Tao,  
 J. Thirman,  T. Tsuchimochi,  N. M. Tubman,  S. P. Veccham,  O. Vydrov,  
 J. Wenzel,  J. Witte,  A. Yamada,  Kun Yao,  S. Yeganeh,  S. R. Yost,  
 A. Zech,  Igor Ying Zhang,  Xing Zhang,  Yu Zhang,  D. Zuev,  
 A. Aspuru-Guzik,  A. T. Bell,  N. A. Besley,  K. B. Bravaya,  B. R. Brooks,  
 D. Casanova,  Jeng-Da Chai,  S. Coriani,  C. J. Cramer,  
 A. E. DePrince, III,  R. A. DiStasio Jr.,  A. Dreuw,  B. D. Dunietz,  
 T. R. Furlani,  W. A. Goddard III,  S. Grimme,  S. Hammes-Schiffer,  
 T. Head-Gordon,  W. J. Hehre,  Chao-Ping Hsu,  T.-C. Jagau,  Yousung Jung,  
 A. Klamt,  Jing Kong,  D. S. Lambrecht,  WanZhen Liang,  N. J. Mayhall,  
 C. W. McCurdy,  J. B. Neaton,  C. Ochsenfeld,  J. A. Parkhill,  R. Peverati,  
 V. A. Rassolov,  Yihan Shao,  L. V. Slipchenko,  T. Stauch,  R. P. Steele,  
 J. E. Subotnik,  A. J. W. Thom,  A. Tkatchenko,  D. G. Truhlar,  
 T. Van Voorhis,  T. A. Wesolowski,  K. B. Whaley,  H. L. Woodcock III,  
 P. M. Zimmerman,  S. Faraji,  P. M. W. Gill,  M. Head-Gordon,  
 J. M. Herbert,  A. I. Krylov

 Contributors to earlier versions of Q-Chem not listed above: 
 R. D. Adamson,  B. Austin,  R. Baer,  J. Baker,  G. J. O. Beran,  
 K. Brandhorst,  S. T. Brown,  E. F. C. Byrd,  A. K. Chakraborty,  
 G. K. L. Chan,  Chun-Min Chang,  Yunqing Chen,  C.-L. Cheng,  
 Siu Hung Chien,  D. M. Chipman,  D. L. Crittenden,  H. Dachsel,  
 R. J. Doerksen,  A. D. Dutoi,  R. G. Edgar,  J. Fosso-Tande,  
 L. Fusti-Molnar,  D. Ghosh,  A. Ghysels,  A. Golubeva-Zadorozhnaya,  
 J. Gonthier,  M. S. Gordon,  S. R. Gwaltney,  G. Hawkins,  J. E. Herr,  
 A. Heyden,  S. Hirata,  E. G. Hohenstein,  G. Kedziora,  F. J. Keil,  
 C. Kelley,  Jihan Kim,  R. A. King,  R. Z. Khaliullin,  P. P. Korambath,  
 W. Kurlancheek,  A. Laurent,  A. M. Lee,  M. S. Lee,  S. V. Levchenko,  
 Ching Yeh Lin,  D. Liotard,  E. Livshits,  R. C. Lochan,  I. Lotan,  
 L. A. Martinez-Martinez,  P. E. Maslen,  N. Nair,  D. P. O'Neill,  
 D. Neuhauser,  E. Neuscamman,  C. M. Oana,  R. Olivares-Amaya,  R. Olson,  
 T. M. Perrine,  B. Peters,  P. A. Pieniazek,  A. Prociuk,  Y. M. Rhee,  
 J. Ritchie,  M. A. Rohrdanz,  E. Rosta,  N. J. Russ,  H. F. Schaefer III,  
 M. W. Schmidt,  N. E. Schultz,  S. Sharma,  N. Shenvi,  C. D. Sherrill,  
 A. C. Simmonett,  A. Sodt,  T. Stein,  D. Stuck,  K. S. Thanthiriwatte,  
 V. Vanovschi,  L. Vogt,  Tao Wang,  A. Warshel,  M. A. Watson,  
 C. F. Williams,  Q. Wu,  X. Xu,  Jun Yang,  W. Zhang,  Yan Zhao

 Please cite Q-Chem as follows:
 Y. Shao et al., Mol. Phys. 113, 184-215 (2015)
 DOI: 10.1080/00268976.2014.952696

 Q-Chem 5.4.0 for Intel X86 EM64T Linux

 Parts of Q-Chem use Armadillo 9.800.1 (Horizon Scraper).
 http://arma.sourceforge.net/

 Q-Chem begins on Sat Jul  9 21:04:09 2022  

 Host: 
0

     Scratch files written to ./qchem1559643//
 May1621 |scratch|qcdevops|jenkins|workspace|build_RNUM    
 Processing $rem in /cm/shared/apps/spack/cpu/opt/spack/linux-centos8-zen2/gcc-10.2.0/qchem-5.4-akfmr7b3t57bfs6qan3padb2wnb2i7cl/config/preferences:
 Processing $rem in /home/theleonzhang/.qchemrc:
 Symmetry turned off for PCM/SM12/SMD calculation
 Core orbitals will be frozen

 Checking the input file for inconsistencies... 	...done.

--------------------------------------------------------------
User input:
--------------------------------------------------------------
$molecule
0 1
C	-0.670924	-3.866725	-0.388181
C	0.530648	-3.703963	0.306020
C	0.923703	-2.357056	0.533378
H	1.128579	-4.561092	0.651043
C	0.000000	-1.440664	0.000000
S	-1.337567	-2.286957	-0.772234
C	2.183857	-1.978743	1.261192
H	2.742548	-2.878678	1.583666
H	1.970497	-1.376015	2.168641
H	2.863099	-1.375728	0.623012
C	0.000000	0.000000	0.000000
C	0.295399	0.811508	1.099446
C	0.768742	2.111949	0.776721
H	0.169256	0.464952	2.136088
C	0.844232	2.319291	-0.612546
S	0.322342	0.885558	-1.486809
C	1.140796	3.134091	1.814609
H	0.995218	2.734123	2.836676
H	0.526006	4.054142	1.726239
H	2.203157	3.443680	1.726228
H	1.168902	3.211257	-1.161575
H	-1.417779	-4.392713	0.216843
H	-0.520136	-4.392347	-1.337652
H	-0.540100	-1.440937	0.935250
$end

$rem
JOBTYPE		SP
EXCHANGE	HF
CORRELATION	pRIMP2
BASIS		cc-pvtz
METHOD		rimp2
AUX_BASIS	rimp2-cc-pvtz
SOLVENT_METHOD	PCM
PURECART	11111
SYMMETRY	false
MEM_TOTAL	110000
SCF_CONVERGENCE = 6
THRESH=10
$end



$solvent
dielectric 4.90
$end
--------------------------------------------------------------
 ----------------------------------------------------------------
             Standard Nuclear Orientation (Angstroms)
    I     Atom           X                Y                Z
 ----------------------------------------------------------------
    1      C      -0.6709240000    -3.8667250000    -0.3881810000
    2      C       0.5306480000    -3.7039630000     0.3060200000
    3      C       0.9237030000    -2.3570560000     0.5333780000
    4      H       1.1285790000    -4.5610920000     0.6510430000
    5      C       0.0000000000    -1.4406640000     0.0000000000
    6      S      -1.3375670000    -2.2869570000    -0.7722340000
    7      C       2.1838570000    -1.9787430000     1.2611920000
    8      H       2.7425480000    -2.8786780000     1.5836660000
    9      H       1.9704970000    -1.3760150000     2.1686410000
   10      H       2.8630990000    -1.3757280000     0.6230120000
   11      C       0.0000000000     0.0000000000     0.0000000000
   12      C       0.2953990000     0.8115080000     1.0994460000
   13      C       0.7687420000     2.1119490000     0.7767210000
   14      H       0.1692560000     0.4649520000     2.1360880000
   15      C       0.8442320000     2.3192910000    -0.6125460000
   16      S       0.3223420000     0.8855580000    -1.4868090000
   17      C       1.1407960000     3.1340910000     1.8146090000
   18      H       0.9952180000     2.7341230000     2.8366760000
   19      H       0.5260060000     4.0541420000     1.7262390000
   20      H       2.2031570000     3.4436800000     1.7262280000
   21      H       1.1689020000     3.2112570000    -1.1615750000
   22      H      -1.4177790000    -4.3927130000     0.2168430000
   23      H      -0.5201360000    -4.3923470000    -1.3376520000
   24      H      -0.5401000000    -1.4409370000     0.9352500000
 ----------------------------------------------------------------
 Nuclear Repulsion Energy =         875.54100364 hartrees
 There are       52 alpha and       52 beta electrons

 Q-Chem warning in module forms1/BasisType.C, line 2236:

 You are not using the predefined 5D/6D in this basis set.

 Requested basis set is cc-pVTZ
 There are 196 shells and 536 basis functions

 Total QAlloc Memory Limit 110000 MB
 Mega-Array Size       188 MB
 MEM_STATIC part       192 MB
 Discretize the solute cavity surface with Lebedev spheres
	Using 110 Lebedev grid points for each H atom
	Using 194 Lebedev grid points for other atoms
	Atomic van der Waals radii will be scaled by 1.20
 Remove points where switching function is < 1.0e-08
 Keep 1614 surface tesserae and discard 2034 interior tesserae
 Molecular Surface Area = 236.195 Angst**2
 Requested basis set is rimp2-cc-pVTZ
 There are 414 shells and 1414 basis functions
 A cutoff of  1.0D-10 yielded  14165 shell pairs
 There are    102771 function pairs (    131785 Cartesian)
 Smallest overlap matrix eigenvalue = 5.72E-05

 Scale SEOQF with 1.000000e-01/1.000000e-01/1.000000e-01

 Standard Electronic Orientation quadrupole field applied
 Nucleus-field energy     =     0.0000000325 hartrees
 Guess from superposition of atomic densities
 Warning:  Energy on first SCF cycle will be non-variational
 SAD guess density has 104.000000 electrons

 -----------------------------------------------------------------------
  General SCF calculation program by
  Eric Jon Sundstrom, Paul Horn, Yuezhi Mao, Dmitri Zuev, Alec White,
  David Stuck, Shaama M.S., Shane Yost, Joonho Lee, David Small,
  Daniel Levine, Susi Lehtola, Hugh Burton, Evgeny Epifanovsky,
  Bang C. Huynh
 -----------------------------------------------------------------------
 Hartree-Fock
 A restricted SCF calculation will be
 performed using DIIS
 SCF converges when DIIS error is below 1.0e-06
 ---------------------------------------
  Cycle       Energy         DIIS error
 ---------------------------------------
    1   -1186.0283389570      2.39e-02  
    2   -1180.6131293617      1.54e-03  
    3   -1180.7370727895      5.83e-04  
    4   -1180.7505555894      3.26e-04  
    5   -1180.7553456625      5.90e-05  
    6   -1180.7555824112      2.39e-05  
    7   -1180.7556379038      8.88e-06  
    8   -1180.7556507470      4.19e-06  
    9   -1180.7556537208      1.53e-06  
   10   -1180.7556542175      5.33e-07  Convergence criterion met
 ---------------------------------------
 SCF time:   CPU 575.28s  wall 580.00s 

************** Final PCM Free Energy Summary **************
 G_electrostatic  =      -0.00953718 hartree =      -5.98466963 kcal/mol
 G_cavitation     =       0.00000000 hartree =       0.00000000 kcal/mol
 G_dispersion     =       0.00000000 hartree =       0.00000000 kcal/mol
 G_repulsion      =       0.00000000 hartree =       0.00000000 kcal/mol
 --------------------------------------------------
 Non-electrostatic Free Energy =       0.00000000 hartree =       0.00000000 kcal/mol
 Total                         =      -0.00953718 hartree =      -5.98466963 kcal/mol
 --------------------------------------------------
 SCF Energy (H0 + V/2)                       =   -1180.75565422 
 Solute Internal Energy (H0)                 =   -1180.74611704 
 Total Free Energy (H0 + V/2 + non-elec)     =   -1180.75565422 hartree
                                             = -740935.35595826 kcal/mol
***********************************************************

 SCF   energy in the final basis set =    -1180.7556542175
 Total energy in the final basis set =    -1180.7556542175


 --------------------------------------------------------------
  Generalized many-body perturbation theory program
  by Joonho Lee, Fazle Rob, Xintian Feng, Evgeny Epifanovsky

 No regularization used 
 (reg. param. = 0.0000e+00)
  (P|Q)^-1/2 Time:  CPU 1.93 s  wall 1.94 s

 In RI-MP2 calculation: 
 # of frozen core orbitals: 20

 Components of the RIMP2 correlation energy:
        aaaa    correlation energy =        -0.2516892625 a.u.
        abab    correlation energy =        -1.5042422057 a.u.
        bbbb    correlation energy =        -0.2516892625 a.u.
        non-Brillouin singles      =        -0.0000000000 a.u.
        total same-spin energy     =        -0.5033785250 a.u.
        total opposite-spin energy =        -1.5042422057 a.u.

 Total  RIMP2   correlation energy =        -2.0076207307 a.u.
        RIMP2         total energy =     -1182.7632749481 a.u.

 RI-MP2 Energy Time:  CPU 82.89 s  wall 83.17 s
 
 --------------------------------------------------------------
 
                    Orbital Energies (a.u.)
 --------------------------------------------------------------
 
 Alpha MOs
 -- Occupied --
-91.9801 -91.9409 -11.2794 -11.2658 -11.2634 -11.2559 -11.2514 -11.2440
-11.2408 -11.2315 -11.2297 -11.2197  -8.9801  -8.9456  -6.6610  -6.6604
 -6.6599  -6.6270  -6.6260  -6.6247  -1.1988  -1.1538  -1.0584  -1.0268
 -1.0042  -0.9617  -0.9119  -0.9012  -0.8151  -0.7605  -0.7340  -0.7055
 -0.6589  -0.6422  -0.6109  -0.5904  -0.5829  -0.5715  -0.5626  -0.5532
 -0.5416  -0.5303  -0.5179  -0.5069  -0.4871  -0.4772  -0.4614  -0.4468
 -0.3550  -0.3420  -0.3172  -0.2766
 -- Virtual --
  0.0922   0.1314   0.1422   0.1492   0.1581   0.1711   0.1749   0.1849
  0.1884   0.1952   0.2031   0.2157   0.2247   0.2336   0.2357   0.2443
  0.2527   0.2600   0.2741   0.2997   0.3083   0.3418   0.3425   0.3554
  0.3637   0.3722   0.3849   0.3967   0.3996   0.4070   0.4117   0.4144
  0.4304   0.4379   0.4493   0.4564   0.4682   0.4776   0.4847   0.4891
  0.4936   0.5064   0.5153   0.5297   0.5357   0.5443   0.5482   0.5598
  0.5632   0.5810   0.5875   0.5941   0.5996   0.6063   0.6103   0.6155
  0.6213   0.6247   0.6321   0.6409   0.6428   0.6482   0.6517   0.6562
  0.6595   0.6728   0.6817   0.6853   0.6959   0.6999   0.7206   0.7274
  0.7390   0.7466   0.7569   0.7684   0.7760   0.7876   0.8022   0.8203
  0.8270   0.8366   0.8537   0.8667   0.8800   0.8828   0.8955   0.9104
  0.9311   0.9409   0.9514   0.9611   0.9772   0.9939   1.0051   1.0100
  1.0152   1.0287   1.0396   1.0463   1.0564   1.0646   1.0755   1.0827
  1.0917   1.0924   1.1224   1.1253   1.1391   1.1544   1.1611   1.1781
  1.1816   1.1922   1.1971   1.2023   1.2107   1.2223   1.2357   1.2417
  1.2489   1.2624   1.2685   1.2745   1.2781   1.2869   1.3049   1.3212
  1.3350   1.3375   1.3501   1.3639   1.3699   1.3900   1.3972   1.4101
  1.4183   1.4334   1.4466   1.4620   1.4769   1.4782   1.4912   1.5026
  1.5075   1.5184   1.5243   1.5289   1.5376   1.5400   1.5483   1.5568
  1.5721   1.5838   1.5878   1.5926   1.6166   1.6173   1.6256   1.6377
  1.6510   1.6607   1.6726   1.6901   1.7041   1.7154   1.7259   1.7298
  1.7451   1.7525   1.7693   1.7900   1.8052   1.8175   1.8524   1.8786
  1.8949   1.9051   1.9298   1.9501   1.9523   1.9557   2.0025   2.0122
  2.0267   2.0281   2.0375   2.0528   2.0857   2.1149   2.1333   2.1614
  2.1831   2.1948   2.2108   2.2246   2.2374   2.2503   2.2556   2.2701
  2.2977   2.3014   2.3263   2.3505   2.4011   2.4312   2.4583   2.4727
  2.4893   2.5118   2.5400   2.5617   2.5824   2.5923   2.6014   2.6275
  2.6471   2.6529   2.6611   2.6681   2.6785   2.6862   2.6991   2.7262
  2.7402   2.7585   2.7615   2.7701   2.7731   2.7860   2.8119   2.8170
  2.8413   2.8584   2.8595   2.8714   2.8867   2.9042   2.9084   2.9250
  2.9419   2.9549   2.9632   2.9802   2.9976   3.0140   3.0327   3.0416
  3.0444   3.0707   3.0834   3.0951   3.1111   3.1170   3.1287   3.1373
  3.1475   3.1629   3.1704   3.1764   3.1920   3.1948   3.2079   3.2160
  3.2234   3.2476   3.2515   3.2614   3.2782   3.2921   3.2951   3.3013
  3.3127   3.3227   3.3355   3.3380   3.3462   3.3546   3.3583   3.3640
  3.3721   3.3792   3.3903   3.3971   3.4094   3.4209   3.4288   3.4351
  3.4435   3.4568   3.4596   3.4702   3.4780   3.4896   3.4941   3.5032
  3.5204   3.5308   3.5334   3.5464   3.5499   3.5605   3.5668   3.5746
  3.5862   3.6100   3.6180   3.6269   3.6363   3.6428   3.6550   3.6615
  3.6750   3.6776   3.6891   3.7017   3.7050   3.7243   3.7351   3.7410
  3.7484   3.7623   3.7761   3.7830   3.7927   3.7958   3.8038   3.8172
  3.8318   3.8485   3.8563   3.8718   3.8739   3.8784   3.8983   3.9214
  3.9343   3.9438   3.9491   3.9566   3.9722   3.9957   4.0004   4.0175
  4.0242   4.0400   4.0517   4.0566   4.0627   4.0764   4.0866   4.1035
  4.1166   4.1249   4.1484   4.1565   4.1691   4.1814   4.1883   4.1953
  4.2077   4.2216   4.2282   4.2370   4.2475   4.2639   4.2731   4.2842
  4.2913   4.3043   4.3107   4.3268   4.3340   4.3559   4.3681   4.3722
  4.3807   4.3871   4.4004   4.4097   4.4128   4.4308   4.4453   4.4465
  4.4540   4.4697   4.4774   4.4852   4.5073   4.5173   4.5227   4.5425
  4.5562   4.6031   4.6134   4.6254   4.6365   4.6507   4.6564   4.6765
  4.6851   4.7205   4.7403   4.7531   4.7780   4.7935   4.8246   4.8466
  4.8557   4.8793   4.8981   4.9241   4.9465   4.9517   4.9593   4.9836
  5.0133   5.0596   5.0880   5.1085   5.1244   5.1292   5.1427   5.1778
  5.1953   5.2023   5.2358   5.2597   5.2762   5.2890   5.3027   5.3273
  5.3372   5.3604   5.3820   5.3955   5.4106   5.4296   5.4354   5.4497
  5.4574   5.5170   5.5250   5.5385   5.5483   5.5599   5.5746   5.5996
  5.6180   5.6194   5.6327   5.6446   5.6725   5.6985   5.7155   5.7413
  5.7746   5.7993   5.8273   5.9733   6.0149   6.0799   6.1300   6.1516
  6.2022   6.2253   6.2327   6.2335   6.2517   6.2841   6.2927   6.3112
  6.3850   6.5381   9.3780  10.4946  12.0787  12.9131  13.1621  13.8935
 14.1076  14.2066  14.3719  14.9936
 --------------------------------------------------------------
 
          Ground-State Mulliken Net Atomic Charges

     Atom                 Charge (a.u.)
  ----------------------------------------
      1 C                    -0.075201
      2 C                    -0.324228
      3 C                    -0.034934
      4 H                     0.176876
      5 C                     0.080750
      6 S                    -0.177242
      7 C                    -0.269433
      8 H                     0.116470
      9 H                     0.097779
     10 H                     0.113014
     11 C                    -0.058743
     12 C                    -0.275013
     13 C                     0.032593
     14 H                     0.190361
     15 C                    -0.239327
     16 S                     0.005541
     17 C                    -0.271318
     18 H                     0.101781
     19 H                     0.108798
     20 H                     0.108152
     21 H                     0.197362
     22 H                     0.110350
     23 H                     0.110748
     24 H                     0.174861
  ----------------------------------------
  Sum of atomic charges =     0.000000

 -----------------------------------------------------------------
                    Cartesian Multipole Moments
 -----------------------------------------------------------------
    Charge (ESU x 10^10)
                -0.0000
    Dipole Moment (Debye)
         X       2.3816      Y       0.4948      Z       3.4625
       Tot       4.2315
    Quadrupole Moments (Debye-Ang)
        XX     -90.2136     XY       1.1327     YY     -74.7932
        XZ       0.2838     YZ      -1.9731     ZZ     -86.3372
    Octopole Moments (Debye-Ang^2)
       XXX     -70.3126    XXY      49.7719    XYY     -13.8793
       YYY     131.2674    XXZ       1.8802    XYZ      -2.5333
       YYZ      -1.8291    XZZ     -20.5896    YZZ      58.7203
       ZZZ       2.0626
    Hexadecapole Moments (Debye-Ang^3)
      XXXX    -681.7147   XXXY    -180.4806   XXYY    -587.1368
      XYYY    -123.8928   YYYY   -2694.2249   XXXZ    -151.3222
      XXYZ     -45.7105   XYYZ     -45.0675   YYYZ    -103.4216
      XXZZ    -230.8910   XYZZ     -52.0127   YYZZ    -600.5186
      XZZZ    -160.8048   YZZZ     -92.2659   ZZZZ    -687.3759
 -----------------------------------------------------------------
 Total job time:  665.41s(wall), 659.11s(cpu) 
 Sat Jul  9 21:15:14 2022

        *************************************************************
        *                                                           *
        *  Thank you very much for using Q-Chem.  Have a nice day.  *
        *                                                           *
        *************************************************************


remove work dirs ./qchem1559643.0 -- ./qchem1559643.-1
rm -rf ./qchem1559643
