You are running Q-Chem version: 5.4.0

#
# job setting
#
local host:  exp-1-52
current dir: /expanse/lustre/scratch/theleonzhang/temp_project/Hydrogenated_Rotation_Test
input file:  Methylthiophene_Phi_20_Theta_40_Methylthiophene_Hydrogenated_Alternate.qcin
output file: 
nprocs     : 0
nthreads   : 1
#
# qchem installation setting
#
QC:          /cm/shared/apps/spack/cpu/opt/spack/linux-centos8-zen2/gcc-10.2.0/qchem-5.4-akfmr7b3t57bfs6qan3padb2wnb2i7cl
QCAUX:       /cm/shared/apps/spack/cpu/opt/spack/linux-centos8-zen2/gcc-10.2.0/qchem-5.4-akfmr7b3t57bfs6qan3padb2wnb2i7cl/qcaux
QCPROG:      /cm/shared/apps/spack/cpu/opt/spack/linux-centos8-zen2/gcc-10.2.0/qchem-5.4-akfmr7b3t57bfs6qan3padb2wnb2i7cl/exe/qcprog.exe_s
QCPROG_S:    /cm/shared/apps/spack/cpu/opt/spack/linux-centos8-zen2/gcc-10.2.0/qchem-5.4-akfmr7b3t57bfs6qan3padb2wnb2i7cl/exe/qcprog.exe_s
PARALLEL:    -DSERIAL
QCMPI:       mpich
#
# qchem directory setting
#
qcrun:       qchem2910699
QCSCRATCH:   .
QCLOCALSCR:  
QCTMPDIR:    .
QCFILEPREF:  ./qchem2910699
QCSAVEDIR:   
workdirs:    ./qchem2910699
workdir0:    ./qchem2910699
partmpdirs =  
#
# parallel setting
#
QCRSH:           ssh
QCMPI:           mpich
QCMPIRUN:        /cm/shared/apps/spack/cpu/opt/spack/linux-centos8-zen2/gcc-10.2.0/qchem-5.4-akfmr7b3t57bfs6qan3padb2wnb2i7cl/bin/mpi/mpirun_qchem
QCMACHINEFILE:   ./qchem2910699/hostfile

#
# env setting
#
exported envs:   QC QCAUX QCSCRATCH QCRUNNAME QCFILEPREF QCPROG QCPROG_S GUIFILE

Running Job 1 of 1 Methylthiophene_Phi_20_Theta_40_Methylthiophene_Hydrogenated_Alternate.qcin
qchem Methylthiophene_Phi_20_Theta_40_Methylthiophene_Hydrogenated_Alternate.qcin_2910699.0 ./qchem2910699/ 0
/cm/shared/apps/spack/cpu/opt/spack/linux-centos8-zen2/gcc-10.2.0/qchem-5.4-akfmr7b3t57bfs6qan3padb2wnb2i7cl/exe/qcprog.exe_s Methylthiophene_Phi_20_Theta_40_Methylthiophene_Hydrogenated_Alternate.qcin_2910699.0 ./qchem2910699/
                  Welcome to Q-Chem
     A Quantum Leap Into The Future Of Chemistry


 Q-Chem 5.4, Q-Chem, Inc., Pleasanton, CA (2021)

 License issued to: University of California, San Diego (site)

 E. Epifanovsky,  A. T. B. Gilbert,  Xintian Feng,  Joonho Lee,  Yuezhi Mao,  
 N. Mardirossian,  P. Pokhilko,  A. White,  M. Wormit,  M. P. Coons,  
 A. L. Dempwolff,  Zhengting Gan,  D. Hait,  P. R. Horn,  L. D. Jacobson,  
 I. Kaliman,  J. Kussmann,  A. W. Lange,  Ka Un Lao,  D. S. Levine,  Jie Liu,  
 S. C. McKenzie,  A. F. Morrison,  K. Nanda,  F. Plasser,  D. R. Rehn,  
 M. L. Vidal,  Zhi-Qiang You,  Ying Zhu,  B. Alam,  B. Albrecht,  
 A. Aldossary,  E. Alguire,  J. H. Andersen,  D. Barton,  K. Begam,  A. Behn,  
 Y. A. Bernard,  E. J. Berquist,  H. Burton,  A. Carreras,  K. Carter-Fenk,  
 R. Chakraborty,  A. D. Chien,  K. D. Closser,  V. Cofer-Shabica,  
 S. Dasgupta,  Jia Deng,  M. de Wergifosse,  M. Diedenhofen,  Hainam Do,  
 S. Ehlert,  Po-Tung Fang,  S. Fatehi,  Qingguo Feng,  J. Gayvert,  
 Qinghui Ge,  G. Gidofalvi,  M. Goldey,  J. Gomes,  C. Gonzalez-Espinoza,  
 S. Gulania,  A. Gunina,  M. W. D. Hanson-Heine,  P. H. P. Harbach,  
 A. W. Hauser,  M. F. Herbst,  M. Hernandez Vera,  M. Hodecker,  
 Z. C. Holden,  S. Houck,  Xunkun Huang,  Kerwin Hui,  B. C. Huynh,  
 M. Ivanov,  Hyunjun Ji,  Hanjie Jiang,  B. Kaduk,  S. Kaehler,  
 K. Khistyaev,  Jaehoon Kim,  P. Klunzinger,  Z. Koczor-Benda,  
 Joong Hoon Koh,  D. Kosenkov,  L. Koulias,  T. Kowalczyk,  C. M. Krauter,  
 K. Kue,  A. Kunitsa,  T. Kus,  A. Landau,  K. V. Lawler,  D. Lefrancois,  
 S. Lehtola,  Rain Li,  Yi-Pei Li,  Jiashu Liang,  M. Liebenthal,  
 Hung-Hsuan Lin,  You-Sheng Lin,  Fenglai Liu,  Kuan-Yu Liu,  
 M. Loipersberger,  A. Luenser,  A. Manjanath,  P. Manohar,  E. Mansoor,  
 S. F. Manzer,  Shan-Ping Mao,  A. V. Marenich,  T. Markovich,  S. Mason,  
 S. A. Maurer,  P. F. McLaughlin,  M. F. S. J. Menger,  J.-M. Mewes,  
 S. A. Mewes,  P. Morgante,  J. W. Mullinax,  T. S. Nguyen-Beck,  
 K. J. Oosterbaan,  G. Paran,  Alexander C. Paul,  Suranjan K. Paul,  
 F. Pavosevic,  Zheng Pei,  S. Prager,  E. I. Proynov,  E. Ramos,  B. Rana,  
 A. E. Rask,  A. Rettig,  R. M. Richard,  F. Rob,  E. Rossomme,  T. Scheele,  
 M. Scheurer,  M. Schneider,  N. Sergueev,  S. M. Sharada,  W. Skomorowski,  
 D. W. Small,  C. J. Stein,  Yu-Chuan Su,  E. J. Sundstrom,  Zhen Tao,  
 J. Thirman,  T. Tsuchimochi,  N. M. Tubman,  S. P. Veccham,  O. Vydrov,  
 J. Wenzel,  J. Witte,  A. Yamada,  Kun Yao,  S. Yeganeh,  S. R. Yost,  
 A. Zech,  Igor Ying Zhang,  Xing Zhang,  Yu Zhang,  D. Zuev,  
 A. Aspuru-Guzik,  A. T. Bell,  N. A. Besley,  K. B. Bravaya,  B. R. Brooks,  
 D. Casanova,  Jeng-Da Chai,  S. Coriani,  C. J. Cramer,  
 A. E. DePrince, III,  R. A. DiStasio Jr.,  A. Dreuw,  B. D. Dunietz,  
 T. R. Furlani,  W. A. Goddard III,  S. Grimme,  S. Hammes-Schiffer,  
 T. Head-Gordon,  W. J. Hehre,  Chao-Ping Hsu,  T.-C. Jagau,  Yousung Jung,  
 A. Klamt,  Jing Kong,  D. S. Lambrecht,  WanZhen Liang,  N. J. Mayhall,  
 C. W. McCurdy,  J. B. Neaton,  C. Ochsenfeld,  J. A. Parkhill,  R. Peverati,  
 V. A. Rassolov,  Yihan Shao,  L. V. Slipchenko,  T. Stauch,  R. P. Steele,  
 J. E. Subotnik,  A. J. W. Thom,  A. Tkatchenko,  D. G. Truhlar,  
 T. Van Voorhis,  T. A. Wesolowski,  K. B. Whaley,  H. L. Woodcock III,  
 P. M. Zimmerman,  S. Faraji,  P. M. W. Gill,  M. Head-Gordon,  
 J. M. Herbert,  A. I. Krylov

 Contributors to earlier versions of Q-Chem not listed above: 
 R. D. Adamson,  B. Austin,  R. Baer,  J. Baker,  G. J. O. Beran,  
 K. Brandhorst,  S. T. Brown,  E. F. C. Byrd,  A. K. Chakraborty,  
 G. K. L. Chan,  Chun-Min Chang,  Yunqing Chen,  C.-L. Cheng,  
 Siu Hung Chien,  D. M. Chipman,  D. L. Crittenden,  H. Dachsel,  
 R. J. Doerksen,  A. D. Dutoi,  R. G. Edgar,  J. Fosso-Tande,  
 L. Fusti-Molnar,  D. Ghosh,  A. Ghysels,  A. Golubeva-Zadorozhnaya,  
 J. Gonthier,  M. S. Gordon,  S. R. Gwaltney,  G. Hawkins,  J. E. Herr,  
 A. Heyden,  S. Hirata,  E. G. Hohenstein,  G. Kedziora,  F. J. Keil,  
 C. Kelley,  Jihan Kim,  R. A. King,  R. Z. Khaliullin,  P. P. Korambath,  
 W. Kurlancheek,  A. Laurent,  A. M. Lee,  M. S. Lee,  S. V. Levchenko,  
 Ching Yeh Lin,  D. Liotard,  E. Livshits,  R. C. Lochan,  I. Lotan,  
 L. A. Martinez-Martinez,  P. E. Maslen,  N. Nair,  D. P. O'Neill,  
 D. Neuhauser,  E. Neuscamman,  C. M. Oana,  R. Olivares-Amaya,  R. Olson,  
 T. M. Perrine,  B. Peters,  P. A. Pieniazek,  A. Prociuk,  Y. M. Rhee,  
 J. Ritchie,  M. A. Rohrdanz,  E. Rosta,  N. J. Russ,  H. F. Schaefer III,  
 M. W. Schmidt,  N. E. Schultz,  S. Sharma,  N. Shenvi,  C. D. Sherrill,  
 A. C. Simmonett,  A. Sodt,  T. Stein,  D. Stuck,  K. S. Thanthiriwatte,  
 V. Vanovschi,  L. Vogt,  Tao Wang,  A. Warshel,  M. A. Watson,  
 C. F. Williams,  Q. Wu,  X. Xu,  Jun Yang,  W. Zhang,  Yan Zhao

 Please cite Q-Chem as follows:
 Y. Shao et al., Mol. Phys. 113, 184-215 (2015)
 DOI: 10.1080/00268976.2014.952696

 Q-Chem 5.4.0 for Intel X86 EM64T Linux

 Parts of Q-Chem use Armadillo 9.800.1 (Horizon Scraper).
 http://arma.sourceforge.net/

 Q-Chem begins on Sun Jul 10 00:50:28 2022  

 Host: 
0

     Scratch files written to ./qchem2910699//
 May1621 |scratch|qcdevops|jenkins|workspace|build_RNUM    
 Processing $rem in /cm/shared/apps/spack/cpu/opt/spack/linux-centos8-zen2/gcc-10.2.0/qchem-5.4-akfmr7b3t57bfs6qan3padb2wnb2i7cl/config/preferences:
 Processing $rem in /home/theleonzhang/.qchemrc:
 Symmetry turned off for PCM/SM12/SMD calculation
 Core orbitals will be frozen

 Checking the input file for inconsistencies... 	...done.

--------------------------------------------------------------
User input:
--------------------------------------------------------------
$molecule
0 1
C	-0.498788	-3.866725	0.593324
C	0.393517	-3.703963	-0.469446
C	0.685674	-2.357056	-0.817050
H	0.837128	-4.561092	-0.998381
C	0.000000	-1.440664	0.000000
S	-0.992768	-2.286957	1.183149
C	1.621254	-1.978743	-1.931676
H	2.035845	-2.878678	-2.425882
H	2.477868	-1.376015	-1.563980
H	1.110719	-1.375728	-2.711417
C	0.000000	0.000000	0.000000
C	0.295399	0.811508	1.099446
C	0.768742	2.111949	0.776721
H	0.169256	0.464952	2.136088
C	0.844232	2.319291	-0.612546
S	0.322342	0.885558	-1.486809
C	1.140796	3.134091	1.814609
H	0.995218	2.734123	2.836676
H	0.526006	4.054142	1.726239
H	2.203157	3.443680	1.726228
H	1.168902	3.211257	-1.161575
H	-0.032646	-4.392713	1.433894
H	-1.407651	-4.392347	0.279954
H	0.827254	-1.440937	0.694299
$end

$rem
JOBTYPE		SP
EXCHANGE	HF
CORRELATION	pRIMP2
BASIS		cc-pvtz
METHOD		rimp2
AUX_BASIS	rimp2-cc-pvtz
SOLVENT_METHOD	PCM
PURECART	11111
SYMMETRY	false
MEM_TOTAL	110000
SCF_CONVERGENCE = 6
THRESH=10
$end



$solvent
dielectric 4.90
$end
--------------------------------------------------------------
 ----------------------------------------------------------------
             Standard Nuclear Orientation (Angstroms)
    I     Atom           X                Y                Z
 ----------------------------------------------------------------
    1      C      -0.4987880000    -3.8667250000     0.5933240000
    2      C       0.3935170000    -3.7039630000    -0.4694460000
    3      C       0.6856740000    -2.3570560000    -0.8170500000
    4      H       0.8371280000    -4.5610920000    -0.9983810000
    5      C       0.0000000000    -1.4406640000     0.0000000000
    6      S      -0.9927680000    -2.2869570000     1.1831490000
    7      C       1.6212540000    -1.9787430000    -1.9316760000
    8      H       2.0358450000    -2.8786780000    -2.4258820000
    9      H       2.4778680000    -1.3760150000    -1.5639800000
   10      H       1.1107190000    -1.3757280000    -2.7114170000
   11      C       0.0000000000     0.0000000000     0.0000000000
   12      C       0.2953990000     0.8115080000     1.0994460000
   13      C       0.7687420000     2.1119490000     0.7767210000
   14      H       0.1692560000     0.4649520000     2.1360880000
   15      C       0.8442320000     2.3192910000    -0.6125460000
   16      S       0.3223420000     0.8855580000    -1.4868090000
   17      C       1.1407960000     3.1340910000     1.8146090000
   18      H       0.9952180000     2.7341230000     2.8366760000
   19      H       0.5260060000     4.0541420000     1.7262390000
   20      H       2.2031570000     3.4436800000     1.7262280000
   21      H       1.1689020000     3.2112570000    -1.1615750000
   22      H      -0.0326460000    -4.3927130000     1.4338940000
   23      H      -1.4076510000    -4.3923470000     0.2799540000
   24      H       0.8272540000    -1.4409370000     0.6942990000
 ----------------------------------------------------------------
 Nuclear Repulsion Energy =         877.92159726 hartrees
 There are       52 alpha and       52 beta electrons

 Q-Chem warning in module forms1/BasisType.C, line 2236:

 You are not using the predefined 5D/6D in this basis set.

 Requested basis set is cc-pVTZ
 There are 196 shells and 536 basis functions

 Total QAlloc Memory Limit 110000 MB
 Mega-Array Size       188 MB
 MEM_STATIC part       192 MB
 Discretize the solute cavity surface with Lebedev spheres
	Using 110 Lebedev grid points for each H atom
	Using 194 Lebedev grid points for other atoms
	Atomic van der Waals radii will be scaled by 1.20
 Remove points where switching function is < 1.0e-08
 Keep 1595 surface tesserae and discard 2053 interior tesserae
 Molecular Surface Area = 231.863 Angst**2
 Requested basis set is rimp2-cc-pVTZ
 There are 414 shells and 1414 basis functions
 A cutoff of  1.0D-10 yielded  14052 shell pairs
 There are    101742 function pairs (    130446 Cartesian)
 Smallest overlap matrix eigenvalue = 5.80E-05

 Scale SEOQF with 1.000000e-01/1.000000e-01/1.000000e-01

 Standard Electronic Orientation quadrupole field applied
 Nucleus-field energy     =     0.0000000270 hartrees
 Guess from superposition of atomic densities
 Warning:  Energy on first SCF cycle will be non-variational
 SAD guess density has 104.000000 electrons

 -----------------------------------------------------------------------
  General SCF calculation program by
  Eric Jon Sundstrom, Paul Horn, Yuezhi Mao, Dmitri Zuev, Alec White,
  David Stuck, Shaama M.S., Shane Yost, Joonho Lee, David Small,
  Daniel Levine, Susi Lehtola, Hugh Burton, Evgeny Epifanovsky,
  Bang C. Huynh
 -----------------------------------------------------------------------
 Hartree-Fock
 A restricted SCF calculation will be
 performed using DIIS
 SCF converges when DIIS error is below 1.0e-06
 ---------------------------------------
  Cycle       Energy         DIIS error
 ---------------------------------------
    1   -1186.0580543095      2.39e-02  
    2   -1180.6021740873      1.57e-03  
    3   -1180.7274276518      6.32e-04  
    4   -1180.7424637295      3.48e-04  
    5   -1180.7479979428      5.97e-05  
    6   -1180.7482492339      2.47e-05  
    7   -1180.7483082183      8.85e-06  
    8   -1180.7483211928      4.23e-06  
    9   -1180.7483241219      1.49e-06  
   10   -1180.7483246007      5.12e-07  Convergence criterion met
 ---------------------------------------
 SCF time:   CPU 602.37s  wall 605.00s 

************** Final PCM Free Energy Summary **************
 G_electrostatic  =      -0.00829937 hartree =      -5.20793053 kcal/mol
 G_cavitation     =       0.00000000 hartree =       0.00000000 kcal/mol
 G_dispersion     =       0.00000000 hartree =       0.00000000 kcal/mol
 G_repulsion      =       0.00000000 hartree =       0.00000000 kcal/mol
 --------------------------------------------------
 Non-electrostatic Free Energy =       0.00000000 hartree =       0.00000000 kcal/mol
 Total                         =      -0.00829937 hartree =      -5.20793053 kcal/mol
 --------------------------------------------------
 SCF Energy (H0 + V/2)                       =   -1180.74832460 
 Solute Internal Energy (H0)                 =   -1180.74002524 
 Total Free Energy (H0 + V/2 + non-elec)     =   -1180.74832460 hartree
                                             = -740930.75655435 kcal/mol
***********************************************************

 SCF   energy in the final basis set =    -1180.7483246007
 Total energy in the final basis set =    -1180.7483246007


 --------------------------------------------------------------
  Generalized many-body perturbation theory program
  by Joonho Lee, Fazle Rob, Xintian Feng, Evgeny Epifanovsky

 No regularization used 
 (reg. param. = 0.0000e+00)
  (P|Q)^-1/2 Time:  CPU 1.98 s  wall 1.98 s

 In RI-MP2 calculation: 
 # of frozen core orbitals: 20

 Components of the RIMP2 correlation energy:
        aaaa    correlation energy =        -0.2521226334 a.u.
        abab    correlation energy =        -1.5048423881 a.u.
        bbbb    correlation energy =        -0.2521226334 a.u.
        non-Brillouin singles      =        -0.0000000000 a.u.
        total same-spin energy     =        -0.5042452668 a.u.
        total opposite-spin energy =        -1.5048423881 a.u.

 Total  RIMP2   correlation energy =        -2.0090876549 a.u.
        RIMP2         total energy =     -1182.7574122557 a.u.

 RI-MP2 Energy Time:  CPU 84.62 s  wall 84.94 s
 
 --------------------------------------------------------------
 
                    Orbital Energies (a.u.)
 --------------------------------------------------------------
 
 Alpha MOs
 -- Occupied --
-91.9822 -91.9425 -11.2855 -11.2645 -11.2583 -11.2575 -11.2506 -11.2421
-11.2348 -11.2307 -11.2284 -11.2206  -8.9822  -8.9473  -6.6631  -6.6625
 -6.6619  -6.6287  -6.6276  -6.6264  -1.2012  -1.1525  -1.0596  -1.0261
 -1.0075  -0.9567  -0.9133  -0.9018  -0.8127  -0.7691  -0.7256  -0.7004
 -0.6628  -0.6437  -0.6105  -0.5858  -0.5812  -0.5738  -0.5682  -0.5533
 -0.5424  -0.5319  -0.5150  -0.5089  -0.4923  -0.4770  -0.4568  -0.4476
 -0.3560  -0.3431  -0.3210  -0.2665
 -- Virtual --
  0.0960   0.1327   0.1436   0.1524   0.1589   0.1695   0.1767   0.1798
  0.1964   0.1969   0.1996   0.2050   0.2242   0.2356   0.2402   0.2424
  0.2504   0.2660   0.2737   0.3016   0.3293   0.3376   0.3536   0.3580
  0.3641   0.3706   0.3795   0.3851   0.4000   0.4036   0.4118   0.4353
  0.4388   0.4510   0.4569   0.4630   0.4695   0.4822   0.4838   0.4998
  0.5081   0.5144   0.5203   0.5299   0.5342   0.5424   0.5509   0.5537
  0.5624   0.5773   0.5831   0.5865   0.5952   0.6137   0.6186   0.6198
  0.6236   0.6278   0.6318   0.6401   0.6444   0.6476   0.6535   0.6578
  0.6610   0.6753   0.6873   0.6897   0.6932   0.7115   0.7162   0.7202
  0.7323   0.7506   0.7539   0.7766   0.7881   0.7979   0.7989   0.8177
  0.8279   0.8409   0.8513   0.8666   0.8770   0.8908   0.9094   0.9206
  0.9289   0.9447   0.9545   0.9613   0.9808   0.9940   0.9949   1.0036
  1.0083   1.0204   1.0398   1.0489   1.0570   1.0686   1.0716   1.0752
  1.0896   1.0981   1.1234   1.1354   1.1426   1.1492   1.1609   1.1680
  1.1755   1.1882   1.1979   1.2086   1.2194   1.2266   1.2341   1.2434
  1.2552   1.2638   1.2717   1.2738   1.2796   1.2910   1.2973   1.3032
  1.3189   1.3339   1.3366   1.3677   1.3822   1.3983   1.4062   1.4112
  1.4249   1.4427   1.4502   1.4684   1.4739   1.4790   1.4877   1.4996
  1.5088   1.5159   1.5247   1.5295   1.5366   1.5427   1.5508   1.5547
  1.5616   1.5742   1.5834   1.5859   1.6138   1.6255   1.6305   1.6373
  1.6522   1.6601   1.6766   1.6888   1.6949   1.7123   1.7274   1.7292
  1.7449   1.7665   1.7913   1.7994   1.8098   1.8311   1.8423   1.8604
  1.8781   1.9149   1.9313   1.9416   1.9639   1.9714   2.0066   2.0194
  2.0342   2.0402   2.0436   2.0513   2.0736   2.0926   2.1250   2.1605
  2.1897   2.1978   2.2106   2.2171   2.2307   2.2583   2.2723   2.2829
  2.3286   2.3323   2.3536   2.3847   2.4063   2.4183   2.4513   2.4700
  2.4948   2.5085   2.5427   2.5540   2.5691   2.5834   2.6087   2.6162
  2.6315   2.6501   2.6613   2.6690   2.6847   2.7017   2.7125   2.7406
  2.7466   2.7526   2.7657   2.7746   2.7793   2.7827   2.8013   2.8083
  2.8318   2.8458   2.8527   2.8770   2.8843   2.9047   2.9193   2.9250
  2.9465   2.9616   2.9658   2.9768   3.0124   3.0233   3.0312   3.0360
  3.0513   3.0770   3.0860   3.1007   3.1116   3.1158   3.1321   3.1409
  3.1440   3.1587   3.1650   3.1746   3.1859   3.1980   3.2028   3.2183
  3.2267   3.2408   3.2508   3.2647   3.2729   3.2904   3.2941   3.3080
  3.3192   3.3221   3.3296   3.3345   3.3439   3.3500   3.3606   3.3693
  3.3775   3.3863   3.3950   3.3998   3.4075   3.4105   3.4275   3.4332
  3.4432   3.4479   3.4540   3.4647   3.4686   3.4784   3.5010   3.5093
  3.5172   3.5240   3.5246   3.5389   3.5492   3.5524   3.5690   3.5766
  3.5966   3.6021   3.6079   3.6220   3.6316   3.6399   3.6463   3.6581
  3.6641   3.6733   3.6953   3.7098   3.7128   3.7295   3.7333   3.7422
  3.7500   3.7587   3.7684   3.7811   3.7919   3.7965   3.8080   3.8208
  3.8300   3.8340   3.8515   3.8613   3.8832   3.8951   3.9021   3.9168
  3.9270   3.9434   3.9542   3.9723   3.9754   3.9852   4.0103   4.0166
  4.0242   4.0396   4.0500   4.0545   4.0773   4.0861   4.0990   4.1107
  4.1247   4.1349   4.1512   4.1571   4.1632   4.1743   4.1836   4.1930
  4.2131   4.2196   4.2337   4.2447   4.2577   4.2693   4.2802   4.2829
  4.2920   4.3104   4.3259   4.3311   4.3397   4.3483   4.3645   4.3742
  4.3810   4.3923   4.4002   4.4027   4.4238   4.4324   4.4435   4.4573
  4.4627   4.4713   4.4831   4.4886   4.4998   4.5251   4.5453   4.5605
  4.5712   4.5912   4.6049   4.6313   4.6392   4.6476   4.6638   4.6712
  4.7030   4.7118   4.7367   4.7511   4.7741   4.8049   4.8350   4.8531
  4.8570   4.8786   4.8863   4.8982   4.9443   4.9592   4.9880   4.9949
  5.0236   5.0390   5.0921   5.1081   5.1211   5.1280   5.1577   5.1796
  5.1863   5.2163   5.2260   5.2734   5.2787   5.2850   5.3087   5.3152
  5.3402   5.3655   5.3839   5.4037   5.4052   5.4214   5.4424   5.4498
  5.4875   5.5088   5.5209   5.5420   5.5514   5.5633   5.5703   5.5875
  5.6225   5.6284   5.6459   5.6578   5.6713   5.6976   5.6995   5.7326
  5.7734   5.7916   5.8343   5.9717   6.0026   6.1242   6.1348   6.1416
  6.2192   6.2280   6.2357   6.2425   6.2718   6.2871   6.3021   6.3195
  6.4040   6.4695   9.3980  10.5308  12.0668  12.9180  13.1587  13.9307
 14.1179  14.2504  14.3206  14.7564
 --------------------------------------------------------------
 
          Ground-State Mulliken Net Atomic Charges

     Atom                 Charge (a.u.)
  ----------------------------------------
      1 C                    -0.073476
      2 C                    -0.322812
      3 C                    -0.031884
      4 H                     0.177892
      5 C                     0.062311
      6 S                    -0.179712
      7 C                    -0.287093
      8 H                     0.114299
      9 H                     0.112925
     10 H                     0.109888
     11 C                    -0.025594
     12 C                    -0.276461
     13 C                     0.031157
     14 H                     0.183290
     15 C                    -0.258952
     16 S                     0.009467
     17 C                    -0.270693
     18 H                     0.102646
     19 H                     0.108468
     20 H                     0.107279
     21 H                     0.196200
     22 H                     0.110122
     23 H                     0.112938
     24 H                     0.187798
  ----------------------------------------
  Sum of atomic charges =     0.000000

 -----------------------------------------------------------------
                    Cartesian Multipole Moments
 -----------------------------------------------------------------
    Charge (ESU x 10^10)
                -0.0000
    Dipole Moment (Debye)
         X       2.7997      Y      -0.0036      Z      -0.0065
       Tot       2.7997
    Quadrupole Moments (Debye-Ang)
        XX     -90.7927     XY      -0.1235     YY     -75.2978
        XZ       0.3286     YZ       2.8335     ZZ     -85.4260
    Octopole Moments (Debye-Ang^2)
       XXX     -74.5311    XXY      51.8075    XYY     -12.1427
       YYY     127.5650    XXZ      -3.8799    XYZ       1.5780
       YYZ      -0.4845    XZZ     -18.0618    YZZ      55.2561
       ZZZ       1.2710
    Hexadecapole Moments (Debye-Ang^3)
      XXXX    -498.9326   XXXY    -167.5614   XXYY    -571.4264
      XYYY    -128.9684   YYYY   -2695.1805   XXXZ     109.5068
      XXYZ     -18.7168   XYYZ      16.7081   YYYZ    -103.2181
      XXZZ    -227.9372   XYZZ     -59.2973   YYZZ    -618.1314
      XZZZ     102.9523   YZZZ     -78.2354   ZZZZ    -870.8142
 -----------------------------------------------------------------
 Total job time:  692.28s(wall), 687.94s(cpu) 
 Sun Jul 10 01:02:00 2022

        *************************************************************
        *                                                           *
        *  Thank you very much for using Q-Chem.  Have a nice day.  *
        *                                                           *
        *************************************************************


remove work dirs ./qchem2910699.0 -- ./qchem2910699.-1
rm -rf ./qchem2910699
You are running Q-Chem version: 5.4.0

#
# job setting
#
local host:  exp-5-17
current dir: /expanse/lustre/scratch/theleonzhang/temp_project/Hydrogenated_Rotation_Test
input file:  Methylthiophene_Phi_20_Theta_40_Methylthiophene_Hydrogenated_Alternate.qcin
output file: 
nprocs     : 0
nthreads   : 1
#
# qchem installation setting
#
QC:          /cm/shared/apps/spack/cpu/opt/spack/linux-centos8-zen2/gcc-10.2.0/qchem-5.4-akfmr7b3t57bfs6qan3padb2wnb2i7cl
QCAUX:       /cm/shared/apps/spack/cpu/opt/spack/linux-centos8-zen2/gcc-10.2.0/qchem-5.4-akfmr7b3t57bfs6qan3padb2wnb2i7cl/qcaux
QCPROG:      /cm/shared/apps/spack/cpu/opt/spack/linux-centos8-zen2/gcc-10.2.0/qchem-5.4-akfmr7b3t57bfs6qan3padb2wnb2i7cl/exe/qcprog.exe_s
QCPROG_S:    /cm/shared/apps/spack/cpu/opt/spack/linux-centos8-zen2/gcc-10.2.0/qchem-5.4-akfmr7b3t57bfs6qan3padb2wnb2i7cl/exe/qcprog.exe_s
PARALLEL:    -DSERIAL
QCMPI:       mpich
#
# qchem directory setting
#
qcrun:       qchem566325
QCSCRATCH:   .
QCLOCALSCR:  
QCTMPDIR:    .
QCFILEPREF:  ./qchem566325
QCSAVEDIR:   
workdirs:    ./qchem566325
workdir0:    ./qchem566325
partmpdirs =  
#
# parallel setting
#
QCRSH:           ssh
QCMPI:           mpich
QCMPIRUN:        /cm/shared/apps/spack/cpu/opt/spack/linux-centos8-zen2/gcc-10.2.0/qchem-5.4-akfmr7b3t57bfs6qan3padb2wnb2i7cl/bin/mpi/mpirun_qchem
QCMACHINEFILE:   ./qchem566325/hostfile

#
# env setting
#
exported envs:   QC QCAUX QCSCRATCH QCRUNNAME QCFILEPREF QCPROG QCPROG_S GUIFILE

Running Job 1 of 1 Methylthiophene_Phi_20_Theta_40_Methylthiophene_Hydrogenated_Alternate.qcin
qchem Methylthiophene_Phi_20_Theta_40_Methylthiophene_Hydrogenated_Alternate.qcin_566325.0 ./qchem566325/ 0
/cm/shared/apps/spack/cpu/opt/spack/linux-centos8-zen2/gcc-10.2.0/qchem-5.4-akfmr7b3t57bfs6qan3padb2wnb2i7cl/exe/qcprog.exe_s Methylthiophene_Phi_20_Theta_40_Methylthiophene_Hydrogenated_Alternate.qcin_566325.0 ./qchem566325/
                  Welcome to Q-Chem
     A Quantum Leap Into The Future Of Chemistry


 Q-Chem 5.4, Q-Chem, Inc., Pleasanton, CA (2021)

 License issued to: University of California, San Diego (site)

 E. Epifanovsky,  A. T. B. Gilbert,  Xintian Feng,  Joonho Lee,  Yuezhi Mao,  
 N. Mardirossian,  P. Pokhilko,  A. White,  M. Wormit,  M. P. Coons,  
 A. L. Dempwolff,  Zhengting Gan,  D. Hait,  P. R. Horn,  L. D. Jacobson,  
 I. Kaliman,  J. Kussmann,  A. W. Lange,  Ka Un Lao,  D. S. Levine,  Jie Liu,  
 S. C. McKenzie,  A. F. Morrison,  K. Nanda,  F. Plasser,  D. R. Rehn,  
 M. L. Vidal,  Zhi-Qiang You,  Ying Zhu,  B. Alam,  B. Albrecht,  
 A. Aldossary,  E. Alguire,  J. H. Andersen,  D. Barton,  K. Begam,  A. Behn,  
 Y. A. Bernard,  E. J. Berquist,  H. Burton,  A. Carreras,  K. Carter-Fenk,  
 R. Chakraborty,  A. D. Chien,  K. D. Closser,  V. Cofer-Shabica,  
 S. Dasgupta,  Jia Deng,  M. de Wergifosse,  M. Diedenhofen,  Hainam Do,  
 S. Ehlert,  Po-Tung Fang,  S. Fatehi,  Qingguo Feng,  J. Gayvert,  
 Qinghui Ge,  G. Gidofalvi,  M. Goldey,  J. Gomes,  C. Gonzalez-Espinoza,  
 S. Gulania,  A. Gunina,  M. W. D. Hanson-Heine,  P. H. P. Harbach,  
 A. W. Hauser,  M. F. Herbst,  M. Hernandez Vera,  M. Hodecker,  
 Z. C. Holden,  S. Houck,  Xunkun Huang,  Kerwin Hui,  B. C. Huynh,  
 M. Ivanov,  Hyunjun Ji,  Hanjie Jiang,  B. Kaduk,  S. Kaehler,  
 K. Khistyaev,  Jaehoon Kim,  P. Klunzinger,  Z. Koczor-Benda,  
 Joong Hoon Koh,  D. Kosenkov,  L. Koulias,  T. Kowalczyk,  C. M. Krauter,  
 K. Kue,  A. Kunitsa,  T. Kus,  A. Landau,  K. V. Lawler,  D. Lefrancois,  
 S. Lehtola,  Rain Li,  Yi-Pei Li,  Jiashu Liang,  M. Liebenthal,  
 Hung-Hsuan Lin,  You-Sheng Lin,  Fenglai Liu,  Kuan-Yu Liu,  
 M. Loipersberger,  A. Luenser,  A. Manjanath,  P. Manohar,  E. Mansoor,  
 S. F. Manzer,  Shan-Ping Mao,  A. V. Marenich,  T. Markovich,  S. Mason,  
 S. A. Maurer,  P. F. McLaughlin,  M. F. S. J. Menger,  J.-M. Mewes,  
 S. A. Mewes,  P. Morgante,  J. W. Mullinax,  T. S. Nguyen-Beck,  
 K. J. Oosterbaan,  G. Paran,  Alexander C. Paul,  Suranjan K. Paul,  
 F. Pavosevic,  Zheng Pei,  S. Prager,  E. I. Proynov,  E. Ramos,  B. Rana,  
 A. E. Rask,  A. Rettig,  R. M. Richard,  F. Rob,  E. Rossomme,  T. Scheele,  
 M. Scheurer,  M. Schneider,  N. Sergueev,  S. M. Sharada,  W. Skomorowski,  
 D. W. Small,  C. J. Stein,  Yu-Chuan Su,  E. J. Sundstrom,  Zhen Tao,  
 J. Thirman,  T. Tsuchimochi,  N. M. Tubman,  S. P. Veccham,  O. Vydrov,  
 J. Wenzel,  J. Witte,  A. Yamada,  Kun Yao,  S. Yeganeh,  S. R. Yost,  
 A. Zech,  Igor Ying Zhang,  Xing Zhang,  Yu Zhang,  D. Zuev,  
 A. Aspuru-Guzik,  A. T. Bell,  N. A. Besley,  K. B. Bravaya,  B. R. Brooks,  
 D. Casanova,  Jeng-Da Chai,  S. Coriani,  C. J. Cramer,  
 A. E. DePrince, III,  R. A. DiStasio Jr.,  A. Dreuw,  B. D. Dunietz,  
 T. R. Furlani,  W. A. Goddard III,  S. Grimme,  S. Hammes-Schiffer,  
 T. Head-Gordon,  W. J. Hehre,  Chao-Ping Hsu,  T.-C. Jagau,  Yousung Jung,  
 A. Klamt,  Jing Kong,  D. S. Lambrecht,  WanZhen Liang,  N. J. Mayhall,  
 C. W. McCurdy,  J. B. Neaton,  C. Ochsenfeld,  J. A. Parkhill,  R. Peverati,  
 V. A. Rassolov,  Yihan Shao,  L. V. Slipchenko,  T. Stauch,  R. P. Steele,  
 J. E. Subotnik,  A. J. W. Thom,  A. Tkatchenko,  D. G. Truhlar,  
 T. Van Voorhis,  T. A. Wesolowski,  K. B. Whaley,  H. L. Woodcock III,  
 P. M. Zimmerman,  S. Faraji,  P. M. W. Gill,  M. Head-Gordon,  
 J. M. Herbert,  A. I. Krylov

 Contributors to earlier versions of Q-Chem not listed above: 
 R. D. Adamson,  B. Austin,  R. Baer,  J. Baker,  G. J. O. Beran,  
 K. Brandhorst,  S. T. Brown,  E. F. C. Byrd,  A. K. Chakraborty,  
 G. K. L. Chan,  Chun-Min Chang,  Yunqing Chen,  C.-L. Cheng,  
 Siu Hung Chien,  D. M. Chipman,  D. L. Crittenden,  H. Dachsel,  
 R. J. Doerksen,  A. D. Dutoi,  R. G. Edgar,  J. Fosso-Tande,  
 L. Fusti-Molnar,  D. Ghosh,  A. Ghysels,  A. Golubeva-Zadorozhnaya,  
 J. Gonthier,  M. S. Gordon,  S. R. Gwaltney,  G. Hawkins,  J. E. Herr,  
 A. Heyden,  S. Hirata,  E. G. Hohenstein,  G. Kedziora,  F. J. Keil,  
 C. Kelley,  Jihan Kim,  R. A. King,  R. Z. Khaliullin,  P. P. Korambath,  
 W. Kurlancheek,  A. Laurent,  A. M. Lee,  M. S. Lee,  S. V. Levchenko,  
 Ching Yeh Lin,  D. Liotard,  E. Livshits,  R. C. Lochan,  I. Lotan,  
 L. A. Martinez-Martinez,  P. E. Maslen,  N. Nair,  D. P. O'Neill,  
 D. Neuhauser,  E. Neuscamman,  C. M. Oana,  R. Olivares-Amaya,  R. Olson,  
 T. M. Perrine,  B. Peters,  P. A. Pieniazek,  A. Prociuk,  Y. M. Rhee,  
 J. Ritchie,  M. A. Rohrdanz,  E. Rosta,  N. J. Russ,  H. F. Schaefer III,  
 M. W. Schmidt,  N. E. Schultz,  S. Sharma,  N. Shenvi,  C. D. Sherrill,  
 A. C. Simmonett,  A. Sodt,  T. Stein,  D. Stuck,  K. S. Thanthiriwatte,  
 V. Vanovschi,  L. Vogt,  Tao Wang,  A. Warshel,  M. A. Watson,  
 C. F. Williams,  Q. Wu,  X. Xu,  Jun Yang,  W. Zhang,  Yan Zhao

 Please cite Q-Chem as follows:
 Y. Shao et al., Mol. Phys. 113, 184-215 (2015)
 DOI: 10.1080/00268976.2014.952696

 Q-Chem 5.4.0 for Intel X86 EM64T Linux

 Parts of Q-Chem use Armadillo 9.800.1 (Horizon Scraper).
 http://arma.sourceforge.net/

 Q-Chem begins on Sun Jul 10 01:27:01 2022  

 Host: 
0

     Scratch files written to ./qchem566325//
 May1621 |scratch|qcdevops|jenkins|workspace|build_RNUM    
 Processing $rem in /cm/shared/apps/spack/cpu/opt/spack/linux-centos8-zen2/gcc-10.2.0/qchem-5.4-akfmr7b3t57bfs6qan3padb2wnb2i7cl/config/preferences:
 Processing $rem in /home/theleonzhang/.qchemrc:
 Symmetry turned off for PCM/SM12/SMD calculation
 Core orbitals will be frozen

 Checking the input file for inconsistencies... 	...done.

--------------------------------------------------------------
User input:
--------------------------------------------------------------
$molecule
0 1
C	-0.498788	-3.866725	0.593324
C	0.393517	-3.703963	-0.469446
C	0.685674	-2.357056	-0.817050
H	0.837128	-4.561092	-0.998381
C	0.000000	-1.440664	0.000000
S	-0.992768	-2.286957	1.183149
C	1.621254	-1.978743	-1.931676
H	2.035845	-2.878678	-2.425882
H	2.477868	-1.376015	-1.563980
H	1.110719	-1.375728	-2.711417
C	0.000000	0.000000	0.000000
C	0.295399	0.811508	1.099446
C	0.768742	2.111949	0.776721
H	0.169256	0.464952	2.136088
C	0.844232	2.319291	-0.612546
S	0.322342	0.885558	-1.486809
C	1.140796	3.134091	1.814609
H	0.995218	2.734123	2.836676
H	0.526006	4.054142	1.726239
H	2.203157	3.443680	1.726228
H	1.168902	3.211257	-1.161575
H	-0.032646	-4.392713	1.433894
H	-1.407651	-4.392347	0.279954
H	0.827254	-1.440937	0.694299
$end

$rem
JOBTYPE		SP
EXCHANGE	HF
CORRELATION	pRIMP2
BASIS		cc-pvtz
METHOD		rimp2
AUX_BASIS	rimp2-cc-pvtz
SOLVENT_METHOD	PCM
PURECART	11111
SYMMETRY	false
MEM_TOTAL	110000
SCF_CONVERGENCE = 6
THRESH=10
$end



$solvent
dielectric 4.90
$end
--------------------------------------------------------------
 ----------------------------------------------------------------
             Standard Nuclear Orientation (Angstroms)
    I     Atom           X                Y                Z
 ----------------------------------------------------------------
    1      C      -0.4987880000    -3.8667250000     0.5933240000
    2      C       0.3935170000    -3.7039630000    -0.4694460000
    3      C       0.6856740000    -2.3570560000    -0.8170500000
    4      H       0.8371280000    -4.5610920000    -0.9983810000
    5      C       0.0000000000    -1.4406640000     0.0000000000
    6      S      -0.9927680000    -2.2869570000     1.1831490000
    7      C       1.6212540000    -1.9787430000    -1.9316760000
    8      H       2.0358450000    -2.8786780000    -2.4258820000
    9      H       2.4778680000    -1.3760150000    -1.5639800000
   10      H       1.1107190000    -1.3757280000    -2.7114170000
   11      C       0.0000000000     0.0000000000     0.0000000000
   12      C       0.2953990000     0.8115080000     1.0994460000
   13      C       0.7687420000     2.1119490000     0.7767210000
   14      H       0.1692560000     0.4649520000     2.1360880000
   15      C       0.8442320000     2.3192910000    -0.6125460000
   16      S       0.3223420000     0.8855580000    -1.4868090000
   17      C       1.1407960000     3.1340910000     1.8146090000
   18      H       0.9952180000     2.7341230000     2.8366760000
   19      H       0.5260060000     4.0541420000     1.7262390000
   20      H       2.2031570000     3.4436800000     1.7262280000
   21      H       1.1689020000     3.2112570000    -1.1615750000
   22      H      -0.0326460000    -4.3927130000     1.4338940000
   23      H      -1.4076510000    -4.3923470000     0.2799540000
   24      H       0.8272540000    -1.4409370000     0.6942990000
 ----------------------------------------------------------------
 Nuclear Repulsion Energy =         877.92159726 hartrees
 There are       52 alpha and       52 beta electrons

 Q-Chem warning in module forms1/BasisType.C, line 2236:

 You are not using the predefined 5D/6D in this basis set.

 Requested basis set is cc-pVTZ
 There are 196 shells and 536 basis functions

 Total QAlloc Memory Limit 110000 MB
 Mega-Array Size       188 MB
 MEM_STATIC part       192 MB
 Discretize the solute cavity surface with Lebedev spheres
	Using 110 Lebedev grid points for each H atom
	Using 194 Lebedev grid points for other atoms
	Atomic van der Waals radii will be scaled by 1.20
 Remove points where switching function is < 1.0e-08
 Keep 1595 surface tesserae and discard 2053 interior tesserae
 Molecular Surface Area = 231.863 Angst**2
 Requested basis set is rimp2-cc-pVTZ
 There are 414 shells and 1414 basis functions
 A cutoff of  1.0D-10 yielded  14052 shell pairs
 There are    101742 function pairs (    130446 Cartesian)
 Smallest overlap matrix eigenvalue = 5.80E-05

 Scale SEOQF with 1.000000e-01/1.000000e-01/1.000000e-01

 Standard Electronic Orientation quadrupole field applied
 Nucleus-field energy     =     0.0000000270 hartrees
 Guess from superposition of atomic densities
 Warning:  Energy on first SCF cycle will be non-variational
 SAD guess density has 104.000000 electrons

 -----------------------------------------------------------------------
  General SCF calculation program by
  Eric Jon Sundstrom, Paul Horn, Yuezhi Mao, Dmitri Zuev, Alec White,
  David Stuck, Shaama M.S., Shane Yost, Joonho Lee, David Small,
  Daniel Levine, Susi Lehtola, Hugh Burton, Evgeny Epifanovsky,
  Bang C. Huynh
 -----------------------------------------------------------------------
 Hartree-Fock
 A restricted SCF calculation will be
 performed using DIIS
 SCF converges when DIIS error is below 1.0e-06
 ---------------------------------------
  Cycle       Energy         DIIS error
 ---------------------------------------
    1   -1186.0580543095      2.39e-02  
    2   -1180.6021740873      1.57e-03  
    3   -1180.7274276518      6.32e-04  
    4   -1180.7424637295      3.48e-04  
    5   -1180.7479979428      5.97e-05  
    6   -1180.7482492339      2.47e-05  
    7   -1180.7483082183      8.85e-06  
    8   -1180.7483211928      4.23e-06  
    9   -1180.7483241219      1.49e-06  
   10   -1180.7483246007      5.12e-07  Convergence criterion met
 ---------------------------------------
 SCF time:   CPU 568.49s  wall 570.00s 

************** Final PCM Free Energy Summary **************
 G_electrostatic  =      -0.00829937 hartree =      -5.20793053 kcal/mol
 G_cavitation     =       0.00000000 hartree =       0.00000000 kcal/mol
 G_dispersion     =       0.00000000 hartree =       0.00000000 kcal/mol
 G_repulsion      =       0.00000000 hartree =       0.00000000 kcal/mol
 --------------------------------------------------
 Non-electrostatic Free Energy =       0.00000000 hartree =       0.00000000 kcal/mol
 Total                         =      -0.00829937 hartree =      -5.20793053 kcal/mol
 --------------------------------------------------
 SCF Energy (H0 + V/2)                       =   -1180.74832460 
 Solute Internal Energy (H0)                 =   -1180.74002524 
 Total Free Energy (H0 + V/2 + non-elec)     =   -1180.74832460 hartree
                                             = -740930.75655435 kcal/mol
***********************************************************

 SCF   energy in the final basis set =    -1180.7483246007
 Total energy in the final basis set =    -1180.7483246007


 --------------------------------------------------------------
  Generalized many-body perturbation theory program
  by Joonho Lee, Fazle Rob, Xintian Feng, Evgeny Epifanovsky

 No regularization used 
 (reg. param. = 0.0000e+00)
  (P|Q)^-1/2 Time:  CPU 1.90 s  wall 1.91 s

 In RI-MP2 calculation: 
 # of frozen core orbitals: 20

 Components of the RIMP2 correlation energy:
        aaaa    correlation energy =        -0.2521226334 a.u.
        abab    correlation energy =        -1.5048423881 a.u.
        bbbb    correlation energy =        -0.2521226334 a.u.
        non-Brillouin singles      =        -0.0000000000 a.u.
        total same-spin energy     =        -0.5042452668 a.u.
        total opposite-spin energy =        -1.5048423881 a.u.

 Total  RIMP2   correlation energy =        -2.0090876549 a.u.
        RIMP2         total energy =     -1182.7574122557 a.u.

 RI-MP2 Energy Time:  CPU 79.60 s  wall 79.78 s
 
 --------------------------------------------------------------
 
                    Orbital Energies (a.u.)
 --------------------------------------------------------------
 
 Alpha MOs
 -- Occupied --
-91.9822 -91.9425 -11.2855 -11.2645 -11.2583 -11.2575 -11.2506 -11.2421
-11.2348 -11.2307 -11.2284 -11.2206  -8.9822  -8.9473  -6.6631  -6.6625
 -6.6619  -6.6287  -6.6276  -6.6264  -1.2012  -1.1525  -1.0596  -1.0261
 -1.0075  -0.9567  -0.9133  -0.9018  -0.8127  -0.7691  -0.7256  -0.7004
 -0.6628  -0.6437  -0.6105  -0.5858  -0.5812  -0.5738  -0.5682  -0.5533
 -0.5424  -0.5319  -0.5150  -0.5089  -0.4923  -0.4770  -0.4568  -0.4476
 -0.3560  -0.3431  -0.3210  -0.2665
 -- Virtual --
  0.0960   0.1327   0.1436   0.1524   0.1589   0.1695   0.1767   0.1798
  0.1964   0.1969   0.1996   0.2050   0.2242   0.2356   0.2402   0.2424
  0.2504   0.2660   0.2737   0.3016   0.3293   0.3376   0.3536   0.3580
  0.3641   0.3706   0.3795   0.3851   0.4000   0.4036   0.4118   0.4353
  0.4388   0.4510   0.4569   0.4630   0.4695   0.4822   0.4838   0.4998
  0.5081   0.5144   0.5203   0.5299   0.5342   0.5424   0.5509   0.5537
  0.5624   0.5773   0.5831   0.5865   0.5952   0.6137   0.6186   0.6198
  0.6236   0.6278   0.6318   0.6401   0.6444   0.6476   0.6535   0.6578
  0.6610   0.6753   0.6873   0.6897   0.6932   0.7115   0.7162   0.7202
  0.7323   0.7506   0.7539   0.7766   0.7881   0.7979   0.7989   0.8177
  0.8279   0.8409   0.8513   0.8666   0.8770   0.8908   0.9094   0.9206
  0.9289   0.9447   0.9545   0.9613   0.9808   0.9940   0.9949   1.0036
  1.0083   1.0204   1.0398   1.0489   1.0570   1.0686   1.0716   1.0752
  1.0896   1.0981   1.1234   1.1354   1.1426   1.1492   1.1609   1.1680
  1.1755   1.1882   1.1979   1.2086   1.2194   1.2266   1.2341   1.2434
  1.2552   1.2638   1.2717   1.2738   1.2796   1.2910   1.2973   1.3032
  1.3189   1.3339   1.3366   1.3677   1.3822   1.3983   1.4062   1.4112
  1.4249   1.4427   1.4502   1.4684   1.4739   1.4790   1.4877   1.4996
  1.5088   1.5159   1.5247   1.5295   1.5366   1.5427   1.5508   1.5547
  1.5616   1.5742   1.5834   1.5859   1.6138   1.6255   1.6305   1.6373
  1.6522   1.6601   1.6766   1.6888   1.6949   1.7123   1.7274   1.7292
  1.7449   1.7665   1.7913   1.7994   1.8098   1.8311   1.8423   1.8604
  1.8781   1.9149   1.9313   1.9416   1.9639   1.9714   2.0066   2.0194
  2.0342   2.0402   2.0436   2.0513   2.0736   2.0926   2.1250   2.1605
  2.1897   2.1978   2.2106   2.2171   2.2307   2.2583   2.2723   2.2829
  2.3286   2.3323   2.3536   2.3847   2.4063   2.4183   2.4513   2.4700
  2.4948   2.5085   2.5427   2.5540   2.5691   2.5834   2.6087   2.6162
  2.6315   2.6501   2.6613   2.6690   2.6847   2.7017   2.7125   2.7406
  2.7466   2.7526   2.7657   2.7746   2.7793   2.7827   2.8013   2.8083
  2.8318   2.8458   2.8527   2.8770   2.8843   2.9047   2.9193   2.9250
  2.9465   2.9616   2.9658   2.9768   3.0124   3.0233   3.0312   3.0360
  3.0513   3.0770   3.0860   3.1007   3.1116   3.1158   3.1321   3.1409
  3.1440   3.1587   3.1650   3.1746   3.1859   3.1980   3.2028   3.2183
  3.2267   3.2408   3.2508   3.2647   3.2729   3.2904   3.2941   3.3080
  3.3192   3.3221   3.3296   3.3345   3.3439   3.3500   3.3606   3.3693
  3.3775   3.3863   3.3950   3.3998   3.4075   3.4105   3.4275   3.4332
  3.4432   3.4479   3.4540   3.4647   3.4686   3.4784   3.5010   3.5093
  3.5172   3.5240   3.5246   3.5389   3.5492   3.5524   3.5690   3.5766
  3.5966   3.6021   3.6079   3.6220   3.6316   3.6399   3.6463   3.6581
  3.6641   3.6733   3.6953   3.7098   3.7128   3.7295   3.7333   3.7422
  3.7500   3.7587   3.7684   3.7811   3.7919   3.7965   3.8080   3.8208
  3.8300   3.8340   3.8515   3.8613   3.8832   3.8951   3.9021   3.9168
  3.9270   3.9434   3.9542   3.9723   3.9754   3.9852   4.0103   4.0166
  4.0242   4.0396   4.0500   4.0545   4.0773   4.0861   4.0990   4.1107
  4.1247   4.1349   4.1512   4.1571   4.1632   4.1743   4.1836   4.1930
  4.2131   4.2196   4.2337   4.2447   4.2577   4.2693   4.2802   4.2829
  4.2920   4.3104   4.3259   4.3311   4.3397   4.3483   4.3645   4.3742
  4.3810   4.3923   4.4002   4.4027   4.4238   4.4324   4.4435   4.4573
  4.4627   4.4713   4.4831   4.4886   4.4998   4.5251   4.5453   4.5605
  4.5712   4.5912   4.6049   4.6313   4.6392   4.6476   4.6638   4.6712
  4.7030   4.7118   4.7367   4.7511   4.7741   4.8049   4.8350   4.8531
  4.8570   4.8786   4.8863   4.8982   4.9443   4.9592   4.9880   4.9949
  5.0236   5.0390   5.0921   5.1081   5.1211   5.1280   5.1577   5.1796
  5.1863   5.2163   5.2260   5.2734   5.2787   5.2850   5.3087   5.3152
  5.3402   5.3655   5.3839   5.4037   5.4052   5.4214   5.4424   5.4498
  5.4875   5.5088   5.5209   5.5420   5.5514   5.5633   5.5703   5.5875
  5.6225   5.6284   5.6459   5.6578   5.6713   5.6976   5.6995   5.7326
  5.7734   5.7916   5.8343   5.9717   6.0026   6.1242   6.1348   6.1416
  6.2192   6.2280   6.2357   6.2425   6.2718   6.2871   6.3021   6.3195
  6.4040   6.4695   9.3980  10.5308  12.0668  12.9180  13.1587  13.9307
 14.1179  14.2504  14.3206  14.7564
 --------------------------------------------------------------
 
          Ground-State Mulliken Net Atomic Charges

     Atom                 Charge (a.u.)
  ----------------------------------------
      1 C                    -0.073476
      2 C                    -0.322812
      3 C                    -0.031884
      4 H                     0.177892
      5 C                     0.062311
      6 S                    -0.179712
      7 C                    -0.287093
      8 H                     0.114299
      9 H                     0.112925
     10 H                     0.109888
     11 C                    -0.025594
     12 C                    -0.276461
     13 C                     0.031157
     14 H                     0.183290
     15 C                    -0.258952
     16 S                     0.009467
     17 C                    -0.270693
     18 H                     0.102646
     19 H                     0.108468
     20 H                     0.107279
     21 H                     0.196200
     22 H                     0.110122
     23 H                     0.112938
     24 H                     0.187798
  ----------------------------------------
  Sum of atomic charges =     0.000000

 -----------------------------------------------------------------
                    Cartesian Multipole Moments
 -----------------------------------------------------------------
    Charge (ESU x 10^10)
                -0.0000
    Dipole Moment (Debye)
         X       2.7997      Y      -0.0036      Z      -0.0065
       Tot       2.7997
    Quadrupole Moments (Debye-Ang)
        XX     -90.7927     XY      -0.1235     YY     -75.2978
        XZ       0.3286     YZ       2.8335     ZZ     -85.4260
    Octopole Moments (Debye-Ang^2)
       XXX     -74.5311    XXY      51.8075    XYY     -12.1427
       YYY     127.5650    XXZ      -3.8799    XYZ       1.5780
       YYZ      -0.4845    XZZ     -18.0618    YZZ      55.2561
       ZZZ       1.2710
    Hexadecapole Moments (Debye-Ang^3)
      XXXX    -498.9326   XXXY    -167.5614   XXYY    -571.4264
      XYYY    -128.9684   YYYY   -2695.1805   XXXZ     109.5068
      XXYZ     -18.7168   XYYZ      16.7081   YYYZ    -103.2181
      XXZZ    -227.9372   XYZZ     -59.2973   YYZZ    -618.1314
      XZZZ     102.9523   YZZZ     -78.2354   ZZZZ    -870.8142
 -----------------------------------------------------------------
 Total job time:  651.02s(wall), 648.97s(cpu) 
 Sun Jul 10 01:37:52 2022

        *************************************************************
        *                                                           *
        *  Thank you very much for using Q-Chem.  Have a nice day.  *
        *                                                           *
        *************************************************************


remove work dirs ./qchem566325.0 -- ./qchem566325.-1
rm -rf ./qchem566325
