You are running Q-Chem version: 5.4.0

#
# job setting
#
local host:  exp-1-41
current dir: /expanse/lustre/scratch/theleonzhang/temp_project/Hydrogenated_Rotation_Test
input file:  Methylthiophene_Phi_40_Theta_210_Methylthiophene_Hydrogenated.qcin
output file: 
nprocs     : 0
nthreads   : 1
#
# qchem installation setting
#
QC:          /cm/shared/apps/spack/cpu/opt/spack/linux-centos8-zen2/gcc-10.2.0/qchem-5.4-akfmr7b3t57bfs6qan3padb2wnb2i7cl
QCAUX:       /cm/shared/apps/spack/cpu/opt/spack/linux-centos8-zen2/gcc-10.2.0/qchem-5.4-akfmr7b3t57bfs6qan3padb2wnb2i7cl/qcaux
QCPROG:      /cm/shared/apps/spack/cpu/opt/spack/linux-centos8-zen2/gcc-10.2.0/qchem-5.4-akfmr7b3t57bfs6qan3padb2wnb2i7cl/exe/qcprog.exe_s
QCPROG_S:    /cm/shared/apps/spack/cpu/opt/spack/linux-centos8-zen2/gcc-10.2.0/qchem-5.4-akfmr7b3t57bfs6qan3padb2wnb2i7cl/exe/qcprog.exe_s
PARALLEL:    -DSERIAL
QCMPI:       mpich
#
# qchem directory setting
#
qcrun:       qchem1131289
QCSCRATCH:   .
QCLOCALSCR:  
QCTMPDIR:    .
QCFILEPREF:  ./qchem1131289
QCSAVEDIR:   
workdirs:    ./qchem1131289
workdir0:    ./qchem1131289
partmpdirs =  
#
# parallel setting
#
QCRSH:           ssh
QCMPI:           mpich
QCMPIRUN:        /cm/shared/apps/spack/cpu/opt/spack/linux-centos8-zen2/gcc-10.2.0/qchem-5.4-akfmr7b3t57bfs6qan3padb2wnb2i7cl/bin/mpi/mpirun_qchem
QCMACHINEFILE:   ./qchem1131289/hostfile

#
# env setting
#
exported envs:   QC QCAUX QCSCRATCH QCRUNNAME QCFILEPREF QCPROG QCPROG_S GUIFILE

Running Job 1 of 1 Methylthiophene_Phi_40_Theta_210_Methylthiophene_Hydrogenated.qcin
qchem Methylthiophene_Phi_40_Theta_210_Methylthiophene_Hydrogenated.qcin_1131289.0 ./qchem1131289/ 0
/cm/shared/apps/spack/cpu/opt/spack/linux-centos8-zen2/gcc-10.2.0/qchem-5.4-akfmr7b3t57bfs6qan3padb2wnb2i7cl/exe/qcprog.exe_s Methylthiophene_Phi_40_Theta_210_Methylthiophene_Hydrogenated.qcin_1131289.0 ./qchem1131289/
                  Welcome to Q-Chem
     A Quantum Leap Into The Future Of Chemistry


 Q-Chem 5.4, Q-Chem, Inc., Pleasanton, CA (2021)

 License issued to: University of California, San Diego (site)

 E. Epifanovsky,  A. T. B. Gilbert,  Xintian Feng,  Joonho Lee,  Yuezhi Mao,  
 N. Mardirossian,  P. Pokhilko,  A. White,  M. Wormit,  M. P. Coons,  
 A. L. Dempwolff,  Zhengting Gan,  D. Hait,  P. R. Horn,  L. D. Jacobson,  
 I. Kaliman,  J. Kussmann,  A. W. Lange,  Ka Un Lao,  D. S. Levine,  Jie Liu,  
 S. C. McKenzie,  A. F. Morrison,  K. Nanda,  F. Plasser,  D. R. Rehn,  
 M. L. Vidal,  Zhi-Qiang You,  Ying Zhu,  B. Alam,  B. Albrecht,  
 A. Aldossary,  E. Alguire,  J. H. Andersen,  D. Barton,  K. Begam,  A. Behn,  
 Y. A. Bernard,  E. J. Berquist,  H. Burton,  A. Carreras,  K. Carter-Fenk,  
 R. Chakraborty,  A. D. Chien,  K. D. Closser,  V. Cofer-Shabica,  
 S. Dasgupta,  Jia Deng,  M. de Wergifosse,  M. Diedenhofen,  Hainam Do,  
 S. Ehlert,  Po-Tung Fang,  S. Fatehi,  Qingguo Feng,  J. Gayvert,  
 Qinghui Ge,  G. Gidofalvi,  M. Goldey,  J. Gomes,  C. Gonzalez-Espinoza,  
 S. Gulania,  A. Gunina,  M. W. D. Hanson-Heine,  P. H. P. Harbach,  
 A. W. Hauser,  M. F. Herbst,  M. Hernandez Vera,  M. Hodecker,  
 Z. C. Holden,  S. Houck,  Xunkun Huang,  Kerwin Hui,  B. C. Huynh,  
 M. Ivanov,  Hyunjun Ji,  Hanjie Jiang,  B. Kaduk,  S. Kaehler,  
 K. Khistyaev,  Jaehoon Kim,  P. Klunzinger,  Z. Koczor-Benda,  
 Joong Hoon Koh,  D. Kosenkov,  L. Koulias,  T. Kowalczyk,  C. M. Krauter,  
 K. Kue,  A. Kunitsa,  T. Kus,  A. Landau,  K. V. Lawler,  D. Lefrancois,  
 S. Lehtola,  Rain Li,  Yi-Pei Li,  Jiashu Liang,  M. Liebenthal,  
 Hung-Hsuan Lin,  You-Sheng Lin,  Fenglai Liu,  Kuan-Yu Liu,  
 M. Loipersberger,  A. Luenser,  A. Manjanath,  P. Manohar,  E. Mansoor,  
 S. F. Manzer,  Shan-Ping Mao,  A. V. Marenich,  T. Markovich,  S. Mason,  
 S. A. Maurer,  P. F. McLaughlin,  M. F. S. J. Menger,  J.-M. Mewes,  
 S. A. Mewes,  P. Morgante,  J. W. Mullinax,  T. S. Nguyen-Beck,  
 K. J. Oosterbaan,  G. Paran,  Alexander C. Paul,  Suranjan K. Paul,  
 F. Pavosevic,  Zheng Pei,  S. Prager,  E. I. Proynov,  E. Ramos,  B. Rana,  
 A. E. Rask,  A. Rettig,  R. M. Richard,  F. Rob,  E. Rossomme,  T. Scheele,  
 M. Scheurer,  M. Schneider,  N. Sergueev,  S. M. Sharada,  W. Skomorowski,  
 D. W. Small,  C. J. Stein,  Yu-Chuan Su,  E. J. Sundstrom,  Zhen Tao,  
 J. Thirman,  T. Tsuchimochi,  N. M. Tubman,  S. P. Veccham,  O. Vydrov,  
 J. Wenzel,  J. Witte,  A. Yamada,  Kun Yao,  S. Yeganeh,  S. R. Yost,  
 A. Zech,  Igor Ying Zhang,  Xing Zhang,  Yu Zhang,  D. Zuev,  
 A. Aspuru-Guzik,  A. T. Bell,  N. A. Besley,  K. B. Bravaya,  B. R. Brooks,  
 D. Casanova,  Jeng-Da Chai,  S. Coriani,  C. J. Cramer,  
 A. E. DePrince, III,  R. A. DiStasio Jr.,  A. Dreuw,  B. D. Dunietz,  
 T. R. Furlani,  W. A. Goddard III,  S. Grimme,  S. Hammes-Schiffer,  
 T. Head-Gordon,  W. J. Hehre,  Chao-Ping Hsu,  T.-C. Jagau,  Yousung Jung,  
 A. Klamt,  Jing Kong,  D. S. Lambrecht,  WanZhen Liang,  N. J. Mayhall,  
 C. W. McCurdy,  J. B. Neaton,  C. Ochsenfeld,  J. A. Parkhill,  R. Peverati,  
 V. A. Rassolov,  Yihan Shao,  L. V. Slipchenko,  T. Stauch,  R. P. Steele,  
 J. E. Subotnik,  A. J. W. Thom,  A. Tkatchenko,  D. G. Truhlar,  
 T. Van Voorhis,  T. A. Wesolowski,  K. B. Whaley,  H. L. Woodcock III,  
 P. M. Zimmerman,  S. Faraji,  P. M. W. Gill,  M. Head-Gordon,  
 J. M. Herbert,  A. I. Krylov

 Contributors to earlier versions of Q-Chem not listed above: 
 R. D. Adamson,  B. Austin,  R. Baer,  J. Baker,  G. J. O. Beran,  
 K. Brandhorst,  S. T. Brown,  E. F. C. Byrd,  A. K. Chakraborty,  
 G. K. L. Chan,  Chun-Min Chang,  Yunqing Chen,  C.-L. Cheng,  
 Siu Hung Chien,  D. M. Chipman,  D. L. Crittenden,  H. Dachsel,  
 R. J. Doerksen,  A. D. Dutoi,  R. G. Edgar,  J. Fosso-Tande,  
 L. Fusti-Molnar,  D. Ghosh,  A. Ghysels,  A. Golubeva-Zadorozhnaya,  
 J. Gonthier,  M. S. Gordon,  S. R. Gwaltney,  G. Hawkins,  J. E. Herr,  
 A. Heyden,  S. Hirata,  E. G. Hohenstein,  G. Kedziora,  F. J. Keil,  
 C. Kelley,  Jihan Kim,  R. A. King,  R. Z. Khaliullin,  P. P. Korambath,  
 W. Kurlancheek,  A. Laurent,  A. M. Lee,  M. S. Lee,  S. V. Levchenko,  
 Ching Yeh Lin,  D. Liotard,  E. Livshits,  R. C. Lochan,  I. Lotan,  
 L. A. Martinez-Martinez,  P. E. Maslen,  N. Nair,  D. P. O'Neill,  
 D. Neuhauser,  E. Neuscamman,  C. M. Oana,  R. Olivares-Amaya,  R. Olson,  
 T. M. Perrine,  B. Peters,  P. A. Pieniazek,  A. Prociuk,  Y. M. Rhee,  
 J. Ritchie,  M. A. Rohrdanz,  E. Rosta,  N. J. Russ,  H. F. Schaefer III,  
 M. W. Schmidt,  N. E. Schultz,  S. Sharma,  N. Shenvi,  C. D. Sherrill,  
 A. C. Simmonett,  A. Sodt,  T. Stein,  D. Stuck,  K. S. Thanthiriwatte,  
 V. Vanovschi,  L. Vogt,  Tao Wang,  A. Warshel,  M. A. Watson,  
 C. F. Williams,  Q. Wu,  X. Xu,  Jun Yang,  W. Zhang,  Yan Zhao

 Please cite Q-Chem as follows:
 Y. Shao et al., Mol. Phys. 113, 184-215 (2015)
 DOI: 10.1080/00268976.2014.952696

 Q-Chem 5.4.0 for Intel X86 EM64T Linux

 Parts of Q-Chem use Armadillo 9.800.1 (Horizon Scraper).
 http://arma.sourceforge.net/

 Q-Chem begins on Sun Jul 10 03:11:57 2022  

 Host: 
0

     Scratch files written to ./qchem1131289//
 May1621 |scratch|qcdevops|jenkins|workspace|build_RNUM    
 Processing $rem in /cm/shared/apps/spack/cpu/opt/spack/linux-centos8-zen2/gcc-10.2.0/qchem-5.4-akfmr7b3t57bfs6qan3padb2wnb2i7cl/config/preferences:
 Processing $rem in /home/theleonzhang/.qchemrc:
 Symmetry turned off for PCM/SM12/SMD calculation
 Core orbitals will be frozen

 Checking the input file for inconsistencies... 	...done.

--------------------------------------------------------------
User input:
--------------------------------------------------------------
$molecule
0 1
C	0.388181	-3.866725	-0.670924
C	-0.306020	-3.703963	0.530648
C	-0.533378	-2.357056	0.923703
H	-0.651043	-4.561092	1.128579
C	-0.000000	-1.440664	-0.000000
S	0.772234	-2.286957	-1.337567
C	-1.261192	-1.978743	2.183857
H	-1.583666	-2.878678	2.742548
H	-2.168641	-1.376015	1.970497
H	-0.623012	-1.375728	2.863099
C	0.000000	0.000000	0.000000
C	0.555137	0.661535	1.099446
C	1.444710	1.721658	0.776721
H	0.318072	0.379023	2.136088
C	1.586563	1.890676	-0.612546
S	0.605781	0.721904	-1.486809
C	2.143920	2.554907	1.814609
H	1.870325	2.228851	2.836676
H	1.880882	3.629742	1.726239
H	3.248098	2.482476	1.726228
H	2.196723	2.617806	-1.161575
H	-0.216843	-4.392713	-1.417779
H	1.337652	-4.392347	-0.520136
H	-0.935250	-1.440937	-0.540100
$end

$rem
JOBTYPE		SP
EXCHANGE	HF
CORRELATION	pRIMP2
BASIS		cc-pvtz
METHOD		rimp2
AUX_BASIS	rimp2-cc-pvtz
SOLVENT_METHOD	PCM
PURECART	11111
SYMMETRY	false
MEM_TOTAL	110000
SCF_CONVERGENCE = 6
THRESH=10
$end



$solvent
dielectric 4.90
$end
--------------------------------------------------------------
 ----------------------------------------------------------------
             Standard Nuclear Orientation (Angstroms)
    I     Atom           X                Y                Z
 ----------------------------------------------------------------
    1      C       0.3881810000    -3.8667250000    -0.6709240000
    2      C      -0.3060200000    -3.7039630000     0.5306480000
    3      C      -0.5333780000    -2.3570560000     0.9237030000
    4      H      -0.6510430000    -4.5610920000     1.1285790000
    5      C       0.0000000000    -1.4406640000     0.0000000000
    6      S       0.7722340000    -2.2869570000    -1.3375670000
    7      C      -1.2611920000    -1.9787430000     2.1838570000
    8      H      -1.5836660000    -2.8786780000     2.7425480000
    9      H      -2.1686410000    -1.3760150000     1.9704970000
   10      H      -0.6230120000    -1.3757280000     2.8630990000
   11      C       0.0000000000     0.0000000000     0.0000000000
   12      C       0.5551370000     0.6615350000     1.0994460000
   13      C       1.4447100000     1.7216580000     0.7767210000
   14      H       0.3180720000     0.3790230000     2.1360880000
   15      C       1.5865630000     1.8906760000    -0.6125460000
   16      S       0.6057810000     0.7219040000    -1.4868090000
   17      C       2.1439200000     2.5549070000     1.8146090000
   18      H       1.8703250000     2.2288510000     2.8366760000
   19      H       1.8808820000     3.6297420000     1.7262390000
   20      H       3.2480980000     2.4824760000     1.7262280000
   21      H       2.1967230000     2.6178060000    -1.1615750000
   22      H      -0.2168430000    -4.3927130000    -1.4177790000
   23      H       1.3376520000    -4.3923470000    -0.5201360000
   24      H      -0.9352500000    -1.4409370000    -0.5401000000
 ----------------------------------------------------------------
 Nuclear Repulsion Energy =         887.30297157 hartrees
 There are       52 alpha and       52 beta electrons

 Q-Chem warning in module forms1/BasisType.C, line 2236:

 You are not using the predefined 5D/6D in this basis set.

 Requested basis set is cc-pVTZ
 There are 196 shells and 536 basis functions

 Total QAlloc Memory Limit 110000 MB
 Mega-Array Size       188 MB
 MEM_STATIC part       192 MB
 Discretize the solute cavity surface with Lebedev spheres
	Using 110 Lebedev grid points for each H atom
	Using 194 Lebedev grid points for other atoms
	Atomic van der Waals radii will be scaled by 1.20
 Remove points where switching function is < 1.0e-08
 Keep 1578 surface tesserae and discard 2070 interior tesserae
 Molecular Surface Area = 231.123 Angst**2
 Requested basis set is rimp2-cc-pVTZ
 There are 414 shells and 1414 basis functions
 A cutoff of  1.0D-10 yielded  14190 shell pairs
 There are    102910 function pairs (    131959 Cartesian)
 Smallest overlap matrix eigenvalue = 7.44E-05

 Scale SEOQF with 1.000000e-01/1.000000e-01/1.000000e-01

 Standard Electronic Orientation quadrupole field applied
 Nucleus-field energy     =     0.0000000222 hartrees
 Guess from superposition of atomic densities
 Warning:  Energy on first SCF cycle will be non-variational
 SAD guess density has 104.000000 electrons

 -----------------------------------------------------------------------
  General SCF calculation program by
  Eric Jon Sundstrom, Paul Horn, Yuezhi Mao, Dmitri Zuev, Alec White,
  David Stuck, Shaama M.S., Shane Yost, Joonho Lee, David Small,
  Daniel Levine, Susi Lehtola, Hugh Burton, Evgeny Epifanovsky,
  Bang C. Huynh
 -----------------------------------------------------------------------
 Hartree-Fock
 A restricted SCF calculation will be
 performed using DIIS
 SCF converges when DIIS error is below 1.0e-06
 ---------------------------------------
  Cycle       Energy         DIIS error
 ---------------------------------------
    1   -1186.0916330101      2.40e-02  
    2   -1180.5720422990      1.56e-03  
    3   -1180.6983977228      5.89e-04  
    4   -1180.7125323362      3.20e-04  
    5   -1180.7173140802      6.30e-05  
    6   -1180.7175954385      2.61e-05  
    7   -1180.7176712045      1.09e-05  
    8   -1180.7176916465      5.20e-06  
    9   -1180.7176970163      2.00e-06  
   10   -1180.7176978727      7.00e-07  Convergence criterion met
 ---------------------------------------
 SCF time:   CPU 580.44s  wall 582.00s 

************** Final PCM Free Energy Summary **************
 G_electrostatic  =      -0.00957064 hartree =      -6.00566534 kcal/mol
 G_cavitation     =       0.00000000 hartree =       0.00000000 kcal/mol
 G_dispersion     =       0.00000000 hartree =       0.00000000 kcal/mol
 G_repulsion      =       0.00000000 hartree =       0.00000000 kcal/mol
 --------------------------------------------------
 Non-electrostatic Free Energy =       0.00000000 hartree =       0.00000000 kcal/mol
 Total                         =      -0.00957064 hartree =      -6.00566534 kcal/mol
 --------------------------------------------------
 SCF Energy (H0 + V/2)                       =   -1180.71769787 
 Solute Internal Energy (H0)                 =   -1180.70812724 
 Total Free Energy (H0 + V/2 + non-elec)     =   -1180.71769787 hartree
                                             = -740911.53799246 kcal/mol
***********************************************************

 SCF   energy in the final basis set =    -1180.7176978727
 Total energy in the final basis set =    -1180.7176978727


 --------------------------------------------------------------
  Generalized many-body perturbation theory program
  by Joonho Lee, Fazle Rob, Xintian Feng, Evgeny Epifanovsky

 No regularization used 
 (reg. param. = 0.0000e+00)
  (P|Q)^-1/2 Time:  CPU 1.91 s  wall 1.91 s

 In RI-MP2 calculation: 
 # of frozen core orbitals: 20

 Components of the RIMP2 correlation energy:
        aaaa    correlation energy =        -0.2531157810 a.u.
        abab    correlation energy =        -1.5092275735 a.u.
        bbbb    correlation energy =        -0.2531157810 a.u.
        non-Brillouin singles      =        -0.0000000000 a.u.
        total same-spin energy     =        -0.5062315621 a.u.
        total opposite-spin energy =        -1.5092275735 a.u.

 Total  RIMP2   correlation energy =        -2.0154591356 a.u.
        RIMP2         total energy =     -1182.7331570084 a.u.

 RI-MP2 Energy Time:  CPU 80.19 s  wall 80.41 s
 
 --------------------------------------------------------------
 
                    Orbital Energies (a.u.)
 --------------------------------------------------------------
 
 Alpha MOs
 -- Occupied --
-91.9827 -91.9412 -11.2711 -11.2693 -11.2621 -11.2513 -11.2511 -11.2422
-11.2382 -11.2325 -11.2289 -11.2167  -8.9829  -8.9458  -6.6638  -6.6632
 -6.6626  -6.6271  -6.6260  -6.6247  -1.2003  -1.1532  -1.0577  -1.0303
 -0.9987  -0.9647  -0.9118  -0.9004  -0.8150  -0.7583  -0.7383  -0.7048
 -0.6520  -0.6375  -0.6103  -0.5915  -0.5841  -0.5679  -0.5665  -0.5515
 -0.5441  -0.5337  -0.5169  -0.5061  -0.4852  -0.4757  -0.4632  -0.4405
 -0.3551  -0.3418  -0.3232  -0.2601
 -- Virtual --
  0.0762   0.1332   0.1399   0.1517   0.1597   0.1691   0.1779   0.1859
  0.1890   0.2029   0.2084   0.2200   0.2225   0.2374   0.2389   0.2424
  0.2517   0.2646   0.2807   0.2991   0.3117   0.3271   0.3481   0.3582
  0.3663   0.3728   0.3819   0.3935   0.3999   0.4089   0.4173   0.4208
  0.4363   0.4449   0.4571   0.4655   0.4739   0.4789   0.4854   0.4859
  0.5024   0.5116   0.5224   0.5264   0.5341   0.5533   0.5581   0.5630
  0.5708   0.5799   0.5850   0.5868   0.5992   0.6072   0.6106   0.6157
  0.6216   0.6253   0.6315   0.6349   0.6406   0.6450   0.6496   0.6625
  0.6709   0.6720   0.6835   0.6981   0.7041   0.7110   0.7141   0.7238
  0.7422   0.7500   0.7515   0.7769   0.7876   0.7927   0.7996   0.8193
  0.8278   0.8420   0.8562   0.8713   0.8839   0.9004   0.9073   0.9108
  0.9263   0.9347   0.9441   0.9596   0.9698   0.9888   1.0024   1.0156
  1.0213   1.0316   1.0414   1.0448   1.0565   1.0617   1.0734   1.0803
  1.0853   1.1018   1.1155   1.1348   1.1497   1.1503   1.1609   1.1690
  1.1814   1.1843   1.1968   1.2057   1.2226   1.2264   1.2312   1.2433
  1.2456   1.2586   1.2626   1.2709   1.2764   1.2811   1.2980   1.3172
  1.3273   1.3309   1.3393   1.3598   1.3703   1.3869   1.4057   1.4146
  1.4216   1.4279   1.4349   1.4507   1.4732   1.4795   1.4950   1.5021
  1.5038   1.5154   1.5215   1.5321   1.5362   1.5452   1.5500   1.5605
  1.5678   1.5714   1.5874   1.5989   1.6264   1.6292   1.6355   1.6423
  1.6597   1.6634   1.6718   1.6817   1.6950   1.7109   1.7330   1.7385
  1.7449   1.7629   1.7769   1.7886   1.8084   1.8278   1.8326   1.8471
  1.8889   1.8971   1.9125   1.9320   1.9469   1.9788   1.9934   2.0062
  2.0272   2.0396   2.0548   2.0706   2.1046   2.1193   2.1303   2.1674
  2.1765   2.2049   2.2159   2.2271   2.2359   2.2375   2.2661   2.2748
  2.2983   2.3022   2.3488   2.3860   2.4111   2.4326   2.4416   2.4734
  2.4822   2.5127   2.5364   2.5495   2.5611   2.5801   2.5990   2.6112
  2.6264   2.6388   2.6620   2.6648   2.6795   2.6852   2.7165   2.7341
  2.7412   2.7511   2.7653   2.7752   2.7849   2.7944   2.8067   2.8257
  2.8295   2.8386   2.8496   2.8914   2.8975   2.9161   2.9224   2.9268
  2.9431   2.9598   2.9749   2.9974   3.0118   3.0242   3.0348   3.0400
  3.0535   3.0718   3.0914   3.1115   3.1125   3.1333   3.1388   3.1422
  3.1524   3.1600   3.1627   3.1782   3.1823   3.2010   3.2122   3.2215
  3.2313   3.2342   3.2479   3.2556   3.2703   3.2840   3.2911   3.3084
  3.3211   3.3262   3.3340   3.3354   3.3434   3.3534   3.3606   3.3653
  3.3702   3.3827   3.3840   3.3998   3.4058   3.4111   3.4166   3.4291
  3.4429   3.4493   3.4617   3.4725   3.4758   3.4927   3.5022   3.5135
  3.5196   3.5313   3.5380   3.5420   3.5535   3.5618   3.5776   3.5812
  3.5907   3.6035   3.6203   3.6284   3.6311   3.6400   3.6495   3.6655
  3.6674   3.6957   3.7005   3.7128   3.7202   3.7291   3.7401   3.7437
  3.7484   3.7614   3.7815   3.7830   3.7996   3.8050   3.8118   3.8189
  3.8312   3.8436   3.8597   3.8651   3.8763   3.8926   3.8983   3.9193
  3.9424   3.9513   3.9603   3.9636   3.9915   4.0000   4.0027   4.0206
  4.0279   4.0463   4.0558   4.0591   4.0733   4.0796   4.0976   4.1068
  4.1223   4.1284   4.1510   4.1530   4.1642   4.1717   4.1886   4.2039
  4.2107   4.2266   4.2404   4.2479   4.2604   4.2644   4.2760   4.2930
  4.3005   4.3113   4.3174   4.3243   4.3457   4.3600   4.3724   4.3769
  4.3873   4.3970   4.4026   4.4111   4.4174   4.4294   4.4488   4.4554
  4.4640   4.4667   4.4715   4.4808   4.4960   4.5092   4.5390   4.5630
  4.5837   4.6005   4.6048   4.6159   4.6311   4.6523   4.6692   4.6849
  4.7037   4.7109   4.7356   4.7685   4.7821   4.8265   4.8481   4.8594
  4.8673   4.8842   4.9067   4.9098   4.9377   4.9531   4.9803   4.9926
  5.0246   5.0464   5.0888   5.1044   5.1152   5.1266   5.1506   5.1715
  5.1796   5.1949   5.2385   5.2623   5.2838   5.3032   5.3144   5.3243
  5.3438   5.3666   5.3775   5.4074   5.4099   5.4192   5.4381   5.4432
  5.4872   5.5124   5.5368   5.5412   5.5509   5.5645   5.5747   5.6002
  5.6180   5.6207   5.6339   5.6636   5.6820   5.6956   5.7163   5.7305
  5.7794   5.7973   5.8282   5.9869   6.0244   6.0668   6.1138   6.1576
  6.2192   6.2243   6.2386   6.2436   6.2501   6.2915   6.3042   6.3061
  6.3822   6.4294   9.4504  10.5231  12.3137  12.8842  13.1688  13.9679
 14.0793  14.2132  14.2986  14.6288
 --------------------------------------------------------------
 
          Ground-State Mulliken Net Atomic Charges

     Atom                 Charge (a.u.)
  ----------------------------------------
      1 C                    -0.082212
      2 C                    -0.328627
      3 C                    -0.046511
      4 H                     0.174752
      5 C                     0.084883
      6 S                    -0.173495
      7 C                    -0.288516
      8 H                     0.117466
      9 H                     0.109070
     10 H                     0.102058
     11 C                    -0.100874
     12 C                    -0.204280
     13 C                     0.013278
     14 H                     0.194862
     15 C                    -0.220178
     16 S                     0.006483
     17 C                    -0.270665
     18 H                     0.100749
     19 H                     0.108007
     20 H                     0.107224
     21 H                     0.199696
     22 H                     0.107944
     23 H                     0.111342
     24 H                     0.177541
  ----------------------------------------
  Sum of atomic charges =     0.000000

 -----------------------------------------------------------------
                    Cartesian Multipole Moments
 -----------------------------------------------------------------
    Charge (ESU x 10^10)
                -0.0000
    Dipole Moment (Debye)
         X      -0.4470      Y       0.5350      Z       3.0542
       Tot       3.1327
    Quadrupole Moments (Debye-Ang)
        XX     -87.3365     XY       8.4487     YY     -78.8206
        XZ       0.4498     YZ      -1.6233     ZZ     -85.2547
    Octopole Moments (Debye-Ang^2)
       XXX    -126.4374    XXY      75.4682    XYY     -31.6988
       YYY     158.3645    XXZ      -1.7046    XYZ       0.3389
       YYZ      -5.1434    XZZ     -42.9794    YZZ      66.0993
       ZZZ       5.3408
    Hexadecapole Moments (Debye-Ang^3)
      XXXX    -683.6149   XXXY    -221.5931   XXYY    -540.5583
      XYYY    -211.4699   YYYY   -2470.1078   XXXZ      61.9722
      XXYZ     -37.7611   XYYZ       0.5998   YYYZ     -76.5759
      XXZZ    -270.9625   XYZZ     -53.5171   YYZZ    -588.2843
      XZZZ      54.9788   YZZZ     -94.6160   ZZZZ    -960.7473
 -----------------------------------------------------------------
 Total job time:  665.01s(wall), 661.55s(cpu) 
 Sun Jul 10 03:23:02 2022

        *************************************************************
        *                                                           *
        *  Thank you very much for using Q-Chem.  Have a nice day.  *
        *                                                           *
        *************************************************************


remove work dirs ./qchem1131289.0 -- ./qchem1131289.-1
rm -rf ./qchem1131289
