You are running Q-Chem version: 5.4.0

#
# job setting
#
local host:  exp-1-30
current dir: /expanse/lustre/scratch/theleonzhang/temp_project/Hydrogenated_Rotation_Test
input file:  Methylthiophene_Phi_60_Theta_140_Methylthiophene_Hydrogenated.qcin
output file: 
nprocs     : 0
nthreads   : 1
#
# qchem installation setting
#
QC:          /cm/shared/apps/spack/cpu/opt/spack/linux-centos8-zen2/gcc-10.2.0/qchem-5.4-akfmr7b3t57bfs6qan3padb2wnb2i7cl
QCAUX:       /cm/shared/apps/spack/cpu/opt/spack/linux-centos8-zen2/gcc-10.2.0/qchem-5.4-akfmr7b3t57bfs6qan3padb2wnb2i7cl/qcaux
QCPROG:      /cm/shared/apps/spack/cpu/opt/spack/linux-centos8-zen2/gcc-10.2.0/qchem-5.4-akfmr7b3t57bfs6qan3padb2wnb2i7cl/exe/qcprog.exe_s
QCPROG_S:    /cm/shared/apps/spack/cpu/opt/spack/linux-centos8-zen2/gcc-10.2.0/qchem-5.4-akfmr7b3t57bfs6qan3padb2wnb2i7cl/exe/qcprog.exe_s
PARALLEL:    -DSERIAL
QCMPI:       mpich
#
# qchem directory setting
#
qcrun:       qchem734310
QCSCRATCH:   .
QCLOCALSCR:  
QCTMPDIR:    .
QCFILEPREF:  ./qchem734310
QCSAVEDIR:   
workdirs:    ./qchem734310
workdir0:    ./qchem734310
partmpdirs =  
#
# parallel setting
#
QCRSH:           ssh
QCMPI:           mpich
QCMPIRUN:        /cm/shared/apps/spack/cpu/opt/spack/linux-centos8-zen2/gcc-10.2.0/qchem-5.4-akfmr7b3t57bfs6qan3padb2wnb2i7cl/bin/mpi/mpirun_qchem
QCMACHINEFILE:   ./qchem734310/hostfile

#
# env setting
#
exported envs:   QC QCAUX QCSCRATCH QCRUNNAME QCFILEPREF QCPROG QCPROG_S GUIFILE

Running Job 1 of 1 Methylthiophene_Phi_60_Theta_140_Methylthiophene_Hydrogenated.qcin
qchem Methylthiophene_Phi_60_Theta_140_Methylthiophene_Hydrogenated.qcin_734310.0 ./qchem734310/ 0
/cm/shared/apps/spack/cpu/opt/spack/linux-centos8-zen2/gcc-10.2.0/qchem-5.4-akfmr7b3t57bfs6qan3padb2wnb2i7cl/exe/qcprog.exe_s Methylthiophene_Phi_60_Theta_140_Methylthiophene_Hydrogenated.qcin_734310.0 ./qchem734310/
                  Welcome to Q-Chem
     A Quantum Leap Into The Future Of Chemistry


 Q-Chem 5.4, Q-Chem, Inc., Pleasanton, CA (2021)

 License issued to: University of California, San Diego (site)

 E. Epifanovsky,  A. T. B. Gilbert,  Xintian Feng,  Joonho Lee,  Yuezhi Mao,  
 N. Mardirossian,  P. Pokhilko,  A. White,  M. Wormit,  M. P. Coons,  
 A. L. Dempwolff,  Zhengting Gan,  D. Hait,  P. R. Horn,  L. D. Jacobson,  
 I. Kaliman,  J. Kussmann,  A. W. Lange,  Ka Un Lao,  D. S. Levine,  Jie Liu,  
 S. C. McKenzie,  A. F. Morrison,  K. Nanda,  F. Plasser,  D. R. Rehn,  
 M. L. Vidal,  Zhi-Qiang You,  Ying Zhu,  B. Alam,  B. Albrecht,  
 A. Aldossary,  E. Alguire,  J. H. Andersen,  D. Barton,  K. Begam,  A. Behn,  
 Y. A. Bernard,  E. J. Berquist,  H. Burton,  A. Carreras,  K. Carter-Fenk,  
 R. Chakraborty,  A. D. Chien,  K. D. Closser,  V. Cofer-Shabica,  
 S. Dasgupta,  Jia Deng,  M. de Wergifosse,  M. Diedenhofen,  Hainam Do,  
 S. Ehlert,  Po-Tung Fang,  S. Fatehi,  Qingguo Feng,  J. Gayvert,  
 Qinghui Ge,  G. Gidofalvi,  M. Goldey,  J. Gomes,  C. Gonzalez-Espinoza,  
 S. Gulania,  A. Gunina,  M. W. D. Hanson-Heine,  P. H. P. Harbach,  
 A. W. Hauser,  M. F. Herbst,  M. Hernandez Vera,  M. Hodecker,  
 Z. C. Holden,  S. Houck,  Xunkun Huang,  Kerwin Hui,  B. C. Huynh,  
 M. Ivanov,  Hyunjun Ji,  Hanjie Jiang,  B. Kaduk,  S. Kaehler,  
 K. Khistyaev,  Jaehoon Kim,  P. Klunzinger,  Z. Koczor-Benda,  
 Joong Hoon Koh,  D. Kosenkov,  L. Koulias,  T. Kowalczyk,  C. M. Krauter,  
 K. Kue,  A. Kunitsa,  T. Kus,  A. Landau,  K. V. Lawler,  D. Lefrancois,  
 S. Lehtola,  Rain Li,  Yi-Pei Li,  Jiashu Liang,  M. Liebenthal,  
 Hung-Hsuan Lin,  You-Sheng Lin,  Fenglai Liu,  Kuan-Yu Liu,  
 M. Loipersberger,  A. Luenser,  A. Manjanath,  P. Manohar,  E. Mansoor,  
 S. F. Manzer,  Shan-Ping Mao,  A. V. Marenich,  T. Markovich,  S. Mason,  
 S. A. Maurer,  P. F. McLaughlin,  M. F. S. J. Menger,  J.-M. Mewes,  
 S. A. Mewes,  P. Morgante,  J. W. Mullinax,  T. S. Nguyen-Beck,  
 K. J. Oosterbaan,  G. Paran,  Alexander C. Paul,  Suranjan K. Paul,  
 F. Pavosevic,  Zheng Pei,  S. Prager,  E. I. Proynov,  E. Ramos,  B. Rana,  
 A. E. Rask,  A. Rettig,  R. M. Richard,  F. Rob,  E. Rossomme,  T. Scheele,  
 M. Scheurer,  M. Schneider,  N. Sergueev,  S. M. Sharada,  W. Skomorowski,  
 D. W. Small,  C. J. Stein,  Yu-Chuan Su,  E. J. Sundstrom,  Zhen Tao,  
 J. Thirman,  T. Tsuchimochi,  N. M. Tubman,  S. P. Veccham,  O. Vydrov,  
 J. Wenzel,  J. Witte,  A. Yamada,  Kun Yao,  S. Yeganeh,  S. R. Yost,  
 A. Zech,  Igor Ying Zhang,  Xing Zhang,  Yu Zhang,  D. Zuev,  
 A. Aspuru-Guzik,  A. T. Bell,  N. A. Besley,  K. B. Bravaya,  B. R. Brooks,  
 D. Casanova,  Jeng-Da Chai,  S. Coriani,  C. J. Cramer,  
 A. E. DePrince, III,  R. A. DiStasio Jr.,  A. Dreuw,  B. D. Dunietz,  
 T. R. Furlani,  W. A. Goddard III,  S. Grimme,  S. Hammes-Schiffer,  
 T. Head-Gordon,  W. J. Hehre,  Chao-Ping Hsu,  T.-C. Jagau,  Yousung Jung,  
 A. Klamt,  Jing Kong,  D. S. Lambrecht,  WanZhen Liang,  N. J. Mayhall,  
 C. W. McCurdy,  J. B. Neaton,  C. Ochsenfeld,  J. A. Parkhill,  R. Peverati,  
 V. A. Rassolov,  Yihan Shao,  L. V. Slipchenko,  T. Stauch,  R. P. Steele,  
 J. E. Subotnik,  A. J. W. Thom,  A. Tkatchenko,  D. G. Truhlar,  
 T. Van Voorhis,  T. A. Wesolowski,  K. B. Whaley,  H. L. Woodcock III,  
 P. M. Zimmerman,  S. Faraji,  P. M. W. Gill,  M. Head-Gordon,  
 J. M. Herbert,  A. I. Krylov

 Contributors to earlier versions of Q-Chem not listed above: 
 R. D. Adamson,  B. Austin,  R. Baer,  J. Baker,  G. J. O. Beran,  
 K. Brandhorst,  S. T. Brown,  E. F. C. Byrd,  A. K. Chakraborty,  
 G. K. L. Chan,  Chun-Min Chang,  Yunqing Chen,  C.-L. Cheng,  
 Siu Hung Chien,  D. M. Chipman,  D. L. Crittenden,  H. Dachsel,  
 R. J. Doerksen,  A. D. Dutoi,  R. G. Edgar,  J. Fosso-Tande,  
 L. Fusti-Molnar,  D. Ghosh,  A. Ghysels,  A. Golubeva-Zadorozhnaya,  
 J. Gonthier,  M. S. Gordon,  S. R. Gwaltney,  G. Hawkins,  J. E. Herr,  
 A. Heyden,  S. Hirata,  E. G. Hohenstein,  G. Kedziora,  F. J. Keil,  
 C. Kelley,  Jihan Kim,  R. A. King,  R. Z. Khaliullin,  P. P. Korambath,  
 W. Kurlancheek,  A. Laurent,  A. M. Lee,  M. S. Lee,  S. V. Levchenko,  
 Ching Yeh Lin,  D. Liotard,  E. Livshits,  R. C. Lochan,  I. Lotan,  
 L. A. Martinez-Martinez,  P. E. Maslen,  N. Nair,  D. P. O'Neill,  
 D. Neuhauser,  E. Neuscamman,  C. M. Oana,  R. Olivares-Amaya,  R. Olson,  
 T. M. Perrine,  B. Peters,  P. A. Pieniazek,  A. Prociuk,  Y. M. Rhee,  
 J. Ritchie,  M. A. Rohrdanz,  E. Rosta,  N. J. Russ,  H. F. Schaefer III,  
 M. W. Schmidt,  N. E. Schultz,  S. Sharma,  N. Shenvi,  C. D. Sherrill,  
 A. C. Simmonett,  A. Sodt,  T. Stein,  D. Stuck,  K. S. Thanthiriwatte,  
 V. Vanovschi,  L. Vogt,  Tao Wang,  A. Warshel,  M. A. Watson,  
 C. F. Williams,  Q. Wu,  X. Xu,  Jun Yang,  W. Zhang,  Yan Zhao

 Please cite Q-Chem as follows:
 Y. Shao et al., Mol. Phys. 113, 184-215 (2015)
 DOI: 10.1080/00268976.2014.952696

 Q-Chem 5.4.0 for Intel X86 EM64T Linux

 Parts of Q-Chem use Armadillo 9.800.1 (Horizon Scraper).
 http://arma.sourceforge.net/

 Q-Chem begins on Sun Jul 10 02:22:52 2022  

 Host: 
0

     Scratch files written to ./qchem734310//
 May1621 |scratch|qcdevops|jenkins|workspace|build_RNUM    
 Processing $rem in /cm/shared/apps/spack/cpu/opt/spack/linux-centos8-zen2/gcc-10.2.0/qchem-5.4-akfmr7b3t57bfs6qan3padb2wnb2i7cl/config/preferences:
 Processing $rem in /home/theleonzhang/.qchemrc:
 Symmetry turned off for PCM/SM12/SMD calculation
 Core orbitals will be frozen

 Checking the input file for inconsistencies... 	...done.

--------------------------------------------------------------
User input:
--------------------------------------------------------------
$molecule
0 1
C	-0.497696	-3.866725	-0.594240
C	0.393981	-3.703963	0.469057
C	0.685571	-2.357056	0.817136
H	0.837848	-4.561092	0.997777
C	0.000000	-1.440664	0.000000
S	-0.992782	-2.286957	-1.183137
C	1.620802	-1.978743	1.932056
H	2.035506	-2.878678	2.426166
H	1.109943	-1.376015	2.711806
H	2.477350	-1.375728	1.564678
C	0.000000	0.000000	0.000000
C	0.747916	0.431772	1.099446
C	1.946425	1.123709	0.776721
H	0.428523	0.247378	2.136088
C	2.137531	1.234018	-0.612546
S	0.816154	0.471179	-1.486809
C	2.888455	1.667564	1.814609
H	2.519842	1.454746	2.836676
H	3.008896	2.767543	1.726239
H	3.901271	1.221850	1.726228
H	2.959587	1.708609	-1.161575
H	-1.406441	-4.392713	-0.281143
H	-0.031265	-4.392347	-1.434879
H	-0.827402	-1.440937	0.694122
$end

$rem
JOBTYPE		SP
EXCHANGE	HF
CORRELATION	pRIMP2
BASIS		cc-pvtz
METHOD		rimp2
AUX_BASIS	rimp2-cc-pvtz
SOLVENT_METHOD	PCM
PURECART	11111
SYMMETRY	false
MEM_TOTAL	110000
SCF_CONVERGENCE = 6
THRESH=10
$end



$solvent
dielectric 4.90
$end
--------------------------------------------------------------
 ----------------------------------------------------------------
             Standard Nuclear Orientation (Angstroms)
    I     Atom           X                Y                Z
 ----------------------------------------------------------------
    1      C      -0.4976960000    -3.8667250000    -0.5942400000
    2      C       0.3939810000    -3.7039630000     0.4690570000
    3      C       0.6855710000    -2.3570560000     0.8171360000
    4      H       0.8378480000    -4.5610920000     0.9977770000
    5      C       0.0000000000    -1.4406640000     0.0000000000
    6      S      -0.9927820000    -2.2869570000    -1.1831370000
    7      C       1.6208020000    -1.9787430000     1.9320560000
    8      H       2.0355060000    -2.8786780000     2.4261660000
    9      H       1.1099430000    -1.3760150000     2.7118060000
   10      H       2.4773500000    -1.3757280000     1.5646780000
   11      C       0.0000000000     0.0000000000     0.0000000000
   12      C       0.7479160000     0.4317720000     1.0994460000
   13      C       1.9464250000     1.1237090000     0.7767210000
   14      H       0.4285230000     0.2473780000     2.1360880000
   15      C       2.1375310000     1.2340180000    -0.6125460000
   16      S       0.8161540000     0.4711790000    -1.4868090000
   17      C       2.8884550000     1.6675640000     1.8146090000
   18      H       2.5198420000     1.4547460000     2.8366760000
   19      H       3.0088960000     2.7675430000     1.7262390000
   20      H       3.9012710000     1.2218500000     1.7262280000
   21      H       2.9595870000     1.7086090000    -1.1615750000
   22      H      -1.4064410000    -4.3927130000    -0.2811430000
   23      H      -0.0312650000    -4.3923470000    -1.4348790000
   24      H      -0.8274020000    -1.4409370000     0.6941220000
 ----------------------------------------------------------------
 Nuclear Repulsion Energy =         904.48683843 hartrees
 There are       52 alpha and       52 beta electrons

 Q-Chem warning in module forms1/BasisType.C, line 2236:

 You are not using the predefined 5D/6D in this basis set.

 Requested basis set is cc-pVTZ
 There are 196 shells and 536 basis functions

 Total QAlloc Memory Limit 110000 MB
 Mega-Array Size       188 MB
 MEM_STATIC part       192 MB
 Discretize the solute cavity surface with Lebedev spheres
	Using 110 Lebedev grid points for each H atom
	Using 194 Lebedev grid points for other atoms
	Atomic van der Waals radii will be scaled by 1.20
 Remove points where switching function is < 1.0e-08
 Keep 1528 surface tesserae and discard 2120 interior tesserae
 Molecular Surface Area = 225.305 Angst**2
 Requested basis set is rimp2-cc-pVTZ
 There are 414 shells and 1414 basis functions
 A cutoff of  1.0D-10 yielded  15027 shell pairs
 There are    109559 function pairs (    140559 Cartesian)
 Smallest overlap matrix eigenvalue = 6.50E-05

 Scale SEOQF with 1.000000e-01/1.000000e-01/1.000000e-01

 Standard Electronic Orientation quadrupole field applied
 Nucleus-field energy     =     0.0000000224 hartrees
 Guess from superposition of atomic densities
 Warning:  Energy on first SCF cycle will be non-variational
 SAD guess density has 104.000000 electrons

 -----------------------------------------------------------------------
  General SCF calculation program by
  Eric Jon Sundstrom, Paul Horn, Yuezhi Mao, Dmitri Zuev, Alec White,
  David Stuck, Shaama M.S., Shane Yost, Joonho Lee, David Small,
  Daniel Levine, Susi Lehtola, Hugh Burton, Evgeny Epifanovsky,
  Bang C. Huynh
 -----------------------------------------------------------------------
 Hartree-Fock
 A restricted SCF calculation will be
 performed using DIIS
 SCF converges when DIIS error is below 1.0e-06
 ---------------------------------------
  Cycle       Energy         DIIS error
 ---------------------------------------
    1   -1186.2183355136      2.41e-02  
    2   -1180.5310230613      1.53e-03  
    3   -1180.6580104884      5.20e-04  
    4   -1180.6712927418      2.64e-04  
    5   -1180.6746512633      5.49e-05  
    6   -1180.6749241220      2.47e-05  
    7   -1180.6750053508      1.30e-05  
    8   -1180.6750340612      6.01e-06  
    9   -1180.6750429167      2.88e-06  
   10   -1180.6750445634      1.03e-06  
   11   -1180.6750448011      4.72e-07  Convergence criterion met
 ---------------------------------------
 SCF time:   CPU 693.15s  wall 696.00s 

************** Final PCM Free Energy Summary **************
 G_electrostatic  =      -0.01200208 hartree =      -7.53141993 kcal/mol
 G_cavitation     =       0.00000000 hartree =       0.00000000 kcal/mol
 G_dispersion     =       0.00000000 hartree =       0.00000000 kcal/mol
 G_repulsion      =       0.00000000 hartree =       0.00000000 kcal/mol
 --------------------------------------------------
 Non-electrostatic Free Energy =       0.00000000 hartree =       0.00000000 kcal/mol
 Total                         =      -0.01200208 hartree =      -7.53141993 kcal/mol
 --------------------------------------------------
 SCF Energy (H0 + V/2)                       =   -1180.67504480 
 Solute Internal Energy (H0)                 =   -1180.66304272 
 Total Free Energy (H0 + V/2 + non-elec)     =   -1180.67504480 hartree
                                             = -740884.77278603 kcal/mol
***********************************************************

 SCF   energy in the final basis set =    -1180.6750448011
 Total energy in the final basis set =    -1180.6750448011


 --------------------------------------------------------------
  Generalized many-body perturbation theory program
  by Joonho Lee, Fazle Rob, Xintian Feng, Evgeny Epifanovsky

 No regularization used 
 (reg. param. = 0.0000e+00)
  (P|Q)^-1/2 Time:  CPU 1.89 s  wall 1.90 s

 In RI-MP2 calculation: 
 # of frozen core orbitals: 20

 Components of the RIMP2 correlation energy:
        aaaa    correlation energy =        -0.2557980357 a.u.
        abab    correlation energy =        -1.5160359091 a.u.
        bbbb    correlation energy =        -0.2557980357 a.u.
        non-Brillouin singles      =        -0.0000000000 a.u.
        total same-spin energy     =        -0.5115960713 a.u.
        total opposite-spin energy =        -1.5160359091 a.u.

 Total  RIMP2   correlation energy =        -2.0276319804 a.u.
        RIMP2         total energy =     -1182.7026767815 a.u.

 RI-MP2 Energy Time:  CPU 82.92 s  wall 83.26 s
 
 --------------------------------------------------------------
 
                    Orbital Energies (a.u.)
 --------------------------------------------------------------
 
 Alpha MOs
 -- Occupied --
-91.9748 -91.9353 -11.2877 -11.2623 -11.2597 -11.2532 -11.2504 -11.2495
-11.2373 -11.2322 -11.2307 -11.2141  -8.9760  -8.9401  -6.6568  -6.6558
 -6.6556  -6.6215  -6.6205  -6.6193  -1.2061  -1.1541  -1.0593  -1.0317
 -1.0002  -0.9648  -0.9124  -0.9034  -0.8095  -0.7609  -0.7387  -0.7124
 -0.6493  -0.6418  -0.6153  -0.5954  -0.5932  -0.5705  -0.5612  -0.5532
 -0.5397  -0.5324  -0.5252  -0.5102  -0.4794  -0.4665  -0.4423  -0.4401
 -0.3525  -0.3385  -0.3227  -0.2642
 -- Virtual --
  0.0609   0.1287   0.1452   0.1494   0.1586   0.1700   0.1774   0.1815
  0.1923   0.1952   0.2054   0.2187   0.2294   0.2317   0.2396   0.2415
  0.2609   0.2651   0.2761   0.2955   0.3108   0.3216   0.3380   0.3574
  0.3583   0.3705   0.3903   0.3952   0.4023   0.4110   0.4144   0.4289
  0.4312   0.4478   0.4601   0.4683   0.4727   0.4807   0.4824   0.4855
  0.4958   0.5085   0.5208   0.5291   0.5314   0.5403   0.5488   0.5536
  0.5642   0.5717   0.5830   0.5930   0.5991   0.6110   0.6163   0.6180
  0.6222   0.6322   0.6361   0.6412   0.6495   0.6561   0.6612   0.6662
  0.6730   0.6779   0.6843   0.6922   0.7125   0.7156   0.7237   0.7291
  0.7445   0.7554   0.7626   0.7671   0.7966   0.8092   0.8176   0.8241
  0.8352   0.8462   0.8624   0.8703   0.8895   0.8930   0.8996   0.9143
  0.9336   0.9410   0.9517   0.9583   0.9811   1.0026   1.0143   1.0198
  1.0287   1.0375   1.0489   1.0532   1.0612   1.0824   1.0914   1.0962
  1.1122   1.1226   1.1261   1.1474   1.1563   1.1626   1.1731   1.1833
  1.1891   1.1953   1.2106   1.2184   1.2273   1.2356   1.2527   1.2594
  1.2622   1.2771   1.2850   1.2946   1.3000   1.3045   1.3121   1.3291
  1.3441   1.3469   1.3749   1.3843   1.3909   1.3999   1.4017   1.4270
  1.4380   1.4489   1.4520   1.4695   1.4756   1.4809   1.4927   1.4957
  1.5085   1.5161   1.5326   1.5364   1.5494   1.5548   1.5621   1.5669
  1.5684   1.5852   1.6031   1.6103   1.6267   1.6313   1.6430   1.6449
  1.6577   1.6823   1.6898   1.6979   1.7155   1.7289   1.7364   1.7472
  1.7618   1.7756   1.7971   1.8034   1.8133   1.8331   1.8625   1.8760
  1.9084   1.9226   1.9377   1.9537   1.9651   1.9811   1.9913   2.0152
  2.0406   2.0443   2.0468   2.0710   2.0918   2.1176   2.1390   2.1709
  2.1778   2.1975   2.2126   2.2210   2.2376   2.2459   2.2666   2.2689
  2.3027   2.3155   2.3414   2.3719   2.4298   2.4422   2.4477   2.4801
  2.4916   2.5229   2.5465   2.5725   2.5744   2.5999   2.6306   2.6383
  2.6478   2.6685   2.6706   2.6824   2.7128   2.7238   2.7270   2.7440
  2.7574   2.7631   2.7705   2.7761   2.7926   2.8052   2.8242   2.8412
  2.8612   2.8757   2.8927   2.8966   2.9082   2.9202   2.9284   2.9537
  2.9679   2.9747   2.9887   2.9966   3.0178   3.0312   3.0467   3.0644
  3.0704   3.1027   3.1046   3.1128   3.1197   3.1294   3.1465   3.1501
  3.1654   3.1762   3.1803   3.1904   3.2045   3.2122   3.2189   3.2225
  3.2349   3.2510   3.2655   3.2749   3.2774   3.2926   3.3080   3.3167
  3.3233   3.3270   3.3301   3.3353   3.3441   3.3570   3.3617   3.3798
  3.3835   3.3868   3.3975   3.3998   3.4075   3.4203   3.4436   3.4461
  3.4581   3.4673   3.4806   3.4815   3.4872   3.5073   3.5187   3.5223
  3.5292   3.5307   3.5411   3.5518   3.5543   3.5779   3.5834   3.5935
  3.6006   3.6017   3.6207   3.6411   3.6503   3.6575   3.6616   3.6871
  3.6996   3.7061   3.7110   3.7204   3.7312   3.7415   3.7478   3.7545
  3.7809   3.7865   3.7894   3.8008   3.8152   3.8297   3.8352   3.8482
  3.8537   3.8701   3.8855   3.8985   3.9089   3.9209   3.9380   3.9469
  3.9527   3.9734   3.9857   3.9934   3.9953   4.0091   4.0143   4.0306
  4.0485   4.0572   4.0644   4.0789   4.0846   4.1052   4.1234   4.1307
  4.1447   4.1549   4.1671   4.1837   4.1959   4.2074   4.2093   4.2212
  4.2313   4.2386   4.2489   4.2574   4.2668   4.2753   4.2861   4.2879
  4.3086   4.3231   4.3357   4.3529   4.3686   4.3777   4.3854   4.3926
  4.3988   4.4146   4.4245   4.4330   4.4384   4.4530   4.4627   4.4755
  4.4852   4.4958   4.5140   4.5287   4.5368   4.5587   4.5798   4.5944
  4.6022   4.6252   4.6384   4.6450   4.6596   4.6676   4.6928   4.7247
  4.7384   4.7499   4.7560   4.7870   4.8177   4.8337   4.8382   4.8514
  4.8810   4.9004   4.9212   4.9349   4.9422   4.9721   5.0034   5.0253
  5.0335   5.0645   5.0877   5.1039   5.1122   5.1349   5.1446   5.1847
  5.1967   5.2109   5.2365   5.2769   5.2916   5.3033   5.3114   5.3169
  5.3449   5.3714   5.3867   5.4101   5.4212   5.4358   5.4416   5.4520
  5.4975   5.5067   5.5318   5.5507   5.5617   5.5797   5.5843   5.6190
  5.6259   5.6406   5.6574   5.6796   5.7004   5.7085   5.7144   5.7256
  5.7793   5.7978   5.8142   6.0075   6.0306   6.0525   6.1169   6.1547
  6.2212   6.2319   6.2489   6.2661   6.2824   6.3042   6.3103   6.3375
  6.4262   6.4765   9.4837  10.5196  12.6234  12.9383  13.1595  14.1073
 14.2173  14.2530  14.5132  14.9577
 --------------------------------------------------------------
 
          Ground-State Mulliken Net Atomic Charges

     Atom                 Charge (a.u.)
  ----------------------------------------
      1 C                    -0.069123
      2 C                    -0.341350
      3 C                    -0.053236
      4 H                     0.174976
      5 C                     0.104326
      6 S                    -0.201846
      7 C                    -0.293779
      8 H                     0.120474
      9 H                     0.098338
     10 H                     0.114917
     11 C                    -0.176557
     12 C                    -0.129438
     13 C                    -0.036948
     14 H                     0.195294
     15 C                    -0.168385
     16 S                     0.017171
     17 C                    -0.281356
     18 H                     0.105910
     19 H                     0.122168
     20 H                     0.108250
     21 H                     0.200798
     22 H                     0.105756
     23 H                     0.108611
     24 H                     0.175027
  ----------------------------------------
  Sum of atomic charges =     0.000000

 -----------------------------------------------------------------
                    Cartesian Multipole Moments
 -----------------------------------------------------------------
    Charge (ESU x 10^10)
                -0.0000
    Dipole Moment (Debye)
         X       3.7290      Y       0.6697      Z       4.2488
       Tot       5.6926
    Quadrupole Moments (Debye-Ang)
        XX     -82.1292     XY       4.2227     YY     -83.2556
        XZ       0.8048     YZ      -3.0032     ZZ     -85.7447
    Octopole Moments (Debye-Ang^2)
       XXX    -156.1348    XXY      97.6252    XYY     -54.3411
       YYY     209.9711    XXZ      -1.8160    XYZ      -3.7735
       YYZ      -1.8094    XZZ     -50.5833    YZZ      86.0826
       ZZZ       6.5820
    Hexadecapole Moments (Debye-Ang^3)
      XXXX   -1052.5647   XXXY    -179.3826   XXYY    -555.8150
      XYYY    -201.2598   YYYY   -2180.1507   XXXZ    -236.0973
      XXYZ     -35.4087   XYYZ     -64.5339   YYYZ     -47.5021
      XXZZ    -315.6400   XYZZ     -74.4955   YYZZ    -538.0407
      XZZZ    -221.5807   YZZZ     -59.5055   ZZZZ    -877.5474
 -----------------------------------------------------------------
 Total job time:  782.12s(wall), 777.04s(cpu) 
 Sun Jul 10 02:35:54 2022

        *************************************************************
        *                                                           *
        *  Thank you very much for using Q-Chem.  Have a nice day.  *
        *                                                           *
        *************************************************************


remove work dirs ./qchem734310.0 -- ./qchem734310.-1
rm -rf ./qchem734310
