You are running Q-Chem version: 5.4.0

#
# job setting
#
local host:  exp-7-31
current dir: /expanse/lustre/scratch/theleonzhang/temp_project/Hydrogenated_Rotation_Test
input file:  Methylthiophene_Phi_50_Theta_20_Methylthiophene_Hydrogenated_Alternate.qcin
output file: 
nprocs     : 0
nthreads   : 1
#
# qchem installation setting
#
QC:          /cm/shared/apps/spack/cpu/opt/spack/linux-centos8-zen2/gcc-10.2.0/qchem-5.4-akfmr7b3t57bfs6qan3padb2wnb2i7cl
QCAUX:       /cm/shared/apps/spack/cpu/opt/spack/linux-centos8-zen2/gcc-10.2.0/qchem-5.4-akfmr7b3t57bfs6qan3padb2wnb2i7cl/qcaux
QCPROG:      /cm/shared/apps/spack/cpu/opt/spack/linux-centos8-zen2/gcc-10.2.0/qchem-5.4-akfmr7b3t57bfs6qan3padb2wnb2i7cl/exe/qcprog.exe_s
QCPROG_S:    /cm/shared/apps/spack/cpu/opt/spack/linux-centos8-zen2/gcc-10.2.0/qchem-5.4-akfmr7b3t57bfs6qan3padb2wnb2i7cl/exe/qcprog.exe_s
PARALLEL:    -DSERIAL
QCMPI:       mpich
#
# qchem directory setting
#
qcrun:       qchem2484354
QCSCRATCH:   .
QCLOCALSCR:  
QCTMPDIR:    .
QCFILEPREF:  ./qchem2484354
QCSAVEDIR:   
workdirs:    ./qchem2484354
workdir0:    ./qchem2484354
partmpdirs =  
#
# parallel setting
#
QCRSH:           ssh
QCMPI:           mpich
QCMPIRUN:        /cm/shared/apps/spack/cpu/opt/spack/linux-centos8-zen2/gcc-10.2.0/qchem-5.4-akfmr7b3t57bfs6qan3padb2wnb2i7cl/bin/mpi/mpirun_qchem
QCMACHINEFILE:   ./qchem2484354/hostfile

#
# env setting
#
exported envs:   QC QCAUX QCSCRATCH QCRUNNAME QCFILEPREF QCPROG QCPROG_S GUIFILE

Running Job 1 of 1 Methylthiophene_Phi_50_Theta_20_Methylthiophene_Hydrogenated_Alternate.qcin
qchem Methylthiophene_Phi_50_Theta_20_Methylthiophene_Hydrogenated_Alternate.qcin_2484354.0 ./qchem2484354/ 0
/cm/shared/apps/spack/cpu/opt/spack/linux-centos8-zen2/gcc-10.2.0/qchem-5.4-akfmr7b3t57bfs6qan3padb2wnb2i7cl/exe/qcprog.exe_s Methylthiophene_Phi_50_Theta_20_Methylthiophene_Hydrogenated_Alternate.qcin_2484354.0 ./qchem2484354/
                  Welcome to Q-Chem
     A Quantum Leap Into The Future Of Chemistry


 Q-Chem 5.4, Q-Chem, Inc., Pleasanton, CA (2021)

 License issued to: University of California, San Diego (site)

 E. Epifanovsky,  A. T. B. Gilbert,  Xintian Feng,  Joonho Lee,  Yuezhi Mao,  
 N. Mardirossian,  P. Pokhilko,  A. White,  M. Wormit,  M. P. Coons,  
 A. L. Dempwolff,  Zhengting Gan,  D. Hait,  P. R. Horn,  L. D. Jacobson,  
 I. Kaliman,  J. Kussmann,  A. W. Lange,  Ka Un Lao,  D. S. Levine,  Jie Liu,  
 S. C. McKenzie,  A. F. Morrison,  K. Nanda,  F. Plasser,  D. R. Rehn,  
 M. L. Vidal,  Zhi-Qiang You,  Ying Zhu,  B. Alam,  B. Albrecht,  
 A. Aldossary,  E. Alguire,  J. H. Andersen,  D. Barton,  K. Begam,  A. Behn,  
 Y. A. Bernard,  E. J. Berquist,  H. Burton,  A. Carreras,  K. Carter-Fenk,  
 R. Chakraborty,  A. D. Chien,  K. D. Closser,  V. Cofer-Shabica,  
 S. Dasgupta,  Jia Deng,  M. de Wergifosse,  M. Diedenhofen,  Hainam Do,  
 S. Ehlert,  Po-Tung Fang,  S. Fatehi,  Qingguo Feng,  J. Gayvert,  
 Qinghui Ge,  G. Gidofalvi,  M. Goldey,  J. Gomes,  C. Gonzalez-Espinoza,  
 S. Gulania,  A. Gunina,  M. W. D. Hanson-Heine,  P. H. P. Harbach,  
 A. W. Hauser,  M. F. Herbst,  M. Hernandez Vera,  M. Hodecker,  
 Z. C. Holden,  S. Houck,  Xunkun Huang,  Kerwin Hui,  B. C. Huynh,  
 M. Ivanov,  Hyunjun Ji,  Hanjie Jiang,  B. Kaduk,  S. Kaehler,  
 K. Khistyaev,  Jaehoon Kim,  P. Klunzinger,  Z. Koczor-Benda,  
 Joong Hoon Koh,  D. Kosenkov,  L. Koulias,  T. Kowalczyk,  C. M. Krauter,  
 K. Kue,  A. Kunitsa,  T. Kus,  A. Landau,  K. V. Lawler,  D. Lefrancois,  
 S. Lehtola,  Rain Li,  Yi-Pei Li,  Jiashu Liang,  M. Liebenthal,  
 Hung-Hsuan Lin,  You-Sheng Lin,  Fenglai Liu,  Kuan-Yu Liu,  
 M. Loipersberger,  A. Luenser,  A. Manjanath,  P. Manohar,  E. Mansoor,  
 S. F. Manzer,  Shan-Ping Mao,  A. V. Marenich,  T. Markovich,  S. Mason,  
 S. A. Maurer,  P. F. McLaughlin,  M. F. S. J. Menger,  J.-M. Mewes,  
 S. A. Mewes,  P. Morgante,  J. W. Mullinax,  T. S. Nguyen-Beck,  
 K. J. Oosterbaan,  G. Paran,  Alexander C. Paul,  Suranjan K. Paul,  
 F. Pavosevic,  Zheng Pei,  S. Prager,  E. I. Proynov,  E. Ramos,  B. Rana,  
 A. E. Rask,  A. Rettig,  R. M. Richard,  F. Rob,  E. Rossomme,  T. Scheele,  
 M. Scheurer,  M. Schneider,  N. Sergueev,  S. M. Sharada,  W. Skomorowski,  
 D. W. Small,  C. J. Stein,  Yu-Chuan Su,  E. J. Sundstrom,  Zhen Tao,  
 J. Thirman,  T. Tsuchimochi,  N. M. Tubman,  S. P. Veccham,  O. Vydrov,  
 J. Wenzel,  J. Witte,  A. Yamada,  Kun Yao,  S. Yeganeh,  S. R. Yost,  
 A. Zech,  Igor Ying Zhang,  Xing Zhang,  Yu Zhang,  D. Zuev,  
 A. Aspuru-Guzik,  A. T. Bell,  N. A. Besley,  K. B. Bravaya,  B. R. Brooks,  
 D. Casanova,  Jeng-Da Chai,  S. Coriani,  C. J. Cramer,  
 A. E. DePrince, III,  R. A. DiStasio Jr.,  A. Dreuw,  B. D. Dunietz,  
 T. R. Furlani,  W. A. Goddard III,  S. Grimme,  S. Hammes-Schiffer,  
 T. Head-Gordon,  W. J. Hehre,  Chao-Ping Hsu,  T.-C. Jagau,  Yousung Jung,  
 A. Klamt,  Jing Kong,  D. S. Lambrecht,  WanZhen Liang,  N. J. Mayhall,  
 C. W. McCurdy,  J. B. Neaton,  C. Ochsenfeld,  J. A. Parkhill,  R. Peverati,  
 V. A. Rassolov,  Yihan Shao,  L. V. Slipchenko,  T. Stauch,  R. P. Steele,  
 J. E. Subotnik,  A. J. W. Thom,  A. Tkatchenko,  D. G. Truhlar,  
 T. Van Voorhis,  T. A. Wesolowski,  K. B. Whaley,  H. L. Woodcock III,  
 P. M. Zimmerman,  S. Faraji,  P. M. W. Gill,  M. Head-Gordon,  
 J. M. Herbert,  A. I. Krylov

 Contributors to earlier versions of Q-Chem not listed above: 
 R. D. Adamson,  B. Austin,  R. Baer,  J. Baker,  G. J. O. Beran,  
 K. Brandhorst,  S. T. Brown,  E. F. C. Byrd,  A. K. Chakraborty,  
 G. K. L. Chan,  Chun-Min Chang,  Yunqing Chen,  C.-L. Cheng,  
 Siu Hung Chien,  D. M. Chipman,  D. L. Crittenden,  H. Dachsel,  
 R. J. Doerksen,  A. D. Dutoi,  R. G. Edgar,  J. Fosso-Tande,  
 L. Fusti-Molnar,  D. Ghosh,  A. Ghysels,  A. Golubeva-Zadorozhnaya,  
 J. Gonthier,  M. S. Gordon,  S. R. Gwaltney,  G. Hawkins,  J. E. Herr,  
 A. Heyden,  S. Hirata,  E. G. Hohenstein,  G. Kedziora,  F. J. Keil,  
 C. Kelley,  Jihan Kim,  R. A. King,  R. Z. Khaliullin,  P. P. Korambath,  
 W. Kurlancheek,  A. Laurent,  A. M. Lee,  M. S. Lee,  S. V. Levchenko,  
 Ching Yeh Lin,  D. Liotard,  E. Livshits,  R. C. Lochan,  I. Lotan,  
 L. A. Martinez-Martinez,  P. E. Maslen,  N. Nair,  D. P. O'Neill,  
 D. Neuhauser,  E. Neuscamman,  C. M. Oana,  R. Olivares-Amaya,  R. Olson,  
 T. M. Perrine,  B. Peters,  P. A. Pieniazek,  A. Prociuk,  Y. M. Rhee,  
 J. Ritchie,  M. A. Rohrdanz,  E. Rosta,  N. J. Russ,  H. F. Schaefer III,  
 M. W. Schmidt,  N. E. Schultz,  S. Sharma,  N. Shenvi,  C. D. Sherrill,  
 A. C. Simmonett,  A. Sodt,  T. Stein,  D. Stuck,  K. S. Thanthiriwatte,  
 V. Vanovschi,  L. Vogt,  Tao Wang,  A. Warshel,  M. A. Watson,  
 C. F. Williams,  Q. Wu,  X. Xu,  Jun Yang,  W. Zhang,  Yan Zhao

 Please cite Q-Chem as follows:
 Y. Shao et al., Mol. Phys. 113, 184-215 (2015)
 DOI: 10.1080/00268976.2014.952696

 Q-Chem 5.4.0 for Intel X86 EM64T Linux

 Parts of Q-Chem use Armadillo 9.800.1 (Horizon Scraper).
 http://arma.sourceforge.net/

 Q-Chem begins on Sun Jul 10 00:41:25 2022  

 Host: 
0

     Scratch files written to ./qchem2484354//
 May1621 |scratch|qcdevops|jenkins|workspace|build_RNUM    
 Processing $rem in /cm/shared/apps/spack/cpu/opt/spack/linux-centos8-zen2/gcc-10.2.0/qchem-5.4-akfmr7b3t57bfs6qan3padb2wnb2i7cl/config/preferences:
 Processing $rem in /home/theleonzhang/.qchemrc:
 Symmetry turned off for PCM/SM12/SMD calculation
 Core orbitals will be frozen

 Checking the input file for inconsistencies... 	...done.

--------------------------------------------------------------
User input:
--------------------------------------------------------------
$molecule
0 1
C	-0.265779	-3.866725	0.728138
C	0.209225	-3.703963	-0.575726
C	0.364875	-2.357056	-1.002290
H	0.445176	-4.561092	-1.224486
C	0.000000	-1.440664	0.000000
S	-0.528236	-2.286957	1.451343
C	0.862808	-1.978743	-2.369683
H	1.083368	-2.878678	-2.975883
H	1.793522	-1.376015	-2.317142
H	0.116375	-1.375728	-2.927787
C	0.000000	0.000000	0.000000
C	0.661577	0.555087	1.099446
C	1.721724	1.444630	0.776721
H	0.379056	0.318032	2.136088
C	1.890772	1.586449	-0.612546
S	0.721935	0.605744	-1.486809
C	2.555004	2.143805	1.814609
H	2.228946	1.870211	2.836676
H	2.482605	3.247987	1.726239
H	3.629830	1.880735	1.726228
H	2.617927	2.196579	-1.161575
H	0.459743	-4.392713	1.358585
H	-1.227009	-4.392347	0.744515
H	1.014829	-1.440937	0.369490
$end

$rem
JOBTYPE		SP
EXCHANGE	HF
CORRELATION	pRIMP2
BASIS		cc-pvtz
METHOD		rimp2
AUX_BASIS	rimp2-cc-pvtz
SOLVENT_METHOD	PCM
PURECART	11111
SYMMETRY	false
MEM_TOTAL	110000
SCF_CONVERGENCE = 6
THRESH=10
$end



$solvent
dielectric 4.90
$end
--------------------------------------------------------------
 ----------------------------------------------------------------
             Standard Nuclear Orientation (Angstroms)
    I     Atom           X                Y                Z
 ----------------------------------------------------------------
    1      C      -0.2657790000    -3.8667250000     0.7281380000
    2      C       0.2092250000    -3.7039630000    -0.5757260000
    3      C       0.3648750000    -2.3570560000    -1.0022900000
    4      H       0.4451760000    -4.5610920000    -1.2244860000
    5      C       0.0000000000    -1.4406640000     0.0000000000
    6      S      -0.5282360000    -2.2869570000     1.4513430000
    7      C       0.8628080000    -1.9787430000    -2.3696830000
    8      H       1.0833680000    -2.8786780000    -2.9758830000
    9      H       1.7935220000    -1.3760150000    -2.3171420000
   10      H       0.1163750000    -1.3757280000    -2.9277870000
   11      C       0.0000000000     0.0000000000     0.0000000000
   12      C       0.6615770000     0.5550870000     1.0994460000
   13      C       1.7217240000     1.4446300000     0.7767210000
   14      H       0.3790560000     0.3180320000     2.1360880000
   15      C       1.8907720000     1.5864490000    -0.6125460000
   16      S       0.7219350000     0.6057440000    -1.4868090000
   17      C       2.5550040000     2.1438050000     1.8146090000
   18      H       2.2289460000     1.8702110000     2.8366760000
   19      H       2.4826050000     3.2479870000     1.7262390000
   20      H       3.6298300000     1.8807350000     1.7262280000
   21      H       2.6179270000     2.1965790000    -1.1615750000
   22      H       0.4597430000    -4.3927130000     1.3585850000
   23      H      -1.2270090000    -4.3923470000     0.7445150000
   24      H       1.0148290000    -1.4409370000     0.3694900000
 ----------------------------------------------------------------
 Nuclear Repulsion Energy =         897.53622580 hartrees
 There are       52 alpha and       52 beta electrons

 Q-Chem warning in module forms1/BasisType.C, line 2236:

 You are not using the predefined 5D/6D in this basis set.

 Requested basis set is cc-pVTZ
 There are 196 shells and 536 basis functions

 Total QAlloc Memory Limit 110000 MB
 Mega-Array Size       188 MB
 MEM_STATIC part       192 MB
 Discretize the solute cavity surface with Lebedev spheres
	Using 110 Lebedev grid points for each H atom
	Using 194 Lebedev grid points for other atoms
	Atomic van der Waals radii will be scaled by 1.20
 Remove points where switching function is < 1.0e-08
 Keep 1547 surface tesserae and discard 2101 interior tesserae
 Molecular Surface Area = 225.452 Angst**2
 Requested basis set is rimp2-cc-pVTZ
 There are 414 shells and 1414 basis functions
 A cutoff of  1.0D-10 yielded  14534 shell pairs
 There are    105174 function pairs (    134750 Cartesian)
 Smallest overlap matrix eigenvalue = 6.45E-05

 Scale SEOQF with 1.000000e-01/1.000000e-01/1.000000e-01

 Standard Electronic Orientation quadrupole field applied
 Nucleus-field energy     =     0.0000000188 hartrees
 Guess from superposition of atomic densities
 Warning:  Energy on first SCF cycle will be non-variational
 SAD guess density has 104.000000 electrons

 -----------------------------------------------------------------------
  General SCF calculation program by
  Eric Jon Sundstrom, Paul Horn, Yuezhi Mao, Dmitri Zuev, Alec White,
  David Stuck, Shaama M.S., Shane Yost, Joonho Lee, David Small,
  Daniel Levine, Susi Lehtola, Hugh Burton, Evgeny Epifanovsky,
  Bang C. Huynh
 -----------------------------------------------------------------------
 Hartree-Fock
 A restricted SCF calculation will be
 performed using DIIS
 SCF converges when DIIS error is below 1.0e-06
 ---------------------------------------
  Cycle       Energy         DIIS error
 ---------------------------------------
    1   -1186.2229586787      2.41e-02  
    2   -1180.5387846179      1.56e-03  
    3   -1180.6664987511      6.00e-04  
    4   -1180.6810351081      3.30e-04  
    5   -1180.6861116291      6.63e-05  
    6   -1180.6864155888      2.70e-05  
    7   -1180.6864980065      1.15e-05  
    8   -1180.6865197627      5.63e-06  
    9   -1180.6865263270      2.67e-06  
   10   -1180.6865279072      1.09e-06  
   11   -1180.6865281849      5.36e-07  Convergence criterion met
 ---------------------------------------
 SCF time:   CPU 664.64s  wall 668.00s 

************** Final PCM Free Energy Summary **************
 G_electrostatic  =      -0.00864056 hartree =      -5.42203504 kcal/mol
 G_cavitation     =       0.00000000 hartree =       0.00000000 kcal/mol
 G_dispersion     =       0.00000000 hartree =       0.00000000 kcal/mol
 G_repulsion      =       0.00000000 hartree =       0.00000000 kcal/mol
 --------------------------------------------------
 Non-electrostatic Free Energy =       0.00000000 hartree =       0.00000000 kcal/mol
 Total                         =      -0.00864056 hartree =      -5.42203504 kcal/mol
 --------------------------------------------------
 SCF Energy (H0 + V/2)                       =   -1180.68652818 
 Solute Internal Energy (H0)                 =   -1180.67788762 
 Total Free Energy (H0 + V/2 + non-elec)     =   -1180.68652818 hartree
                                             = -740891.97871815 kcal/mol
***********************************************************

 SCF   energy in the final basis set =    -1180.6865281849
 Total energy in the final basis set =    -1180.6865281849


 --------------------------------------------------------------
  Generalized many-body perturbation theory program
  by Joonho Lee, Fazle Rob, Xintian Feng, Evgeny Epifanovsky

 No regularization used 
 (reg. param. = 0.0000e+00)
  (P|Q)^-1/2 Time:  CPU 1.91 s  wall 1.92 s

 In RI-MP2 calculation: 
 # of frozen core orbitals: 20

 Components of the RIMP2 correlation energy:
        aaaa    correlation energy =        -0.2556544677 a.u.
        abab    correlation energy =        -1.5150034075 a.u.
        bbbb    correlation energy =        -0.2556544677 a.u.
        non-Brillouin singles      =        -0.0000000000 a.u.
        total same-spin energy     =        -0.5113089353 a.u.
        total opposite-spin energy =        -1.5150034075 a.u.

 Total  RIMP2   correlation energy =        -2.0263123428 a.u.
        RIMP2         total energy =     -1182.7128405278 a.u.

 RI-MP2 Energy Time:  CPU 80.74 s  wall 81.16 s
 
 --------------------------------------------------------------
 
                    Orbital Energies (a.u.)
 --------------------------------------------------------------
 
 Alpha MOs
 -- Occupied --
-91.9789 -91.9395 -11.2716 -11.2710 -11.2618 -11.2559 -11.2517 -11.2403
-11.2399 -11.2291 -11.2278 -11.2165  -8.9803  -8.9444  -6.6609  -6.6603
 -6.6599  -6.6258  -6.6248  -6.6236  -1.2077  -1.1524  -1.0608  -1.0285
 -1.0072  -0.9545  -0.9127  -0.9050  -0.8059  -0.7729  -0.7242  -0.7010
 -0.6640  -0.6437  -0.6115  -0.5865  -0.5838  -0.5748  -0.5693  -0.5547
 -0.5414  -0.5322  -0.5183  -0.5175  -0.4909  -0.4618  -0.4487  -0.4394
 -0.3542  -0.3366  -0.3252  -0.2593
 -- Virtual --
  0.0730   0.1322   0.1447   0.1544   0.1617   0.1683   0.1747   0.1833
  0.1928   0.1953   0.1998   0.2042   0.2220   0.2364   0.2388   0.2425
  0.2543   0.2693   0.2775   0.3080   0.3170   0.3310   0.3483   0.3549
  0.3621   0.3670   0.3779   0.3866   0.4011   0.4090   0.4182   0.4279
  0.4420   0.4571   0.4625   0.4689   0.4754   0.4779   0.4857   0.4881
  0.4982   0.5148   0.5208   0.5296   0.5360   0.5487   0.5516   0.5659
  0.5807   0.5838   0.5886   0.5918   0.6017   0.6109   0.6184   0.6193
  0.6230   0.6238   0.6286   0.6404   0.6416   0.6497   0.6594   0.6601
  0.6659   0.6792   0.6855   0.6931   0.6963   0.7088   0.7124   0.7297
  0.7499   0.7530   0.7675   0.7703   0.7785   0.7922   0.8142   0.8203
  0.8372   0.8509   0.8523   0.8574   0.8656   0.8962   0.9077   0.9225
  0.9292   0.9441   0.9555   0.9566   0.9682   0.9779   0.9982   1.0126
  1.0325   1.0338   1.0387   1.0465   1.0586   1.0680   1.0803   1.0868
  1.0981   1.1103   1.1292   1.1362   1.1496   1.1527   1.1746   1.1792
  1.1847   1.1886   1.2030   1.2055   1.2249   1.2314   1.2368   1.2449
  1.2565   1.2608   1.2723   1.2814   1.2912   1.3041   1.3089   1.3219
  1.3354   1.3399   1.3530   1.3544   1.3808   1.4012   1.4087   1.4179
  1.4306   1.4449   1.4485   1.4604   1.4724   1.4759   1.4855   1.4997
  1.5111   1.5153   1.5234   1.5281   1.5348   1.5405   1.5490   1.5607
  1.5629   1.5794   1.5888   1.5929   1.6094   1.6261   1.6400   1.6470
  1.6568   1.6704   1.6842   1.6903   1.6999   1.7114   1.7232   1.7399
  1.7413   1.7674   1.7801   1.7908   1.8091   1.8395   1.8479   1.8746
  1.8880   1.9249   1.9414   1.9498   1.9570   1.9947   2.0164   2.0266
  2.0363   2.0475   2.0519   2.0780   2.0978   2.1166   2.1371   2.1634
  2.1832   2.1861   2.2082   2.2127   2.2327   2.2385   2.2815   2.2974
  2.3070   2.3266   2.3390   2.3867   2.4116   2.4348   2.4742   2.4860
  2.5090   2.5204   2.5432   2.5487   2.5608   2.6020   2.6139   2.6312
  2.6349   2.6545   2.6713   2.6786   2.6907   2.6972   2.7052   2.7321
  2.7337   2.7591   2.7649   2.7864   2.7904   2.8093   2.8202   2.8379
  2.8452   2.8492   2.8500   2.8851   2.8966   2.9211   2.9309   2.9357
  2.9671   2.9735   2.9901   3.0027   3.0157   3.0313   3.0328   3.0371
  3.0576   3.0984   3.1064   3.1133   3.1177   3.1304   3.1439   3.1481
  3.1575   3.1691   3.1742   3.1802   3.1931   3.2112   3.2133   3.2161
  3.2396   3.2490   3.2537   3.2563   3.2647   3.2820   3.2930   3.2983
  3.3040   3.3187   3.3342   3.3403   3.3465   3.3543   3.3587   3.3692
  3.3740   3.3842   3.3969   3.4100   3.4133   3.4231   3.4328   3.4395
  3.4428   3.4485   3.4600   3.4686   3.4781   3.4918   3.5023   3.5140
  3.5283   3.5303   3.5374   3.5439   3.5622   3.5711   3.5716   3.5907
  3.6024   3.6050   3.6257   3.6306   3.6327   3.6471   3.6622   3.6798
  3.6860   3.6959   3.7093   3.7262   3.7295   3.7377   3.7412   3.7547
  3.7617   3.7752   3.7809   3.7971   3.8021   3.8133   3.8265   3.8445
  3.8534   3.8593   3.8643   3.8790   3.8915   3.8956   3.9101   3.9350
  3.9474   3.9592   3.9689   3.9751   3.9852   3.9910   4.0168   4.0336
  4.0406   4.0448   4.0487   4.0662   4.0735   4.1010   4.1140   4.1210
  4.1344   4.1444   4.1642   4.1670   4.1787   4.1854   4.2017   4.2124
  4.2255   4.2288   4.2336   4.2597   4.2628   4.2721   4.2769   4.2911
  4.3093   4.3152   4.3317   4.3417   4.3471   4.3524   4.3680   4.3809
  4.3962   4.4022   4.4041   4.4159   4.4313   4.4438   4.4535   4.4580
  4.4774   4.4847   4.4971   4.5057   4.5354   4.5388   4.5751   4.5831
  4.5996   4.6004   4.6214   4.6354   4.6386   4.6534   4.6711   4.6853
  4.6938   4.7377   4.7440   4.7681   4.7877   4.8216   4.8380   4.8574
  4.8716   4.8765   4.9035   4.9221   4.9306   4.9502   4.9623   4.9968
  5.0208   5.0584   5.0815   5.1153   5.1201   5.1319   5.1538   5.1825
  5.1874   5.2030   5.2290   5.2798   5.2827   5.2887   5.3062   5.3161
  5.3537   5.3649   5.3909   5.4029   5.4141   5.4376   5.4444   5.4520
  5.4816   5.5033   5.5344   5.5450   5.5561   5.5657   5.5846   5.5956
  5.6278   5.6351   5.6419   5.6574   5.6927   5.7026   5.7165   5.7257
  5.7667   5.7947   5.8266   5.9780   6.0229   6.1056   6.1255   6.1698
  6.2151   6.2275   6.2510   6.2628   6.2759   6.2870   6.3005   6.3109
  6.3831   6.4288   9.4186  10.5530  12.5289  12.8628  13.1783  13.8662
 14.1427  14.2375  14.3807  14.8264
 --------------------------------------------------------------
 
          Ground-State Mulliken Net Atomic Charges

     Atom                 Charge (a.u.)
  ----------------------------------------
      1 C                    -0.072187
      2 C                    -0.329536
      3 C                    -0.046741
      4 H                     0.177018
      5 C                     0.074739
      6 S                    -0.206338
      7 C                    -0.274945
      8 H                     0.108765
      9 H                     0.109702
     10 H                     0.109435
     11 C                    -0.077465
     12 C                    -0.207318
     13 C                     0.005229
     14 H                     0.185429
     15 C                    -0.239426
     16 S                     0.033471
     17 C                    -0.267657
     18 H                     0.103613
     19 H                     0.107805
     20 H                     0.104985
     21 H                     0.199397
     22 H                     0.109047
     23 H                     0.111941
     24 H                     0.181038
  ----------------------------------------
  Sum of atomic charges =     0.000000

 -----------------------------------------------------------------
                    Cartesian Multipole Moments
 -----------------------------------------------------------------
    Charge (ESU x 10^10)
                -0.0000
    Dipole Moment (Debye)
         X       3.3743      Y       0.1361      Z      -0.8983
       Tot       3.4945
    Quadrupole Moments (Debye-Ang)
        XX     -85.3731     XY       3.0199     YY     -81.3478
        XZ       0.6202     YZ       3.2178     ZZ     -84.9224
    Octopole Moments (Debye-Ang^2)
       XXX    -149.9921    XXY      87.0994    XYY     -41.0071
       YYY     178.8823    XXZ      -3.2312    XYZ      -0.7977
       YYZ       0.5267    XZZ     -44.2306    YZZ      74.3590
       ZZZ      -3.0454
    Hexadecapole Moments (Debye-Ang^3)
      XXXX    -760.4252   XXXY    -211.6566   XXYY    -533.3439
      XYYY    -224.8822   YYYY   -2319.0394   XXXZ      15.1316
      XXYZ     -24.7265   XYYZ      -5.7099   YYYZ     -72.5377
      XXZZ    -297.2304   XYZZ     -80.5990   YYZZ    -578.9736
      XZZZ      11.4938   YZZZ     -35.7272   ZZZZ   -1030.1993
 -----------------------------------------------------------------
 Total job time:  750.77s(wall), 746.28s(cpu) 
 Sun Jul 10 00:53:56 2022

        *************************************************************
        *                                                           *
        *  Thank you very much for using Q-Chem.  Have a nice day.  *
        *                                                           *
        *************************************************************


remove work dirs ./qchem2484354.0 -- ./qchem2484354.-1
rm -rf ./qchem2484354
