You are running Q-Chem version: 5.4.0

#
# job setting
#
local host:  exp-2-30
current dir: /expanse/lustre/scratch/theleonzhang/temp_project/Hydrogenated_Rotation_Test
input file:  Methylthiophene_Phi_30_Theta_160_Methylthiophene_Hydrogenated_Alternate.qcin
output file: 
nprocs     : 0
nthreads   : 1
#
# qchem installation setting
#
QC:          /cm/shared/apps/spack/cpu/opt/spack/linux-centos8-zen2/gcc-10.2.0/qchem-5.4-akfmr7b3t57bfs6qan3padb2wnb2i7cl
QCAUX:       /cm/shared/apps/spack/cpu/opt/spack/linux-centos8-zen2/gcc-10.2.0/qchem-5.4-akfmr7b3t57bfs6qan3padb2wnb2i7cl/qcaux
QCPROG:      /cm/shared/apps/spack/cpu/opt/spack/linux-centos8-zen2/gcc-10.2.0/qchem-5.4-akfmr7b3t57bfs6qan3padb2wnb2i7cl/exe/qcprog.exe_s
QCPROG_S:    /cm/shared/apps/spack/cpu/opt/spack/linux-centos8-zen2/gcc-10.2.0/qchem-5.4-akfmr7b3t57bfs6qan3padb2wnb2i7cl/exe/qcprog.exe_s
PARALLEL:    -DSERIAL
QCMPI:       mpich
#
# qchem directory setting
#
qcrun:       qchem288726
QCSCRATCH:   .
QCLOCALSCR:  
QCTMPDIR:    .
QCFILEPREF:  ./qchem288726
QCSAVEDIR:   
workdirs:    ./qchem288726
workdir0:    ./qchem288726
partmpdirs =  
#
# parallel setting
#
QCRSH:           ssh
QCMPI:           mpich
QCMPIRUN:        /cm/shared/apps/spack/cpu/opt/spack/linux-centos8-zen2/gcc-10.2.0/qchem-5.4-akfmr7b3t57bfs6qan3padb2wnb2i7cl/bin/mpi/mpirun_qchem
QCMACHINEFILE:   ./qchem288726/hostfile

#
# env setting
#
exported envs:   QC QCAUX QCSCRATCH QCRUNNAME QCFILEPREF QCPROG QCPROG_S GUIFILE

Running Job 1 of 1 Methylthiophene_Phi_30_Theta_160_Methylthiophene_Hydrogenated_Alternate.qcin
qchem Methylthiophene_Phi_30_Theta_160_Methylthiophene_Hydrogenated_Alternate.qcin_288726.0 ./qchem288726/ 0
/cm/shared/apps/spack/cpu/opt/spack/linux-centos8-zen2/gcc-10.2.0/qchem-5.4-akfmr7b3t57bfs6qan3padb2wnb2i7cl/exe/qcprog.exe_s Methylthiophene_Phi_30_Theta_160_Methylthiophene_Hydrogenated_Alternate.qcin_288726.0 ./qchem288726/
                  Welcome to Q-Chem
     A Quantum Leap Into The Future Of Chemistry


 Q-Chem 5.4, Q-Chem, Inc., Pleasanton, CA (2021)

 License issued to: University of California, San Diego (site)

 E. Epifanovsky,  A. T. B. Gilbert,  Xintian Feng,  Joonho Lee,  Yuezhi Mao,  
 N. Mardirossian,  P. Pokhilko,  A. White,  M. Wormit,  M. P. Coons,  
 A. L. Dempwolff,  Zhengting Gan,  D. Hait,  P. R. Horn,  L. D. Jacobson,  
 I. Kaliman,  J. Kussmann,  A. W. Lange,  Ka Un Lao,  D. S. Levine,  Jie Liu,  
 S. C. McKenzie,  A. F. Morrison,  K. Nanda,  F. Plasser,  D. R. Rehn,  
 M. L. Vidal,  Zhi-Qiang You,  Ying Zhu,  B. Alam,  B. Albrecht,  
 A. Aldossary,  E. Alguire,  J. H. Andersen,  D. Barton,  K. Begam,  A. Behn,  
 Y. A. Bernard,  E. J. Berquist,  H. Burton,  A. Carreras,  K. Carter-Fenk,  
 R. Chakraborty,  A. D. Chien,  K. D. Closser,  V. Cofer-Shabica,  
 S. Dasgupta,  Jia Deng,  M. de Wergifosse,  M. Diedenhofen,  Hainam Do,  
 S. Ehlert,  Po-Tung Fang,  S. Fatehi,  Qingguo Feng,  J. Gayvert,  
 Qinghui Ge,  G. Gidofalvi,  M. Goldey,  J. Gomes,  C. Gonzalez-Espinoza,  
 S. Gulania,  A. Gunina,  M. W. D. Hanson-Heine,  P. H. P. Harbach,  
 A. W. Hauser,  M. F. Herbst,  M. Hernandez Vera,  M. Hodecker,  
 Z. C. Holden,  S. Houck,  Xunkun Huang,  Kerwin Hui,  B. C. Huynh,  
 M. Ivanov,  Hyunjun Ji,  Hanjie Jiang,  B. Kaduk,  S. Kaehler,  
 K. Khistyaev,  Jaehoon Kim,  P. Klunzinger,  Z. Koczor-Benda,  
 Joong Hoon Koh,  D. Kosenkov,  L. Koulias,  T. Kowalczyk,  C. M. Krauter,  
 K. Kue,  A. Kunitsa,  T. Kus,  A. Landau,  K. V. Lawler,  D. Lefrancois,  
 S. Lehtola,  Rain Li,  Yi-Pei Li,  Jiashu Liang,  M. Liebenthal,  
 Hung-Hsuan Lin,  You-Sheng Lin,  Fenglai Liu,  Kuan-Yu Liu,  
 M. Loipersberger,  A. Luenser,  A. Manjanath,  P. Manohar,  E. Mansoor,  
 S. F. Manzer,  Shan-Ping Mao,  A. V. Marenich,  T. Markovich,  S. Mason,  
 S. A. Maurer,  P. F. McLaughlin,  M. F. S. J. Menger,  J.-M. Mewes,  
 S. A. Mewes,  P. Morgante,  J. W. Mullinax,  T. S. Nguyen-Beck,  
 K. J. Oosterbaan,  G. Paran,  Alexander C. Paul,  Suranjan K. Paul,  
 F. Pavosevic,  Zheng Pei,  S. Prager,  E. I. Proynov,  E. Ramos,  B. Rana,  
 A. E. Rask,  A. Rettig,  R. M. Richard,  F. Rob,  E. Rossomme,  T. Scheele,  
 M. Scheurer,  M. Schneider,  N. Sergueev,  S. M. Sharada,  W. Skomorowski,  
 D. W. Small,  C. J. Stein,  Yu-Chuan Su,  E. J. Sundstrom,  Zhen Tao,  
 J. Thirman,  T. Tsuchimochi,  N. M. Tubman,  S. P. Veccham,  O. Vydrov,  
 J. Wenzel,  J. Witte,  A. Yamada,  Kun Yao,  S. Yeganeh,  S. R. Yost,  
 A. Zech,  Igor Ying Zhang,  Xing Zhang,  Yu Zhang,  D. Zuev,  
 A. Aspuru-Guzik,  A. T. Bell,  N. A. Besley,  K. B. Bravaya,  B. R. Brooks,  
 D. Casanova,  Jeng-Da Chai,  S. Coriani,  C. J. Cramer,  
 A. E. DePrince, III,  R. A. DiStasio Jr.,  A. Dreuw,  B. D. Dunietz,  
 T. R. Furlani,  W. A. Goddard III,  S. Grimme,  S. Hammes-Schiffer,  
 T. Head-Gordon,  W. J. Hehre,  Chao-Ping Hsu,  T.-C. Jagau,  Yousung Jung,  
 A. Klamt,  Jing Kong,  D. S. Lambrecht,  WanZhen Liang,  N. J. Mayhall,  
 C. W. McCurdy,  J. B. Neaton,  C. Ochsenfeld,  J. A. Parkhill,  R. Peverati,  
 V. A. Rassolov,  Yihan Shao,  L. V. Slipchenko,  T. Stauch,  R. P. Steele,  
 J. E. Subotnik,  A. J. W. Thom,  A. Tkatchenko,  D. G. Truhlar,  
 T. Van Voorhis,  T. A. Wesolowski,  K. B. Whaley,  H. L. Woodcock III,  
 P. M. Zimmerman,  S. Faraji,  P. M. W. Gill,  M. Head-Gordon,  
 J. M. Herbert,  A. I. Krylov

 Contributors to earlier versions of Q-Chem not listed above: 
 R. D. Adamson,  B. Austin,  R. Baer,  J. Baker,  G. J. O. Beran,  
 K. Brandhorst,  S. T. Brown,  E. F. C. Byrd,  A. K. Chakraborty,  
 G. K. L. Chan,  Chun-Min Chang,  Yunqing Chen,  C.-L. Cheng,  
 Siu Hung Chien,  D. M. Chipman,  D. L. Crittenden,  H. Dachsel,  
 R. J. Doerksen,  A. D. Dutoi,  R. G. Edgar,  J. Fosso-Tande,  
 L. Fusti-Molnar,  D. Ghosh,  A. Ghysels,  A. Golubeva-Zadorozhnaya,  
 J. Gonthier,  M. S. Gordon,  S. R. Gwaltney,  G. Hawkins,  J. E. Herr,  
 A. Heyden,  S. Hirata,  E. G. Hohenstein,  G. Kedziora,  F. J. Keil,  
 C. Kelley,  Jihan Kim,  R. A. King,  R. Z. Khaliullin,  P. P. Korambath,  
 W. Kurlancheek,  A. Laurent,  A. M. Lee,  M. S. Lee,  S. V. Levchenko,  
 Ching Yeh Lin,  D. Liotard,  E. Livshits,  R. C. Lochan,  I. Lotan,  
 L. A. Martinez-Martinez,  P. E. Maslen,  N. Nair,  D. P. O'Neill,  
 D. Neuhauser,  E. Neuscamman,  C. M. Oana,  R. Olivares-Amaya,  R. Olson,  
 T. M. Perrine,  B. Peters,  P. A. Pieniazek,  A. Prociuk,  Y. M. Rhee,  
 J. Ritchie,  M. A. Rohrdanz,  E. Rosta,  N. J. Russ,  H. F. Schaefer III,  
 M. W. Schmidt,  N. E. Schultz,  S. Sharma,  N. Shenvi,  C. D. Sherrill,  
 A. C. Simmonett,  A. Sodt,  T. Stein,  D. Stuck,  K. S. Thanthiriwatte,  
 V. Vanovschi,  L. Vogt,  Tao Wang,  A. Warshel,  M. A. Watson,  
 C. F. Williams,  Q. Wu,  X. Xu,  Jun Yang,  W. Zhang,  Yan Zhao

 Please cite Q-Chem as follows:
 Y. Shao et al., Mol. Phys. 113, 184-215 (2015)
 DOI: 10.1080/00268976.2014.952696

 Q-Chem 5.4.0 for Intel X86 EM64T Linux

 Parts of Q-Chem use Armadillo 9.800.1 (Horizon Scraper).
 http://arma.sourceforge.net/

 Q-Chem begins on Sun Jul 10 03:06:32 2022  

 Host: 
0

     Scratch files written to ./qchem288726//
 May1621 |scratch|qcdevops|jenkins|workspace|build_RNUM    
 Processing $rem in /cm/shared/apps/spack/cpu/opt/spack/linux-centos8-zen2/gcc-10.2.0/qchem-5.4-akfmr7b3t57bfs6qan3padb2wnb2i7cl/config/preferences:
 Processing $rem in /home/theleonzhang/.qchemrc:
 Symmetry turned off for PCM/SM12/SMD calculation
 Core orbitals will be frozen

 Checking the input file for inconsistencies... 	...done.

--------------------------------------------------------------
User input:
--------------------------------------------------------------
$molecule
0 1
C	-0.264439	-3.866725	-0.728625
C	0.209794	-3.703963	0.575519
C	0.364749	-2.357056	1.002336
H	0.446060	-4.561092	1.224165
C	-0.000000	-1.440664	-0.000000
S	-0.528253	-2.286957	-1.451336
C	0.862253	-1.978743	2.369885
H	1.082953	-2.878678	2.976034
H	0.115513	-1.376015	2.927887
H	1.792797	-1.375728	2.317620
C	0.000000	0.000000	0.000000
C	0.431829	0.747884	1.099446
C	1.123799	1.946373	0.776721
H	0.247423	0.428497	2.136088
C	1.234147	2.137457	-0.612546
S	0.471221	0.816130	-1.486809
C	1.667694	2.888380	1.814609
H	1.454874	2.519768	2.836676
H	1.222009	3.901210	1.726239
H	2.767675	3.008788	1.726228
H	1.708773	2.959493	-1.161575
H	-1.225465	-4.392713	-0.745219
H	0.461378	-4.392347	-1.359038
H	1.014907	-1.440391	-0.369273
$end

$rem
JOBTYPE		SP
EXCHANGE	HF
CORRELATION	pRIMP2
BASIS		cc-pvtz
METHOD		rimp2
AUX_BASIS	rimp2-cc-pvtz
SOLVENT_METHOD	PCM
PURECART	11111
SYMMETRY	false
MEM_TOTAL	110000
SCF_CONVERGENCE = 6
THRESH=10
$end



$solvent
dielectric 4.90
$end
--------------------------------------------------------------
 ----------------------------------------------------------------
             Standard Nuclear Orientation (Angstroms)
    I     Atom           X                Y                Z
 ----------------------------------------------------------------
    1      C      -0.2644390000    -3.8667250000    -0.7286250000
    2      C       0.2097940000    -3.7039630000     0.5755190000
    3      C       0.3647490000    -2.3570560000     1.0023360000
    4      H       0.4460600000    -4.5610920000     1.2241650000
    5      C       0.0000000000    -1.4406640000     0.0000000000
    6      S      -0.5282530000    -2.2869570000    -1.4513360000
    7      C       0.8622530000    -1.9787430000     2.3698850000
    8      H       1.0829530000    -2.8786780000     2.9760340000
    9      H       0.1155130000    -1.3760150000     2.9278870000
   10      H       1.7927970000    -1.3757280000     2.3176200000
   11      C       0.0000000000     0.0000000000     0.0000000000
   12      C       0.4318290000     0.7478840000     1.0994460000
   13      C       1.1237990000     1.9463730000     0.7767210000
   14      H       0.2474230000     0.4284970000     2.1360880000
   15      C       1.2341470000     2.1374570000    -0.6125460000
   16      S       0.4712210000     0.8161300000    -1.4868090000
   17      C       1.6676940000     2.8883800000     1.8146090000
   18      H       1.4548740000     2.5197680000     2.8366760000
   19      H       1.2220090000     3.9012100000     1.7262390000
   20      H       2.7676750000     3.0087880000     1.7262280000
   21      H       1.7087730000     2.9594930000    -1.1615750000
   22      H      -1.2254650000    -4.3927130000    -0.7452190000
   23      H       0.4613780000    -4.3923470000    -1.3590380000
   24      H       1.0149070000    -1.4403910000    -0.3692730000
 ----------------------------------------------------------------
 Nuclear Repulsion Energy =         883.09139730 hartrees
 There are       52 alpha and       52 beta electrons

 Q-Chem warning in module forms1/BasisType.C, line 2236:

 You are not using the predefined 5D/6D in this basis set.

 Requested basis set is cc-pVTZ
 There are 196 shells and 536 basis functions

 Total QAlloc Memory Limit 110000 MB
 Mega-Array Size       188 MB
 MEM_STATIC part       192 MB
 Discretize the solute cavity surface with Lebedev spheres
	Using 110 Lebedev grid points for each H atom
	Using 194 Lebedev grid points for other atoms
	Atomic van der Waals radii will be scaled by 1.20
 Remove points where switching function is < 1.0e-08
 Keep 1565 surface tesserae and discard 2083 interior tesserae
 Molecular Surface Area = 230.016 Angst**2
 Requested basis set is rimp2-cc-pVTZ
 There are 414 shells and 1414 basis functions
 A cutoff of  1.0D-10 yielded  14304 shell pairs
 There are    103798 function pairs (    133033 Cartesian)
 Smallest overlap matrix eigenvalue = 5.45E-05

 Scale SEOQF with 1.000000e-01/1.000000e-01/1.000000e-01

 Standard Electronic Orientation quadrupole field applied
 Nucleus-field energy     =     0.0000000212 hartrees
 Guess from superposition of atomic densities
 Warning:  Energy on first SCF cycle will be non-variational
 SAD guess density has 104.000000 electrons

 -----------------------------------------------------------------------
  General SCF calculation program by
  Eric Jon Sundstrom, Paul Horn, Yuezhi Mao, Dmitri Zuev, Alec White,
  David Stuck, Shaama M.S., Shane Yost, Joonho Lee, David Small,
  Daniel Levine, Susi Lehtola, Hugh Burton, Evgeny Epifanovsky,
  Bang C. Huynh
 -----------------------------------------------------------------------
 Hartree-Fock
 A restricted SCF calculation will be
 performed using DIIS
 SCF converges when DIIS error is below 1.0e-06
 ---------------------------------------
  Cycle       Energy         DIIS error
 ---------------------------------------
    1   -1186.0992219710      2.40e-02  
    2   -1180.5930489810      1.58e-03  
    3   -1180.7200220968      6.32e-04  
    4   -1180.7353776796      3.40e-04  
    5   -1180.7407691747      6.03e-05  
    6   -1180.7410290560      2.53e-05  
    7   -1180.7410924426      9.15e-06  
    8   -1180.7411062239      4.30e-06  
    9   -1180.7411091804      1.50e-06  
   10   -1180.7411096596      5.10e-07  Convergence criterion met
 ---------------------------------------
 SCF time:   CPU 589.85s  wall 593.00s 

************** Final PCM Free Energy Summary **************
 G_electrostatic  =      -0.00961955 hartree =      -6.03635937 kcal/mol
 G_cavitation     =       0.00000000 hartree =       0.00000000 kcal/mol
 G_dispersion     =       0.00000000 hartree =       0.00000000 kcal/mol
 G_repulsion      =       0.00000000 hartree =       0.00000000 kcal/mol
 --------------------------------------------------
 Non-electrostatic Free Energy =       0.00000000 hartree =       0.00000000 kcal/mol
 Total                         =      -0.00961955 hartree =      -6.03635937 kcal/mol
 --------------------------------------------------
 SCF Energy (H0 + V/2)                       =   -1180.74110966 
 Solute Internal Energy (H0)                 =   -1180.73149011 
 Total Free Energy (H0 + V/2 + non-elec)     =   -1180.74110966 hartree
                                             = -740926.22911047 kcal/mol
***********************************************************

 SCF   energy in the final basis set =    -1180.7411096596
 Total energy in the final basis set =    -1180.7411096596


 --------------------------------------------------------------
  Generalized many-body perturbation theory program
  by Joonho Lee, Fazle Rob, Xintian Feng, Evgeny Epifanovsky

 No regularization used 
 (reg. param. = 0.0000e+00)
  (P|Q)^-1/2 Time:  CPU 1.89 s  wall 1.90 s

 In RI-MP2 calculation: 
 # of frozen core orbitals: 20

 Components of the RIMP2 correlation energy:
        aaaa    correlation energy =        -0.2522929802 a.u.
        abab    correlation energy =        -1.5058160243 a.u.
        bbbb    correlation energy =        -0.2522929802 a.u.
        non-Brillouin singles      =        -0.0000000000 a.u.
        total same-spin energy     =        -0.5045859604 a.u.
        total opposite-spin energy =        -1.5058160243 a.u.

 Total  RIMP2   correlation energy =        -2.0104019846 a.u.
        RIMP2         total energy =     -1182.7515116443 a.u.

 RI-MP2 Energy Time:  CPU 79.97 s  wall 80.24 s
 
 --------------------------------------------------------------
 
                    Orbital Energies (a.u.)
 --------------------------------------------------------------
 
 Alpha MOs
 -- Occupied --
-91.9806 -91.9424 -11.2840 -11.2650 -11.2610 -11.2603 -11.2505 -11.2433
-11.2333 -11.2332 -11.2288 -11.2227  -8.9809  -8.9474  -6.6618  -6.6612
 -6.6606  -6.6288  -6.6278  -6.6265  -1.2039  -1.1529  -1.0606  -1.0319
 -0.9995  -0.9629  -0.9154  -0.9000  -0.8144  -0.7628  -0.7344  -0.7054
 -0.6552  -0.6463  -0.6110  -0.5941  -0.5827  -0.5702  -0.5625  -0.5516
 -0.5474  -0.5358  -0.5239  -0.5050  -0.4829  -0.4777  -0.4647  -0.4438
 -0.3586  -0.3429  -0.3250  -0.2646
 -- Virtual --
  0.0908   0.1314   0.1439   0.1467   0.1558   0.1718   0.1783   0.1839
  0.1879   0.2031   0.2080   0.2160   0.2279   0.2334   0.2386   0.2411
  0.2508   0.2755   0.2860   0.3057   0.3181   0.3289   0.3472   0.3562
  0.3642   0.3796   0.3876   0.3945   0.3963   0.4077   0.4201   0.4283
  0.4391   0.4417   0.4573   0.4704   0.4769   0.4784   0.4824   0.4917
  0.5011   0.5157   0.5200   0.5265   0.5345   0.5439   0.5504   0.5574
  0.5673   0.5831   0.5913   0.5938   0.6018   0.6107   0.6140   0.6186
  0.6204   0.6261   0.6279   0.6396   0.6418   0.6511   0.6606   0.6629
  0.6652   0.6836   0.6851   0.6926   0.7026   0.7167   0.7186   0.7280
  0.7358   0.7563   0.7620   0.7661   0.7860   0.7966   0.8015   0.8088
  0.8326   0.8463   0.8524   0.8624   0.8736   0.9001   0.9064   0.9182
  0.9280   0.9371   0.9490   0.9654   0.9807   0.9824   0.9926   1.0035
  1.0097   1.0355   1.0400   1.0506   1.0633   1.0656   1.0709   1.0875
  1.0942   1.1059   1.1176   1.1274   1.1370   1.1580   1.1700   1.1812
  1.1847   1.1903   1.2033   1.2084   1.2231   1.2298   1.2339   1.2409
  1.2439   1.2546   1.2714   1.2737   1.2801   1.2954   1.3076   1.3120
  1.3296   1.3330   1.3428   1.3630   1.3792   1.3945   1.3995   1.4175
  1.4210   1.4432   1.4532   1.4580   1.4748   1.4813   1.4839   1.5037
  1.5139   1.5187   1.5248   1.5323   1.5339   1.5457   1.5516   1.5644
  1.5725   1.5824   1.5841   1.6023   1.6079   1.6181   1.6336   1.6440
  1.6563   1.6624   1.6849   1.6895   1.7044   1.7131   1.7373   1.7524
  1.7627   1.7723   1.7821   1.7973   1.8122   1.8274   1.8506   1.8656
  1.8984   1.9130   1.9281   1.9335   1.9575   1.9831   1.9910   2.0084
  2.0301   2.0335   2.0417   2.0561   2.1026   2.1123   2.1333   2.1598
  2.1901   2.1945   2.2143   2.2239   2.2403   2.2447   2.2620   2.2844
  2.2904   2.3055   2.3494   2.3536   2.4213   2.4278   2.4544   2.4834
  2.4991   2.5142   2.5368   2.5605   2.5723   2.5879   2.5961   2.6140
  2.6337   2.6525   2.6586   2.6649   2.6802   2.6964   2.7091   2.7393
  2.7429   2.7496   2.7664   2.7672   2.7769   2.8012   2.8179   2.8233
  2.8300   2.8505   2.8608   2.8677   2.8934   2.9257   2.9290   2.9443
  2.9630   2.9722   2.9821   2.9996   3.0158   3.0195   3.0279   3.0425
  3.0579   3.0887   3.0951   3.1067   3.1151   3.1201   3.1349   3.1432
  3.1488   3.1554   3.1629   3.1763   3.1858   3.2002   3.2073   3.2153
  3.2327   3.2346   3.2527   3.2579   3.2748   3.2761   3.2941   3.2992
  3.3064   3.3272   3.3332   3.3391   3.3479   3.3539   3.3675   3.3687
  3.3745   3.3799   3.3912   3.4015   3.4112   3.4183   3.4230   3.4358
  3.4417   3.4457   3.4605   3.4733   3.4760   3.4859   3.4968   3.5091
  3.5198   3.5271   3.5324   3.5413   3.5468   3.5626   3.5687   3.5762
  3.6028   3.6057   3.6162   3.6296   3.6358   3.6509   3.6525   3.6624
  3.6798   3.6802   3.6942   3.6997   3.7121   3.7213   3.7299   3.7388
  3.7583   3.7685   3.7780   3.7889   3.7956   3.8017   3.8078   3.8350
  3.8376   3.8488   3.8642   3.8675   3.8839   3.8934   3.9024   3.9263
  3.9445   3.9506   3.9635   3.9730   3.9767   4.0058   4.0082   4.0182
  4.0343   4.0457   4.0533   4.0569   4.0775   4.0943   4.1055   4.1176
  4.1381   4.1414   4.1544   4.1583   4.1662   4.1682   4.1947   4.2061
  4.2253   4.2288   4.2329   4.2432   4.2590   4.2638   4.2735   4.2833
  4.3043   4.3115   4.3249   4.3341   4.3476   4.3607   4.3690   4.3800
  4.3871   4.3968   4.4013   4.4088   4.4271   4.4294   4.4506   4.4583
  4.4679   4.4794   4.4956   4.5043   4.5134   4.5349   4.5756   4.5876
  4.5982   4.6114   4.6193   4.6385   4.6471   4.6642   4.6669   4.6952
  4.7150   4.7251   4.7470   4.7757   4.8005   4.8139   4.8381   4.8547
  4.8641   4.8726   4.8968   4.9227   4.9353   4.9569   4.9871   5.0164
  5.0546   5.0609   5.0906   5.1067   5.1174   5.1304   5.1440   5.1878
  5.2092   5.2154   5.2509   5.2557   5.2835   5.3032   5.3121   5.3181
  5.3397   5.3752   5.3806   5.4029   5.4125   5.4263   5.4380   5.4479
  5.4761   5.5129   5.5261   5.5384   5.5524   5.5748   5.5783   5.6001
  5.6147   5.6279   5.6319   5.6508   5.6738   5.7015   5.7174   5.7491
  5.7726   5.7994   5.8304   5.9703   6.0281   6.0578   6.1217   6.1639
  6.2209   6.2312   6.2419   6.2583   6.2618   6.2905   6.2989   6.3123
  6.4203   6.5044   9.5080  10.6426  12.1329  12.8774  13.1486  13.9883
 14.1280  14.2093  14.4100  14.9279
 --------------------------------------------------------------
 
          Ground-State Mulliken Net Atomic Charges

     Atom                 Charge (a.u.)
  ----------------------------------------
      1 C                    -0.077076
      2 C                    -0.309306
      3 C                    -0.066803
      4 H                     0.179159
      5 C                     0.113080
      6 S                    -0.182525
      7 C                    -0.299207
      8 H                     0.119696
      9 H                     0.104993
     10 H                     0.112054
     11 C                     0.004376
     12 C                    -0.342828
     13 C                     0.064579
     14 H                     0.192408
     15 C                    -0.273531
     16 S                     0.006048
     17 C                    -0.270935
     18 H                     0.101320
     19 H                     0.109620
     20 H                     0.108128
     21 H                     0.196751
     22 H                     0.113567
     23 H                     0.111189
     24 H                     0.185244
  ----------------------------------------
  Sum of atomic charges =     0.000000

 -----------------------------------------------------------------
                    Cartesian Multipole Moments
 -----------------------------------------------------------------
    Charge (ESU x 10^10)
                -0.0000
    Dipole Moment (Debye)
         X       2.4653      Y      -0.2778      Z       3.5198
       Tot       4.3063
    Quadrupole Moments (Debye-Ang)
        XX     -89.2820     XY       1.9475     YY     -75.5389
        XZ       0.4290     YZ      -1.8681     ZZ     -85.7286
    Octopole Moments (Debye-Ang^2)
       XXX    -106.8379    XXY      62.5957    XYY     -19.5301
       YYY     133.1619    XXZ      -2.0270    XYZ      -2.0750
       YYZ      -4.8104    XZZ     -28.6059    YZZ      58.2989
       ZZZ       7.8465
    Hexadecapole Moments (Debye-Ang^3)
      XXXX    -455.2083   XXXY    -207.3773   XXYY    -538.4615
      XYYY    -181.6262   YYYY   -2568.5796   XXXZ    -143.4385
      XXYZ     -33.0112   XYYZ     -44.5085   YYYZ     -87.4784
      XXZZ    -251.8917   XYZZ     -72.4041   YYZZ    -617.4258
      XZZZ    -137.0062   YZZZ    -111.6225   ZZZZ   -1035.7582
 -----------------------------------------------------------------
 Total job time:  674.67s(wall), 670.70s(cpu) 
 Sun Jul 10 03:17:47 2022

        *************************************************************
        *                                                           *
        *  Thank you very much for using Q-Chem.  Have a nice day.  *
        *                                                           *
        *************************************************************


remove work dirs ./qchem288726.0 -- ./qchem288726.-1
rm -rf ./qchem288726
You are running Q-Chem version: 5.4.0

#
# job setting
#
local host:  exp-5-13
current dir: /expanse/lustre/scratch/theleonzhang/temp_project/Hydrogenated_Rotation_Test
input file:  Methylthiophene_Phi_30_Theta_160_Methylthiophene_Hydrogenated_Alternate.qcin
output file: 
nprocs     : 0
nthreads   : 1
#
# qchem installation setting
#
QC:          /cm/shared/apps/spack/cpu/opt/spack/linux-centos8-zen2/gcc-10.2.0/qchem-5.4-akfmr7b3t57bfs6qan3padb2wnb2i7cl
QCAUX:       /cm/shared/apps/spack/cpu/opt/spack/linux-centos8-zen2/gcc-10.2.0/qchem-5.4-akfmr7b3t57bfs6qan3padb2wnb2i7cl/qcaux
QCPROG:      /cm/shared/apps/spack/cpu/opt/spack/linux-centos8-zen2/gcc-10.2.0/qchem-5.4-akfmr7b3t57bfs6qan3padb2wnb2i7cl/exe/qcprog.exe_s
QCPROG_S:    /cm/shared/apps/spack/cpu/opt/spack/linux-centos8-zen2/gcc-10.2.0/qchem-5.4-akfmr7b3t57bfs6qan3padb2wnb2i7cl/exe/qcprog.exe_s
PARALLEL:    -DSERIAL
QCMPI:       mpich
#
# qchem directory setting
#
qcrun:       qchem3832105
QCSCRATCH:   .
QCLOCALSCR:  
QCTMPDIR:    .
QCFILEPREF:  ./qchem3832105
QCSAVEDIR:   
workdirs:    ./qchem3832105
workdir0:    ./qchem3832105
partmpdirs =  
#
# parallel setting
#
QCRSH:           ssh
QCMPI:           mpich
QCMPIRUN:        /cm/shared/apps/spack/cpu/opt/spack/linux-centos8-zen2/gcc-10.2.0/qchem-5.4-akfmr7b3t57bfs6qan3padb2wnb2i7cl/bin/mpi/mpirun_qchem
QCMACHINEFILE:   ./qchem3832105/hostfile

#
# env setting
#
exported envs:   QC QCAUX QCSCRATCH QCRUNNAME QCFILEPREF QCPROG QCPROG_S GUIFILE

Running Job 1 of 1 Methylthiophene_Phi_30_Theta_160_Methylthiophene_Hydrogenated_Alternate.qcin
qchem Methylthiophene_Phi_30_Theta_160_Methylthiophene_Hydrogenated_Alternate.qcin_3832105.0 ./qchem3832105/ 0
/cm/shared/apps/spack/cpu/opt/spack/linux-centos8-zen2/gcc-10.2.0/qchem-5.4-akfmr7b3t57bfs6qan3padb2wnb2i7cl/exe/qcprog.exe_s Methylthiophene_Phi_30_Theta_160_Methylthiophene_Hydrogenated_Alternate.qcin_3832105.0 ./qchem3832105/
                  Welcome to Q-Chem
     A Quantum Leap Into The Future Of Chemistry


 Q-Chem 5.4, Q-Chem, Inc., Pleasanton, CA (2021)

 License issued to: University of California, San Diego (site)

 E. Epifanovsky,  A. T. B. Gilbert,  Xintian Feng,  Joonho Lee,  Yuezhi Mao,  
 N. Mardirossian,  P. Pokhilko,  A. White,  M. Wormit,  M. P. Coons,  
 A. L. Dempwolff,  Zhengting Gan,  D. Hait,  P. R. Horn,  L. D. Jacobson,  
 I. Kaliman,  J. Kussmann,  A. W. Lange,  Ka Un Lao,  D. S. Levine,  Jie Liu,  
 S. C. McKenzie,  A. F. Morrison,  K. Nanda,  F. Plasser,  D. R. Rehn,  
 M. L. Vidal,  Zhi-Qiang You,  Ying Zhu,  B. Alam,  B. Albrecht,  
 A. Aldossary,  E. Alguire,  J. H. Andersen,  D. Barton,  K. Begam,  A. Behn,  
 Y. A. Bernard,  E. J. Berquist,  H. Burton,  A. Carreras,  K. Carter-Fenk,  
 R. Chakraborty,  A. D. Chien,  K. D. Closser,  V. Cofer-Shabica,  
 S. Dasgupta,  Jia Deng,  M. de Wergifosse,  M. Diedenhofen,  Hainam Do,  
 S. Ehlert,  Po-Tung Fang,  S. Fatehi,  Qingguo Feng,  J. Gayvert,  
 Qinghui Ge,  G. Gidofalvi,  M. Goldey,  J. Gomes,  C. Gonzalez-Espinoza,  
 S. Gulania,  A. Gunina,  M. W. D. Hanson-Heine,  P. H. P. Harbach,  
 A. W. Hauser,  M. F. Herbst,  M. Hernandez Vera,  M. Hodecker,  
 Z. C. Holden,  S. Houck,  Xunkun Huang,  Kerwin Hui,  B. C. Huynh,  
 M. Ivanov,  Hyunjun Ji,  Hanjie Jiang,  B. Kaduk,  S. Kaehler,  
 K. Khistyaev,  Jaehoon Kim,  P. Klunzinger,  Z. Koczor-Benda,  
 Joong Hoon Koh,  D. Kosenkov,  L. Koulias,  T. Kowalczyk,  C. M. Krauter,  
 K. Kue,  A. Kunitsa,  T. Kus,  A. Landau,  K. V. Lawler,  D. Lefrancois,  
 S. Lehtola,  Rain Li,  Yi-Pei Li,  Jiashu Liang,  M. Liebenthal,  
 Hung-Hsuan Lin,  You-Sheng Lin,  Fenglai Liu,  Kuan-Yu Liu,  
 M. Loipersberger,  A. Luenser,  A. Manjanath,  P. Manohar,  E. Mansoor,  
 S. F. Manzer,  Shan-Ping Mao,  A. V. Marenich,  T. Markovich,  S. Mason,  
 S. A. Maurer,  P. F. McLaughlin,  M. F. S. J. Menger,  J.-M. Mewes,  
 S. A. Mewes,  P. Morgante,  J. W. Mullinax,  T. S. Nguyen-Beck,  
 K. J. Oosterbaan,  G. Paran,  Alexander C. Paul,  Suranjan K. Paul,  
 F. Pavosevic,  Zheng Pei,  S. Prager,  E. I. Proynov,  E. Ramos,  B. Rana,  
 A. E. Rask,  A. Rettig,  R. M. Richard,  F. Rob,  E. Rossomme,  T. Scheele,  
 M. Scheurer,  M. Schneider,  N. Sergueev,  S. M. Sharada,  W. Skomorowski,  
 D. W. Small,  C. J. Stein,  Yu-Chuan Su,  E. J. Sundstrom,  Zhen Tao,  
 J. Thirman,  T. Tsuchimochi,  N. M. Tubman,  S. P. Veccham,  O. Vydrov,  
 J. Wenzel,  J. Witte,  A. Yamada,  Kun Yao,  S. Yeganeh,  S. R. Yost,  
 A. Zech,  Igor Ying Zhang,  Xing Zhang,  Yu Zhang,  D. Zuev,  
 A. Aspuru-Guzik,  A. T. Bell,  N. A. Besley,  K. B. Bravaya,  B. R. Brooks,  
 D. Casanova,  Jeng-Da Chai,  S. Coriani,  C. J. Cramer,  
 A. E. DePrince, III,  R. A. DiStasio Jr.,  A. Dreuw,  B. D. Dunietz,  
 T. R. Furlani,  W. A. Goddard III,  S. Grimme,  S. Hammes-Schiffer,  
 T. Head-Gordon,  W. J. Hehre,  Chao-Ping Hsu,  T.-C. Jagau,  Yousung Jung,  
 A. Klamt,  Jing Kong,  D. S. Lambrecht,  WanZhen Liang,  N. J. Mayhall,  
 C. W. McCurdy,  J. B. Neaton,  C. Ochsenfeld,  J. A. Parkhill,  R. Peverati,  
 V. A. Rassolov,  Yihan Shao,  L. V. Slipchenko,  T. Stauch,  R. P. Steele,  
 J. E. Subotnik,  A. J. W. Thom,  A. Tkatchenko,  D. G. Truhlar,  
 T. Van Voorhis,  T. A. Wesolowski,  K. B. Whaley,  H. L. Woodcock III,  
 P. M. Zimmerman,  S. Faraji,  P. M. W. Gill,  M. Head-Gordon,  
 J. M. Herbert,  A. I. Krylov

 Contributors to earlier versions of Q-Chem not listed above: 
 R. D. Adamson,  B. Austin,  R. Baer,  J. Baker,  G. J. O. Beran,  
 K. Brandhorst,  S. T. Brown,  E. F. C. Byrd,  A. K. Chakraborty,  
 G. K. L. Chan,  Chun-Min Chang,  Yunqing Chen,  C.-L. Cheng,  
 Siu Hung Chien,  D. M. Chipman,  D. L. Crittenden,  H. Dachsel,  
 R. J. Doerksen,  A. D. Dutoi,  R. G. Edgar,  J. Fosso-Tande,  
 L. Fusti-Molnar,  D. Ghosh,  A. Ghysels,  A. Golubeva-Zadorozhnaya,  
 J. Gonthier,  M. S. Gordon,  S. R. Gwaltney,  G. Hawkins,  J. E. Herr,  
 A. Heyden,  S. Hirata,  E. G. Hohenstein,  G. Kedziora,  F. J. Keil,  
 C. Kelley,  Jihan Kim,  R. A. King,  R. Z. Khaliullin,  P. P. Korambath,  
 W. Kurlancheek,  A. Laurent,  A. M. Lee,  M. S. Lee,  S. V. Levchenko,  
 Ching Yeh Lin,  D. Liotard,  E. Livshits,  R. C. Lochan,  I. Lotan,  
 L. A. Martinez-Martinez,  P. E. Maslen,  N. Nair,  D. P. O'Neill,  
 D. Neuhauser,  E. Neuscamman,  C. M. Oana,  R. Olivares-Amaya,  R. Olson,  
 T. M. Perrine,  B. Peters,  P. A. Pieniazek,  A. Prociuk,  Y. M. Rhee,  
 J. Ritchie,  M. A. Rohrdanz,  E. Rosta,  N. J. Russ,  H. F. Schaefer III,  
 M. W. Schmidt,  N. E. Schultz,  S. Sharma,  N. Shenvi,  C. D. Sherrill,  
 A. C. Simmonett,  A. Sodt,  T. Stein,  D. Stuck,  K. S. Thanthiriwatte,  
 V. Vanovschi,  L. Vogt,  Tao Wang,  A. Warshel,  M. A. Watson,  
 C. F. Williams,  Q. Wu,  X. Xu,  Jun Yang,  W. Zhang,  Yan Zhao

 Please cite Q-Chem as follows:
 Y. Shao et al., Mol. Phys. 113, 184-215 (2015)
 DOI: 10.1080/00268976.2014.952696

 Q-Chem 5.4.0 for Intel X86 EM64T Linux

 Parts of Q-Chem use Armadillo 9.800.1 (Horizon Scraper).
 http://arma.sourceforge.net/

 Q-Chem begins on Sun Jul 10 03:48:48 2022  

 Host: 
0

     Scratch files written to ./qchem3832105//
 May1621 |scratch|qcdevops|jenkins|workspace|build_RNUM    
 Processing $rem in /cm/shared/apps/spack/cpu/opt/spack/linux-centos8-zen2/gcc-10.2.0/qchem-5.4-akfmr7b3t57bfs6qan3padb2wnb2i7cl/config/preferences:
 Processing $rem in /home/theleonzhang/.qchemrc:
 Symmetry turned off for PCM/SM12/SMD calculation
 Core orbitals will be frozen

 Checking the input file for inconsistencies... 	...done.

--------------------------------------------------------------
User input:
--------------------------------------------------------------
$molecule
0 1
C	-0.264439	-3.866725	-0.728625
C	0.209794	-3.703963	0.575519
C	0.364749	-2.357056	1.002336
H	0.446060	-4.561092	1.224165
C	-0.000000	-1.440664	-0.000000
S	-0.528253	-2.286957	-1.451336
C	0.862253	-1.978743	2.369885
H	1.082953	-2.878678	2.976034
H	0.115513	-1.376015	2.927887
H	1.792797	-1.375728	2.317620
C	0.000000	0.000000	0.000000
C	0.431829	0.747884	1.099446
C	1.123799	1.946373	0.776721
H	0.247423	0.428497	2.136088
C	1.234147	2.137457	-0.612546
S	0.471221	0.816130	-1.486809
C	1.667694	2.888380	1.814609
H	1.454874	2.519768	2.836676
H	1.222009	3.901210	1.726239
H	2.767675	3.008788	1.726228
H	1.708773	2.959493	-1.161575
H	-1.225465	-4.392713	-0.745219
H	0.461378	-4.392347	-1.359038
H	1.014907	-1.440391	-0.369273
$end

$rem
JOBTYPE		SP
EXCHANGE	HF
CORRELATION	pRIMP2
BASIS		cc-pvtz
METHOD		rimp2
AUX_BASIS	rimp2-cc-pvtz
SOLVENT_METHOD	PCM
PURECART	11111
SYMMETRY	false
MEM_TOTAL	110000
SCF_CONVERGENCE = 6
THRESH=10
$end



$solvent
dielectric 4.90
$end
--------------------------------------------------------------
 ----------------------------------------------------------------
             Standard Nuclear Orientation (Angstroms)
    I     Atom           X                Y                Z
 ----------------------------------------------------------------
    1      C      -0.2644390000    -3.8667250000    -0.7286250000
    2      C       0.2097940000    -3.7039630000     0.5755190000
    3      C       0.3647490000    -2.3570560000     1.0023360000
    4      H       0.4460600000    -4.5610920000     1.2241650000
    5      C       0.0000000000    -1.4406640000     0.0000000000
    6      S      -0.5282530000    -2.2869570000    -1.4513360000
    7      C       0.8622530000    -1.9787430000     2.3698850000
    8      H       1.0829530000    -2.8786780000     2.9760340000
    9      H       0.1155130000    -1.3760150000     2.9278870000
   10      H       1.7927970000    -1.3757280000     2.3176200000
   11      C       0.0000000000     0.0000000000     0.0000000000
   12      C       0.4318290000     0.7478840000     1.0994460000
   13      C       1.1237990000     1.9463730000     0.7767210000
   14      H       0.2474230000     0.4284970000     2.1360880000
   15      C       1.2341470000     2.1374570000    -0.6125460000
   16      S       0.4712210000     0.8161300000    -1.4868090000
   17      C       1.6676940000     2.8883800000     1.8146090000
   18      H       1.4548740000     2.5197680000     2.8366760000
   19      H       1.2220090000     3.9012100000     1.7262390000
   20      H       2.7676750000     3.0087880000     1.7262280000
   21      H       1.7087730000     2.9594930000    -1.1615750000
   22      H      -1.2254650000    -4.3927130000    -0.7452190000
   23      H       0.4613780000    -4.3923470000    -1.3590380000
   24      H       1.0149070000    -1.4403910000    -0.3692730000
 ----------------------------------------------------------------
 Nuclear Repulsion Energy =         883.09139730 hartrees
 There are       52 alpha and       52 beta electrons

 Q-Chem warning in module forms1/BasisType.C, line 2236:

 You are not using the predefined 5D/6D in this basis set.

 Requested basis set is cc-pVTZ
 There are 196 shells and 536 basis functions

 Total QAlloc Memory Limit 110000 MB
 Mega-Array Size       188 MB
 MEM_STATIC part       192 MB
 Discretize the solute cavity surface with Lebedev spheres
	Using 110 Lebedev grid points for each H atom
	Using 194 Lebedev grid points for other atoms
	Atomic van der Waals radii will be scaled by 1.20
 Remove points where switching function is < 1.0e-08
 Keep 1565 surface tesserae and discard 2083 interior tesserae
 Molecular Surface Area = 230.016 Angst**2
 Requested basis set is rimp2-cc-pVTZ
 There are 414 shells and 1414 basis functions
 A cutoff of  1.0D-10 yielded  14304 shell pairs
 There are    103798 function pairs (    133033 Cartesian)
 Smallest overlap matrix eigenvalue = 5.45E-05

 Scale SEOQF with 1.000000e-01/1.000000e-01/1.000000e-01

 Standard Electronic Orientation quadrupole field applied
 Nucleus-field energy     =     0.0000000212 hartrees
 Guess from superposition of atomic densities
 Warning:  Energy on first SCF cycle will be non-variational
 SAD guess density has 104.000000 electrons

 -----------------------------------------------------------------------
  General SCF calculation program by
  Eric Jon Sundstrom, Paul Horn, Yuezhi Mao, Dmitri Zuev, Alec White,
  David Stuck, Shaama M.S., Shane Yost, Joonho Lee, David Small,
  Daniel Levine, Susi Lehtola, Hugh Burton, Evgeny Epifanovsky,
  Bang C. Huynh
 -----------------------------------------------------------------------
 Hartree-Fock
 A restricted SCF calculation will be
 performed using DIIS
 SCF converges when DIIS error is below 1.0e-06
 ---------------------------------------
  Cycle       Energy         DIIS error
 ---------------------------------------
    1   -1186.0992219710      2.40e-02  
    2   -1180.5930489810      1.58e-03  
    3   -1180.7200220968      6.32e-04  
    4   -1180.7353776796      3.40e-04  
    5   -1180.7407691747      6.03e-05  
    6   -1180.7410290560      2.53e-05  
    7   -1180.7410924426      9.15e-06  
    8   -1180.7411062239      4.30e-06  
    9   -1180.7411091804      1.50e-06  
   10   -1180.7411096596      5.10e-07  Convergence criterion met
 ---------------------------------------
 SCF time:   CPU 590.86s  wall 592.00s 

************** Final PCM Free Energy Summary **************
 G_electrostatic  =      -0.00961955 hartree =      -6.03635937 kcal/mol
 G_cavitation     =       0.00000000 hartree =       0.00000000 kcal/mol
 G_dispersion     =       0.00000000 hartree =       0.00000000 kcal/mol
 G_repulsion      =       0.00000000 hartree =       0.00000000 kcal/mol
 --------------------------------------------------
 Non-electrostatic Free Energy =       0.00000000 hartree =       0.00000000 kcal/mol
 Total                         =      -0.00961955 hartree =      -6.03635937 kcal/mol
 --------------------------------------------------
 SCF Energy (H0 + V/2)                       =   -1180.74110966 
 Solute Internal Energy (H0)                 =   -1180.73149011 
 Total Free Energy (H0 + V/2 + non-elec)     =   -1180.74110966 hartree
                                             = -740926.22911047 kcal/mol
***********************************************************

 SCF   energy in the final basis set =    -1180.7411096596
 Total energy in the final basis set =    -1180.7411096596


 --------------------------------------------------------------
  Generalized many-body perturbation theory program
  by Joonho Lee, Fazle Rob, Xintian Feng, Evgeny Epifanovsky

 No regularization used 
 (reg. param. = 0.0000e+00)
  (P|Q)^-1/2 Time:  CPU 1.89 s  wall 1.89 s

 In RI-MP2 calculation: 
 # of frozen core orbitals: 20

 Components of the RIMP2 correlation energy:
        aaaa    correlation energy =        -0.2522929802 a.u.
        abab    correlation energy =        -1.5058160243 a.u.
        bbbb    correlation energy =        -0.2522929802 a.u.
        non-Brillouin singles      =        -0.0000000000 a.u.
        total same-spin energy     =        -0.5045859604 a.u.
        total opposite-spin energy =        -1.5058160243 a.u.

 Total  RIMP2   correlation energy =        -2.0104019846 a.u.
        RIMP2         total energy =     -1182.7515116443 a.u.

 RI-MP2 Energy Time:  CPU 79.94 s  wall 80.20 s
 
 --------------------------------------------------------------
 
                    Orbital Energies (a.u.)
 --------------------------------------------------------------
 
 Alpha MOs
 -- Occupied --
-91.9806 -91.9424 -11.2840 -11.2650 -11.2610 -11.2603 -11.2505 -11.2433
-11.2333 -11.2332 -11.2288 -11.2227  -8.9809  -8.9474  -6.6618  -6.6612
 -6.6606  -6.6288  -6.6278  -6.6265  -1.2039  -1.1529  -1.0606  -1.0319
 -0.9995  -0.9629  -0.9154  -0.9000  -0.8144  -0.7628  -0.7344  -0.7054
 -0.6552  -0.6463  -0.6110  -0.5941  -0.5827  -0.5702  -0.5625  -0.5516
 -0.5474  -0.5358  -0.5239  -0.5050  -0.4829  -0.4777  -0.4647  -0.4438
 -0.3586  -0.3429  -0.3250  -0.2646
 -- Virtual --
  0.0908   0.1314   0.1439   0.1467   0.1558   0.1718   0.1783   0.1839
  0.1879   0.2031   0.2080   0.2160   0.2279   0.2334   0.2386   0.2411
  0.2508   0.2755   0.2860   0.3057   0.3181   0.3289   0.3472   0.3562
  0.3642   0.3796   0.3876   0.3945   0.3963   0.4077   0.4201   0.4283
  0.4391   0.4417   0.4573   0.4704   0.4769   0.4784   0.4824   0.4917
  0.5011   0.5157   0.5200   0.5265   0.5345   0.5439   0.5504   0.5574
  0.5673   0.5831   0.5913   0.5938   0.6018   0.6107   0.6140   0.6186
  0.6204   0.6261   0.6279   0.6396   0.6418   0.6511   0.6606   0.6629
  0.6652   0.6836   0.6851   0.6926   0.7026   0.7167   0.7186   0.7280
  0.7358   0.7563   0.7620   0.7661   0.7860   0.7966   0.8015   0.8088
  0.8326   0.8463   0.8524   0.8624   0.8736   0.9001   0.9064   0.9182
  0.9280   0.9371   0.9490   0.9654   0.9807   0.9824   0.9926   1.0035
  1.0097   1.0355   1.0400   1.0506   1.0633   1.0656   1.0709   1.0875
  1.0942   1.1059   1.1176   1.1274   1.1370   1.1580   1.1700   1.1812
  1.1847   1.1903   1.2033   1.2084   1.2231   1.2298   1.2339   1.2409
  1.2439   1.2546   1.2714   1.2737   1.2801   1.2954   1.3076   1.3120
  1.3296   1.3330   1.3428   1.3630   1.3792   1.3945   1.3995   1.4175
  1.4210   1.4432   1.4532   1.4580   1.4748   1.4813   1.4839   1.5037
  1.5139   1.5187   1.5248   1.5323   1.5339   1.5457   1.5516   1.5644
  1.5725   1.5824   1.5841   1.6023   1.6079   1.6181   1.6336   1.6440
  1.6563   1.6624   1.6849   1.6895   1.7044   1.7131   1.7373   1.7524
  1.7627   1.7723   1.7821   1.7973   1.8122   1.8274   1.8506   1.8656
  1.8984   1.9130   1.9281   1.9335   1.9575   1.9831   1.9910   2.0084
  2.0301   2.0335   2.0417   2.0561   2.1026   2.1123   2.1333   2.1598
  2.1901   2.1945   2.2143   2.2239   2.2403   2.2447   2.2620   2.2844
  2.2904   2.3055   2.3494   2.3536   2.4213   2.4278   2.4544   2.4834
  2.4991   2.5142   2.5368   2.5605   2.5723   2.5879   2.5961   2.6140
  2.6337   2.6525   2.6586   2.6649   2.6802   2.6964   2.7091   2.7393
  2.7429   2.7496   2.7664   2.7672   2.7769   2.8012   2.8179   2.8233
  2.8300   2.8505   2.8608   2.8677   2.8934   2.9257   2.9290   2.9443
  2.9630   2.9722   2.9821   2.9996   3.0158   3.0195   3.0279   3.0425
  3.0579   3.0887   3.0951   3.1067   3.1151   3.1201   3.1349   3.1432
  3.1488   3.1554   3.1629   3.1763   3.1858   3.2002   3.2073   3.2153
  3.2327   3.2346   3.2527   3.2579   3.2748   3.2761   3.2941   3.2992
  3.3064   3.3272   3.3332   3.3391   3.3479   3.3539   3.3675   3.3687
  3.3745   3.3799   3.3912   3.4015   3.4112   3.4183   3.4230   3.4358
  3.4417   3.4457   3.4605   3.4733   3.4760   3.4859   3.4968   3.5091
  3.5198   3.5271   3.5324   3.5413   3.5468   3.5626   3.5687   3.5762
  3.6028   3.6057   3.6162   3.6296   3.6358   3.6509   3.6525   3.6624
  3.6798   3.6802   3.6942   3.6997   3.7121   3.7213   3.7299   3.7388
  3.7583   3.7685   3.7780   3.7889   3.7956   3.8017   3.8078   3.8350
  3.8376   3.8488   3.8642   3.8675   3.8839   3.8934   3.9024   3.9263
  3.9445   3.9506   3.9635   3.9730   3.9767   4.0058   4.0082   4.0182
  4.0343   4.0457   4.0533   4.0569   4.0775   4.0943   4.1055   4.1176
  4.1381   4.1414   4.1544   4.1583   4.1662   4.1682   4.1947   4.2061
  4.2253   4.2288   4.2329   4.2432   4.2590   4.2638   4.2735   4.2833
  4.3043   4.3115   4.3249   4.3341   4.3476   4.3607   4.3690   4.3800
  4.3871   4.3968   4.4013   4.4088   4.4271   4.4294   4.4506   4.4583
  4.4679   4.4794   4.4956   4.5043   4.5134   4.5349   4.5756   4.5876
  4.5982   4.6114   4.6193   4.6385   4.6471   4.6642   4.6669   4.6952
  4.7150   4.7251   4.7470   4.7757   4.8005   4.8139   4.8381   4.8547
  4.8641   4.8726   4.8968   4.9227   4.9353   4.9569   4.9871   5.0164
  5.0546   5.0609   5.0906   5.1067   5.1174   5.1304   5.1440   5.1878
  5.2092   5.2154   5.2509   5.2557   5.2835   5.3032   5.3121   5.3181
  5.3397   5.3752   5.3806   5.4029   5.4125   5.4263   5.4380   5.4479
  5.4761   5.5129   5.5261   5.5384   5.5524   5.5748   5.5783   5.6001
  5.6147   5.6279   5.6319   5.6508   5.6738   5.7015   5.7174   5.7491
  5.7726   5.7994   5.8304   5.9703   6.0281   6.0578   6.1217   6.1639
  6.2209   6.2312   6.2419   6.2583   6.2618   6.2905   6.2989   6.3123
  6.4203   6.5044   9.5080  10.6426  12.1329  12.8774  13.1486  13.9883
 14.1280  14.2093  14.4100  14.9279
 --------------------------------------------------------------
 
          Ground-State Mulliken Net Atomic Charges

     Atom                 Charge (a.u.)
  ----------------------------------------
      1 C                    -0.077076
      2 C                    -0.309306
      3 C                    -0.066803
      4 H                     0.179159
      5 C                     0.113080
      6 S                    -0.182525
      7 C                    -0.299207
      8 H                     0.119696
      9 H                     0.104993
     10 H                     0.112054
     11 C                     0.004376
     12 C                    -0.342828
     13 C                     0.064579
     14 H                     0.192408
     15 C                    -0.273531
     16 S                     0.006048
     17 C                    -0.270935
     18 H                     0.101320
     19 H                     0.109620
     20 H                     0.108128
     21 H                     0.196751
     22 H                     0.113567
     23 H                     0.111189
     24 H                     0.185244
  ----------------------------------------
  Sum of atomic charges =     0.000000

 -----------------------------------------------------------------
                    Cartesian Multipole Moments
 -----------------------------------------------------------------
    Charge (ESU x 10^10)
                -0.0000
    Dipole Moment (Debye)
         X       2.4653      Y      -0.2778      Z       3.5198
       Tot       4.3063
    Quadrupole Moments (Debye-Ang)
        XX     -89.2820     XY       1.9475     YY     -75.5389
        XZ       0.4290     YZ      -1.8681     ZZ     -85.7286
    Octopole Moments (Debye-Ang^2)
       XXX    -106.8379    XXY      62.5957    XYY     -19.5301
       YYY     133.1619    XXZ      -2.0270    XYZ      -2.0750
       YYZ      -4.8104    XZZ     -28.6059    YZZ      58.2989
       ZZZ       7.8465
    Hexadecapole Moments (Debye-Ang^3)
      XXXX    -455.2083   XXXY    -207.3773   XXYY    -538.4615
      XYYY    -181.6262   YYYY   -2568.5796   XXXZ    -143.4385
      XXYZ     -33.0112   XYYZ     -44.5085   YYYZ     -87.4784
      XXZZ    -251.8917   XYZZ     -72.4041   YYZZ    -617.4258
      XZZZ    -137.0062   YZZZ    -111.6225   ZZZZ   -1035.7582
 -----------------------------------------------------------------
 Total job time:  674.81s(wall), 671.68s(cpu) 
 Sun Jul 10 04:00:03 2022

        *************************************************************
        *                                                           *
        *  Thank you very much for using Q-Chem.  Have a nice day.  *
        *                                                           *
        *************************************************************


remove work dirs ./qchem3832105.0 -- ./qchem3832105.-1
rm -rf ./qchem3832105
