You are running Q-Chem version: 5.4.0

#
# job setting
#
local host:  exp-1-02
current dir: /expanse/lustre/scratch/theleonzhang/temp_project/Hydrogenated_Rotation_Test
input file:  Methylthiophene_Phi_0_Theta_120_Methylthiophene_Hydrogenated.qcin
output file: 
nprocs     : 0
nthreads   : 1
#
# qchem installation setting
#
QC:          /cm/shared/apps/spack/cpu/opt/spack/linux-centos8-zen2/gcc-10.2.0/qchem-5.4-akfmr7b3t57bfs6qan3padb2wnb2i7cl
QCAUX:       /cm/shared/apps/spack/cpu/opt/spack/linux-centos8-zen2/gcc-10.2.0/qchem-5.4-akfmr7b3t57bfs6qan3padb2wnb2i7cl/qcaux
QCPROG:      /cm/shared/apps/spack/cpu/opt/spack/linux-centos8-zen2/gcc-10.2.0/qchem-5.4-akfmr7b3t57bfs6qan3padb2wnb2i7cl/exe/qcprog.exe_s
QCPROG_S:    /cm/shared/apps/spack/cpu/opt/spack/linux-centos8-zen2/gcc-10.2.0/qchem-5.4-akfmr7b3t57bfs6qan3padb2wnb2i7cl/exe/qcprog.exe_s
PARALLEL:    -DSERIAL
QCMPI:       mpich
#
# qchem directory setting
#
qcrun:       qchem1121447
QCSCRATCH:   .
QCLOCALSCR:  
QCTMPDIR:    .
QCFILEPREF:  ./qchem1121447
QCSAVEDIR:   
workdirs:    ./qchem1121447
workdir0:    ./qchem1121447
partmpdirs =  
#
# parallel setting
#
QCRSH:           ssh
QCMPI:           mpich
QCMPIRUN:        /cm/shared/apps/spack/cpu/opt/spack/linux-centos8-zen2/gcc-10.2.0/qchem-5.4-akfmr7b3t57bfs6qan3padb2wnb2i7cl/bin/mpi/mpirun_qchem
QCMACHINEFILE:   ./qchem1121447/hostfile

#
# env setting
#
exported envs:   QC QCAUX QCSCRATCH QCRUNNAME QCFILEPREF QCPROG QCPROG_S GUIFILE

Running Job 1 of 1 Methylthiophene_Phi_0_Theta_120_Methylthiophene_Hydrogenated.qcin
qchem Methylthiophene_Phi_0_Theta_120_Methylthiophene_Hydrogenated.qcin_1121447.0 ./qchem1121447/ 0
/cm/shared/apps/spack/cpu/opt/spack/linux-centos8-zen2/gcc-10.2.0/qchem-5.4-akfmr7b3t57bfs6qan3padb2wnb2i7cl/exe/qcprog.exe_s Methylthiophene_Phi_0_Theta_120_Methylthiophene_Hydrogenated.qcin_1121447.0 ./qchem1121447/
                  Welcome to Q-Chem
     A Quantum Leap Into The Future Of Chemistry


 Q-Chem 5.4, Q-Chem, Inc., Pleasanton, CA (2021)

 License issued to: University of California, San Diego (site)

 E. Epifanovsky,  A. T. B. Gilbert,  Xintian Feng,  Joonho Lee,  Yuezhi Mao,  
 N. Mardirossian,  P. Pokhilko,  A. White,  M. Wormit,  M. P. Coons,  
 A. L. Dempwolff,  Zhengting Gan,  D. Hait,  P. R. Horn,  L. D. Jacobson,  
 I. Kaliman,  J. Kussmann,  A. W. Lange,  Ka Un Lao,  D. S. Levine,  Jie Liu,  
 S. C. McKenzie,  A. F. Morrison,  K. Nanda,  F. Plasser,  D. R. Rehn,  
 M. L. Vidal,  Zhi-Qiang You,  Ying Zhu,  B. Alam,  B. Albrecht,  
 A. Aldossary,  E. Alguire,  J. H. Andersen,  D. Barton,  K. Begam,  A. Behn,  
 Y. A. Bernard,  E. J. Berquist,  H. Burton,  A. Carreras,  K. Carter-Fenk,  
 R. Chakraborty,  A. D. Chien,  K. D. Closser,  V. Cofer-Shabica,  
 S. Dasgupta,  Jia Deng,  M. de Wergifosse,  M. Diedenhofen,  Hainam Do,  
 S. Ehlert,  Po-Tung Fang,  S. Fatehi,  Qingguo Feng,  J. Gayvert,  
 Qinghui Ge,  G. Gidofalvi,  M. Goldey,  J. Gomes,  C. Gonzalez-Espinoza,  
 S. Gulania,  A. Gunina,  M. W. D. Hanson-Heine,  P. H. P. Harbach,  
 A. W. Hauser,  M. F. Herbst,  M. Hernandez Vera,  M. Hodecker,  
 Z. C. Holden,  S. Houck,  Xunkun Huang,  Kerwin Hui,  B. C. Huynh,  
 M. Ivanov,  Hyunjun Ji,  Hanjie Jiang,  B. Kaduk,  S. Kaehler,  
 K. Khistyaev,  Jaehoon Kim,  P. Klunzinger,  Z. Koczor-Benda,  
 Joong Hoon Koh,  D. Kosenkov,  L. Koulias,  T. Kowalczyk,  C. M. Krauter,  
 K. Kue,  A. Kunitsa,  T. Kus,  A. Landau,  K. V. Lawler,  D. Lefrancois,  
 S. Lehtola,  Rain Li,  Yi-Pei Li,  Jiashu Liang,  M. Liebenthal,  
 Hung-Hsuan Lin,  You-Sheng Lin,  Fenglai Liu,  Kuan-Yu Liu,  
 M. Loipersberger,  A. Luenser,  A. Manjanath,  P. Manohar,  E. Mansoor,  
 S. F. Manzer,  Shan-Ping Mao,  A. V. Marenich,  T. Markovich,  S. Mason,  
 S. A. Maurer,  P. F. McLaughlin,  M. F. S. J. Menger,  J.-M. Mewes,  
 S. A. Mewes,  P. Morgante,  J. W. Mullinax,  T. S. Nguyen-Beck,  
 K. J. Oosterbaan,  G. Paran,  Alexander C. Paul,  Suranjan K. Paul,  
 F. Pavosevic,  Zheng Pei,  S. Prager,  E. I. Proynov,  E. Ramos,  B. Rana,  
 A. E. Rask,  A. Rettig,  R. M. Richard,  F. Rob,  E. Rossomme,  T. Scheele,  
 M. Scheurer,  M. Schneider,  N. Sergueev,  S. M. Sharada,  W. Skomorowski,  
 D. W. Small,  C. J. Stein,  Yu-Chuan Su,  E. J. Sundstrom,  Zhen Tao,  
 J. Thirman,  T. Tsuchimochi,  N. M. Tubman,  S. P. Veccham,  O. Vydrov,  
 J. Wenzel,  J. Witte,  A. Yamada,  Kun Yao,  S. Yeganeh,  S. R. Yost,  
 A. Zech,  Igor Ying Zhang,  Xing Zhang,  Yu Zhang,  D. Zuev,  
 A. Aspuru-Guzik,  A. T. Bell,  N. A. Besley,  K. B. Bravaya,  B. R. Brooks,  
 D. Casanova,  Jeng-Da Chai,  S. Coriani,  C. J. Cramer,  
 A. E. DePrince, III,  R. A. DiStasio Jr.,  A. Dreuw,  B. D. Dunietz,  
 T. R. Furlani,  W. A. Goddard III,  S. Grimme,  S. Hammes-Schiffer,  
 T. Head-Gordon,  W. J. Hehre,  Chao-Ping Hsu,  T.-C. Jagau,  Yousung Jung,  
 A. Klamt,  Jing Kong,  D. S. Lambrecht,  WanZhen Liang,  N. J. Mayhall,  
 C. W. McCurdy,  J. B. Neaton,  C. Ochsenfeld,  J. A. Parkhill,  R. Peverati,  
 V. A. Rassolov,  Yihan Shao,  L. V. Slipchenko,  T. Stauch,  R. P. Steele,  
 J. E. Subotnik,  A. J. W. Thom,  A. Tkatchenko,  D. G. Truhlar,  
 T. Van Voorhis,  T. A. Wesolowski,  K. B. Whaley,  H. L. Woodcock III,  
 P. M. Zimmerman,  S. Faraji,  P. M. W. Gill,  M. Head-Gordon,  
 J. M. Herbert,  A. I. Krylov

 Contributors to earlier versions of Q-Chem not listed above: 
 R. D. Adamson,  B. Austin,  R. Baer,  J. Baker,  G. J. O. Beran,  
 K. Brandhorst,  S. T. Brown,  E. F. C. Byrd,  A. K. Chakraborty,  
 G. K. L. Chan,  Chun-Min Chang,  Yunqing Chen,  C.-L. Cheng,  
 Siu Hung Chien,  D. M. Chipman,  D. L. Crittenden,  H. Dachsel,  
 R. J. Doerksen,  A. D. Dutoi,  R. G. Edgar,  J. Fosso-Tande,  
 L. Fusti-Molnar,  D. Ghosh,  A. Ghysels,  A. Golubeva-Zadorozhnaya,  
 J. Gonthier,  M. S. Gordon,  S. R. Gwaltney,  G. Hawkins,  J. E. Herr,  
 A. Heyden,  S. Hirata,  E. G. Hohenstein,  G. Kedziora,  F. J. Keil,  
 C. Kelley,  Jihan Kim,  R. A. King,  R. Z. Khaliullin,  P. P. Korambath,  
 W. Kurlancheek,  A. Laurent,  A. M. Lee,  M. S. Lee,  S. V. Levchenko,  
 Ching Yeh Lin,  D. Liotard,  E. Livshits,  R. C. Lochan,  I. Lotan,  
 L. A. Martinez-Martinez,  P. E. Maslen,  N. Nair,  D. P. O'Neill,  
 D. Neuhauser,  E. Neuscamman,  C. M. Oana,  R. Olivares-Amaya,  R. Olson,  
 T. M. Perrine,  B. Peters,  P. A. Pieniazek,  A. Prociuk,  Y. M. Rhee,  
 J. Ritchie,  M. A. Rohrdanz,  E. Rosta,  N. J. Russ,  H. F. Schaefer III,  
 M. W. Schmidt,  N. E. Schultz,  S. Sharma,  N. Shenvi,  C. D. Sherrill,  
 A. C. Simmonett,  A. Sodt,  T. Stein,  D. Stuck,  K. S. Thanthiriwatte,  
 V. Vanovschi,  L. Vogt,  Tao Wang,  A. Warshel,  M. A. Watson,  
 C. F. Williams,  Q. Wu,  X. Xu,  Jun Yang,  W. Zhang,  Yan Zhao

 Please cite Q-Chem as follows:
 Y. Shao et al., Mol. Phys. 113, 184-215 (2015)
 DOI: 10.1080/00268976.2014.952696

 Q-Chem 5.4.0 for Intel X86 EM64T Linux

 Parts of Q-Chem use Armadillo 9.800.1 (Horizon Scraper).
 http://arma.sourceforge.net/

 Q-Chem begins on Sat Jul  9 20:55:48 2022  

 Host: 
0

     Scratch files written to ./qchem1121447//
 May1621 |scratch|qcdevops|jenkins|workspace|build_RNUM    
 Processing $rem in /cm/shared/apps/spack/cpu/opt/spack/linux-centos8-zen2/gcc-10.2.0/qchem-5.4-akfmr7b3t57bfs6qan3padb2wnb2i7cl/config/preferences:
 Processing $rem in /home/theleonzhang/.qchemrc:
 Symmetry turned off for PCM/SM12/SMD calculation
 Core orbitals will be frozen

 Checking the input file for inconsistencies... 	...done.

--------------------------------------------------------------
User input:
--------------------------------------------------------------
$molecule
0 1
C	-0.670924	-3.866725	-0.388181
C	0.530648	-3.703963	0.306020
C	0.923703	-2.357056	0.533378
H	1.128579	-4.561092	0.651043
C	0.000000	-1.440664	0.000000
S	-1.337567	-2.286957	-0.772234
C	2.183857	-1.978743	1.261192
H	2.742548	-2.878678	1.583666
H	1.970497	-1.376015	2.168641
H	2.863099	-1.375728	0.623012
C	0.000000	0.000000	0.000000
C	0.000033	0.863600	1.099446
C	0.000052	2.247508	0.776721
H	0.000026	0.494801	2.136088
C	0.000074	2.468165	-0.612546
S	0.000024	0.942399	-1.486809
C	0.000075	3.335257	1.814609
H	0.000074	2.909620	2.836676
H	-0.892314	3.989552	1.726239
H	0.892483	3.989525	1.726228
H	0.000094	3.417382	-1.161575
H	-1.417779	-4.392713	0.216843
H	-0.520136	-4.392347	-1.337652
H	-0.540100	-1.440937	0.935250
$end

$rem
JOBTYPE		SP
EXCHANGE	HF
CORRELATION	pRIMP2
BASIS		cc-pvtz
METHOD		rimp2
AUX_BASIS	rimp2-cc-pvtz
SOLVENT_METHOD	PCM
PURECART	11111
SYMMETRY	false
MEM_TOTAL	110000
SCF_CONVERGENCE = 6
THRESH=10
$end



$solvent
dielectric 4.90
$end
--------------------------------------------------------------
 ----------------------------------------------------------------
             Standard Nuclear Orientation (Angstroms)
    I     Atom           X                Y                Z
 ----------------------------------------------------------------
    1      C      -0.6709240000    -3.8667250000    -0.3881810000
    2      C       0.5306480000    -3.7039630000     0.3060200000
    3      C       0.9237030000    -2.3570560000     0.5333780000
    4      H       1.1285790000    -4.5610920000     0.6510430000
    5      C       0.0000000000    -1.4406640000     0.0000000000
    6      S      -1.3375670000    -2.2869570000    -0.7722340000
    7      C       2.1838570000    -1.9787430000     1.2611920000
    8      H       2.7425480000    -2.8786780000     1.5836660000
    9      H       1.9704970000    -1.3760150000     2.1686410000
   10      H       2.8630990000    -1.3757280000     0.6230120000
   11      C       0.0000000000     0.0000000000     0.0000000000
   12      C       0.0000330000     0.8636000000     1.0994460000
   13      C       0.0000520000     2.2475080000     0.7767210000
   14      H       0.0000260000     0.4948010000     2.1360880000
   15      C       0.0000740000     2.4681650000    -0.6125460000
   16      S       0.0000240000     0.9423990000    -1.4868090000
   17      C       0.0000750000     3.3352570000     1.8146090000
   18      H       0.0000740000     2.9096200000     2.8366760000
   19      H      -0.8923140000     3.9895520000     1.7262390000
   20      H       0.8924830000     3.9895250000     1.7262280000
   21      H       0.0000940000     3.4173820000    -1.1615750000
   22      H      -1.4177790000    -4.3927130000     0.2168430000
   23      H      -0.5201360000    -4.3923470000    -1.3376520000
   24      H      -0.5401000000    -1.4409370000     0.9352500000
 ----------------------------------------------------------------
 Nuclear Repulsion Energy =         872.22171252 hartrees
 There are       52 alpha and       52 beta electrons

 Q-Chem warning in module forms1/BasisType.C, line 2236:

 You are not using the predefined 5D/6D in this basis set.

 Requested basis set is cc-pVTZ
 There are 196 shells and 536 basis functions

 Total QAlloc Memory Limit 110000 MB
 Mega-Array Size       188 MB
 MEM_STATIC part       192 MB
 Discretize the solute cavity surface with Lebedev spheres
	Using 110 Lebedev grid points for each H atom
	Using 194 Lebedev grid points for other atoms
	Atomic van der Waals radii will be scaled by 1.20
 Remove points where switching function is < 1.0e-08
 Keep 1610 surface tesserae and discard 2038 interior tesserae
 Molecular Surface Area = 238.595 Angst**2
 Requested basis set is rimp2-cc-pVTZ
 There are 414 shells and 1414 basis functions
 A cutoff of  1.0D-10 yielded  13962 shell pairs
 There are    101240 function pairs (    129856 Cartesian)
 Smallest overlap matrix eigenvalue = 5.92E-05

 Scale SEOQF with 1.000000e-01/1.000000e-01/1.000000e-01

 Standard Electronic Orientation quadrupole field applied
 Nucleus-field energy     =     0.0000000334 hartrees
 Guess from superposition of atomic densities
 Warning:  Energy on first SCF cycle will be non-variational
 SAD guess density has 104.000000 electrons

 -----------------------------------------------------------------------
  General SCF calculation program by
  Eric Jon Sundstrom, Paul Horn, Yuezhi Mao, Dmitri Zuev, Alec White,
  David Stuck, Shaama M.S., Shane Yost, Joonho Lee, David Small,
  Daniel Levine, Susi Lehtola, Hugh Burton, Evgeny Epifanovsky,
  Bang C. Huynh
 -----------------------------------------------------------------------
 Hartree-Fock
 A restricted SCF calculation will be
 performed using DIIS
 SCF converges when DIIS error is below 1.0e-06
 ---------------------------------------
  Cycle       Energy         DIIS error
 ---------------------------------------
    1   -1186.0185118272      2.39e-02  
    2   -1180.6197237206      1.55e-03  
    3   -1180.7437020925      6.03e-04  
    4   -1180.7577007107      3.36e-04  
    5   -1180.7627993749      5.83e-05  
    6   -1180.7630339250      2.38e-05  
    7   -1180.7630883025      8.54e-06  
    8   -1180.7631004548      4.13e-06  
    9   -1180.7631031787      1.43e-06  
   10   -1180.7631036214      5.01e-07  Convergence criterion met
 ---------------------------------------
 SCF time:   CPU 561.63s  wall 564.00s 

************** Final PCM Free Energy Summary **************
 G_electrostatic  =      -0.00948182 hartree =      -5.94993494 kcal/mol
 G_cavitation     =       0.00000000 hartree =       0.00000000 kcal/mol
 G_dispersion     =       0.00000000 hartree =       0.00000000 kcal/mol
 G_repulsion      =       0.00000000 hartree =       0.00000000 kcal/mol
 --------------------------------------------------
 Non-electrostatic Free Energy =       0.00000000 hartree =       0.00000000 kcal/mol
 Total                         =      -0.00948182 hartree =      -5.94993494 kcal/mol
 --------------------------------------------------
 SCF Energy (H0 + V/2)                       =   -1180.76310362 
 Solute Internal Energy (H0)                 =   -1180.75362180 
 Total Free Energy (H0 + V/2 + non-elec)     =   -1180.76310362 hartree
                                             = -740940.03052976 kcal/mol
***********************************************************

 SCF   energy in the final basis set =    -1180.7631036214
 Total energy in the final basis set =    -1180.7631036214


 --------------------------------------------------------------
  Generalized many-body perturbation theory program
  by Joonho Lee, Fazle Rob, Xintian Feng, Evgeny Epifanovsky

 No regularization used 
 (reg. param. = 0.0000e+00)
  (P|Q)^-1/2 Time:  CPU 1.89 s  wall 1.89 s

 In RI-MP2 calculation: 
 # of frozen core orbitals: 20

 Components of the RIMP2 correlation energy:
        aaaa    correlation energy =        -0.2511578311 a.u.
        abab    correlation energy =        -1.5024851346 a.u.
        bbbb    correlation energy =        -0.2511578311 a.u.
        non-Brillouin singles      =        -0.0000000000 a.u.
        total same-spin energy     =        -0.5023156621 a.u.
        total opposite-spin energy =        -1.5024851346 a.u.

 Total  RIMP2   correlation energy =        -2.0048007967 a.u.
        RIMP2         total energy =     -1182.7679044180 a.u.

 RI-MP2 Energy Time:  CPU 79.33 s  wall 79.60 s
 
 --------------------------------------------------------------
 
                    Orbital Energies (a.u.)
 --------------------------------------------------------------
 
 Alpha MOs
 -- Occupied --
-91.9813 -91.9430 -11.2839 -11.2637 -11.2617 -11.2568 -11.2508 -11.2416
-11.2403 -11.2321 -11.2292 -11.2199  -8.9811  -8.9476  -6.6620  -6.6615
 -6.6609  -6.6290  -6.6279  -6.6267  -1.1990  -1.1533  -1.0586  -1.0276
 -1.0042  -0.9609  -0.9124  -0.9008  -0.8166  -0.7605  -0.7328  -0.7042
 -0.6610  -0.6430  -0.6105  -0.5900  -0.5823  -0.5706  -0.5632  -0.5525
 -0.5421  -0.5308  -0.5152  -0.5061  -0.4894  -0.4821  -0.4623  -0.4476
 -0.3562  -0.3418  -0.3171  -0.2762
 -- Virtual --
  0.0980   0.1320   0.1428   0.1506   0.1579   0.1710   0.1727   0.1854
  0.1923   0.1968   0.2035   0.2167   0.2213   0.2315   0.2354   0.2430
  0.2522   0.2607   0.2761   0.2973   0.3123   0.3411   0.3435   0.3585
  0.3675   0.3730   0.3824   0.3903   0.3976   0.4029   0.4099   0.4141
  0.4324   0.4396   0.4469   0.4653   0.4698   0.4812   0.4857   0.4919
  0.4969   0.5099   0.5168   0.5232   0.5336   0.5381   0.5469   0.5605
  0.5681   0.5738   0.5867   0.5952   0.6018   0.6081   0.6084   0.6172
  0.6244   0.6281   0.6314   0.6408   0.6430   0.6494   0.6507   0.6521
  0.6621   0.6676   0.6831   0.6835   0.6944   0.7027   0.7124   0.7211
  0.7310   0.7423   0.7653   0.7693   0.7830   0.7886   0.8123   0.8221
  0.8330   0.8337   0.8548   0.8686   0.8758   0.8914   0.9034   0.9187
  0.9272   0.9404   0.9443   0.9609   0.9717   0.9873   1.0024   1.0073
  1.0110   1.0270   1.0391   1.0437   1.0530   1.0619   1.0783   1.0797
  1.0875   1.0958   1.1157   1.1200   1.1311   1.1480   1.1606   1.1770
  1.1807   1.1935   1.1974   1.2008   1.2177   1.2203   1.2321   1.2420
  1.2533   1.2603   1.2635   1.2723   1.2769   1.2786   1.3090   1.3257
  1.3390   1.3481   1.3546   1.3767   1.3846   1.3865   1.3944   1.4111
  1.4147   1.4329   1.4524   1.4637   1.4742   1.4784   1.4851   1.4933
  1.5094   1.5157   1.5210   1.5289   1.5369   1.5441   1.5463   1.5527
  1.5752   1.5779   1.5908   1.6010   1.6097   1.6168   1.6235   1.6350
  1.6526   1.6618   1.6822   1.6906   1.7015   1.7140   1.7253   1.7436
  1.7489   1.7590   1.7730   1.7907   1.8101   1.8211   1.8371   1.8638
  1.8735   1.9139   1.9172   1.9415   1.9437   1.9584   1.9965   2.0068
  2.0195   2.0336   2.0415   2.0526   2.0648   2.1323   2.1399   2.1463
  2.1867   2.2024   2.2072   2.2229   2.2353   2.2576   2.2659   2.2835
  2.2890   2.3182   2.3206   2.3727   2.4017   2.4502   2.4690   2.4771
  2.4903   2.5219   2.5253   2.5373   2.5740   2.5911   2.6046   2.6213
  2.6329   2.6400   2.6546   2.6627   2.6743   2.6841   2.7061   2.7293
  2.7355   2.7475   2.7582   2.7668   2.7817   2.7862   2.7985   2.8227
  2.8451   2.8509   2.8531   2.8708   2.8986   2.8992   2.9068   2.9206
  2.9255   2.9430   2.9610   2.9702   3.0042   3.0115   3.0224   3.0398
  3.0533   3.0743   3.0903   3.1043   3.1124   3.1167   3.1335   3.1437
  3.1552   3.1599   3.1664   3.1790   3.1815   3.1843   3.1980   3.2223
  3.2303   3.2374   3.2511   3.2618   3.2794   3.2877   3.3029   3.3083
  3.3095   3.3260   3.3303   3.3364   3.3448   3.3514   3.3564   3.3647
  3.3773   3.3853   3.3873   3.3960   3.4005   3.4179   3.4266   3.4295
  3.4393   3.4480   3.4564   3.4670   3.4791   3.4864   3.4975   3.5008
  3.5196   3.5280   3.5322   3.5405   3.5503   3.5586   3.5681   3.5787
  3.5882   3.5952   3.6150   3.6173   3.6326   3.6392   3.6494   3.6525
  3.6656   3.6703   3.6863   3.7017   3.7111   3.7280   3.7306   3.7348
  3.7459   3.7568   3.7605   3.7824   3.7927   3.7963   3.8049   3.8189
  3.8355   3.8423   3.8574   3.8700   3.8755   3.8952   3.9041   3.9202
  3.9308   3.9392   3.9417   3.9605   3.9787   3.9965   4.0066   4.0138
  4.0235   4.0344   4.0456   4.0560   4.0682   4.0819   4.0934   4.1006
  4.1278   4.1305   4.1411   4.1510   4.1574   4.1727   4.1874   4.1904
  4.2123   4.2144   4.2285   4.2352   4.2428   4.2607   4.2716   4.2884
  4.2971   4.3049   4.3125   4.3218   4.3376   4.3510   4.3648   4.3754
  4.3794   4.3849   4.4006   4.4069   4.4133   4.4259   4.4297   4.4463
  4.4566   4.4693   4.4788   4.4841   4.5147   4.5183   4.5340   4.5383
  4.5783   4.5992   4.6116   4.6165   4.6360   4.6502   4.6546   4.6722
  4.6782   4.7175   4.7399   4.7511   4.7829   4.8144   4.8314   4.8356
  4.8511   4.8694   4.8982   4.9164   4.9346   4.9737   4.9814   4.9852
  5.0136   5.0610   5.0932   5.1139   5.1192   5.1259   5.1438   5.1762
  5.2042   5.2159   5.2379   5.2688   5.2783   5.2851   5.3061   5.3294
  5.3385   5.3586   5.3781   5.3897   5.4109   5.4289   5.4387   5.4474
  5.4763   5.5230   5.5255   5.5424   5.5497   5.5614   5.5696   5.5982
  5.6204   5.6229   5.6279   5.6558   5.6678   5.6958   5.7081   5.7346
  5.7759   5.7975   5.8331   5.9639   6.0291   6.1110   6.1294   6.1666
  6.2119   6.2220   6.2266   6.2288   6.2534   6.2790   6.3089   6.3255
  6.3813   6.5379   9.3798  10.6613  12.0311  12.9657  13.2044  13.8979
 14.0979  14.1941  14.3719  14.8808
 --------------------------------------------------------------
 
          Ground-State Mulliken Net Atomic Charges

     Atom                 Charge (a.u.)
  ----------------------------------------
      1 C                    -0.076891
      2 C                    -0.327254
      3 C                    -0.033299
      4 H                     0.176757
      5 C                     0.094783
      6 S                    -0.174067
      7 C                    -0.267660
      8 H                     0.115129
      9 H                     0.098770
     10 H                     0.110412
     11 C                    -0.079189
     12 C                    -0.249656
     13 C                     0.018188
     14 H                     0.186402
     15 C                    -0.244497
     16 S                     0.007676
     17 C                    -0.272579
     18 H                     0.101605
     19 H                     0.108815
     20 H                     0.108111
     21 H                     0.196403
     22 H                     0.112147
     23 H                     0.111853
     24 H                     0.178041
  ----------------------------------------
  Sum of atomic charges =     0.000000

 -----------------------------------------------------------------
                    Cartesian Multipole Moments
 -----------------------------------------------------------------
    Charge (ESU x 10^10)
                -0.0000
    Dipole Moment (Debye)
         X       1.6934      Y       0.3231      Z       3.3683
       Tot       3.7838
    Quadrupole Moments (Debye-Ang)
        XX     -91.4108     XY      -2.2530     YY     -73.5566
        XZ      -0.0822     YZ      -1.8389     ZZ     -86.3077
    Octopole Moments (Debye-Ang^2)
       XXX       2.7334    XXY      40.0293    XYY      -2.0751
       YYY     122.8500    XXZ       2.0909    XYZ      -1.8715
       YYZ      -2.0417    XZZ       0.8098    YZZ      54.6110
       ZZZ       1.5083
    Hexadecapole Moments (Debye-Ang^3)
      XXXX    -562.6382   XXXY     -20.7467   XXYY    -600.7767
      XYYY       3.5731   YYYY   -2782.1080   XXXZ    -118.9492
      XXYZ     -45.3510   XYYZ     -28.5954   YYYZ    -110.7236
      XXZZ    -214.4324   XYZZ      -7.3057   YYZZ    -616.2464
      XZZZ    -127.3579   YZZZ     -98.5331   ZZZZ    -687.1400
 -----------------------------------------------------------------
 Total job time:  645.62s(wall), 641.85s(cpu) 
 Sat Jul  9 21:06:34 2022

        *************************************************************
        *                                                           *
        *  Thank you very much for using Q-Chem.  Have a nice day.  *
        *                                                           *
        *************************************************************


remove work dirs ./qchem1121447.0 -- ./qchem1121447.-1
rm -rf ./qchem1121447
You are running Q-Chem version: 5.4.0

#
# job setting
#
local host:  exp-1-17
current dir: /expanse/lustre/scratch/theleonzhang/temp_project/Hydrogenated_Rotation_Test
input file:  Methylthiophene_Phi_0_Theta_120_Methylthiophene_Hydrogenated.qcin
output file: 
nprocs     : 0
nthreads   : 1
#
# qchem installation setting
#
QC:          /cm/shared/apps/spack/cpu/opt/spack/linux-centos8-zen2/gcc-10.2.0/qchem-5.4-akfmr7b3t57bfs6qan3padb2wnb2i7cl
QCAUX:       /cm/shared/apps/spack/cpu/opt/spack/linux-centos8-zen2/gcc-10.2.0/qchem-5.4-akfmr7b3t57bfs6qan3padb2wnb2i7cl/qcaux
QCPROG:      /cm/shared/apps/spack/cpu/opt/spack/linux-centos8-zen2/gcc-10.2.0/qchem-5.4-akfmr7b3t57bfs6qan3padb2wnb2i7cl/exe/qcprog.exe_s
QCPROG_S:    /cm/shared/apps/spack/cpu/opt/spack/linux-centos8-zen2/gcc-10.2.0/qchem-5.4-akfmr7b3t57bfs6qan3padb2wnb2i7cl/exe/qcprog.exe_s
PARALLEL:    -DSERIAL
QCMPI:       mpich
#
# qchem directory setting
#
qcrun:       qchem3489962
QCSCRATCH:   .
QCLOCALSCR:  
QCTMPDIR:    .
QCFILEPREF:  ./qchem3489962
QCSAVEDIR:   
workdirs:    ./qchem3489962
workdir0:    ./qchem3489962
partmpdirs =  
#
# parallel setting
#
QCRSH:           ssh
QCMPI:           mpich
QCMPIRUN:        /cm/shared/apps/spack/cpu/opt/spack/linux-centos8-zen2/gcc-10.2.0/qchem-5.4-akfmr7b3t57bfs6qan3padb2wnb2i7cl/bin/mpi/mpirun_qchem
QCMACHINEFILE:   ./qchem3489962/hostfile

#
# env setting
#
exported envs:   QC QCAUX QCSCRATCH QCRUNNAME QCFILEPREF QCPROG QCPROG_S GUIFILE

Running Job 1 of 1 Methylthiophene_Phi_0_Theta_120_Methylthiophene_Hydrogenated.qcin
qchem Methylthiophene_Phi_0_Theta_120_Methylthiophene_Hydrogenated.qcin_3489962.0 ./qchem3489962/ 0
/cm/shared/apps/spack/cpu/opt/spack/linux-centos8-zen2/gcc-10.2.0/qchem-5.4-akfmr7b3t57bfs6qan3padb2wnb2i7cl/exe/qcprog.exe_s Methylthiophene_Phi_0_Theta_120_Methylthiophene_Hydrogenated.qcin_3489962.0 ./qchem3489962/
                  Welcome to Q-Chem
     A Quantum Leap Into The Future Of Chemistry


 Q-Chem 5.4, Q-Chem, Inc., Pleasanton, CA (2021)

 License issued to: University of California, San Diego (site)

 E. Epifanovsky,  A. T. B. Gilbert,  Xintian Feng,  Joonho Lee,  Yuezhi Mao,  
 N. Mardirossian,  P. Pokhilko,  A. White,  M. Wormit,  M. P. Coons,  
 A. L. Dempwolff,  Zhengting Gan,  D. Hait,  P. R. Horn,  L. D. Jacobson,  
 I. Kaliman,  J. Kussmann,  A. W. Lange,  Ka Un Lao,  D. S. Levine,  Jie Liu,  
 S. C. McKenzie,  A. F. Morrison,  K. Nanda,  F. Plasser,  D. R. Rehn,  
 M. L. Vidal,  Zhi-Qiang You,  Ying Zhu,  B. Alam,  B. Albrecht,  
 A. Aldossary,  E. Alguire,  J. H. Andersen,  D. Barton,  K. Begam,  A. Behn,  
 Y. A. Bernard,  E. J. Berquist,  H. Burton,  A. Carreras,  K. Carter-Fenk,  
 R. Chakraborty,  A. D. Chien,  K. D. Closser,  V. Cofer-Shabica,  
 S. Dasgupta,  Jia Deng,  M. de Wergifosse,  M. Diedenhofen,  Hainam Do,  
 S. Ehlert,  Po-Tung Fang,  S. Fatehi,  Qingguo Feng,  J. Gayvert,  
 Qinghui Ge,  G. Gidofalvi,  M. Goldey,  J. Gomes,  C. Gonzalez-Espinoza,  
 S. Gulania,  A. Gunina,  M. W. D. Hanson-Heine,  P. H. P. Harbach,  
 A. W. Hauser,  M. F. Herbst,  M. Hernandez Vera,  M. Hodecker,  
 Z. C. Holden,  S. Houck,  Xunkun Huang,  Kerwin Hui,  B. C. Huynh,  
 M. Ivanov,  Hyunjun Ji,  Hanjie Jiang,  B. Kaduk,  S. Kaehler,  
 K. Khistyaev,  Jaehoon Kim,  P. Klunzinger,  Z. Koczor-Benda,  
 Joong Hoon Koh,  D. Kosenkov,  L. Koulias,  T. Kowalczyk,  C. M. Krauter,  
 K. Kue,  A. Kunitsa,  T. Kus,  A. Landau,  K. V. Lawler,  D. Lefrancois,  
 S. Lehtola,  Rain Li,  Yi-Pei Li,  Jiashu Liang,  M. Liebenthal,  
 Hung-Hsuan Lin,  You-Sheng Lin,  Fenglai Liu,  Kuan-Yu Liu,  
 M. Loipersberger,  A. Luenser,  A. Manjanath,  P. Manohar,  E. Mansoor,  
 S. F. Manzer,  Shan-Ping Mao,  A. V. Marenich,  T. Markovich,  S. Mason,  
 S. A. Maurer,  P. F. McLaughlin,  M. F. S. J. Menger,  J.-M. Mewes,  
 S. A. Mewes,  P. Morgante,  J. W. Mullinax,  T. S. Nguyen-Beck,  
 K. J. Oosterbaan,  G. Paran,  Alexander C. Paul,  Suranjan K. Paul,  
 F. Pavosevic,  Zheng Pei,  S. Prager,  E. I. Proynov,  E. Ramos,  B. Rana,  
 A. E. Rask,  A. Rettig,  R. M. Richard,  F. Rob,  E. Rossomme,  T. Scheele,  
 M. Scheurer,  M. Schneider,  N. Sergueev,  S. M. Sharada,  W. Skomorowski,  
 D. W. Small,  C. J. Stein,  Yu-Chuan Su,  E. J. Sundstrom,  Zhen Tao,  
 J. Thirman,  T. Tsuchimochi,  N. M. Tubman,  S. P. Veccham,  O. Vydrov,  
 J. Wenzel,  J. Witte,  A. Yamada,  Kun Yao,  S. Yeganeh,  S. R. Yost,  
 A. Zech,  Igor Ying Zhang,  Xing Zhang,  Yu Zhang,  D. Zuev,  
 A. Aspuru-Guzik,  A. T. Bell,  N. A. Besley,  K. B. Bravaya,  B. R. Brooks,  
 D. Casanova,  Jeng-Da Chai,  S. Coriani,  C. J. Cramer,  
 A. E. DePrince, III,  R. A. DiStasio Jr.,  A. Dreuw,  B. D. Dunietz,  
 T. R. Furlani,  W. A. Goddard III,  S. Grimme,  S. Hammes-Schiffer,  
 T. Head-Gordon,  W. J. Hehre,  Chao-Ping Hsu,  T.-C. Jagau,  Yousung Jung,  
 A. Klamt,  Jing Kong,  D. S. Lambrecht,  WanZhen Liang,  N. J. Mayhall,  
 C. W. McCurdy,  J. B. Neaton,  C. Ochsenfeld,  J. A. Parkhill,  R. Peverati,  
 V. A. Rassolov,  Yihan Shao,  L. V. Slipchenko,  T. Stauch,  R. P. Steele,  
 J. E. Subotnik,  A. J. W. Thom,  A. Tkatchenko,  D. G. Truhlar,  
 T. Van Voorhis,  T. A. Wesolowski,  K. B. Whaley,  H. L. Woodcock III,  
 P. M. Zimmerman,  S. Faraji,  P. M. W. Gill,  M. Head-Gordon,  
 J. M. Herbert,  A. I. Krylov

 Contributors to earlier versions of Q-Chem not listed above: 
 R. D. Adamson,  B. Austin,  R. Baer,  J. Baker,  G. J. O. Beran,  
 K. Brandhorst,  S. T. Brown,  E. F. C. Byrd,  A. K. Chakraborty,  
 G. K. L. Chan,  Chun-Min Chang,  Yunqing Chen,  C.-L. Cheng,  
 Siu Hung Chien,  D. M. Chipman,  D. L. Crittenden,  H. Dachsel,  
 R. J. Doerksen,  A. D. Dutoi,  R. G. Edgar,  J. Fosso-Tande,  
 L. Fusti-Molnar,  D. Ghosh,  A. Ghysels,  A. Golubeva-Zadorozhnaya,  
 J. Gonthier,  M. S. Gordon,  S. R. Gwaltney,  G. Hawkins,  J. E. Herr,  
 A. Heyden,  S. Hirata,  E. G. Hohenstein,  G. Kedziora,  F. J. Keil,  
 C. Kelley,  Jihan Kim,  R. A. King,  R. Z. Khaliullin,  P. P. Korambath,  
 W. Kurlancheek,  A. Laurent,  A. M. Lee,  M. S. Lee,  S. V. Levchenko,  
 Ching Yeh Lin,  D. Liotard,  E. Livshits,  R. C. Lochan,  I. Lotan,  
 L. A. Martinez-Martinez,  P. E. Maslen,  N. Nair,  D. P. O'Neill,  
 D. Neuhauser,  E. Neuscamman,  C. M. Oana,  R. Olivares-Amaya,  R. Olson,  
 T. M. Perrine,  B. Peters,  P. A. Pieniazek,  A. Prociuk,  Y. M. Rhee,  
 J. Ritchie,  M. A. Rohrdanz,  E. Rosta,  N. J. Russ,  H. F. Schaefer III,  
 M. W. Schmidt,  N. E. Schultz,  S. Sharma,  N. Shenvi,  C. D. Sherrill,  
 A. C. Simmonett,  A. Sodt,  T. Stein,  D. Stuck,  K. S. Thanthiriwatte,  
 V. Vanovschi,  L. Vogt,  Tao Wang,  A. Warshel,  M. A. Watson,  
 C. F. Williams,  Q. Wu,  X. Xu,  Jun Yang,  W. Zhang,  Yan Zhao

 Please cite Q-Chem as follows:
 Y. Shao et al., Mol. Phys. 113, 184-215 (2015)
 DOI: 10.1080/00268976.2014.952696

 Q-Chem 5.4.0 for Intel X86 EM64T Linux

 Parts of Q-Chem use Armadillo 9.800.1 (Horizon Scraper).
 http://arma.sourceforge.net/

 Q-Chem begins on Sun Jul 10 01:05:34 2022  

 Host: 
0

     Scratch files written to ./qchem3489962//
 May1621 |scratch|qcdevops|jenkins|workspace|build_RNUM    
 Processing $rem in /cm/shared/apps/spack/cpu/opt/spack/linux-centos8-zen2/gcc-10.2.0/qchem-5.4-akfmr7b3t57bfs6qan3padb2wnb2i7cl/config/preferences:
 Processing $rem in /home/theleonzhang/.qchemrc:
 Symmetry turned off for PCM/SM12/SMD calculation
 Core orbitals will be frozen

 Checking the input file for inconsistencies... 	...done.

--------------------------------------------------------------
User input:
--------------------------------------------------------------
$molecule
0 1
C	-0.670924	-3.866725	-0.388181
C	0.530648	-3.703963	0.306020
C	0.923703	-2.357056	0.533378
H	1.128579	-4.561092	0.651043
C	0.000000	-1.440664	0.000000
S	-1.337567	-2.286957	-0.772234
C	2.183857	-1.978743	1.261192
H	2.742548	-2.878678	1.583666
H	1.970497	-1.376015	2.168641
H	2.863099	-1.375728	0.623012
C	0.000000	0.000000	0.000000
C	0.000033	0.863600	1.099446
C	0.000052	2.247508	0.776721
H	0.000026	0.494801	2.136088
C	0.000074	2.468165	-0.612546
S	0.000024	0.942399	-1.486809
C	0.000075	3.335257	1.814609
H	0.000074	2.909620	2.836676
H	-0.892314	3.989552	1.726239
H	0.892483	3.989525	1.726228
H	0.000094	3.417382	-1.161575
H	-1.417779	-4.392713	0.216843
H	-0.520136	-4.392347	-1.337652
H	-0.540100	-1.440937	0.935250
$end

$rem
JOBTYPE		SP
EXCHANGE	HF
CORRELATION	pRIMP2
BASIS		cc-pvtz
METHOD		rimp2
AUX_BASIS	rimp2-cc-pvtz
SOLVENT_METHOD	PCM
PURECART	11111
SYMMETRY	false
MEM_TOTAL	110000
SCF_CONVERGENCE = 6
THRESH=10
$end



$solvent
dielectric 4.90
$end
--------------------------------------------------------------
 ----------------------------------------------------------------
             Standard Nuclear Orientation (Angstroms)
    I     Atom           X                Y                Z
 ----------------------------------------------------------------
    1      C      -0.6709240000    -3.8667250000    -0.3881810000
    2      C       0.5306480000    -3.7039630000     0.3060200000
    3      C       0.9237030000    -2.3570560000     0.5333780000
    4      H       1.1285790000    -4.5610920000     0.6510430000
    5      C       0.0000000000    -1.4406640000     0.0000000000
    6      S      -1.3375670000    -2.2869570000    -0.7722340000
    7      C       2.1838570000    -1.9787430000     1.2611920000
    8      H       2.7425480000    -2.8786780000     1.5836660000
    9      H       1.9704970000    -1.3760150000     2.1686410000
   10      H       2.8630990000    -1.3757280000     0.6230120000
   11      C       0.0000000000     0.0000000000     0.0000000000
   12      C       0.0000330000     0.8636000000     1.0994460000
   13      C       0.0000520000     2.2475080000     0.7767210000
   14      H       0.0000260000     0.4948010000     2.1360880000
   15      C       0.0000740000     2.4681650000    -0.6125460000
   16      S       0.0000240000     0.9423990000    -1.4868090000
   17      C       0.0000750000     3.3352570000     1.8146090000
   18      H       0.0000740000     2.9096200000     2.8366760000
   19      H      -0.8923140000     3.9895520000     1.7262390000
   20      H       0.8924830000     3.9895250000     1.7262280000
   21      H       0.0000940000     3.4173820000    -1.1615750000
   22      H      -1.4177790000    -4.3927130000     0.2168430000
   23      H      -0.5201360000    -4.3923470000    -1.3376520000
   24      H      -0.5401000000    -1.4409370000     0.9352500000
 ----------------------------------------------------------------
 Nuclear Repulsion Energy =         872.22171252 hartrees
 There are       52 alpha and       52 beta electrons

 Q-Chem warning in module forms1/BasisType.C, line 2236:

 You are not using the predefined 5D/6D in this basis set.

 Requested basis set is cc-pVTZ
 There are 196 shells and 536 basis functions

 Total QAlloc Memory Limit 110000 MB
 Mega-Array Size       188 MB
 MEM_STATIC part       192 MB
 Discretize the solute cavity surface with Lebedev spheres
	Using 110 Lebedev grid points for each H atom
	Using 194 Lebedev grid points for other atoms
	Atomic van der Waals radii will be scaled by 1.20
 Remove points where switching function is < 1.0e-08
 Keep 1610 surface tesserae and discard 2038 interior tesserae
 Molecular Surface Area = 238.595 Angst**2
 Requested basis set is rimp2-cc-pVTZ
 There are 414 shells and 1414 basis functions
 A cutoff of  1.0D-10 yielded  13962 shell pairs
 There are    101240 function pairs (    129856 Cartesian)
 Smallest overlap matrix eigenvalue = 5.92E-05

 Scale SEOQF with 1.000000e-01/1.000000e-01/1.000000e-01

 Standard Electronic Orientation quadrupole field applied
 Nucleus-field energy     =     0.0000000334 hartrees
 Guess from superposition of atomic densities
 Warning:  Energy on first SCF cycle will be non-variational
 SAD guess density has 104.000000 electrons

 -----------------------------------------------------------------------
  General SCF calculation program by
  Eric Jon Sundstrom, Paul Horn, Yuezhi Mao, Dmitri Zuev, Alec White,
  David Stuck, Shaama M.S., Shane Yost, Joonho Lee, David Small,
  Daniel Levine, Susi Lehtola, Hugh Burton, Evgeny Epifanovsky,
  Bang C. Huynh
 -----------------------------------------------------------------------
 Hartree-Fock
 A restricted SCF calculation will be
 performed using DIIS
 SCF converges when DIIS error is below 1.0e-06
 ---------------------------------------
  Cycle       Energy         DIIS error
 ---------------------------------------
    1   -1186.0185118272      2.39e-02  
    2   -1180.6197237206      1.55e-03  
    3   -1180.7437020925      6.03e-04  
    4   -1180.7577007107      3.36e-04  
    5   -1180.7627993749      5.83e-05  
    6   -1180.7630339250      2.38e-05  
    7   -1180.7630883025      8.54e-06  
    8   -1180.7631004548      4.13e-06  
    9   -1180.7631031787      1.43e-06  
   10   -1180.7631036214      5.01e-07  Convergence criterion met
 ---------------------------------------
 SCF time:   CPU 561.42s  wall 564.00s 

************** Final PCM Free Energy Summary **************
 G_electrostatic  =      -0.00948182 hartree =      -5.94993494 kcal/mol
 G_cavitation     =       0.00000000 hartree =       0.00000000 kcal/mol
 G_dispersion     =       0.00000000 hartree =       0.00000000 kcal/mol
 G_repulsion      =       0.00000000 hartree =       0.00000000 kcal/mol
 --------------------------------------------------
 Non-electrostatic Free Energy =       0.00000000 hartree =       0.00000000 kcal/mol
 Total                         =      -0.00948182 hartree =      -5.94993494 kcal/mol
 --------------------------------------------------
 SCF Energy (H0 + V/2)                       =   -1180.76310362 
 Solute Internal Energy (H0)                 =   -1180.75362180 
 Total Free Energy (H0 + V/2 + non-elec)     =   -1180.76310362 hartree
                                             = -740940.03052976 kcal/mol
***********************************************************

 SCF   energy in the final basis set =    -1180.7631036214
 Total energy in the final basis set =    -1180.7631036214


 --------------------------------------------------------------
  Generalized many-body perturbation theory program
  by Joonho Lee, Fazle Rob, Xintian Feng, Evgeny Epifanovsky

 No regularization used 
 (reg. param. = 0.0000e+00)
  (P|Q)^-1/2 Time:  CPU 1.89 s  wall 1.90 s

 In RI-MP2 calculation: 
 # of frozen core orbitals: 20

 Components of the RIMP2 correlation energy:
        aaaa    correlation energy =        -0.2511578311 a.u.
        abab    correlation energy =        -1.5024851346 a.u.
        bbbb    correlation energy =        -0.2511578311 a.u.
        non-Brillouin singles      =        -0.0000000000 a.u.
        total same-spin energy     =        -0.5023156621 a.u.
        total opposite-spin energy =        -1.5024851346 a.u.

 Total  RIMP2   correlation energy =        -2.0048007967 a.u.
        RIMP2         total energy =     -1182.7679044180 a.u.

 RI-MP2 Energy Time:  CPU 79.53 s  wall 79.84 s
 
 --------------------------------------------------------------
 
                    Orbital Energies (a.u.)
 --------------------------------------------------------------
 
 Alpha MOs
 -- Occupied --
-91.9813 -91.9430 -11.2839 -11.2637 -11.2617 -11.2568 -11.2508 -11.2416
-11.2403 -11.2321 -11.2292 -11.2199  -8.9811  -8.9476  -6.6620  -6.6615
 -6.6609  -6.6290  -6.6279  -6.6267  -1.1990  -1.1533  -1.0586  -1.0276
 -1.0042  -0.9609  -0.9124  -0.9008  -0.8166  -0.7605  -0.7328  -0.7042
 -0.6610  -0.6430  -0.6105  -0.5900  -0.5823  -0.5706  -0.5632  -0.5525
 -0.5421  -0.5308  -0.5152  -0.5061  -0.4894  -0.4821  -0.4623  -0.4476
 -0.3562  -0.3418  -0.3171  -0.2762
 -- Virtual --
  0.0980   0.1320   0.1428   0.1506   0.1579   0.1710   0.1727   0.1854
  0.1923   0.1968   0.2035   0.2167   0.2213   0.2315   0.2354   0.2430
  0.2522   0.2607   0.2761   0.2973   0.3123   0.3411   0.3435   0.3585
  0.3675   0.3730   0.3824   0.3903   0.3976   0.4029   0.4099   0.4141
  0.4324   0.4396   0.4469   0.4653   0.4698   0.4812   0.4857   0.4919
  0.4969   0.5099   0.5168   0.5232   0.5336   0.5381   0.5469   0.5605
  0.5681   0.5738   0.5867   0.5952   0.6018   0.6081   0.6084   0.6172
  0.6244   0.6281   0.6314   0.6408   0.6430   0.6494   0.6507   0.6521
  0.6621   0.6676   0.6831   0.6835   0.6944   0.7027   0.7124   0.7211
  0.7310   0.7423   0.7653   0.7693   0.7830   0.7886   0.8123   0.8221
  0.8330   0.8337   0.8548   0.8686   0.8758   0.8914   0.9034   0.9187
  0.9272   0.9404   0.9443   0.9609   0.9717   0.9873   1.0024   1.0073
  1.0110   1.0270   1.0391   1.0437   1.0530   1.0619   1.0783   1.0797
  1.0875   1.0958   1.1157   1.1200   1.1311   1.1480   1.1606   1.1770
  1.1807   1.1935   1.1974   1.2008   1.2177   1.2203   1.2321   1.2420
  1.2533   1.2603   1.2635   1.2723   1.2769   1.2786   1.3090   1.3257
  1.3390   1.3481   1.3546   1.3767   1.3846   1.3865   1.3944   1.4111
  1.4147   1.4329   1.4524   1.4637   1.4742   1.4784   1.4851   1.4933
  1.5094   1.5157   1.5210   1.5289   1.5369   1.5441   1.5463   1.5527
  1.5752   1.5779   1.5908   1.6010   1.6097   1.6168   1.6235   1.6350
  1.6526   1.6618   1.6822   1.6906   1.7015   1.7140   1.7253   1.7436
  1.7489   1.7590   1.7730   1.7907   1.8101   1.8211   1.8371   1.8638
  1.8735   1.9139   1.9172   1.9415   1.9437   1.9584   1.9965   2.0068
  2.0195   2.0336   2.0415   2.0526   2.0648   2.1323   2.1399   2.1463
  2.1867   2.2024   2.2072   2.2229   2.2353   2.2576   2.2659   2.2835
  2.2890   2.3182   2.3206   2.3727   2.4017   2.4502   2.4690   2.4771
  2.4903   2.5219   2.5253   2.5373   2.5740   2.5911   2.6046   2.6213
  2.6329   2.6400   2.6546   2.6627   2.6743   2.6841   2.7061   2.7293
  2.7355   2.7475   2.7582   2.7668   2.7817   2.7862   2.7985   2.8227
  2.8451   2.8509   2.8531   2.8708   2.8986   2.8992   2.9068   2.9206
  2.9255   2.9430   2.9610   2.9702   3.0042   3.0115   3.0224   3.0398
  3.0533   3.0743   3.0903   3.1043   3.1124   3.1167   3.1335   3.1437
  3.1552   3.1599   3.1664   3.1790   3.1815   3.1843   3.1980   3.2223
  3.2303   3.2374   3.2511   3.2618   3.2794   3.2877   3.3029   3.3083
  3.3095   3.3260   3.3303   3.3364   3.3448   3.3514   3.3564   3.3647
  3.3773   3.3853   3.3873   3.3960   3.4005   3.4179   3.4266   3.4295
  3.4393   3.4480   3.4564   3.4670   3.4791   3.4864   3.4975   3.5008
  3.5196   3.5280   3.5322   3.5405   3.5503   3.5586   3.5681   3.5787
  3.5882   3.5952   3.6150   3.6173   3.6326   3.6392   3.6494   3.6525
  3.6656   3.6703   3.6863   3.7017   3.7111   3.7280   3.7306   3.7348
  3.7459   3.7568   3.7605   3.7824   3.7927   3.7963   3.8049   3.8189
  3.8355   3.8423   3.8574   3.8700   3.8755   3.8952   3.9041   3.9202
  3.9308   3.9392   3.9417   3.9605   3.9787   3.9965   4.0066   4.0138
  4.0235   4.0344   4.0456   4.0560   4.0682   4.0819   4.0934   4.1006
  4.1278   4.1305   4.1411   4.1510   4.1574   4.1727   4.1874   4.1904
  4.2123   4.2144   4.2285   4.2352   4.2428   4.2607   4.2716   4.2884
  4.2971   4.3049   4.3125   4.3218   4.3376   4.3510   4.3648   4.3754
  4.3794   4.3849   4.4006   4.4069   4.4133   4.4259   4.4297   4.4463
  4.4566   4.4693   4.4788   4.4841   4.5147   4.5183   4.5340   4.5383
  4.5783   4.5992   4.6116   4.6165   4.6360   4.6502   4.6546   4.6722
  4.6782   4.7175   4.7399   4.7511   4.7829   4.8144   4.8314   4.8356
  4.8511   4.8694   4.8982   4.9164   4.9346   4.9737   4.9814   4.9852
  5.0136   5.0610   5.0932   5.1139   5.1192   5.1259   5.1438   5.1762
  5.2042   5.2159   5.2379   5.2688   5.2783   5.2851   5.3061   5.3294
  5.3385   5.3586   5.3781   5.3897   5.4109   5.4289   5.4387   5.4474
  5.4763   5.5230   5.5255   5.5424   5.5497   5.5614   5.5696   5.5982
  5.6204   5.6229   5.6279   5.6558   5.6678   5.6958   5.7081   5.7346
  5.7759   5.7975   5.8331   5.9639   6.0291   6.1110   6.1294   6.1666
  6.2119   6.2220   6.2266   6.2288   6.2534   6.2790   6.3089   6.3255
  6.3813   6.5379   9.3798  10.6613  12.0311  12.9657  13.2044  13.8979
 14.0979  14.1941  14.3719  14.8808
 --------------------------------------------------------------
 
          Ground-State Mulliken Net Atomic Charges

     Atom                 Charge (a.u.)
  ----------------------------------------
      1 C                    -0.076891
      2 C                    -0.327254
      3 C                    -0.033299
      4 H                     0.176757
      5 C                     0.094783
      6 S                    -0.174067
      7 C                    -0.267660
      8 H                     0.115129
      9 H                     0.098770
     10 H                     0.110412
     11 C                    -0.079189
     12 C                    -0.249656
     13 C                     0.018188
     14 H                     0.186402
     15 C                    -0.244497
     16 S                     0.007676
     17 C                    -0.272579
     18 H                     0.101605
     19 H                     0.108815
     20 H                     0.108111
     21 H                     0.196403
     22 H                     0.112147
     23 H                     0.111853
     24 H                     0.178041
  ----------------------------------------
  Sum of atomic charges =     0.000000

 -----------------------------------------------------------------
                    Cartesian Multipole Moments
 -----------------------------------------------------------------
    Charge (ESU x 10^10)
                -0.0000
    Dipole Moment (Debye)
         X       1.6934      Y       0.3231      Z       3.3683
       Tot       3.7838
    Quadrupole Moments (Debye-Ang)
        XX     -91.4108     XY      -2.2530     YY     -73.5566
        XZ      -0.0822     YZ      -1.8389     ZZ     -86.3077
    Octopole Moments (Debye-Ang^2)
       XXX       2.7334    XXY      40.0293    XYY      -2.0751
       YYY     122.8500    XXZ       2.0909    XYZ      -1.8715
       YYZ      -2.0417    XZZ       0.8098    YZZ      54.6110
       ZZZ       1.5083
    Hexadecapole Moments (Debye-Ang^3)
      XXXX    -562.6382   XXXY     -20.7467   XXYY    -600.7767
      XYYY       3.5731   YYYY   -2782.1080   XXXZ    -118.9492
      XXYZ     -45.3510   XYYZ     -28.5954   YYYZ    -110.7236
      XXZZ    -214.4324   XYZZ      -7.3057   YYZZ    -616.2464
      XZZZ    -127.3579   YZZZ     -98.5331   ZZZZ    -687.1400
 -----------------------------------------------------------------
 Total job time:  646.08s(wall), 641.86s(cpu) 
 Sun Jul 10 01:16:20 2022

        *************************************************************
        *                                                           *
        *  Thank you very much for using Q-Chem.  Have a nice day.  *
        *                                                           *
        *************************************************************


remove work dirs ./qchem3489962.0 -- ./qchem3489962.-1
rm -rf ./qchem3489962
You are running Q-Chem version: 5.4.0

#
# job setting
#
local host:  exp-2-18
current dir: /expanse/lustre/scratch/theleonzhang/temp_project/Hydrogenated_Rotation_Test
input file:  Methylthiophene_Phi_0_Theta_120_Methylthiophene_Hydrogenated.qcin
output file: 
nprocs     : 0
nthreads   : 1
#
# qchem installation setting
#
QC:          /cm/shared/apps/spack/cpu/opt/spack/linux-centos8-zen2/gcc-10.2.0/qchem-5.4-akfmr7b3t57bfs6qan3padb2wnb2i7cl
QCAUX:       /cm/shared/apps/spack/cpu/opt/spack/linux-centos8-zen2/gcc-10.2.0/qchem-5.4-akfmr7b3t57bfs6qan3padb2wnb2i7cl/qcaux
QCPROG:      /cm/shared/apps/spack/cpu/opt/spack/linux-centos8-zen2/gcc-10.2.0/qchem-5.4-akfmr7b3t57bfs6qan3padb2wnb2i7cl/exe/qcprog.exe_s
QCPROG_S:    /cm/shared/apps/spack/cpu/opt/spack/linux-centos8-zen2/gcc-10.2.0/qchem-5.4-akfmr7b3t57bfs6qan3padb2wnb2i7cl/exe/qcprog.exe_s
PARALLEL:    -DSERIAL
QCMPI:       mpich
#
# qchem directory setting
#
qcrun:       qchem1867134
QCSCRATCH:   .
QCLOCALSCR:  
QCTMPDIR:    .
QCFILEPREF:  ./qchem1867134
QCSAVEDIR:   
workdirs:    ./qchem1867134
workdir0:    ./qchem1867134
partmpdirs =  
#
# parallel setting
#
QCRSH:           ssh
QCMPI:           mpich
QCMPIRUN:        /cm/shared/apps/spack/cpu/opt/spack/linux-centos8-zen2/gcc-10.2.0/qchem-5.4-akfmr7b3t57bfs6qan3padb2wnb2i7cl/bin/mpi/mpirun_qchem
QCMACHINEFILE:   ./qchem1867134/hostfile

#
# env setting
#
exported envs:   QC QCAUX QCSCRATCH QCRUNNAME QCFILEPREF QCPROG QCPROG_S GUIFILE

Running Job 1 of 1 Methylthiophene_Phi_0_Theta_120_Methylthiophene_Hydrogenated.qcin
qchem Methylthiophene_Phi_0_Theta_120_Methylthiophene_Hydrogenated.qcin_1867134.0 ./qchem1867134/ 0
/cm/shared/apps/spack/cpu/opt/spack/linux-centos8-zen2/gcc-10.2.0/qchem-5.4-akfmr7b3t57bfs6qan3padb2wnb2i7cl/exe/qcprog.exe_s Methylthiophene_Phi_0_Theta_120_Methylthiophene_Hydrogenated.qcin_1867134.0 ./qchem1867134/
                  Welcome to Q-Chem
     A Quantum Leap Into The Future Of Chemistry


 Q-Chem 5.4, Q-Chem, Inc., Pleasanton, CA (2021)

 License issued to: University of California, San Diego (site)

 E. Epifanovsky,  A. T. B. Gilbert,  Xintian Feng,  Joonho Lee,  Yuezhi Mao,  
 N. Mardirossian,  P. Pokhilko,  A. White,  M. Wormit,  M. P. Coons,  
 A. L. Dempwolff,  Zhengting Gan,  D. Hait,  P. R. Horn,  L. D. Jacobson,  
 I. Kaliman,  J. Kussmann,  A. W. Lange,  Ka Un Lao,  D. S. Levine,  Jie Liu,  
 S. C. McKenzie,  A. F. Morrison,  K. Nanda,  F. Plasser,  D. R. Rehn,  
 M. L. Vidal,  Zhi-Qiang You,  Ying Zhu,  B. Alam,  B. Albrecht,  
 A. Aldossary,  E. Alguire,  J. H. Andersen,  D. Barton,  K. Begam,  A. Behn,  
 Y. A. Bernard,  E. J. Berquist,  H. Burton,  A. Carreras,  K. Carter-Fenk,  
 R. Chakraborty,  A. D. Chien,  K. D. Closser,  V. Cofer-Shabica,  
 S. Dasgupta,  Jia Deng,  M. de Wergifosse,  M. Diedenhofen,  Hainam Do,  
 S. Ehlert,  Po-Tung Fang,  S. Fatehi,  Qingguo Feng,  J. Gayvert,  
 Qinghui Ge,  G. Gidofalvi,  M. Goldey,  J. Gomes,  C. Gonzalez-Espinoza,  
 S. Gulania,  A. Gunina,  M. W. D. Hanson-Heine,  P. H. P. Harbach,  
 A. W. Hauser,  M. F. Herbst,  M. Hernandez Vera,  M. Hodecker,  
 Z. C. Holden,  S. Houck,  Xunkun Huang,  Kerwin Hui,  B. C. Huynh,  
 M. Ivanov,  Hyunjun Ji,  Hanjie Jiang,  B. Kaduk,  S. Kaehler,  
 K. Khistyaev,  Jaehoon Kim,  P. Klunzinger,  Z. Koczor-Benda,  
 Joong Hoon Koh,  D. Kosenkov,  L. Koulias,  T. Kowalczyk,  C. M. Krauter,  
 K. Kue,  A. Kunitsa,  T. Kus,  A. Landau,  K. V. Lawler,  D. Lefrancois,  
 S. Lehtola,  Rain Li,  Yi-Pei Li,  Jiashu Liang,  M. Liebenthal,  
 Hung-Hsuan Lin,  You-Sheng Lin,  Fenglai Liu,  Kuan-Yu Liu,  
 M. Loipersberger,  A. Luenser,  A. Manjanath,  P. Manohar,  E. Mansoor,  
 S. F. Manzer,  Shan-Ping Mao,  A. V. Marenich,  T. Markovich,  S. Mason,  
 S. A. Maurer,  P. F. McLaughlin,  M. F. S. J. Menger,  J.-M. Mewes,  
 S. A. Mewes,  P. Morgante,  J. W. Mullinax,  T. S. Nguyen-Beck,  
 K. J. Oosterbaan,  G. Paran,  Alexander C. Paul,  Suranjan K. Paul,  
 F. Pavosevic,  Zheng Pei,  S. Prager,  E. I. Proynov,  E. Ramos,  B. Rana,  
 A. E. Rask,  A. Rettig,  R. M. Richard,  F. Rob,  E. Rossomme,  T. Scheele,  
 M. Scheurer,  M. Schneider,  N. Sergueev,  S. M. Sharada,  W. Skomorowski,  
 D. W. Small,  C. J. Stein,  Yu-Chuan Su,  E. J. Sundstrom,  Zhen Tao,  
 J. Thirman,  T. Tsuchimochi,  N. M. Tubman,  S. P. Veccham,  O. Vydrov,  
 J. Wenzel,  J. Witte,  A. Yamada,  Kun Yao,  S. Yeganeh,  S. R. Yost,  
 A. Zech,  Igor Ying Zhang,  Xing Zhang,  Yu Zhang,  D. Zuev,  
 A. Aspuru-Guzik,  A. T. Bell,  N. A. Besley,  K. B. Bravaya,  B. R. Brooks,  
 D. Casanova,  Jeng-Da Chai,  S. Coriani,  C. J. Cramer,  
 A. E. DePrince, III,  R. A. DiStasio Jr.,  A. Dreuw,  B. D. Dunietz,  
 T. R. Furlani,  W. A. Goddard III,  S. Grimme,  S. Hammes-Schiffer,  
 T. Head-Gordon,  W. J. Hehre,  Chao-Ping Hsu,  T.-C. Jagau,  Yousung Jung,  
 A. Klamt,  Jing Kong,  D. S. Lambrecht,  WanZhen Liang,  N. J. Mayhall,  
 C. W. McCurdy,  J. B. Neaton,  C. Ochsenfeld,  J. A. Parkhill,  R. Peverati,  
 V. A. Rassolov,  Yihan Shao,  L. V. Slipchenko,  T. Stauch,  R. P. Steele,  
 J. E. Subotnik,  A. J. W. Thom,  A. Tkatchenko,  D. G. Truhlar,  
 T. Van Voorhis,  T. A. Wesolowski,  K. B. Whaley,  H. L. Woodcock III,  
 P. M. Zimmerman,  S. Faraji,  P. M. W. Gill,  M. Head-Gordon,  
 J. M. Herbert,  A. I. Krylov

 Contributors to earlier versions of Q-Chem not listed above: 
 R. D. Adamson,  B. Austin,  R. Baer,  J. Baker,  G. J. O. Beran,  
 K. Brandhorst,  S. T. Brown,  E. F. C. Byrd,  A. K. Chakraborty,  
 G. K. L. Chan,  Chun-Min Chang,  Yunqing Chen,  C.-L. Cheng,  
 Siu Hung Chien,  D. M. Chipman,  D. L. Crittenden,  H. Dachsel,  
 R. J. Doerksen,  A. D. Dutoi,  R. G. Edgar,  J. Fosso-Tande,  
 L. Fusti-Molnar,  D. Ghosh,  A. Ghysels,  A. Golubeva-Zadorozhnaya,  
 J. Gonthier,  M. S. Gordon,  S. R. Gwaltney,  G. Hawkins,  J. E. Herr,  
 A. Heyden,  S. Hirata,  E. G. Hohenstein,  G. Kedziora,  F. J. Keil,  
 C. Kelley,  Jihan Kim,  R. A. King,  R. Z. Khaliullin,  P. P. Korambath,  
 W. Kurlancheek,  A. Laurent,  A. M. Lee,  M. S. Lee,  S. V. Levchenko,  
 Ching Yeh Lin,  D. Liotard,  E. Livshits,  R. C. Lochan,  I. Lotan,  
 L. A. Martinez-Martinez,  P. E. Maslen,  N. Nair,  D. P. O'Neill,  
 D. Neuhauser,  E. Neuscamman,  C. M. Oana,  R. Olivares-Amaya,  R. Olson,  
 T. M. Perrine,  B. Peters,  P. A. Pieniazek,  A. Prociuk,  Y. M. Rhee,  
 J. Ritchie,  M. A. Rohrdanz,  E. Rosta,  N. J. Russ,  H. F. Schaefer III,  
 M. W. Schmidt,  N. E. Schultz,  S. Sharma,  N. Shenvi,  C. D. Sherrill,  
 A. C. Simmonett,  A. Sodt,  T. Stein,  D. Stuck,  K. S. Thanthiriwatte,  
 V. Vanovschi,  L. Vogt,  Tao Wang,  A. Warshel,  M. A. Watson,  
 C. F. Williams,  Q. Wu,  X. Xu,  Jun Yang,  W. Zhang,  Yan Zhao

 Please cite Q-Chem as follows:
 Y. Shao et al., Mol. Phys. 113, 184-215 (2015)
 DOI: 10.1080/00268976.2014.952696

 Q-Chem 5.4.0 for Intel X86 EM64T Linux

 Parts of Q-Chem use Armadillo 9.800.1 (Horizon Scraper).
 http://arma.sourceforge.net/

 Q-Chem begins on Sun Jul 10 01:37:19 2022  

 Host: 
0

     Scratch files written to ./qchem1867134//
 May1621 |scratch|qcdevops|jenkins|workspace|build_RNUM    
 Processing $rem in /cm/shared/apps/spack/cpu/opt/spack/linux-centos8-zen2/gcc-10.2.0/qchem-5.4-akfmr7b3t57bfs6qan3padb2wnb2i7cl/config/preferences:
 Processing $rem in /home/theleonzhang/.qchemrc:
 Symmetry turned off for PCM/SM12/SMD calculation
 Core orbitals will be frozen

 Checking the input file for inconsistencies... 	...done.

--------------------------------------------------------------
User input:
--------------------------------------------------------------
$molecule
0 1
C	-0.670924	-3.866725	-0.388181
C	0.530648	-3.703963	0.306020
C	0.923703	-2.357056	0.533378
H	1.128579	-4.561092	0.651043
C	0.000000	-1.440664	0.000000
S	-1.337567	-2.286957	-0.772234
C	2.183857	-1.978743	1.261192
H	2.742548	-2.878678	1.583666
H	1.970497	-1.376015	2.168641
H	2.863099	-1.375728	0.623012
C	0.000000	0.000000	0.000000
C	0.000033	0.863600	1.099446
C	0.000052	2.247508	0.776721
H	0.000026	0.494801	2.136088
C	0.000074	2.468165	-0.612546
S	0.000024	0.942399	-1.486809
C	0.000075	3.335257	1.814609
H	0.000074	2.909620	2.836676
H	-0.892314	3.989552	1.726239
H	0.892483	3.989525	1.726228
H	0.000094	3.417382	-1.161575
H	-1.417779	-4.392713	0.216843
H	-0.520136	-4.392347	-1.337652
H	-0.540100	-1.440937	0.935250
$end

$rem
JOBTYPE		SP
EXCHANGE	HF
CORRELATION	pRIMP2
BASIS		cc-pvtz
METHOD		rimp2
AUX_BASIS	rimp2-cc-pvtz
SOLVENT_METHOD	PCM
PURECART	11111
SYMMETRY	false
MEM_TOTAL	110000
SCF_CONVERGENCE = 6
THRESH=10
$end



$solvent
dielectric 4.90
$end
--------------------------------------------------------------
 ----------------------------------------------------------------
             Standard Nuclear Orientation (Angstroms)
    I     Atom           X                Y                Z
 ----------------------------------------------------------------
    1      C      -0.6709240000    -3.8667250000    -0.3881810000
    2      C       0.5306480000    -3.7039630000     0.3060200000
    3      C       0.9237030000    -2.3570560000     0.5333780000
    4      H       1.1285790000    -4.5610920000     0.6510430000
    5      C       0.0000000000    -1.4406640000     0.0000000000
    6      S      -1.3375670000    -2.2869570000    -0.7722340000
    7      C       2.1838570000    -1.9787430000     1.2611920000
    8      H       2.7425480000    -2.8786780000     1.5836660000
    9      H       1.9704970000    -1.3760150000     2.1686410000
   10      H       2.8630990000    -1.3757280000     0.6230120000
   11      C       0.0000000000     0.0000000000     0.0000000000
   12      C       0.0000330000     0.8636000000     1.0994460000
   13      C       0.0000520000     2.2475080000     0.7767210000
   14      H       0.0000260000     0.4948010000     2.1360880000
   15      C       0.0000740000     2.4681650000    -0.6125460000
   16      S       0.0000240000     0.9423990000    -1.4868090000
   17      C       0.0000750000     3.3352570000     1.8146090000
   18      H       0.0000740000     2.9096200000     2.8366760000
   19      H      -0.8923140000     3.9895520000     1.7262390000
   20      H       0.8924830000     3.9895250000     1.7262280000
   21      H       0.0000940000     3.4173820000    -1.1615750000
   22      H      -1.4177790000    -4.3927130000     0.2168430000
   23      H      -0.5201360000    -4.3923470000    -1.3376520000
   24      H      -0.5401000000    -1.4409370000     0.9352500000
 ----------------------------------------------------------------
 Nuclear Repulsion Energy =         872.22171252 hartrees
 There are       52 alpha and       52 beta electrons

 Q-Chem warning in module forms1/BasisType.C, line 2236:

 You are not using the predefined 5D/6D in this basis set.

 Requested basis set is cc-pVTZ
 There are 196 shells and 536 basis functions

 Total QAlloc Memory Limit 110000 MB
 Mega-Array Size       188 MB
 MEM_STATIC part       192 MB
 Discretize the solute cavity surface with Lebedev spheres
	Using 110 Lebedev grid points for each H atom
	Using 194 Lebedev grid points for other atoms
	Atomic van der Waals radii will be scaled by 1.20
 Remove points where switching function is < 1.0e-08
 Keep 1610 surface tesserae and discard 2038 interior tesserae
 Molecular Surface Area = 238.595 Angst**2
 Requested basis set is rimp2-cc-pVTZ
 There are 414 shells and 1414 basis functions
 A cutoff of  1.0D-10 yielded  13962 shell pairs
 There are    101240 function pairs (    129856 Cartesian)
 Smallest overlap matrix eigenvalue = 5.92E-05

 Scale SEOQF with 1.000000e-01/1.000000e-01/1.000000e-01

 Standard Electronic Orientation quadrupole field applied
 Nucleus-field energy     =     0.0000000334 hartrees
 Guess from superposition of atomic densities
 Warning:  Energy on first SCF cycle will be non-variational
 SAD guess density has 104.000000 electrons

 -----------------------------------------------------------------------
  General SCF calculation program by
  Eric Jon Sundstrom, Paul Horn, Yuezhi Mao, Dmitri Zuev, Alec White,
  David Stuck, Shaama M.S., Shane Yost, Joonho Lee, David Small,
  Daniel Levine, Susi Lehtola, Hugh Burton, Evgeny Epifanovsky,
  Bang C. Huynh
 -----------------------------------------------------------------------
 Hartree-Fock
 A restricted SCF calculation will be
 performed using DIIS
 SCF converges when DIIS error is below 1.0e-06
 ---------------------------------------
  Cycle       Energy         DIIS error
 ---------------------------------------
    1   -1186.0185118272      2.39e-02  
    2   -1180.6197237206      1.55e-03  
    3   -1180.7437020925      6.03e-04  
    4   -1180.7577007107      3.36e-04  
    5   -1180.7627993749      5.83e-05  
    6   -1180.7630339250      2.38e-05  
    7   -1180.7630883025      8.54e-06  
    8   -1180.7631004548      4.13e-06  
    9   -1180.7631031787      1.43e-06  
   10   -1180.7631036214      5.01e-07  Convergence criterion met
 ---------------------------------------
 SCF time:   CPU 568.30s  wall 571.00s 

************** Final PCM Free Energy Summary **************
 G_electrostatic  =      -0.00948182 hartree =      -5.94993494 kcal/mol
 G_cavitation     =       0.00000000 hartree =       0.00000000 kcal/mol
 G_dispersion     =       0.00000000 hartree =       0.00000000 kcal/mol
 G_repulsion      =       0.00000000 hartree =       0.00000000 kcal/mol
 --------------------------------------------------
 Non-electrostatic Free Energy =       0.00000000 hartree =       0.00000000 kcal/mol
 Total                         =      -0.00948182 hartree =      -5.94993494 kcal/mol
 --------------------------------------------------
 SCF Energy (H0 + V/2)                       =   -1180.76310362 
 Solute Internal Energy (H0)                 =   -1180.75362180 
 Total Free Energy (H0 + V/2 + non-elec)     =   -1180.76310362 hartree
                                             = -740940.03052976 kcal/mol
***********************************************************

 SCF   energy in the final basis set =    -1180.7631036214
 Total energy in the final basis set =    -1180.7631036214


 --------------------------------------------------------------
  Generalized many-body perturbation theory program
  by Joonho Lee, Fazle Rob, Xintian Feng, Evgeny Epifanovsky

 No regularization used 
 (reg. param. = 0.0000e+00)
  (P|Q)^-1/2 Time:  CPU 1.90 s  wall 1.91 s

 In RI-MP2 calculation: 
 # of frozen core orbitals: 20

 Components of the RIMP2 correlation energy:
        aaaa    correlation energy =        -0.2511578311 a.u.
        abab    correlation energy =        -1.5024851346 a.u.
        bbbb    correlation energy =        -0.2511578311 a.u.
        non-Brillouin singles      =        -0.0000000000 a.u.
        total same-spin energy     =        -0.5023156621 a.u.
        total opposite-spin energy =        -1.5024851346 a.u.

 Total  RIMP2   correlation energy =        -2.0048007967 a.u.
        RIMP2         total energy =     -1182.7679044180 a.u.

 RI-MP2 Energy Time:  CPU 80.45 s  wall 80.75 s
 
 --------------------------------------------------------------
 
                    Orbital Energies (a.u.)
 --------------------------------------------------------------
 
 Alpha MOs
 -- Occupied --
-91.9813 -91.9430 -11.2839 -11.2637 -11.2617 -11.2568 -11.2508 -11.2416
-11.2403 -11.2321 -11.2292 -11.2199  -8.9811  -8.9476  -6.6620  -6.6615
 -6.6609  -6.6290  -6.6279  -6.6267  -1.1990  -1.1533  -1.0586  -1.0276
 -1.0042  -0.9609  -0.9124  -0.9008  -0.8166  -0.7605  -0.7328  -0.7042
 -0.6610  -0.6430  -0.6105  -0.5900  -0.5823  -0.5706  -0.5632  -0.5525
 -0.5421  -0.5308  -0.5152  -0.5061  -0.4894  -0.4821  -0.4623  -0.4476
 -0.3562  -0.3418  -0.3171  -0.2762
 -- Virtual --
  0.0980   0.1320   0.1428   0.1506   0.1579   0.1710   0.1727   0.1854
  0.1923   0.1968   0.2035   0.2167   0.2213   0.2315   0.2354   0.2430
  0.2522   0.2607   0.2761   0.2973   0.3123   0.3411   0.3435   0.3585
  0.3675   0.3730   0.3824   0.3903   0.3976   0.4029   0.4099   0.4141
  0.4324   0.4396   0.4469   0.4653   0.4698   0.4812   0.4857   0.4919
  0.4969   0.5099   0.5168   0.5232   0.5336   0.5381   0.5469   0.5605
  0.5681   0.5738   0.5867   0.5952   0.6018   0.6081   0.6084   0.6172
  0.6244   0.6281   0.6314   0.6408   0.6430   0.6494   0.6507   0.6521
  0.6621   0.6676   0.6831   0.6835   0.6944   0.7027   0.7124   0.7211
  0.7310   0.7423   0.7653   0.7693   0.7830   0.7886   0.8123   0.8221
  0.8330   0.8337   0.8548   0.8686   0.8758   0.8914   0.9034   0.9187
  0.9272   0.9404   0.9443   0.9609   0.9717   0.9873   1.0024   1.0073
  1.0110   1.0270   1.0391   1.0437   1.0530   1.0619   1.0783   1.0797
  1.0875   1.0958   1.1157   1.1200   1.1311   1.1480   1.1606   1.1770
  1.1807   1.1935   1.1974   1.2008   1.2177   1.2203   1.2321   1.2420
  1.2533   1.2603   1.2635   1.2723   1.2769   1.2786   1.3090   1.3257
  1.3390   1.3481   1.3546   1.3767   1.3846   1.3865   1.3944   1.4111
  1.4147   1.4329   1.4524   1.4637   1.4742   1.4784   1.4851   1.4933
  1.5094   1.5157   1.5210   1.5289   1.5369   1.5441   1.5463   1.5527
  1.5752   1.5779   1.5908   1.6010   1.6097   1.6168   1.6235   1.6350
  1.6526   1.6618   1.6822   1.6906   1.7015   1.7140   1.7253   1.7436
  1.7489   1.7590   1.7730   1.7907   1.8101   1.8211   1.8371   1.8638
  1.8735   1.9139   1.9172   1.9415   1.9437   1.9584   1.9965   2.0068
  2.0195   2.0336   2.0415   2.0526   2.0648   2.1323   2.1399   2.1463
  2.1867   2.2024   2.2072   2.2229   2.2353   2.2576   2.2659   2.2835
  2.2890   2.3182   2.3206   2.3727   2.4017   2.4502   2.4690   2.4771
  2.4903   2.5219   2.5253   2.5373   2.5740   2.5911   2.6046   2.6213
  2.6329   2.6400   2.6546   2.6627   2.6743   2.6841   2.7061   2.7293
  2.7355   2.7475   2.7582   2.7668   2.7817   2.7862   2.7985   2.8227
  2.8451   2.8509   2.8531   2.8708   2.8986   2.8992   2.9068   2.9206
  2.9255   2.9430   2.9610   2.9702   3.0042   3.0115   3.0224   3.0398
  3.0533   3.0743   3.0903   3.1043   3.1124   3.1167   3.1335   3.1437
  3.1552   3.1599   3.1664   3.1790   3.1815   3.1843   3.1980   3.2223
  3.2303   3.2374   3.2511   3.2618   3.2794   3.2877   3.3029   3.3083
  3.3095   3.3260   3.3303   3.3364   3.3448   3.3514   3.3564   3.3647
  3.3773   3.3853   3.3873   3.3960   3.4005   3.4179   3.4266   3.4295
  3.4393   3.4480   3.4564   3.4670   3.4791   3.4864   3.4975   3.5008
  3.5196   3.5280   3.5322   3.5405   3.5503   3.5586   3.5681   3.5787
  3.5882   3.5952   3.6150   3.6173   3.6326   3.6392   3.6494   3.6525
  3.6656   3.6703   3.6863   3.7017   3.7111   3.7280   3.7306   3.7348
  3.7459   3.7568   3.7605   3.7824   3.7927   3.7963   3.8049   3.8189
  3.8355   3.8423   3.8574   3.8700   3.8755   3.8952   3.9041   3.9202
  3.9308   3.9392   3.9417   3.9605   3.9787   3.9965   4.0066   4.0138
  4.0235   4.0344   4.0456   4.0560   4.0682   4.0819   4.0934   4.1006
  4.1278   4.1305   4.1411   4.1510   4.1574   4.1727   4.1874   4.1904
  4.2123   4.2144   4.2285   4.2352   4.2428   4.2607   4.2716   4.2884
  4.2971   4.3049   4.3125   4.3218   4.3376   4.3510   4.3648   4.3754
  4.3794   4.3849   4.4006   4.4069   4.4133   4.4259   4.4297   4.4463
  4.4566   4.4693   4.4788   4.4841   4.5147   4.5183   4.5340   4.5383
  4.5783   4.5992   4.6116   4.6165   4.6360   4.6502   4.6546   4.6722
  4.6782   4.7175   4.7399   4.7511   4.7829   4.8144   4.8314   4.8356
  4.8511   4.8694   4.8982   4.9164   4.9346   4.9737   4.9814   4.9852
  5.0136   5.0610   5.0932   5.1139   5.1192   5.1259   5.1438   5.1762
  5.2042   5.2159   5.2379   5.2688   5.2783   5.2851   5.3061   5.3294
  5.3385   5.3586   5.3781   5.3897   5.4109   5.4289   5.4387   5.4474
  5.4763   5.5230   5.5255   5.5424   5.5497   5.5614   5.5696   5.5982
  5.6204   5.6229   5.6279   5.6558   5.6678   5.6958   5.7081   5.7346
  5.7759   5.7975   5.8331   5.9639   6.0291   6.1110   6.1294   6.1666
  6.2119   6.2220   6.2266   6.2288   6.2534   6.2790   6.3089   6.3255
  6.3813   6.5379   9.3798  10.6613  12.0311  12.9657  13.2044  13.8979
 14.0979  14.1941  14.3719  14.8808
 --------------------------------------------------------------
 
          Ground-State Mulliken Net Atomic Charges

     Atom                 Charge (a.u.)
  ----------------------------------------
      1 C                    -0.076891
      2 C                    -0.327254
      3 C                    -0.033299
      4 H                     0.176757
      5 C                     0.094783
      6 S                    -0.174067
      7 C                    -0.267660
      8 H                     0.115129
      9 H                     0.098770
     10 H                     0.110412
     11 C                    -0.079189
     12 C                    -0.249656
     13 C                     0.018188
     14 H                     0.186402
     15 C                    -0.244497
     16 S                     0.007676
     17 C                    -0.272579
     18 H                     0.101605
     19 H                     0.108815
     20 H                     0.108111
     21 H                     0.196403
     22 H                     0.112147
     23 H                     0.111853
     24 H                     0.178041
  ----------------------------------------
  Sum of atomic charges =     0.000000

 -----------------------------------------------------------------
                    Cartesian Multipole Moments
 -----------------------------------------------------------------
    Charge (ESU x 10^10)
                -0.0000
    Dipole Moment (Debye)
         X       1.6934      Y       0.3231      Z       3.3683
       Tot       3.7838
    Quadrupole Moments (Debye-Ang)
        XX     -91.4108     XY      -2.2530     YY     -73.5566
        XZ      -0.0822     YZ      -1.8389     ZZ     -86.3077
    Octopole Moments (Debye-Ang^2)
       XXX       2.7334    XXY      40.0293    XYY      -2.0751
       YYY     122.8500    XXZ       2.0909    XYZ      -1.8715
       YYZ      -2.0417    XZZ       0.8098    YZZ      54.6110
       ZZZ       1.5083
    Hexadecapole Moments (Debye-Ang^3)
      XXXX    -562.6382   XXXY     -20.7467   XXYY    -600.7767
      XYYY       3.5731   YYYY   -2782.1080   XXXZ    -118.9492
      XXYZ     -45.3510   XYYZ     -28.5954   YYYZ    -110.7236
      XXZZ    -214.4324   XYZZ      -7.3057   YYZZ    -616.2464
      XZZZ    -127.3579   YZZZ     -98.5331   ZZZZ    -687.1400
 -----------------------------------------------------------------
 Total job time:  653.47s(wall), 649.68s(cpu) 
 Sun Jul 10 01:48:12 2022

        *************************************************************
        *                                                           *
        *  Thank you very much for using Q-Chem.  Have a nice day.  *
        *                                                           *
        *************************************************************


remove work dirs ./qchem1867134.0 -- ./qchem1867134.-1
rm -rf ./qchem1867134
