You are running Q-Chem version: 5.4.0

#
# job setting
#
local host:  exp-1-30
current dir: /expanse/lustre/scratch/theleonzhang/temp_project/Hydrogenated_Rotation_Test
input file:  Methylthiophene_Phi_60_Theta_300_Methylthiophene_Hydrogenated.qcin
output file: 
nprocs     : 0
nthreads   : 1
#
# qchem installation setting
#
QC:          /cm/shared/apps/spack/cpu/opt/spack/linux-centos8-zen2/gcc-10.2.0/qchem-5.4-akfmr7b3t57bfs6qan3padb2wnb2i7cl
QCAUX:       /cm/shared/apps/spack/cpu/opt/spack/linux-centos8-zen2/gcc-10.2.0/qchem-5.4-akfmr7b3t57bfs6qan3padb2wnb2i7cl/qcaux
QCPROG:      /cm/shared/apps/spack/cpu/opt/spack/linux-centos8-zen2/gcc-10.2.0/qchem-5.4-akfmr7b3t57bfs6qan3padb2wnb2i7cl/exe/qcprog.exe_s
QCPROG_S:    /cm/shared/apps/spack/cpu/opt/spack/linux-centos8-zen2/gcc-10.2.0/qchem-5.4-akfmr7b3t57bfs6qan3padb2wnb2i7cl/exe/qcprog.exe_s
PARALLEL:    -DSERIAL
QCMPI:       mpich
#
# qchem directory setting
#
qcrun:       qchem820626
QCSCRATCH:   .
QCLOCALSCR:  
QCTMPDIR:    .
QCFILEPREF:  ./qchem820626
QCSAVEDIR:   
workdirs:    ./qchem820626
workdir0:    ./qchem820626
partmpdirs =  
#
# parallel setting
#
QCRSH:           ssh
QCMPI:           mpich
QCMPIRUN:        /cm/shared/apps/spack/cpu/opt/spack/linux-centos8-zen2/gcc-10.2.0/qchem-5.4-akfmr7b3t57bfs6qan3padb2wnb2i7cl/bin/mpi/mpirun_qchem
QCMACHINEFILE:   ./qchem820626/hostfile

#
# env setting
#
exported envs:   QC QCAUX QCSCRATCH QCRUNNAME QCFILEPREF QCPROG QCPROG_S GUIFILE

Running Job 1 of 1 Methylthiophene_Phi_60_Theta_300_Methylthiophene_Hydrogenated.qcin
qchem Methylthiophene_Phi_60_Theta_300_Methylthiophene_Hydrogenated.qcin_820626.0 ./qchem820626/ 0
/cm/shared/apps/spack/cpu/opt/spack/linux-centos8-zen2/gcc-10.2.0/qchem-5.4-akfmr7b3t57bfs6qan3padb2wnb2i7cl/exe/qcprog.exe_s Methylthiophene_Phi_60_Theta_300_Methylthiophene_Hydrogenated.qcin_820626.0 ./qchem820626/
                  Welcome to Q-Chem
     A Quantum Leap Into The Future Of Chemistry


 Q-Chem 5.4, Q-Chem, Inc., Pleasanton, CA (2021)

 License issued to: University of California, San Diego (site)

 E. Epifanovsky,  A. T. B. Gilbert,  Xintian Feng,  Joonho Lee,  Yuezhi Mao,  
 N. Mardirossian,  P. Pokhilko,  A. White,  M. Wormit,  M. P. Coons,  
 A. L. Dempwolff,  Zhengting Gan,  D. Hait,  P. R. Horn,  L. D. Jacobson,  
 I. Kaliman,  J. Kussmann,  A. W. Lange,  Ka Un Lao,  D. S. Levine,  Jie Liu,  
 S. C. McKenzie,  A. F. Morrison,  K. Nanda,  F. Plasser,  D. R. Rehn,  
 M. L. Vidal,  Zhi-Qiang You,  Ying Zhu,  B. Alam,  B. Albrecht,  
 A. Aldossary,  E. Alguire,  J. H. Andersen,  D. Barton,  K. Begam,  A. Behn,  
 Y. A. Bernard,  E. J. Berquist,  H. Burton,  A. Carreras,  K. Carter-Fenk,  
 R. Chakraborty,  A. D. Chien,  K. D. Closser,  V. Cofer-Shabica,  
 S. Dasgupta,  Jia Deng,  M. de Wergifosse,  M. Diedenhofen,  Hainam Do,  
 S. Ehlert,  Po-Tung Fang,  S. Fatehi,  Qingguo Feng,  J. Gayvert,  
 Qinghui Ge,  G. Gidofalvi,  M. Goldey,  J. Gomes,  C. Gonzalez-Espinoza,  
 S. Gulania,  A. Gunina,  M. W. D. Hanson-Heine,  P. H. P. Harbach,  
 A. W. Hauser,  M. F. Herbst,  M. Hernandez Vera,  M. Hodecker,  
 Z. C. Holden,  S. Houck,  Xunkun Huang,  Kerwin Hui,  B. C. Huynh,  
 M. Ivanov,  Hyunjun Ji,  Hanjie Jiang,  B. Kaduk,  S. Kaehler,  
 K. Khistyaev,  Jaehoon Kim,  P. Klunzinger,  Z. Koczor-Benda,  
 Joong Hoon Koh,  D. Kosenkov,  L. Koulias,  T. Kowalczyk,  C. M. Krauter,  
 K. Kue,  A. Kunitsa,  T. Kus,  A. Landau,  K. V. Lawler,  D. Lefrancois,  
 S. Lehtola,  Rain Li,  Yi-Pei Li,  Jiashu Liang,  M. Liebenthal,  
 Hung-Hsuan Lin,  You-Sheng Lin,  Fenglai Liu,  Kuan-Yu Liu,  
 M. Loipersberger,  A. Luenser,  A. Manjanath,  P. Manohar,  E. Mansoor,  
 S. F. Manzer,  Shan-Ping Mao,  A. V. Marenich,  T. Markovich,  S. Mason,  
 S. A. Maurer,  P. F. McLaughlin,  M. F. S. J. Menger,  J.-M. Mewes,  
 S. A. Mewes,  P. Morgante,  J. W. Mullinax,  T. S. Nguyen-Beck,  
 K. J. Oosterbaan,  G. Paran,  Alexander C. Paul,  Suranjan K. Paul,  
 F. Pavosevic,  Zheng Pei,  S. Prager,  E. I. Proynov,  E. Ramos,  B. Rana,  
 A. E. Rask,  A. Rettig,  R. M. Richard,  F. Rob,  E. Rossomme,  T. Scheele,  
 M. Scheurer,  M. Schneider,  N. Sergueev,  S. M. Sharada,  W. Skomorowski,  
 D. W. Small,  C. J. Stein,  Yu-Chuan Su,  E. J. Sundstrom,  Zhen Tao,  
 J. Thirman,  T. Tsuchimochi,  N. M. Tubman,  S. P. Veccham,  O. Vydrov,  
 J. Wenzel,  J. Witte,  A. Yamada,  Kun Yao,  S. Yeganeh,  S. R. Yost,  
 A. Zech,  Igor Ying Zhang,  Xing Zhang,  Yu Zhang,  D. Zuev,  
 A. Aspuru-Guzik,  A. T. Bell,  N. A. Besley,  K. B. Bravaya,  B. R. Brooks,  
 D. Casanova,  Jeng-Da Chai,  S. Coriani,  C. J. Cramer,  
 A. E. DePrince, III,  R. A. DiStasio Jr.,  A. Dreuw,  B. D. Dunietz,  
 T. R. Furlani,  W. A. Goddard III,  S. Grimme,  S. Hammes-Schiffer,  
 T. Head-Gordon,  W. J. Hehre,  Chao-Ping Hsu,  T.-C. Jagau,  Yousung Jung,  
 A. Klamt,  Jing Kong,  D. S. Lambrecht,  WanZhen Liang,  N. J. Mayhall,  
 C. W. McCurdy,  J. B. Neaton,  C. Ochsenfeld,  J. A. Parkhill,  R. Peverati,  
 V. A. Rassolov,  Yihan Shao,  L. V. Slipchenko,  T. Stauch,  R. P. Steele,  
 J. E. Subotnik,  A. J. W. Thom,  A. Tkatchenko,  D. G. Truhlar,  
 T. Van Voorhis,  T. A. Wesolowski,  K. B. Whaley,  H. L. Woodcock III,  
 P. M. Zimmerman,  S. Faraji,  P. M. W. Gill,  M. Head-Gordon,  
 J. M. Herbert,  A. I. Krylov

 Contributors to earlier versions of Q-Chem not listed above: 
 R. D. Adamson,  B. Austin,  R. Baer,  J. Baker,  G. J. O. Beran,  
 K. Brandhorst,  S. T. Brown,  E. F. C. Byrd,  A. K. Chakraborty,  
 G. K. L. Chan,  Chun-Min Chang,  Yunqing Chen,  C.-L. Cheng,  
 Siu Hung Chien,  D. M. Chipman,  D. L. Crittenden,  H. Dachsel,  
 R. J. Doerksen,  A. D. Dutoi,  R. G. Edgar,  J. Fosso-Tande,  
 L. Fusti-Molnar,  D. Ghosh,  A. Ghysels,  A. Golubeva-Zadorozhnaya,  
 J. Gonthier,  M. S. Gordon,  S. R. Gwaltney,  G. Hawkins,  J. E. Herr,  
 A. Heyden,  S. Hirata,  E. G. Hohenstein,  G. Kedziora,  F. J. Keil,  
 C. Kelley,  Jihan Kim,  R. A. King,  R. Z. Khaliullin,  P. P. Korambath,  
 W. Kurlancheek,  A. Laurent,  A. M. Lee,  M. S. Lee,  S. V. Levchenko,  
 Ching Yeh Lin,  D. Liotard,  E. Livshits,  R. C. Lochan,  I. Lotan,  
 L. A. Martinez-Martinez,  P. E. Maslen,  N. Nair,  D. P. O'Neill,  
 D. Neuhauser,  E. Neuscamman,  C. M. Oana,  R. Olivares-Amaya,  R. Olson,  
 T. M. Perrine,  B. Peters,  P. A. Pieniazek,  A. Prociuk,  Y. M. Rhee,  
 J. Ritchie,  M. A. Rohrdanz,  E. Rosta,  N. J. Russ,  H. F. Schaefer III,  
 M. W. Schmidt,  N. E. Schultz,  S. Sharma,  N. Shenvi,  C. D. Sherrill,  
 A. C. Simmonett,  A. Sodt,  T. Stein,  D. Stuck,  K. S. Thanthiriwatte,  
 V. Vanovschi,  L. Vogt,  Tao Wang,  A. Warshel,  M. A. Watson,  
 C. F. Williams,  Q. Wu,  X. Xu,  Jun Yang,  W. Zhang,  Yan Zhao

 Please cite Q-Chem as follows:
 Y. Shao et al., Mol. Phys. 113, 184-215 (2015)
 DOI: 10.1080/00268976.2014.952696

 Q-Chem 5.4.0 for Intel X86 EM64T Linux

 Parts of Q-Chem use Armadillo 9.800.1 (Horizon Scraper).
 http://arma.sourceforge.net/

 Q-Chem begins on Sun Jul 10 05:42:52 2022  

 Host: 
0

     Scratch files written to ./qchem820626//
 May1621 |scratch|qcdevops|jenkins|workspace|build_RNUM    
 Processing $rem in /cm/shared/apps/spack/cpu/opt/spack/linux-centos8-zen2/gcc-10.2.0/qchem-5.4-akfmr7b3t57bfs6qan3padb2wnb2i7cl/config/preferences:
 Processing $rem in /home/theleonzhang/.qchemrc:
 Symmetry turned off for PCM/SM12/SMD calculation
 Core orbitals will be frozen

 Checking the input file for inconsistencies... 	...done.

--------------------------------------------------------------
User input:
--------------------------------------------------------------
$molecule
0 1
C	0.670924	-3.866725	0.388181
C	-0.530648	-3.703963	-0.306020
C	-0.923703	-2.357056	-0.533378
H	-1.128579	-4.561092	-0.651043
C	0.000000	-1.440664	0.000000
S	1.337567	-2.286957	0.772234
C	-2.183857	-1.978743	-1.261192
H	-2.742548	-2.878678	-1.583666
H	-1.970497	-1.376015	-2.168641
H	-2.863099	-1.375728	-0.623012
C	0.000000	0.000000	0.000000
C	0.747916	0.431772	1.099446
C	1.946425	1.123709	0.776721
H	0.428523	0.247378	2.136088
C	2.137531	1.234018	-0.612546
S	0.816154	0.471179	-1.486809
C	2.888455	1.667564	1.814609
H	2.519842	1.454746	2.836676
H	3.008896	2.767543	1.726239
H	3.901271	1.221850	1.726228
H	2.959587	1.708609	-1.161575
H	1.417779	-4.392713	-0.216843
H	0.520136	-4.392347	1.337652
H	-0.540100	-1.440391	0.935250
$end

$rem
JOBTYPE		SP
EXCHANGE	HF
CORRELATION	pRIMP2
BASIS		cc-pvtz
METHOD		rimp2
AUX_BASIS	rimp2-cc-pvtz
SOLVENT_METHOD	PCM
PURECART	11111
SYMMETRY	false
MEM_TOTAL	110000
SCF_CONVERGENCE = 6
THRESH=10
$end



$solvent
dielectric 4.90
$end
--------------------------------------------------------------
 ----------------------------------------------------------------
             Standard Nuclear Orientation (Angstroms)
    I     Atom           X                Y                Z
 ----------------------------------------------------------------
    1      C       0.6709240000    -3.8667250000     0.3881810000
    2      C      -0.5306480000    -3.7039630000    -0.3060200000
    3      C      -0.9237030000    -2.3570560000    -0.5333780000
    4      H      -1.1285790000    -4.5610920000    -0.6510430000
    5      C       0.0000000000    -1.4406640000     0.0000000000
    6      S       1.3375670000    -2.2869570000     0.7722340000
    7      C      -2.1838570000    -1.9787430000    -1.2611920000
    8      H      -2.7425480000    -2.8786780000    -1.5836660000
    9      H      -1.9704970000    -1.3760150000    -2.1686410000
   10      H      -2.8630990000    -1.3757280000    -0.6230120000
   11      C       0.0000000000     0.0000000000     0.0000000000
   12      C       0.7479160000     0.4317720000     1.0994460000
   13      C       1.9464250000     1.1237090000     0.7767210000
   14      H       0.4285230000     0.2473780000     2.1360880000
   15      C       2.1375310000     1.2340180000    -0.6125460000
   16      S       0.8161540000     0.4711790000    -1.4868090000
   17      C       2.8884550000     1.6675640000     1.8146090000
   18      H       2.5198420000     1.4547460000     2.8366760000
   19      H       3.0088960000     2.7675430000     1.7262390000
   20      H       3.9012710000     1.2218500000     1.7262280000
   21      H       2.9595870000     1.7086090000    -1.1615750000
   22      H       1.4177790000    -4.3927130000    -0.2168430000
   23      H       0.5201360000    -4.3923470000     1.3376520000
   24      H      -0.5401000000    -1.4403910000     0.9352500000
 ----------------------------------------------------------------
 Nuclear Repulsion Energy =         902.26436195 hartrees
 There are       52 alpha and       52 beta electrons

 Q-Chem warning in module forms1/BasisType.C, line 2236:

 You are not using the predefined 5D/6D in this basis set.

 Requested basis set is cc-pVTZ
 There are 196 shells and 536 basis functions

 Total QAlloc Memory Limit 110000 MB
 Mega-Array Size       188 MB
 MEM_STATIC part       192 MB
 Discretize the solute cavity surface with Lebedev spheres
	Using 110 Lebedev grid points for each H atom
	Using 194 Lebedev grid points for other atoms
	Atomic van der Waals radii will be scaled by 1.20
 Remove points where switching function is < 1.0e-08
 Keep 1577 surface tesserae and discard 2071 interior tesserae
 Molecular Surface Area = 232.481 Angst**2
 Requested basis set is rimp2-cc-pVTZ
 There are 414 shells and 1414 basis functions
 A cutoff of  1.0D-10 yielded  14421 shell pairs
 There are    104591 function pairs (    134109 Cartesian)
 Smallest overlap matrix eigenvalue = 6.41E-05

 Scale SEOQF with 1.000000e-01/1.000000e-01/1.000000e-01

 Standard Electronic Orientation quadrupole field applied
 Nucleus-field energy     =     0.0000000279 hartrees
 Guess from superposition of atomic densities
 Warning:  Energy on first SCF cycle will be non-variational
 SAD guess density has 104.000000 electrons

 -----------------------------------------------------------------------
  General SCF calculation program by
  Eric Jon Sundstrom, Paul Horn, Yuezhi Mao, Dmitri Zuev, Alec White,
  David Stuck, Shaama M.S., Shane Yost, Joonho Lee, David Small,
  Daniel Levine, Susi Lehtola, Hugh Burton, Evgeny Epifanovsky,
  Bang C. Huynh
 -----------------------------------------------------------------------
 Hartree-Fock
 A restricted SCF calculation will be
 performed using DIIS
 SCF converges when DIIS error is below 1.0e-06
 ---------------------------------------
  Cycle       Energy         DIIS error
 ---------------------------------------
    1   -1186.1562847846      2.41e-02  
    2   -1180.5506803627      1.52e-03  
    3   -1180.6761713322      5.09e-04  
    4   -1180.6890722863      2.56e-04  
    5   -1180.6921700120      4.91e-05  
    6   -1180.6924035060      2.12e-05  
    7   -1180.6924663065      1.07e-05  
    8   -1180.6924872256      4.95e-06  
    9   -1180.6924928352      2.44e-06  
   10   -1180.6924939233      8.02e-07  Convergence criterion met
 ---------------------------------------
 SCF time:   CPU 611.23s  wall 613.00s 

************** Final PCM Free Energy Summary **************
 G_electrostatic  =      -0.00969079 hartree =      -6.08106080 kcal/mol
 G_cavitation     =       0.00000000 hartree =       0.00000000 kcal/mol
 G_dispersion     =       0.00000000 hartree =       0.00000000 kcal/mol
 G_repulsion      =       0.00000000 hartree =       0.00000000 kcal/mol
 --------------------------------------------------
 Non-electrostatic Free Energy =       0.00000000 hartree =       0.00000000 kcal/mol
 Total                         =      -0.00969079 hartree =      -6.08106080 kcal/mol
 --------------------------------------------------
 SCF Energy (H0 + V/2)                       =   -1180.69249392 
 Solute Internal Energy (H0)                 =   -1180.68280314 
 Total Free Energy (H0 + V/2 + non-elec)     =   -1180.69249392 hartree
                                             = -740895.72227548 kcal/mol
***********************************************************

 SCF   energy in the final basis set =    -1180.6924939233
 Total energy in the final basis set =    -1180.6924939233


 --------------------------------------------------------------
  Generalized many-body perturbation theory program
  by Joonho Lee, Fazle Rob, Xintian Feng, Evgeny Epifanovsky

 No regularization used 
 (reg. param. = 0.0000e+00)
  (P|Q)^-1/2 Time:  CPU 1.94 s  wall 1.95 s

 In RI-MP2 calculation: 
 # of frozen core orbitals: 20

 Components of the RIMP2 correlation energy:
        aaaa    correlation energy =        -0.2546075489 a.u.
        abab    correlation energy =        -1.5125456172 a.u.
        bbbb    correlation energy =        -0.2546075489 a.u.
        non-Brillouin singles      =        -0.0000000000 a.u.
        total same-spin energy     =        -0.5092150979 a.u.
        total opposite-spin energy =        -1.5125456172 a.u.

 Total  RIMP2   correlation energy =        -2.0217607151 a.u.
        RIMP2         total energy =     -1182.7142546384 a.u.

 RI-MP2 Energy Time:  CPU 82.66 s  wall 82.98 s
 
 --------------------------------------------------------------
 
                    Orbital Energies (a.u.)
 --------------------------------------------------------------
 
 Alpha MOs
 -- Occupied --
-91.9767 -91.9346 -11.2896 -11.2634 -11.2547 -11.2544 -11.2498 -11.2488
-11.2357 -11.2308 -11.2288 -11.2126  -8.9778  -8.9397  -6.6586  -6.6577
 -6.6575  -6.6210  -6.6200  -6.6187  -1.2054  -1.1538  -1.0584  -1.0239
 -1.0092  -0.9557  -0.9116  -0.9020  -0.8107  -0.7650  -0.7401  -0.6942
 -0.6554  -0.6369  -0.6149  -0.5913  -0.5785  -0.5772  -0.5648  -0.5493
 -0.5391  -0.5360  -0.5114  -0.5057  -0.4902  -0.4633  -0.4500  -0.4417
 -0.3542  -0.3373  -0.3203  -0.2682
 -- Virtual --
  0.0547   0.1360   0.1390   0.1528   0.1596   0.1700   0.1759   0.1822
  0.1897   0.2027   0.2081   0.2099   0.2250   0.2324   0.2397   0.2436
  0.2501   0.2585   0.2749   0.2962   0.3037   0.3204   0.3410   0.3471
  0.3633   0.3715   0.3754   0.3810   0.3988   0.4104   0.4184   0.4250
  0.4285   0.4354   0.4466   0.4658   0.4691   0.4765   0.4812   0.4921
  0.5010   0.5088   0.5141   0.5293   0.5353   0.5421   0.5494   0.5610
  0.5696   0.5824   0.5863   0.5926   0.6009   0.6088   0.6183   0.6214
  0.6290   0.6325   0.6334   0.6365   0.6407   0.6488   0.6512   0.6610
  0.6686   0.6764   0.6839   0.6925   0.6998   0.7123   0.7199   0.7301
  0.7380   0.7545   0.7605   0.7703   0.7781   0.7917   0.8012   0.8215
  0.8371   0.8408   0.8560   0.8631   0.8826   0.8897   0.9089   0.9190
  0.9312   0.9394   0.9585   0.9806   0.9895   1.0086   1.0136   1.0180
  1.0205   1.0394   1.0434   1.0500   1.0549   1.0693   1.0784   1.0875
  1.0969   1.1053   1.1137   1.1334   1.1483   1.1570   1.1668   1.1752
  1.1883   1.1921   1.2042   1.2143   1.2236   1.2361   1.2492   1.2543
  1.2630   1.2683   1.2739   1.2781   1.2803   1.2952   1.3053   1.3136
  1.3223   1.3447   1.3619   1.3761   1.3805   1.3880   1.3950   1.4125
  1.4242   1.4305   1.4442   1.4533   1.4693   1.4795   1.4829   1.4941
  1.5138   1.5238   1.5273   1.5318   1.5409   1.5486   1.5507   1.5587
  1.5711   1.5753   1.5856   1.5919   1.6054   1.6271   1.6313   1.6415
  1.6512   1.6573   1.6733   1.6904   1.7031   1.7213   1.7284   1.7302
  1.7357   1.7541   1.7768   1.7779   1.7917   1.8262   1.8519   1.8779
  1.8905   1.9101   1.9402   1.9492   1.9620   1.9875   1.9959   2.0047
  2.0312   2.0402   2.0523   2.0717   2.0816   2.0941   2.1299   2.1550
  2.1760   2.1914   2.1932   2.2160   2.2279   2.2566   2.2704   2.2806
  2.3040   2.3421   2.3497   2.3735   2.4110   2.4270   2.4559   2.4784
  2.5005   2.5201   2.5272   2.5525   2.5748   2.5926   2.6145   2.6367
  2.6393   2.6547   2.6648   2.6802   2.6924   2.6981   2.7258   2.7375
  2.7477   2.7569   2.7742   2.7863   2.8012   2.8150   2.8161   2.8189
  2.8555   2.8641   2.8864   2.8897   2.8981   2.9079   2.9311   2.9332
  2.9475   2.9573   2.9850   2.9949   3.0064   3.0195   3.0283   3.0378
  3.0516   3.0624   3.1061   3.1102   3.1184   3.1255   3.1379   3.1507
  3.1661   3.1704   3.1726   3.1853   3.1943   3.1980   3.2034   3.2120
  3.2311   3.2431   3.2538   3.2582   3.2659   3.2698   3.2904   3.3088
  3.3174   3.3258   3.3318   3.3422   3.3442   3.3536   3.3568   3.3724
  3.3796   3.3925   3.3936   3.4030   3.4111   3.4164   3.4226   3.4331
  3.4453   3.4581   3.4639   3.4798   3.4921   3.4991   3.5070   3.5146
  3.5262   3.5320   3.5374   3.5509   3.5619   3.5695   3.5815   3.5839
  3.5959   3.6038   3.6172   3.6337   3.6390   3.6452   3.6505   3.6664
  3.6782   3.6918   3.7036   3.7116   3.7223   3.7342   3.7407   3.7463
  3.7565   3.7668   3.7725   3.7838   3.7928   3.8152   3.8225   3.8316
  3.8391   3.8532   3.8685   3.8792   3.8842   3.9035   3.9120   3.9216
  3.9386   3.9533   3.9702   3.9757   3.9773   4.0066   4.0132   4.0266
  4.0333   4.0398   4.0548   4.0732   4.0882   4.0887   4.1026   4.1211
  4.1368   4.1449   4.1525   4.1621   4.1745   4.1853   4.1967   4.2091
  4.2134   4.2303   4.2434   4.2559   4.2613   4.2668   4.2735   4.2842
  4.2968   4.3070   4.3282   4.3413   4.3484   4.3597   4.3636   4.3758
  4.3859   4.4013   4.4054   4.4152   4.4209   4.4230   4.4308   4.4580
  4.4635   4.4694   4.4807   4.4855   4.5052   4.5367   4.5524   4.5670
  4.5824   4.6025   4.6104   4.6279   4.6387   4.6504   4.6691   4.6786
  4.6876   4.7231   4.7294   4.7526   4.7740   4.8248   4.8347   4.8424
  4.8725   4.8853   4.8894   4.9259   4.9379   4.9487   4.9604   5.0139
  5.0195   5.0509   5.0919   5.1121   5.1158   5.1306   5.1421   5.1535
  5.1753   5.2161   5.2238   5.2762   5.2876   5.2958   5.3120   5.3180
  5.3480   5.3669   5.3895   5.3968   5.4058   5.4147   5.4437   5.4538
  5.4702   5.5079   5.5312   5.5445   5.5497   5.5620   5.5676   5.5993
  5.6271   5.6325   5.6361   5.6762   5.6917   5.7040   5.7151   5.7500
  5.7744   5.7915   5.8121   5.9743   6.0124   6.0436   6.0909   6.1372
  6.2001   6.2175   6.2246   6.2313   6.2549   6.2732   6.2960   6.3309
  6.3945   6.4135   9.4677  10.5353  12.6884  12.8351  13.1932  13.9164
 14.1388  14.2654  14.2990  14.6954
 --------------------------------------------------------------
 
          Ground-State Mulliken Net Atomic Charges

     Atom                 Charge (a.u.)
  ----------------------------------------
      1 C                    -0.088538
      2 C                    -0.322579
      3 C                    -0.067467
      4 H                     0.173397
      5 C                     0.088112
      6 S                    -0.193365
      7 C                    -0.276390
      8 H                     0.112969
      9 H                     0.104947
     10 H                     0.103068
     11 C                    -0.157513
     12 C                    -0.149730
     13 C                    -0.005406
     14 H                     0.193681
     15 C                    -0.160924
     16 S                     0.014267
     17 C                    -0.266977
     18 H                     0.104016
     19 H                     0.110462
     20 H                     0.107853
     21 H                     0.201458
     22 H                     0.109369
     23 H                     0.105299
     24 H                     0.159990
  ----------------------------------------
  Sum of atomic charges =     0.000000

 -----------------------------------------------------------------
                    Cartesian Multipole Moments
 -----------------------------------------------------------------
    Charge (ESU x 10^10)
                -0.0000
    Dipole Moment (Debye)
         X       0.3652      Y       0.9119      Z       1.2663
       Tot       1.6027
    Quadrupole Moments (Debye-Ang)
        XX     -82.4074     XY       9.6122     YY     -83.5986
        XZ       0.9428     YZ       1.1694     ZZ     -85.0975
    Octopole Moments (Debye-Ang^2)
       XXX    -156.9628    XXY      98.3265    XYY     -52.8177
       YYY     212.6794    XXZ      -7.3682    XYZ      -3.8629
       YYZ       0.3365    XZZ     -54.0035    YZZ      86.3020
       ZZZ       7.4187
    Hexadecapole Moments (Debye-Ang^3)
      XXXX   -1244.3954   XXXY    -148.1835   XXYY    -582.5619
      XYYY    -201.1799   YYYY   -2191.8840   XXXZ    -214.3396
      XXYZ      -9.1508   XYYZ     -59.5820   YYYZ     -52.5033
      XXZZ    -315.6746   XYZZ     -53.0820   YYZZ    -511.3162
      XZZZ    -207.2124   YZZZ     -44.4656   ZZZZ    -679.7666
 -----------------------------------------------------------------
 Total job time:  700.02s(wall), 694.84s(cpu) 
 Sun Jul 10 05:54:32 2022

        *************************************************************
        *                                                           *
        *  Thank you very much for using Q-Chem.  Have a nice day.  *
        *                                                           *
        *************************************************************


remove work dirs ./qchem820626.0 -- ./qchem820626.-1
rm -rf ./qchem820626
