You are running Q-Chem version: 5.4.0

#
# job setting
#
local host:  exp-6-05
current dir: /expanse/lustre/scratch/theleonzhang/temp_project/Hydrogenated_Rotation_Test
input file:  Methylthiophene_Phi_40_Theta_270_Methylthiophene_Hydrogenated_Alternate.qcin
output file: 
nprocs     : 0
nthreads   : 1
#
# qchem installation setting
#
QC:          /cm/shared/apps/spack/cpu/opt/spack/linux-centos8-zen2/gcc-10.2.0/qchem-5.4-akfmr7b3t57bfs6qan3padb2wnb2i7cl
QCAUX:       /cm/shared/apps/spack/cpu/opt/spack/linux-centos8-zen2/gcc-10.2.0/qchem-5.4-akfmr7b3t57bfs6qan3padb2wnb2i7cl/qcaux
QCPROG:      /cm/shared/apps/spack/cpu/opt/spack/linux-centos8-zen2/gcc-10.2.0/qchem-5.4-akfmr7b3t57bfs6qan3padb2wnb2i7cl/exe/qcprog.exe_s
QCPROG_S:    /cm/shared/apps/spack/cpu/opt/spack/linux-centos8-zen2/gcc-10.2.0/qchem-5.4-akfmr7b3t57bfs6qan3padb2wnb2i7cl/exe/qcprog.exe_s
PARALLEL:    -DSERIAL
QCMPI:       mpich
#
# qchem directory setting
#
qcrun:       qchem2585329
QCSCRATCH:   .
QCLOCALSCR:  
QCTMPDIR:    .
QCFILEPREF:  ./qchem2585329
QCSAVEDIR:   
workdirs:    ./qchem2585329
workdir0:    ./qchem2585329
partmpdirs =  
#
# parallel setting
#
QCRSH:           ssh
QCMPI:           mpich
QCMPIRUN:        /cm/shared/apps/spack/cpu/opt/spack/linux-centos8-zen2/gcc-10.2.0/qchem-5.4-akfmr7b3t57bfs6qan3padb2wnb2i7cl/bin/mpi/mpirun_qchem
QCMACHINEFILE:   ./qchem2585329/hostfile

#
# env setting
#
exported envs:   QC QCAUX QCSCRATCH QCRUNNAME QCFILEPREF QCPROG QCPROG_S GUIFILE

Running Job 1 of 1 Methylthiophene_Phi_40_Theta_270_Methylthiophene_Hydrogenated_Alternate.qcin
qchem Methylthiophene_Phi_40_Theta_270_Methylthiophene_Hydrogenated_Alternate.qcin_2585329.0 ./qchem2585329/ 0
/cm/shared/apps/spack/cpu/opt/spack/linux-centos8-zen2/gcc-10.2.0/qchem-5.4-akfmr7b3t57bfs6qan3padb2wnb2i7cl/exe/qcprog.exe_s Methylthiophene_Phi_40_Theta_270_Methylthiophene_Hydrogenated_Alternate.qcin_2585329.0 ./qchem2585329/
                  Welcome to Q-Chem
     A Quantum Leap Into The Future Of Chemistry


 Q-Chem 5.4, Q-Chem, Inc., Pleasanton, CA (2021)

 License issued to: University of California, San Diego (site)

 E. Epifanovsky,  A. T. B. Gilbert,  Xintian Feng,  Joonho Lee,  Yuezhi Mao,  
 N. Mardirossian,  P. Pokhilko,  A. White,  M. Wormit,  M. P. Coons,  
 A. L. Dempwolff,  Zhengting Gan,  D. Hait,  P. R. Horn,  L. D. Jacobson,  
 I. Kaliman,  J. Kussmann,  A. W. Lange,  Ka Un Lao,  D. S. Levine,  Jie Liu,  
 S. C. McKenzie,  A. F. Morrison,  K. Nanda,  F. Plasser,  D. R. Rehn,  
 M. L. Vidal,  Zhi-Qiang You,  Ying Zhu,  B. Alam,  B. Albrecht,  
 A. Aldossary,  E. Alguire,  J. H. Andersen,  D. Barton,  K. Begam,  A. Behn,  
 Y. A. Bernard,  E. J. Berquist,  H. Burton,  A. Carreras,  K. Carter-Fenk,  
 R. Chakraborty,  A. D. Chien,  K. D. Closser,  V. Cofer-Shabica,  
 S. Dasgupta,  Jia Deng,  M. de Wergifosse,  M. Diedenhofen,  Hainam Do,  
 S. Ehlert,  Po-Tung Fang,  S. Fatehi,  Qingguo Feng,  J. Gayvert,  
 Qinghui Ge,  G. Gidofalvi,  M. Goldey,  J. Gomes,  C. Gonzalez-Espinoza,  
 S. Gulania,  A. Gunina,  M. W. D. Hanson-Heine,  P. H. P. Harbach,  
 A. W. Hauser,  M. F. Herbst,  M. Hernandez Vera,  M. Hodecker,  
 Z. C. Holden,  S. Houck,  Xunkun Huang,  Kerwin Hui,  B. C. Huynh,  
 M. Ivanov,  Hyunjun Ji,  Hanjie Jiang,  B. Kaduk,  S. Kaehler,  
 K. Khistyaev,  Jaehoon Kim,  P. Klunzinger,  Z. Koczor-Benda,  
 Joong Hoon Koh,  D. Kosenkov,  L. Koulias,  T. Kowalczyk,  C. M. Krauter,  
 K. Kue,  A. Kunitsa,  T. Kus,  A. Landau,  K. V. Lawler,  D. Lefrancois,  
 S. Lehtola,  Rain Li,  Yi-Pei Li,  Jiashu Liang,  M. Liebenthal,  
 Hung-Hsuan Lin,  You-Sheng Lin,  Fenglai Liu,  Kuan-Yu Liu,  
 M. Loipersberger,  A. Luenser,  A. Manjanath,  P. Manohar,  E. Mansoor,  
 S. F. Manzer,  Shan-Ping Mao,  A. V. Marenich,  T. Markovich,  S. Mason,  
 S. A. Maurer,  P. F. McLaughlin,  M. F. S. J. Menger,  J.-M. Mewes,  
 S. A. Mewes,  P. Morgante,  J. W. Mullinax,  T. S. Nguyen-Beck,  
 K. J. Oosterbaan,  G. Paran,  Alexander C. Paul,  Suranjan K. Paul,  
 F. Pavosevic,  Zheng Pei,  S. Prager,  E. I. Proynov,  E. Ramos,  B. Rana,  
 A. E. Rask,  A. Rettig,  R. M. Richard,  F. Rob,  E. Rossomme,  T. Scheele,  
 M. Scheurer,  M. Schneider,  N. Sergueev,  S. M. Sharada,  W. Skomorowski,  
 D. W. Small,  C. J. Stein,  Yu-Chuan Su,  E. J. Sundstrom,  Zhen Tao,  
 J. Thirman,  T. Tsuchimochi,  N. M. Tubman,  S. P. Veccham,  O. Vydrov,  
 J. Wenzel,  J. Witte,  A. Yamada,  Kun Yao,  S. Yeganeh,  S. R. Yost,  
 A. Zech,  Igor Ying Zhang,  Xing Zhang,  Yu Zhang,  D. Zuev,  
 A. Aspuru-Guzik,  A. T. Bell,  N. A. Besley,  K. B. Bravaya,  B. R. Brooks,  
 D. Casanova,  Jeng-Da Chai,  S. Coriani,  C. J. Cramer,  
 A. E. DePrince, III,  R. A. DiStasio Jr.,  A. Dreuw,  B. D. Dunietz,  
 T. R. Furlani,  W. A. Goddard III,  S. Grimme,  S. Hammes-Schiffer,  
 T. Head-Gordon,  W. J. Hehre,  Chao-Ping Hsu,  T.-C. Jagau,  Yousung Jung,  
 A. Klamt,  Jing Kong,  D. S. Lambrecht,  WanZhen Liang,  N. J. Mayhall,  
 C. W. McCurdy,  J. B. Neaton,  C. Ochsenfeld,  J. A. Parkhill,  R. Peverati,  
 V. A. Rassolov,  Yihan Shao,  L. V. Slipchenko,  T. Stauch,  R. P. Steele,  
 J. E. Subotnik,  A. J. W. Thom,  A. Tkatchenko,  D. G. Truhlar,  
 T. Van Voorhis,  T. A. Wesolowski,  K. B. Whaley,  H. L. Woodcock III,  
 P. M. Zimmerman,  S. Faraji,  P. M. W. Gill,  M. Head-Gordon,  
 J. M. Herbert,  A. I. Krylov

 Contributors to earlier versions of Q-Chem not listed above: 
 R. D. Adamson,  B. Austin,  R. Baer,  J. Baker,  G. J. O. Beran,  
 K. Brandhorst,  S. T. Brown,  E. F. C. Byrd,  A. K. Chakraborty,  
 G. K. L. Chan,  Chun-Min Chang,  Yunqing Chen,  C.-L. Cheng,  
 Siu Hung Chien,  D. M. Chipman,  D. L. Crittenden,  H. Dachsel,  
 R. J. Doerksen,  A. D. Dutoi,  R. G. Edgar,  J. Fosso-Tande,  
 L. Fusti-Molnar,  D. Ghosh,  A. Ghysels,  A. Golubeva-Zadorozhnaya,  
 J. Gonthier,  M. S. Gordon,  S. R. Gwaltney,  G. Hawkins,  J. E. Herr,  
 A. Heyden,  S. Hirata,  E. G. Hohenstein,  G. Kedziora,  F. J. Keil,  
 C. Kelley,  Jihan Kim,  R. A. King,  R. Z. Khaliullin,  P. P. Korambath,  
 W. Kurlancheek,  A. Laurent,  A. M. Lee,  M. S. Lee,  S. V. Levchenko,  
 Ching Yeh Lin,  D. Liotard,  E. Livshits,  R. C. Lochan,  I. Lotan,  
 L. A. Martinez-Martinez,  P. E. Maslen,  N. Nair,  D. P. O'Neill,  
 D. Neuhauser,  E. Neuscamman,  C. M. Oana,  R. Olivares-Amaya,  R. Olson,  
 T. M. Perrine,  B. Peters,  P. A. Pieniazek,  A. Prociuk,  Y. M. Rhee,  
 J. Ritchie,  M. A. Rohrdanz,  E. Rosta,  N. J. Russ,  H. F. Schaefer III,  
 M. W. Schmidt,  N. E. Schultz,  S. Sharma,  N. Shenvi,  C. D. Sherrill,  
 A. C. Simmonett,  A. Sodt,  T. Stein,  D. Stuck,  K. S. Thanthiriwatte,  
 V. Vanovschi,  L. Vogt,  Tao Wang,  A. Warshel,  M. A. Watson,  
 C. F. Williams,  Q. Wu,  X. Xu,  Jun Yang,  W. Zhang,  Yan Zhao

 Please cite Q-Chem as follows:
 Y. Shao et al., Mol. Phys. 113, 184-215 (2015)
 DOI: 10.1080/00268976.2014.952696

 Q-Chem 5.4.0 for Intel X86 EM64T Linux

 Parts of Q-Chem use Armadillo 9.800.1 (Horizon Scraper).
 http://arma.sourceforge.net/

 Q-Chem begins on Sun Jul 10 05:17:40 2022  

 Host: 
0

     Scratch files written to ./qchem2585329//
 May1621 |scratch|qcdevops|jenkins|workspace|build_RNUM    
 Processing $rem in /cm/shared/apps/spack/cpu/opt/spack/linux-centos8-zen2/gcc-10.2.0/qchem-5.4-akfmr7b3t57bfs6qan3padb2wnb2i7cl/config/preferences:
 Processing $rem in /home/theleonzhang/.qchemrc:
 Symmetry turned off for PCM/SM12/SMD calculation
 Core orbitals will be frozen

 Checking the input file for inconsistencies... 	...done.

--------------------------------------------------------------
User input:
--------------------------------------------------------------
$molecule
0 1
C	0.775127	-3.866725	0.000713
C	-0.612565	-3.703963	0.000302
C	-1.066639	-2.357056	-0.000067
H	-1.302900	-4.561092	0.000470
C	-0.000000	-1.440664	-0.000000
S	1.544483	-2.286957	-0.000009
C	-2.521872	-1.978743	-0.000295
H	-3.166949	-2.878678	-0.000221
H	-2.790821	-1.376015	-0.892850
H	-2.791023	-1.375728	0.892005
C	0.000000	0.000000	0.000000
C	0.555137	0.661535	1.099446
C	1.444710	1.721658	0.776721
H	0.318072	0.379023	2.136088
C	1.586563	1.890676	-0.612546
S	0.605781	0.721904	-1.486809
C	2.143920	2.554907	1.814609
H	1.870325	2.228851	2.836676
H	1.880882	3.629742	1.726239
H	3.248098	2.482476	1.726228
H	2.196723	2.617806	-1.161575
H	1.119411	-4.392713	-0.896681
H	1.119277	-4.392347	0.898372
H	0.000115	-1.440937	-1.080000
$end

$rem
JOBTYPE		SP
EXCHANGE	HF
CORRELATION	pRIMP2
BASIS		cc-pvtz
METHOD		rimp2
AUX_BASIS	rimp2-cc-pvtz
SOLVENT_METHOD	PCM
PURECART	11111
SYMMETRY	false
MEM_TOTAL	110000
SCF_CONVERGENCE = 6
THRESH=10
$end



$solvent
dielectric 4.90
$end
--------------------------------------------------------------
 ----------------------------------------------------------------
             Standard Nuclear Orientation (Angstroms)
    I     Atom           X                Y                Z
 ----------------------------------------------------------------
    1      C       0.7751270000    -3.8667250000     0.0007130000
    2      C      -0.6125650000    -3.7039630000     0.0003020000
    3      C      -1.0666390000    -2.3570560000    -0.0000670000
    4      H      -1.3029000000    -4.5610920000     0.0004700000
    5      C       0.0000000000    -1.4406640000     0.0000000000
    6      S       1.5444830000    -2.2869570000    -0.0000090000
    7      C      -2.5218720000    -1.9787430000    -0.0002950000
    8      H      -3.1669490000    -2.8786780000    -0.0002210000
    9      H      -2.7908210000    -1.3760150000    -0.8928500000
   10      H      -2.7910230000    -1.3757280000     0.8920050000
   11      C       0.0000000000     0.0000000000     0.0000000000
   12      C       0.5551370000     0.6615350000     1.0994460000
   13      C       1.4447100000     1.7216580000     0.7767210000
   14      H       0.3180720000     0.3790230000     2.1360880000
   15      C       1.5865630000     1.8906760000    -0.6125460000
   16      S       0.6057810000     0.7219040000    -1.4868090000
   17      C       2.1439200000     2.5549070000     1.8146090000
   18      H       1.8703250000     2.2288510000     2.8366760000
   19      H       1.8808820000     3.6297420000     1.7262390000
   20      H       3.2480980000     2.4824760000     1.7262280000
   21      H       2.1967230000     2.6178060000    -1.1615750000
   22      H       1.1194110000    -4.3927130000    -0.8966810000
   23      H       1.1192770000    -4.3923470000     0.8983720000
   24      H       0.0001150000    -1.4409370000    -1.0800000000
 ----------------------------------------------------------------
 Nuclear Repulsion Energy =         884.97880426 hartrees
 There are       52 alpha and       52 beta electrons

 Q-Chem warning in module forms1/BasisType.C, line 2236:

 You are not using the predefined 5D/6D in this basis set.

 Requested basis set is cc-pVTZ
 There are 196 shells and 536 basis functions

 Total QAlloc Memory Limit 110000 MB
 Mega-Array Size       188 MB
 MEM_STATIC part       192 MB
 Discretize the solute cavity surface with Lebedev spheres
	Using 110 Lebedev grid points for each H atom
	Using 194 Lebedev grid points for other atoms
	Atomic van der Waals radii will be scaled by 1.20
 Remove points where switching function is < 1.0e-08
 Keep 1594 surface tesserae and discard 2054 interior tesserae
 Molecular Surface Area = 236.678 Angst**2
 Requested basis set is rimp2-cc-pVTZ
 There are 414 shells and 1414 basis functions
 A cutoff of  1.0D-10 yielded  14060 shell pairs
 There are    101676 function pairs (    130396 Cartesian)
 Smallest overlap matrix eigenvalue = 6.90E-05

 Scale SEOQF with 1.000000e-01/1.000000e-01/1.000000e-01

 Standard Electronic Orientation quadrupole field applied
 Nucleus-field energy     =     0.0000000345 hartrees
 Guess from superposition of atomic densities
 Warning:  Energy on first SCF cycle will be non-variational
 SAD guess density has 104.000000 electrons

 -----------------------------------------------------------------------
  General SCF calculation program by
  Eric Jon Sundstrom, Paul Horn, Yuezhi Mao, Dmitri Zuev, Alec White,
  David Stuck, Shaama M.S., Shane Yost, Joonho Lee, David Small,
  Daniel Levine, Susi Lehtola, Hugh Burton, Evgeny Epifanovsky,
  Bang C. Huynh
 -----------------------------------------------------------------------
 Hartree-Fock
 A restricted SCF calculation will be
 performed using DIIS
 SCF converges when DIIS error is below 1.0e-06
 ---------------------------------------
  Cycle       Energy         DIIS error
 ---------------------------------------
    1   -1186.0760329421      2.40e-02  
    2   -1180.5855837949      1.54e-03  
    3   -1180.7110183088      5.54e-04  
    4   -1180.7242911059      2.93e-04  
    5   -1180.7282675915      5.98e-05  
    6   -1180.7285155608      2.49e-05  
    7   -1180.7285817470      1.04e-05  
    8   -1180.7285993412      4.96e-06  
    9   -1180.7286039370      1.84e-06  
   10   -1180.7286046932      6.15e-07  Convergence criterion met
 ---------------------------------------
 SCF time:   CPU 568.88s  wall 572.00s 

************** Final PCM Free Energy Summary **************
 G_electrostatic  =      -0.00914070 hartree =      -5.73587525 kcal/mol
 G_cavitation     =       0.00000000 hartree =       0.00000000 kcal/mol
 G_dispersion     =       0.00000000 hartree =       0.00000000 kcal/mol
 G_repulsion      =       0.00000000 hartree =       0.00000000 kcal/mol
 --------------------------------------------------
 Non-electrostatic Free Energy =       0.00000000 hartree =       0.00000000 kcal/mol
 Total                         =      -0.00914070 hartree =      -5.73587525 kcal/mol
 --------------------------------------------------
 SCF Energy (H0 + V/2)                       =   -1180.72860469 
 Solute Internal Energy (H0)                 =   -1180.71946399 
 Total Free Energy (H0 + V/2 + non-elec)     =   -1180.72860469 hartree
                                             = -740918.38212561 kcal/mol
***********************************************************

 SCF   energy in the final basis set =    -1180.7286046932
 Total energy in the final basis set =    -1180.7286046932


 --------------------------------------------------------------
  Generalized many-body perturbation theory program
  by Joonho Lee, Fazle Rob, Xintian Feng, Evgeny Epifanovsky

 No regularization used 
 (reg. param. = 0.0000e+00)
  (P|Q)^-1/2 Time:  CPU 1.90 s  wall 1.90 s

 In RI-MP2 calculation: 
 # of frozen core orbitals: 20

 Components of the RIMP2 correlation energy:
        aaaa    correlation energy =        -0.2523693064 a.u.
        abab    correlation energy =        -1.5069932511 a.u.
        bbbb    correlation energy =        -0.2523693064 a.u.
        non-Brillouin singles      =        -0.0000000000 a.u.
        total same-spin energy     =        -0.5047386128 a.u.
        total opposite-spin energy =        -1.5069932511 a.u.

 Total  RIMP2   correlation energy =        -2.0117318639 a.u.
        RIMP2         total energy =     -1182.7403365571 a.u.

 RI-MP2 Energy Time:  CPU 79.80 s  wall 80.08 s
 
 --------------------------------------------------------------
 
                    Orbital Energies (a.u.)
 --------------------------------------------------------------
 
 Alpha MOs
 -- Occupied --
-91.9834 -91.9376 -11.2757 -11.2650 -11.2581 -11.2513 -11.2509 -11.2474
-11.2383 -11.2301 -11.2291 -11.2140  -8.9837  -8.9425  -6.6645  -6.6638
 -6.6633  -6.6238  -6.6228  -6.6215  -1.1996  -1.1536  -1.0580  -1.0254
 -1.0011  -0.9630  -0.9111  -0.9003  -0.8099  -0.7619  -0.7429  -0.7028
 -0.6512  -0.6302  -0.6124  -0.5865  -0.5779  -0.5745  -0.5664  -0.5521
 -0.5416  -0.5313  -0.5080  -0.5068  -0.4883  -0.4719  -0.4641  -0.4461
 -0.3585  -0.3350  -0.3124  -0.2789
 -- Virtual --
  0.0723   0.1287   0.1423   0.1525   0.1603   0.1689   0.1758   0.1835
  0.1865   0.1995   0.2055   0.2192   0.2206   0.2337   0.2369   0.2450
  0.2469   0.2549   0.2701   0.2944   0.3083   0.3232   0.3416   0.3521
  0.3643   0.3771   0.3787   0.3831   0.3912   0.4007   0.4138   0.4202
  0.4274   0.4402   0.4456   0.4607   0.4688   0.4713   0.4855   0.4893
  0.4963   0.5067   0.5151   0.5239   0.5321   0.5357   0.5503   0.5622
  0.5678   0.5736   0.5870   0.6013   0.6074   0.6126   0.6163   0.6210
  0.6257   0.6278   0.6332   0.6393   0.6437   0.6442   0.6496   0.6551
  0.6647   0.6700   0.6757   0.6873   0.6952   0.7026   0.7184   0.7281
  0.7371   0.7448   0.7538   0.7680   0.7762   0.7982   0.8048   0.8194
  0.8245   0.8390   0.8457   0.8601   0.8712   0.8911   0.9115   0.9145
  0.9185   0.9421   0.9456   0.9612   0.9669   0.9873   0.9901   1.0157
  1.0281   1.0340   1.0395   1.0455   1.0572   1.0665   1.0707   1.0872
  1.0884   1.0964   1.1222   1.1306   1.1428   1.1482   1.1611   1.1738
  1.1768   1.1781   1.1973   1.2067   1.2135   1.2327   1.2368   1.2398
  1.2547   1.2611   1.2685   1.2728   1.2771   1.2836   1.3040   1.3159
  1.3270   1.3369   1.3578   1.3591   1.3773   1.3885   1.4027   1.4113
  1.4154   1.4315   1.4507   1.4537   1.4628   1.4770   1.4821   1.4962
  1.5056   1.5145   1.5205   1.5252   1.5355   1.5417   1.5552   1.5649
  1.5686   1.5787   1.5814   1.5837   1.6146   1.6260   1.6373   1.6473
  1.6568   1.6639   1.6708   1.6836   1.7028   1.7143   1.7220   1.7247
  1.7316   1.7557   1.7706   1.7859   1.7938   1.8086   1.8362   1.8504
  1.8774   1.9081   1.9296   1.9425   1.9552   1.9665   1.9847   2.0102
  2.0132   2.0218   2.0500   2.0593   2.0854   2.1048   2.1391   2.1582
  2.1815   2.1889   2.1928   2.2194   2.2290   2.2422   2.2569   2.2813
  2.2951   2.3347   2.3390   2.3777   2.4027   2.4452   2.4646   2.4821
  2.5011   2.5049   2.5164   2.5417   2.5719   2.6088   2.6177   2.6232
  2.6491   2.6527   2.6562   2.6658   2.6805   2.6886   2.6931   2.7216
  2.7434   2.7512   2.7776   2.7809   2.7897   2.7948   2.8086   2.8147
  2.8367   2.8505   2.8582   2.8846   2.8922   2.9009   2.9132   2.9266
  2.9457   2.9566   2.9767   2.9986   3.0003   3.0175   3.0334   3.0385
  3.0482   3.0648   3.0824   3.1104   3.1158   3.1240   3.1326   3.1449
  3.1494   3.1586   3.1659   3.1756   3.1888   3.2049   3.2111   3.2165
  3.2275   3.2415   3.2491   3.2540   3.2720   3.2809   3.2910   3.3032
  3.3184   3.3211   3.3276   3.3440   3.3480   3.3499   3.3560   3.3606
  3.3761   3.3808   3.3873   3.3963   3.4038   3.4101   3.4210   3.4277
  3.4344   3.4544   3.4614   3.4669   3.4883   3.4995   3.5024   3.5140
  3.5144   3.5299   3.5385   3.5497   3.5541   3.5601   3.5773   3.5876
  3.5977   3.6112   3.6298   3.6338   3.6459   3.6558   3.6596   3.6684
  3.6784   3.6968   3.7041   3.7103   3.7216   3.7240   3.7318   3.7478
  3.7508   3.7561   3.7708   3.7727   3.7890   3.7928   3.8035   3.8148
  3.8249   3.8481   3.8590   3.8748   3.8805   3.8936   3.9000   3.9157
  3.9420   3.9451   3.9538   3.9700   3.9736   3.9852   3.9884   4.0142
  4.0304   4.0364   4.0514   4.0557   4.0593   4.0787   4.1006   4.1130
  4.1168   4.1382   4.1444   4.1512   4.1715   4.1756   4.1940   4.2054
  4.2123   4.2180   4.2340   4.2429   4.2563   4.2620   4.2690   4.2860
  4.2922   4.3032   4.3115   4.3231   4.3370   4.3503   4.3583   4.3637
  4.3732   4.3918   4.4017   4.4031   4.4159   4.4202   4.4358   4.4516
  4.4563   4.4617   4.4736   4.4819   4.5100   4.5155   4.5266   4.5472
  4.5611   4.5799   4.6165   4.6226   4.6337   4.6502   4.6604   4.6696
  4.6994   4.7084   4.7216   4.7652   4.7915   4.8056   4.8252   4.8488
  4.8657   4.8908   4.9045   4.9129   4.9333   4.9370   4.9768   5.0007
  5.0153   5.0449   5.0584   5.1012   5.1086   5.1308   5.1480   5.1623
  5.1888   5.2223   5.2260   5.2640   5.2881   5.2940   5.3123   5.3164
  5.3426   5.3663   5.3763   5.3951   5.4041   5.4161   5.4453   5.4495
  5.4811   5.5095   5.5218   5.5407   5.5551   5.5606   5.5711   5.5891
  5.6185   5.6288   5.6433   5.6649   5.6861   5.7022   5.7144   5.7334
  5.7527   5.7884   5.8250   5.9502   6.0052   6.0308   6.0969   6.1309
  6.2028   6.2193   6.2261   6.2281   6.2451   6.2784   6.2889   6.3232
  6.3804   6.4299   9.3895  10.5034  12.3619  12.8535  13.1508  13.9019
 14.0674  14.2154  14.2830  14.5993
 --------------------------------------------------------------
 
          Ground-State Mulliken Net Atomic Charges

     Atom                 Charge (a.u.)
  ----------------------------------------
      1 C                    -0.074732
      2 C                    -0.329847
      3 C                    -0.045615
      4 H                     0.173800
      5 C                     0.064164
      6 S                    -0.179593
      7 C                    -0.271263
      8 H                     0.112680
      9 H                     0.102172
     10 H                     0.105017
     11 C                    -0.096107
     12 C                    -0.207102
     13 C                     0.030806
     14 H                     0.182516
     15 C                    -0.215726
     16 S                     0.014985
     17 C                    -0.268793
     18 H                     0.102870
     19 H                     0.107468
     20 H                     0.107412
     21 H                     0.200300
     22 H                     0.107921
     23 H                     0.110102
     24 H                     0.166566
  ----------------------------------------
  Sum of atomic charges =     0.000000

 -----------------------------------------------------------------
                    Cartesian Multipole Moments
 -----------------------------------------------------------------
    Charge (ESU x 10^10)
                -0.0000
    Dipole Moment (Debye)
         X      -0.7748      Y       0.9923      Z       0.8488
       Tot       1.5184
    Quadrupole Moments (Debye-Ang)
        XX     -87.0311     XY       9.3174     YY     -79.1303
        XZ       0.2069     YZ       1.9904     ZZ     -85.5228
    Octopole Moments (Debye-Ang^2)
       XXX    -133.2191    XXY      72.6607    XYY     -28.7368
       YYY     163.1213    XXZ      -2.4351    XYZ      -1.0594
       YYZ      -5.4498    XZZ     -37.7753    YZZ      71.1695
       ZZZ       5.1216
    Hexadecapole Moments (Debye-Ang^3)
      XXXX   -1100.9156   XXXY    -186.1957   XXYY    -588.4788
      XYYY    -214.2503   YYYY   -2481.0265   XXXZ     -67.3771
      XXYZ     -29.9069   XYYZ     -30.7726   YYYZ     -76.9511
      XXZZ    -276.9229   XYZZ     -70.4269   YYZZ    -542.1559
      XZZZ     -63.7901   YZZZ     -74.4694   ZZZZ    -533.7321
 -----------------------------------------------------------------
 Total job time:  654.07s(wall), 649.56s(cpu) 
 Sun Jul 10 05:28:34 2022

        *************************************************************
        *                                                           *
        *  Thank you very much for using Q-Chem.  Have a nice day.  *
        *                                                           *
        *************************************************************


remove work dirs ./qchem2585329.0 -- ./qchem2585329.-1
rm -rf ./qchem2585329
