You are running Q-Chem version: 5.4.0

#
# job setting
#
local host:  exp-6-05
current dir: /expanse/lustre/scratch/theleonzhang/temp_project/Hydrogenated_Rotation_Test
input file:  Methylthiophene_Phi_40_Theta_240_Methylthiophene_Hydrogenated_Alternate.qcin
output file: 
nprocs     : 0
nthreads   : 1
#
# qchem installation setting
#
QC:          /cm/shared/apps/spack/cpu/opt/spack/linux-centos8-zen2/gcc-10.2.0/qchem-5.4-akfmr7b3t57bfs6qan3padb2wnb2i7cl
QCAUX:       /cm/shared/apps/spack/cpu/opt/spack/linux-centos8-zen2/gcc-10.2.0/qchem-5.4-akfmr7b3t57bfs6qan3padb2wnb2i7cl/qcaux
QCPROG:      /cm/shared/apps/spack/cpu/opt/spack/linux-centos8-zen2/gcc-10.2.0/qchem-5.4-akfmr7b3t57bfs6qan3padb2wnb2i7cl/exe/qcprog.exe_s
QCPROG_S:    /cm/shared/apps/spack/cpu/opt/spack/linux-centos8-zen2/gcc-10.2.0/qchem-5.4-akfmr7b3t57bfs6qan3padb2wnb2i7cl/exe/qcprog.exe_s
PARALLEL:    -DSERIAL
QCMPI:       mpich
#
# qchem directory setting
#
qcrun:       qchem2572444
QCSCRATCH:   .
QCLOCALSCR:  
QCTMPDIR:    .
QCFILEPREF:  ./qchem2572444
QCSAVEDIR:   
workdirs:    ./qchem2572444
workdir0:    ./qchem2572444
partmpdirs =  
#
# parallel setting
#
QCRSH:           ssh
QCMPI:           mpich
QCMPIRUN:        /cm/shared/apps/spack/cpu/opt/spack/linux-centos8-zen2/gcc-10.2.0/qchem-5.4-akfmr7b3t57bfs6qan3padb2wnb2i7cl/bin/mpi/mpirun_qchem
QCMACHINEFILE:   ./qchem2572444/hostfile

#
# env setting
#
exported envs:   QC QCAUX QCSCRATCH QCRUNNAME QCFILEPREF QCPROG QCPROG_S GUIFILE

Running Job 1 of 1 Methylthiophene_Phi_40_Theta_240_Methylthiophene_Hydrogenated_Alternate.qcin
qchem Methylthiophene_Phi_40_Theta_240_Methylthiophene_Hydrogenated_Alternate.qcin_2572444.0 ./qchem2572444/ 0
/cm/shared/apps/spack/cpu/opt/spack/linux-centos8-zen2/gcc-10.2.0/qchem-5.4-akfmr7b3t57bfs6qan3padb2wnb2i7cl/exe/qcprog.exe_s Methylthiophene_Phi_40_Theta_240_Methylthiophene_Hydrogenated_Alternate.qcin_2572444.0 ./qchem2572444/
                  Welcome to Q-Chem
     A Quantum Leap Into The Future Of Chemistry


 Q-Chem 5.4, Q-Chem, Inc., Pleasanton, CA (2021)

 License issued to: University of California, San Diego (site)

 E. Epifanovsky,  A. T. B. Gilbert,  Xintian Feng,  Joonho Lee,  Yuezhi Mao,  
 N. Mardirossian,  P. Pokhilko,  A. White,  M. Wormit,  M. P. Coons,  
 A. L. Dempwolff,  Zhengting Gan,  D. Hait,  P. R. Horn,  L. D. Jacobson,  
 I. Kaliman,  J. Kussmann,  A. W. Lange,  Ka Un Lao,  D. S. Levine,  Jie Liu,  
 S. C. McKenzie,  A. F. Morrison,  K. Nanda,  F. Plasser,  D. R. Rehn,  
 M. L. Vidal,  Zhi-Qiang You,  Ying Zhu,  B. Alam,  B. Albrecht,  
 A. Aldossary,  E. Alguire,  J. H. Andersen,  D. Barton,  K. Begam,  A. Behn,  
 Y. A. Bernard,  E. J. Berquist,  H. Burton,  A. Carreras,  K. Carter-Fenk,  
 R. Chakraborty,  A. D. Chien,  K. D. Closser,  V. Cofer-Shabica,  
 S. Dasgupta,  Jia Deng,  M. de Wergifosse,  M. Diedenhofen,  Hainam Do,  
 S. Ehlert,  Po-Tung Fang,  S. Fatehi,  Qingguo Feng,  J. Gayvert,  
 Qinghui Ge,  G. Gidofalvi,  M. Goldey,  J. Gomes,  C. Gonzalez-Espinoza,  
 S. Gulania,  A. Gunina,  M. W. D. Hanson-Heine,  P. H. P. Harbach,  
 A. W. Hauser,  M. F. Herbst,  M. Hernandez Vera,  M. Hodecker,  
 Z. C. Holden,  S. Houck,  Xunkun Huang,  Kerwin Hui,  B. C. Huynh,  
 M. Ivanov,  Hyunjun Ji,  Hanjie Jiang,  B. Kaduk,  S. Kaehler,  
 K. Khistyaev,  Jaehoon Kim,  P. Klunzinger,  Z. Koczor-Benda,  
 Joong Hoon Koh,  D. Kosenkov,  L. Koulias,  T. Kowalczyk,  C. M. Krauter,  
 K. Kue,  A. Kunitsa,  T. Kus,  A. Landau,  K. V. Lawler,  D. Lefrancois,  
 S. Lehtola,  Rain Li,  Yi-Pei Li,  Jiashu Liang,  M. Liebenthal,  
 Hung-Hsuan Lin,  You-Sheng Lin,  Fenglai Liu,  Kuan-Yu Liu,  
 M. Loipersberger,  A. Luenser,  A. Manjanath,  P. Manohar,  E. Mansoor,  
 S. F. Manzer,  Shan-Ping Mao,  A. V. Marenich,  T. Markovich,  S. Mason,  
 S. A. Maurer,  P. F. McLaughlin,  M. F. S. J. Menger,  J.-M. Mewes,  
 S. A. Mewes,  P. Morgante,  J. W. Mullinax,  T. S. Nguyen-Beck,  
 K. J. Oosterbaan,  G. Paran,  Alexander C. Paul,  Suranjan K. Paul,  
 F. Pavosevic,  Zheng Pei,  S. Prager,  E. I. Proynov,  E. Ramos,  B. Rana,  
 A. E. Rask,  A. Rettig,  R. M. Richard,  F. Rob,  E. Rossomme,  T. Scheele,  
 M. Scheurer,  M. Schneider,  N. Sergueev,  S. M. Sharada,  W. Skomorowski,  
 D. W. Small,  C. J. Stein,  Yu-Chuan Su,  E. J. Sundstrom,  Zhen Tao,  
 J. Thirman,  T. Tsuchimochi,  N. M. Tubman,  S. P. Veccham,  O. Vydrov,  
 J. Wenzel,  J. Witte,  A. Yamada,  Kun Yao,  S. Yeganeh,  S. R. Yost,  
 A. Zech,  Igor Ying Zhang,  Xing Zhang,  Yu Zhang,  D. Zuev,  
 A. Aspuru-Guzik,  A. T. Bell,  N. A. Besley,  K. B. Bravaya,  B. R. Brooks,  
 D. Casanova,  Jeng-Da Chai,  S. Coriani,  C. J. Cramer,  
 A. E. DePrince, III,  R. A. DiStasio Jr.,  A. Dreuw,  B. D. Dunietz,  
 T. R. Furlani,  W. A. Goddard III,  S. Grimme,  S. Hammes-Schiffer,  
 T. Head-Gordon,  W. J. Hehre,  Chao-Ping Hsu,  T.-C. Jagau,  Yousung Jung,  
 A. Klamt,  Jing Kong,  D. S. Lambrecht,  WanZhen Liang,  N. J. Mayhall,  
 C. W. McCurdy,  J. B. Neaton,  C. Ochsenfeld,  J. A. Parkhill,  R. Peverati,  
 V. A. Rassolov,  Yihan Shao,  L. V. Slipchenko,  T. Stauch,  R. P. Steele,  
 J. E. Subotnik,  A. J. W. Thom,  A. Tkatchenko,  D. G. Truhlar,  
 T. Van Voorhis,  T. A. Wesolowski,  K. B. Whaley,  H. L. Woodcock III,  
 P. M. Zimmerman,  S. Faraji,  P. M. W. Gill,  M. Head-Gordon,  
 J. M. Herbert,  A. I. Krylov

 Contributors to earlier versions of Q-Chem not listed above: 
 R. D. Adamson,  B. Austin,  R. Baer,  J. Baker,  G. J. O. Beran,  
 K. Brandhorst,  S. T. Brown,  E. F. C. Byrd,  A. K. Chakraborty,  
 G. K. L. Chan,  Chun-Min Chang,  Yunqing Chen,  C.-L. Cheng,  
 Siu Hung Chien,  D. M. Chipman,  D. L. Crittenden,  H. Dachsel,  
 R. J. Doerksen,  A. D. Dutoi,  R. G. Edgar,  J. Fosso-Tande,  
 L. Fusti-Molnar,  D. Ghosh,  A. Ghysels,  A. Golubeva-Zadorozhnaya,  
 J. Gonthier,  M. S. Gordon,  S. R. Gwaltney,  G. Hawkins,  J. E. Herr,  
 A. Heyden,  S. Hirata,  E. G. Hohenstein,  G. Kedziora,  F. J. Keil,  
 C. Kelley,  Jihan Kim,  R. A. King,  R. Z. Khaliullin,  P. P. Korambath,  
 W. Kurlancheek,  A. Laurent,  A. M. Lee,  M. S. Lee,  S. V. Levchenko,  
 Ching Yeh Lin,  D. Liotard,  E. Livshits,  R. C. Lochan,  I. Lotan,  
 L. A. Martinez-Martinez,  P. E. Maslen,  N. Nair,  D. P. O'Neill,  
 D. Neuhauser,  E. Neuscamman,  C. M. Oana,  R. Olivares-Amaya,  R. Olson,  
 T. M. Perrine,  B. Peters,  P. A. Pieniazek,  A. Prociuk,  Y. M. Rhee,  
 J. Ritchie,  M. A. Rohrdanz,  E. Rosta,  N. J. Russ,  H. F. Schaefer III,  
 M. W. Schmidt,  N. E. Schultz,  S. Sharma,  N. Shenvi,  C. D. Sherrill,  
 A. C. Simmonett,  A. Sodt,  T. Stein,  D. Stuck,  K. S. Thanthiriwatte,  
 V. Vanovschi,  L. Vogt,  Tao Wang,  A. Warshel,  M. A. Watson,  
 C. F. Williams,  Q. Wu,  X. Xu,  Jun Yang,  W. Zhang,  Yan Zhao

 Please cite Q-Chem as follows:
 Y. Shao et al., Mol. Phys. 113, 184-215 (2015)
 DOI: 10.1080/00268976.2014.952696

 Q-Chem 5.4.0 for Intel X86 EM64T Linux

 Parts of Q-Chem use Armadillo 9.800.1 (Horizon Scraper).
 http://arma.sourceforge.net/

 Q-Chem begins on Sun Jul 10 04:44:48 2022  

 Host: 
0

     Scratch files written to ./qchem2572444//
 May1621 |scratch|qcdevops|jenkins|workspace|build_RNUM    
 Processing $rem in /cm/shared/apps/spack/cpu/opt/spack/linux-centos8-zen2/gcc-10.2.0/qchem-5.4-akfmr7b3t57bfs6qan3padb2wnb2i7cl/config/preferences:
 Processing $rem in /home/theleonzhang/.qchemrc:
 Symmetry turned off for PCM/SM12/SMD calculation
 Core orbitals will be frozen

 Checking the input file for inconsistencies... 	...done.

--------------------------------------------------------------
User input:
--------------------------------------------------------------
$molecule
0 1
C	0.671636	-3.866725	-0.386946
C	-0.530345	-3.703963	0.306544
C	-0.923770	-2.357056	0.533261
H	-1.128109	-4.561092	0.651857
C	-0.000000	-1.440664	-0.000000
S	1.337557	-2.286957	-0.772250
C	-2.184153	-1.978743	1.260680
H	-2.742769	-2.878678	1.583283
H	-2.863347	-1.376015	0.622180
H	-1.971094	-1.375728	2.168011
C	0.000000	0.000000	0.000000
C	0.555137	0.661535	1.099446
C	1.444710	1.721658	0.776721
H	0.318072	0.379023	2.136088
C	1.586563	1.890676	-0.612546
S	0.605781	0.721904	-1.486809
C	2.143920	2.554907	1.814609
H	1.870325	2.228851	2.836676
H	1.880882	3.629742	1.726239
H	3.248098	2.482476	1.726228
H	2.196723	2.617806	-1.161575
H	0.521098	-4.392713	-1.336254
H	1.418509	-4.392347	0.218374
H	0.539900	-1.440391	0.935365
$end

$rem
JOBTYPE		SP
EXCHANGE	HF
CORRELATION	pRIMP2
BASIS		cc-pvtz
METHOD		rimp2
AUX_BASIS	rimp2-cc-pvtz
SOLVENT_METHOD	PCM
PURECART	11111
SYMMETRY	false
MEM_TOTAL	110000
SCF_CONVERGENCE = 6
THRESH=10
$end



$solvent
dielectric 4.90
$end
--------------------------------------------------------------
 ----------------------------------------------------------------
             Standard Nuclear Orientation (Angstroms)
    I     Atom           X                Y                Z
 ----------------------------------------------------------------
    1      C       0.6716360000    -3.8667250000    -0.3869460000
    2      C      -0.5303450000    -3.7039630000     0.3065440000
    3      C      -0.9237700000    -2.3570560000     0.5332610000
    4      H      -1.1281090000    -4.5610920000     0.6518570000
    5      C       0.0000000000    -1.4406640000     0.0000000000
    6      S       1.3375570000    -2.2869570000    -0.7722500000
    7      C      -2.1841530000    -1.9787430000     1.2606800000
    8      H      -2.7427690000    -2.8786780000     1.5832830000
    9      H      -2.8633470000    -1.3760150000     0.6221800000
   10      H      -1.9710940000    -1.3757280000     2.1680110000
   11      C       0.0000000000     0.0000000000     0.0000000000
   12      C       0.5551370000     0.6615350000     1.0994460000
   13      C       1.4447100000     1.7216580000     0.7767210000
   14      H       0.3180720000     0.3790230000     2.1360880000
   15      C       1.5865630000     1.8906760000    -0.6125460000
   16      S       0.6057810000     0.7219040000    -1.4868090000
   17      C       2.1439200000     2.5549070000     1.8146090000
   18      H       1.8703250000     2.2288510000     2.8366760000
   19      H       1.8808820000     3.6297420000     1.7262390000
   20      H       3.2480980000     2.4824760000     1.7262280000
   21      H       2.1967230000     2.6178060000    -1.1615750000
   22      H       0.5210980000    -4.3927130000    -1.3362540000
   23      H       1.4185090000    -4.3923470000     0.2183740000
   24      H       0.5399000000    -1.4403910000     0.9353650000
 ----------------------------------------------------------------
 Nuclear Repulsion Energy =         886.03912986 hartrees
 There are       52 alpha and       52 beta electrons

 Q-Chem warning in module forms1/BasisType.C, line 2236:

 You are not using the predefined 5D/6D in this basis set.

 Requested basis set is cc-pVTZ
 There are 196 shells and 536 basis functions

 Total QAlloc Memory Limit 110000 MB
 Mega-Array Size       188 MB
 MEM_STATIC part       192 MB
 Discretize the solute cavity surface with Lebedev spheres
	Using 110 Lebedev grid points for each H atom
	Using 194 Lebedev grid points for other atoms
	Atomic van der Waals radii will be scaled by 1.20
 Remove points where switching function is < 1.0e-08
 Keep 1600 surface tesserae and discard 2048 interior tesserae
 Molecular Surface Area = 235.417 Angst**2
 Requested basis set is rimp2-cc-pVTZ
 There are 414 shells and 1414 basis functions
 A cutoff of  1.0D-10 yielded  14183 shell pairs
 There are    102685 function pairs (    131700 Cartesian)
 Smallest overlap matrix eigenvalue = 6.97E-05

 Scale SEOQF with 1.000000e-01/1.000000e-01/1.000000e-01

 Standard Electronic Orientation quadrupole field applied
 Nucleus-field energy     =     0.0000000304 hartrees
 Guess from superposition of atomic densities
 Warning:  Energy on first SCF cycle will be non-variational
 SAD guess density has 104.000000 electrons

 -----------------------------------------------------------------------
  General SCF calculation program by
  Eric Jon Sundstrom, Paul Horn, Yuezhi Mao, Dmitri Zuev, Alec White,
  David Stuck, Shaama M.S., Shane Yost, Joonho Lee, David Small,
  Daniel Levine, Susi Lehtola, Hugh Burton, Evgeny Epifanovsky,
  Bang C. Huynh
 -----------------------------------------------------------------------
 Hartree-Fock
 A restricted SCF calculation will be
 performed using DIIS
 SCF converges when DIIS error is below 1.0e-06
 ---------------------------------------
  Cycle       Energy         DIIS error
 ---------------------------------------
    1   -1186.0906076759      2.40e-02  
    2   -1180.5807346147      1.54e-03  
    3   -1180.7059027321      5.63e-04  
    4   -1180.7191697147      3.11e-04  
    5   -1180.7235809181      6.18e-05  
    6   -1180.7238435183      2.50e-05  
    7   -1180.7239116906      1.03e-05  
    8   -1180.7239297479      4.94e-06  
    9   -1180.7239345171      1.96e-06  
   10   -1180.7239353738      6.92e-07  Convergence criterion met
 ---------------------------------------
 SCF time:   CPU 573.12s  wall 576.00s 

************** Final PCM Free Energy Summary **************
 G_electrostatic  =      -0.00983523 hartree =      -6.17169967 kcal/mol
 G_cavitation     =       0.00000000 hartree =       0.00000000 kcal/mol
 G_dispersion     =       0.00000000 hartree =       0.00000000 kcal/mol
 G_repulsion      =       0.00000000 hartree =       0.00000000 kcal/mol
 --------------------------------------------------
 Non-electrostatic Free Energy =       0.00000000 hartree =       0.00000000 kcal/mol
 Total                         =      -0.00983523 hartree =      -6.17169967 kcal/mol
 --------------------------------------------------
 SCF Energy (H0 + V/2)                       =   -1180.72393537 
 Solute Internal Energy (H0)                 =   -1180.71410014 
 Total Free Energy (H0 + V/2 + non-elec)     =   -1180.72393537 hartree
                                             = -740915.45208345 kcal/mol
***********************************************************

 SCF   energy in the final basis set =    -1180.7239353738
 Total energy in the final basis set =    -1180.7239353738


 --------------------------------------------------------------
  Generalized many-body perturbation theory program
  by Joonho Lee, Fazle Rob, Xintian Feng, Evgeny Epifanovsky

 No regularization used 
 (reg. param. = 0.0000e+00)
  (P|Q)^-1/2 Time:  CPU 1.89 s  wall 1.90 s

 In RI-MP2 calculation: 
 # of frozen core orbitals: 20

 Components of the RIMP2 correlation energy:
        aaaa    correlation energy =        -0.2528580452 a.u.
        abab    correlation energy =        -1.5080695704 a.u.
        bbbb    correlation energy =        -0.2528580452 a.u.
        non-Brillouin singles      =        -0.0000000000 a.u.
        total same-spin energy     =        -0.5057160904 a.u.
        total opposite-spin energy =        -1.5080695704 a.u.

 Total  RIMP2   correlation energy =        -2.0137856608 a.u.
        RIMP2         total energy =     -1182.7377210346 a.u.

 RI-MP2 Energy Time:  CPU 79.90 s  wall 80.17 s
 
 --------------------------------------------------------------
 
                    Orbital Energies (a.u.)
 --------------------------------------------------------------
 
 Alpha MOs
 -- Occupied --
-91.9816 -91.9401 -11.2720 -11.2705 -11.2581 -11.2514 -11.2500 -11.2462
-11.2378 -11.2310 -11.2296 -11.2134  -8.9816  -8.9447  -6.6625  -6.6619
 -6.6614  -6.6260  -6.6250  -6.6237  -1.2009  -1.1528  -1.0576  -1.0272
 -1.0029  -0.9601  -0.9093  -0.9016  -0.8138  -0.7566  -0.7369  -0.7003
 -0.6607  -0.6402  -0.6096  -0.5876  -0.5834  -0.5707  -0.5633  -0.5515
 -0.5401  -0.5313  -0.5108  -0.5068  -0.4906  -0.4735  -0.4618  -0.4435
 -0.3558  -0.3384  -0.3181  -0.2677
 -- Virtual --
  0.0733   0.1350   0.1424   0.1555   0.1601   0.1700   0.1744   0.1817
  0.1936   0.1974   0.2050   0.2171   0.2221   0.2294   0.2358   0.2420
  0.2524   0.2526   0.2746   0.2938   0.3148   0.3327   0.3454   0.3507
  0.3695   0.3749   0.3771   0.3840   0.3910   0.3958   0.4096   0.4217
  0.4296   0.4382   0.4456   0.4585   0.4698   0.4749   0.4846   0.4955
  0.5059   0.5127   0.5184   0.5238   0.5335   0.5384   0.5481   0.5546
  0.5715   0.5816   0.5844   0.5911   0.6026   0.6115   0.6166   0.6183
  0.6265   0.6306   0.6359   0.6392   0.6406   0.6454   0.6517   0.6552
  0.6616   0.6736   0.6804   0.6931   0.6983   0.7049   0.7100   0.7234
  0.7377   0.7412   0.7490   0.7769   0.7921   0.7940   0.8022   0.8188
  0.8292   0.8346   0.8525   0.8570   0.8823   0.8858   0.8935   0.9065
  0.9124   0.9437   0.9558   0.9636   0.9714   0.9831   0.9959   1.0134
  1.0183   1.0387   1.0407   1.0476   1.0529   1.0597   1.0749   1.0843
  1.0897   1.1004   1.1147   1.1190   1.1437   1.1536   1.1646   1.1738
  1.1786   1.1870   1.1989   1.2016   1.2172   1.2261   1.2277   1.2463
  1.2485   1.2629   1.2654   1.2682   1.2844   1.2893   1.2992   1.3181
  1.3280   1.3402   1.3528   1.3698   1.3757   1.3895   1.4039   1.4160
  1.4293   1.4397   1.4504   1.4636   1.4661   1.4750   1.4836   1.4962
  1.4968   1.5154   1.5208   1.5351   1.5410   1.5453   1.5523   1.5622
  1.5637   1.5692   1.5741   1.5930   1.6119   1.6225   1.6228   1.6473
  1.6522   1.6605   1.6806   1.6931   1.7000   1.7230   1.7278   1.7348
  1.7433   1.7592   1.7635   1.7907   1.7972   1.8026   1.8338   1.8548
  1.8747   1.8980   1.9237   1.9482   1.9531   1.9721   1.9912   2.0011
  2.0187   2.0225   2.0450   2.0517   2.1044   2.1221   2.1329   2.1686
  2.1794   2.2031   2.2156   2.2288   2.2325   2.2385   2.2567   2.2790
  2.2949   2.3100   2.3385   2.3714   2.3939   2.4411   2.4578   2.4703
  2.4910   2.5043   2.5196   2.5472   2.5595   2.5945   2.6086   2.6202
  2.6284   2.6371   2.6603   2.6686   2.6772   2.6920   2.7106   2.7331
  2.7425   2.7590   2.7665   2.7765   2.7793   2.7887   2.8135   2.8229
  2.8368   2.8443   2.8713   2.8852   2.8943   2.8985   2.9120   2.9179
  2.9524   2.9601   2.9680   2.9811   3.0023   3.0134   3.0371   3.0380
  3.0468   3.0712   3.0941   3.1093   3.1125   3.1209   3.1321   3.1515
  3.1563   3.1601   3.1672   3.1757   3.1803   3.1986   3.2001   3.2050
  3.2359   3.2438   3.2521   3.2575   3.2779   3.2820   3.2937   3.3087
  3.3163   3.3210   3.3367   3.3422   3.3439   3.3611   3.3625   3.3755
  3.3843   3.3912   3.3978   3.3986   3.4104   3.4142   3.4207   3.4265
  3.4332   3.4442   3.4567   3.4714   3.4823   3.5034   3.5053   3.5126
  3.5140   3.5288   3.5328   3.5473   3.5512   3.5767   3.5813   3.5849
  3.5976   3.6147   3.6248   3.6302   3.6404   3.6482   3.6525   3.6534
  3.6732   3.6826   3.6844   3.7078   3.7135   3.7233   3.7315   3.7401
  3.7479   3.7644   3.7678   3.7733   3.7899   3.7958   3.8137   3.8297
  3.8420   3.8480   3.8582   3.8700   3.8795   3.9003   3.9054   3.9160
  3.9208   3.9485   3.9517   3.9689   3.9712   3.9819   4.0018   4.0157
  4.0214   4.0325   4.0549   4.0649   4.0768   4.0940   4.1001   4.1160
  4.1254   4.1297   4.1419   4.1572   4.1651   4.1724   4.1976   4.2040
  4.2131   4.2234   4.2310   4.2478   4.2596   4.2647   4.2687   4.2879
  4.3020   4.3063   4.3183   4.3270   4.3435   4.3476   4.3627   4.3711
  4.3820   4.3885   4.3985   4.4013   4.4092   4.4273   4.4414   4.4535
  4.4588   4.4661   4.4847   4.4914   4.5014   4.5186   4.5317   4.5580
  4.5891   4.5993   4.6086   4.6385   4.6406   4.6599   4.6663   4.6802
  4.6891   4.7288   4.7318   4.7508   4.7796   4.8262   4.8387   4.8563
  4.8698   4.8854   4.8983   4.9217   4.9271   4.9657   4.9831   5.0005
  5.0342   5.0627   5.0785   5.0999   5.1074   5.1337   5.1432   5.1628
  5.1757   5.2102   5.2313   5.2620   5.2799   5.2832   5.3109   5.3239
  5.3346   5.3578   5.3844   5.3954   5.4082   5.4323   5.4402   5.4533
  5.4895   5.5143   5.5208   5.5435   5.5521   5.5556   5.5673   5.5862
  5.6262   5.6297   5.6468   5.6538   5.6900   5.7036   5.7079   5.7292
  5.7747   5.7932   5.8189   5.9730   6.0086   6.0578   6.1072   6.1493
  6.2093   6.2204   6.2294   6.2301   6.2561   6.2772   6.2890   6.3218
  6.3811   6.4091   9.3795  10.4799  12.3720  12.8899  13.1702  13.9048
 14.1099  14.2142  14.3164  14.5985
 --------------------------------------------------------------
 
          Ground-State Mulliken Net Atomic Charges

     Atom                 Charge (a.u.)
  ----------------------------------------
      1 C                    -0.079534
      2 C                    -0.336161
      3 C                    -0.041751
      4 H                     0.172997
      5 C                     0.058048
      6 S                    -0.170145
      7 C                    -0.273901
      8 H                     0.113740
      9 H                     0.108085
     10 H                     0.099759
     11 C                    -0.082666
     12 C                    -0.205323
     13 C                     0.009996
     14 H                     0.184497
     15 C                    -0.218055
     16 S                     0.014934
     17 C                    -0.269478
     18 H                     0.101480
     19 H                     0.107891
     20 H                     0.107598
     21 H                     0.197696
     22 H                     0.108805
     23 H                     0.108658
     24 H                     0.182829
  ----------------------------------------
  Sum of atomic charges =     0.000000

 -----------------------------------------------------------------
                    Cartesian Multipole Moments
 -----------------------------------------------------------------
    Charge (ESU x 10^10)
                -0.0000
    Dipole Moment (Debye)
         X      -0.1901      Y       0.7140      Z       3.2902
       Tot       3.3721
    Quadrupole Moments (Debye-Ang)
        XX     -86.8029     XY       7.6877     YY     -79.7372
        XZ       0.6949     YZ      -2.0740     ZZ     -85.7574
    Octopole Moments (Debye-Ang^2)
       XXX    -130.8993    XXY      72.0495    XYY     -27.8675
       YYY     163.2352    XXZ       0.4586    XYZ       0.1147
       YYZ      -2.0178    XZZ     -40.6462    YZZ      69.9654
       ZZZ       1.2576
    Hexadecapole Moments (Debye-Ang^3)
      XXXX    -962.2052   XXXY    -202.7196   XXYY    -570.1468
      XYYY    -217.7774   YYYY   -2489.3121   XXXZ      54.7291
      XXYZ     -44.5059   XYYZ       2.0218   YYYZ     -79.2223
      XXZZ    -271.2327   XYZZ     -61.2931   YYZZ    -561.3189
      XZZZ      64.3935   YZZZ     -74.6892   ZZZZ    -683.7538
 -----------------------------------------------------------------
 Total job time:  658.07s(wall), 653.91s(cpu) 
 Sun Jul 10 04:55:46 2022

        *************************************************************
        *                                                           *
        *  Thank you very much for using Q-Chem.  Have a nice day.  *
        *                                                           *
        *************************************************************


remove work dirs ./qchem2572444.0 -- ./qchem2572444.-1
rm -rf ./qchem2572444
