You are running Q-Chem version: 5.4.0

#
# job setting
#
local host:  exp-2-29
current dir: /expanse/lustre/scratch/theleonzhang/temp_project/Hydrogenated_Rotation_Test
input file:  Methylthiophene_Phi_5_Theta_270_Methylthiophene_Hydrogenated.qcin
output file: 
nprocs     : 0
nthreads   : 1
#
# qchem installation setting
#
QC:          /cm/shared/apps/spack/cpu/opt/spack/linux-centos8-zen2/gcc-10.2.0/qchem-5.4-akfmr7b3t57bfs6qan3padb2wnb2i7cl
QCAUX:       /cm/shared/apps/spack/cpu/opt/spack/linux-centos8-zen2/gcc-10.2.0/qchem-5.4-akfmr7b3t57bfs6qan3padb2wnb2i7cl/qcaux
QCPROG:      /cm/shared/apps/spack/cpu/opt/spack/linux-centos8-zen2/gcc-10.2.0/qchem-5.4-akfmr7b3t57bfs6qan3padb2wnb2i7cl/exe/qcprog.exe_s
QCPROG_S:    /cm/shared/apps/spack/cpu/opt/spack/linux-centos8-zen2/gcc-10.2.0/qchem-5.4-akfmr7b3t57bfs6qan3padb2wnb2i7cl/exe/qcprog.exe_s
PARALLEL:    -DSERIAL
QCMPI:       mpich
#
# qchem directory setting
#
qcrun:       qchem397304
QCSCRATCH:   .
QCLOCALSCR:  
QCTMPDIR:    .
QCFILEPREF:  ./qchem397304
QCSAVEDIR:   
workdirs:    ./qchem397304
workdir0:    ./qchem397304
partmpdirs =  
#
# parallel setting
#
QCRSH:           ssh
QCMPI:           mpich
QCMPIRUN:        /cm/shared/apps/spack/cpu/opt/spack/linux-centos8-zen2/gcc-10.2.0/qchem-5.4-akfmr7b3t57bfs6qan3padb2wnb2i7cl/bin/mpi/mpirun_qchem
QCMACHINEFILE:   ./qchem397304/hostfile

#
# env setting
#
exported envs:   QC QCAUX QCSCRATCH QCRUNNAME QCFILEPREF QCPROG QCPROG_S GUIFILE

Running Job 1 of 1 Methylthiophene_Phi_5_Theta_270_Methylthiophene_Hydrogenated.qcin
qchem Methylthiophene_Phi_5_Theta_270_Methylthiophene_Hydrogenated.qcin_397304.0 ./qchem397304/ 0
/cm/shared/apps/spack/cpu/opt/spack/linux-centos8-zen2/gcc-10.2.0/qchem-5.4-akfmr7b3t57bfs6qan3padb2wnb2i7cl/exe/qcprog.exe_s Methylthiophene_Phi_5_Theta_270_Methylthiophene_Hydrogenated.qcin_397304.0 ./qchem397304/
                  Welcome to Q-Chem
     A Quantum Leap Into The Future Of Chemistry


 Q-Chem 5.4, Q-Chem, Inc., Pleasanton, CA (2021)

 License issued to: University of California, San Diego (site)

 E. Epifanovsky,  A. T. B. Gilbert,  Xintian Feng,  Joonho Lee,  Yuezhi Mao,  
 N. Mardirossian,  P. Pokhilko,  A. White,  M. Wormit,  M. P. Coons,  
 A. L. Dempwolff,  Zhengting Gan,  D. Hait,  P. R. Horn,  L. D. Jacobson,  
 I. Kaliman,  J. Kussmann,  A. W. Lange,  Ka Un Lao,  D. S. Levine,  Jie Liu,  
 S. C. McKenzie,  A. F. Morrison,  K. Nanda,  F. Plasser,  D. R. Rehn,  
 M. L. Vidal,  Zhi-Qiang You,  Ying Zhu,  B. Alam,  B. Albrecht,  
 A. Aldossary,  E. Alguire,  J. H. Andersen,  D. Barton,  K. Begam,  A. Behn,  
 Y. A. Bernard,  E. J. Berquist,  H. Burton,  A. Carreras,  K. Carter-Fenk,  
 R. Chakraborty,  A. D. Chien,  K. D. Closser,  V. Cofer-Shabica,  
 S. Dasgupta,  Jia Deng,  M. de Wergifosse,  M. Diedenhofen,  Hainam Do,  
 S. Ehlert,  Po-Tung Fang,  S. Fatehi,  Qingguo Feng,  J. Gayvert,  
 Qinghui Ge,  G. Gidofalvi,  M. Goldey,  J. Gomes,  C. Gonzalez-Espinoza,  
 S. Gulania,  A. Gunina,  M. W. D. Hanson-Heine,  P. H. P. Harbach,  
 A. W. Hauser,  M. F. Herbst,  M. Hernandez Vera,  M. Hodecker,  
 Z. C. Holden,  S. Houck,  Xunkun Huang,  Kerwin Hui,  B. C. Huynh,  
 M. Ivanov,  Hyunjun Ji,  Hanjie Jiang,  B. Kaduk,  S. Kaehler,  
 K. Khistyaev,  Jaehoon Kim,  P. Klunzinger,  Z. Koczor-Benda,  
 Joong Hoon Koh,  D. Kosenkov,  L. Koulias,  T. Kowalczyk,  C. M. Krauter,  
 K. Kue,  A. Kunitsa,  T. Kus,  A. Landau,  K. V. Lawler,  D. Lefrancois,  
 S. Lehtola,  Rain Li,  Yi-Pei Li,  Jiashu Liang,  M. Liebenthal,  
 Hung-Hsuan Lin,  You-Sheng Lin,  Fenglai Liu,  Kuan-Yu Liu,  
 M. Loipersberger,  A. Luenser,  A. Manjanath,  P. Manohar,  E. Mansoor,  
 S. F. Manzer,  Shan-Ping Mao,  A. V. Marenich,  T. Markovich,  S. Mason,  
 S. A. Maurer,  P. F. McLaughlin,  M. F. S. J. Menger,  J.-M. Mewes,  
 S. A. Mewes,  P. Morgante,  J. W. Mullinax,  T. S. Nguyen-Beck,  
 K. J. Oosterbaan,  G. Paran,  Alexander C. Paul,  Suranjan K. Paul,  
 F. Pavosevic,  Zheng Pei,  S. Prager,  E. I. Proynov,  E. Ramos,  B. Rana,  
 A. E. Rask,  A. Rettig,  R. M. Richard,  F. Rob,  E. Rossomme,  T. Scheele,  
 M. Scheurer,  M. Schneider,  N. Sergueev,  S. M. Sharada,  W. Skomorowski,  
 D. W. Small,  C. J. Stein,  Yu-Chuan Su,  E. J. Sundstrom,  Zhen Tao,  
 J. Thirman,  T. Tsuchimochi,  N. M. Tubman,  S. P. Veccham,  O. Vydrov,  
 J. Wenzel,  J. Witte,  A. Yamada,  Kun Yao,  S. Yeganeh,  S. R. Yost,  
 A. Zech,  Igor Ying Zhang,  Xing Zhang,  Yu Zhang,  D. Zuev,  
 A. Aspuru-Guzik,  A. T. Bell,  N. A. Besley,  K. B. Bravaya,  B. R. Brooks,  
 D. Casanova,  Jeng-Da Chai,  S. Coriani,  C. J. Cramer,  
 A. E. DePrince, III,  R. A. DiStasio Jr.,  A. Dreuw,  B. D. Dunietz,  
 T. R. Furlani,  W. A. Goddard III,  S. Grimme,  S. Hammes-Schiffer,  
 T. Head-Gordon,  W. J. Hehre,  Chao-Ping Hsu,  T.-C. Jagau,  Yousung Jung,  
 A. Klamt,  Jing Kong,  D. S. Lambrecht,  WanZhen Liang,  N. J. Mayhall,  
 C. W. McCurdy,  J. B. Neaton,  C. Ochsenfeld,  J. A. Parkhill,  R. Peverati,  
 V. A. Rassolov,  Yihan Shao,  L. V. Slipchenko,  T. Stauch,  R. P. Steele,  
 J. E. Subotnik,  A. J. W. Thom,  A. Tkatchenko,  D. G. Truhlar,  
 T. Van Voorhis,  T. A. Wesolowski,  K. B. Whaley,  H. L. Woodcock III,  
 P. M. Zimmerman,  S. Faraji,  P. M. W. Gill,  M. Head-Gordon,  
 J. M. Herbert,  A. I. Krylov

 Contributors to earlier versions of Q-Chem not listed above: 
 R. D. Adamson,  B. Austin,  R. Baer,  J. Baker,  G. J. O. Beran,  
 K. Brandhorst,  S. T. Brown,  E. F. C. Byrd,  A. K. Chakraborty,  
 G. K. L. Chan,  Chun-Min Chang,  Yunqing Chen,  C.-L. Cheng,  
 Siu Hung Chien,  D. M. Chipman,  D. L. Crittenden,  H. Dachsel,  
 R. J. Doerksen,  A. D. Dutoi,  R. G. Edgar,  J. Fosso-Tande,  
 L. Fusti-Molnar,  D. Ghosh,  A. Ghysels,  A. Golubeva-Zadorozhnaya,  
 J. Gonthier,  M. S. Gordon,  S. R. Gwaltney,  G. Hawkins,  J. E. Herr,  
 A. Heyden,  S. Hirata,  E. G. Hohenstein,  G. Kedziora,  F. J. Keil,  
 C. Kelley,  Jihan Kim,  R. A. King,  R. Z. Khaliullin,  P. P. Korambath,  
 W. Kurlancheek,  A. Laurent,  A. M. Lee,  M. S. Lee,  S. V. Levchenko,  
 Ching Yeh Lin,  D. Liotard,  E. Livshits,  R. C. Lochan,  I. Lotan,  
 L. A. Martinez-Martinez,  P. E. Maslen,  N. Nair,  D. P. O'Neill,  
 D. Neuhauser,  E. Neuscamman,  C. M. Oana,  R. Olivares-Amaya,  R. Olson,  
 T. M. Perrine,  B. Peters,  P. A. Pieniazek,  A. Prociuk,  Y. M. Rhee,  
 J. Ritchie,  M. A. Rohrdanz,  E. Rosta,  N. J. Russ,  H. F. Schaefer III,  
 M. W. Schmidt,  N. E. Schultz,  S. Sharma,  N. Shenvi,  C. D. Sherrill,  
 A. C. Simmonett,  A. Sodt,  T. Stein,  D. Stuck,  K. S. Thanthiriwatte,  
 V. Vanovschi,  L. Vogt,  Tao Wang,  A. Warshel,  M. A. Watson,  
 C. F. Williams,  Q. Wu,  X. Xu,  Jun Yang,  W. Zhang,  Yan Zhao

 Please cite Q-Chem as follows:
 Y. Shao et al., Mol. Phys. 113, 184-215 (2015)
 DOI: 10.1080/00268976.2014.952696

 Q-Chem 5.4.0 for Intel X86 EM64T Linux

 Parts of Q-Chem use Armadillo 9.800.1 (Horizon Scraper).
 http://arma.sourceforge.net/

 Q-Chem begins on Sun Jul 10 04:25:06 2022  

 Host: 
0

     Scratch files written to ./qchem397304//
 May1621 |scratch|qcdevops|jenkins|workspace|build_RNUM    
 Processing $rem in /cm/shared/apps/spack/cpu/opt/spack/linux-centos8-zen2/gcc-10.2.0/qchem-5.4-akfmr7b3t57bfs6qan3padb2wnb2i7cl/config/preferences:
 Processing $rem in /home/theleonzhang/.qchemrc:
 Symmetry turned off for PCM/SM12/SMD calculation
 Core orbitals will be frozen

 Checking the input file for inconsistencies... 	...done.

--------------------------------------------------------------
User input:
--------------------------------------------------------------
$molecule
0 1
C	0.775127	-3.866725	0.000713
C	-0.612565	-3.703963	0.000302
C	-1.066639	-2.357056	-0.000067
H	-1.302900	-4.561092	0.000470
C	-0.000000	-1.440664	-0.000000
S	1.544483	-2.286957	-0.000009
C	-2.521872	-1.978743	-0.000295
H	-3.166949	-2.878678	-0.000221
H	-2.790821	-1.376015	-0.892850
H	-2.791023	-1.375728	0.892005
C	0.000000	0.000000	0.000000
C	0.075300	0.860311	1.099446
C	0.195935	2.238951	0.776721
H	0.043151	0.492916	2.136088
C	0.215188	2.458766	-0.612546
S	0.082160	0.938811	-1.486809
C	0.290762	3.322559	1.814609
H	0.253664	2.898542	2.836676
H	-0.541206	4.052140	1.726239
H	1.236797	3.896558	1.726228
H	0.297938	3.404370	-1.161575
H	1.119411	-4.392713	-0.896681
H	1.119277	-4.392347	0.898372
H	-0.000115	-1.440391	1.080000
$end

$rem
JOBTYPE		SP
EXCHANGE	HF
CORRELATION	pRIMP2
BASIS		cc-pvtz
METHOD		rimp2
AUX_BASIS	rimp2-cc-pvtz
SOLVENT_METHOD	PCM
PURECART	11111
SYMMETRY	false
MEM_TOTAL	110000
SCF_CONVERGENCE = 6
THRESH=10
$end



$solvent
dielectric 4.90
$end
--------------------------------------------------------------
 ----------------------------------------------------------------
             Standard Nuclear Orientation (Angstroms)
    I     Atom           X                Y                Z
 ----------------------------------------------------------------
    1      C       0.7751270000    -3.8667250000     0.0007130000
    2      C      -0.6125650000    -3.7039630000     0.0003020000
    3      C      -1.0666390000    -2.3570560000    -0.0000670000
    4      H      -1.3029000000    -4.5610920000     0.0004700000
    5      C       0.0000000000    -1.4406640000     0.0000000000
    6      S       1.5444830000    -2.2869570000    -0.0000090000
    7      C      -2.5218720000    -1.9787430000    -0.0002950000
    8      H      -3.1669490000    -2.8786780000    -0.0002210000
    9      H      -2.7908210000    -1.3760150000    -0.8928500000
   10      H      -2.7910230000    -1.3757280000     0.8920050000
   11      C       0.0000000000     0.0000000000     0.0000000000
   12      C       0.0753000000     0.8603110000     1.0994460000
   13      C       0.1959350000     2.2389510000     0.7767210000
   14      H       0.0431510000     0.4929160000     2.1360880000
   15      C       0.2151880000     2.4587660000    -0.6125460000
   16      S       0.0821600000     0.9388110000    -1.4868090000
   17      C       0.2907620000     3.3225590000     1.8146090000
   18      H       0.2536640000     2.8985420000     2.8366760000
   19      H      -0.5412060000     4.0521400000     1.7262390000
   20      H       1.2367970000     3.8965580000     1.7262280000
   21      H       0.2979380000     3.4043700000    -1.1615750000
   22      H       1.1194110000    -4.3927130000    -0.8966810000
   23      H       1.1192770000    -4.3923470000     0.8983720000
   24      H      -0.0001150000    -1.4403910000     1.0800000000
 ----------------------------------------------------------------
 Nuclear Repulsion Energy =         871.21873914 hartrees
 There are       52 alpha and       52 beta electrons

 Q-Chem warning in module forms1/BasisType.C, line 2236:

 You are not using the predefined 5D/6D in this basis set.

 Requested basis set is cc-pVTZ
 There are 196 shells and 536 basis functions

 Total QAlloc Memory Limit 110000 MB
 Mega-Array Size       188 MB
 MEM_STATIC part       192 MB
 Discretize the solute cavity surface with Lebedev spheres
	Using 110 Lebedev grid points for each H atom
	Using 194 Lebedev grid points for other atoms
	Atomic van der Waals radii will be scaled by 1.20
 Remove points where switching function is < 1.0e-08
 Keep 1624 surface tesserae and discard 2024 interior tesserae
 Molecular Surface Area = 241.119 Angst**2
 Requested basis set is rimp2-cc-pVTZ
 There are 414 shells and 1414 basis functions
 A cutoff of  1.0D-10 yielded  13866 shell pairs
 There are    100456 function pairs (    128898 Cartesian)
 Smallest overlap matrix eigenvalue = 6.62E-05

 Scale SEOQF with 1.000000e-01/1.000000e-01/1.000000e-01

 Standard Electronic Orientation quadrupole field applied
 Nucleus-field energy     =     0.0000000374 hartrees
 Guess from superposition of atomic densities
 Warning:  Energy on first SCF cycle will be non-variational
 SAD guess density has 104.000000 electrons

 -----------------------------------------------------------------------
  General SCF calculation program by
  Eric Jon Sundstrom, Paul Horn, Yuezhi Mao, Dmitri Zuev, Alec White,
  David Stuck, Shaama M.S., Shane Yost, Joonho Lee, David Small,
  Daniel Levine, Susi Lehtola, Hugh Burton, Evgeny Epifanovsky,
  Bang C. Huynh
 -----------------------------------------------------------------------
 Hartree-Fock
 A restricted SCF calculation will be
 performed using DIIS
 SCF converges when DIIS error is below 1.0e-06
 ---------------------------------------
  Cycle       Energy         DIIS error
 ---------------------------------------
    1   -1186.0166187198      2.39e-02  
    2   -1180.6227807520      1.54e-03  
    3   -1180.7462284847      5.82e-04  
    4   -1180.7596037516      3.26e-04  
    5   -1180.7643826671      5.78e-05  
    6   -1180.7646169857      2.37e-05  
    7   -1180.7646733260      8.80e-06  
    8   -1180.7646867776      4.26e-06  
    9   -1180.7646898020      1.47e-06  
   10   -1180.7646902660      5.02e-07  Convergence criterion met
 ---------------------------------------
 SCF time:   CPU 562.93s  wall 565.00s 

************** Final PCM Free Energy Summary **************
 G_electrostatic  =      -0.00933985 hartree =      -5.86084185 kcal/mol
 G_cavitation     =       0.00000000 hartree =       0.00000000 kcal/mol
 G_dispersion     =       0.00000000 hartree =       0.00000000 kcal/mol
 G_repulsion      =       0.00000000 hartree =       0.00000000 kcal/mol
 --------------------------------------------------
 Non-electrostatic Free Energy =       0.00000000 hartree =       0.00000000 kcal/mol
 Total                         =      -0.00933985 hartree =      -5.86084185 kcal/mol
 --------------------------------------------------
 SCF Energy (H0 + V/2)                       =   -1180.76469027 
 Solute Internal Energy (H0)                 =   -1180.75535042 
 Total Free Energy (H0 + V/2 + non-elec)     =   -1180.76469027 hartree
                                             = -740941.02616429 kcal/mol
***********************************************************

 SCF   energy in the final basis set =    -1180.7646902660
 Total energy in the final basis set =    -1180.7646902660


 --------------------------------------------------------------
  Generalized many-body perturbation theory program
  by Joonho Lee, Fazle Rob, Xintian Feng, Evgeny Epifanovsky

 No regularization used 
 (reg. param. = 0.0000e+00)
  (P|Q)^-1/2 Time:  CPU 1.89 s  wall 1.89 s

 In RI-MP2 calculation: 
 # of frozen core orbitals: 20

 Components of the RIMP2 correlation energy:
        aaaa    correlation energy =        -0.2509955425 a.u.
        abab    correlation energy =        -1.5022263351 a.u.
        bbbb    correlation energy =        -0.2509955425 a.u.
        non-Brillouin singles      =        -0.0000000000 a.u.
        total same-spin energy     =        -0.5019910850 a.u.
        total opposite-spin energy =        -1.5022263351 a.u.

 Total  RIMP2   correlation energy =        -2.0042174201 a.u.
        RIMP2         total energy =     -1182.7689076861 a.u.

 RI-MP2 Energy Time:  CPU 80.12 s  wall 80.35 s
 
 --------------------------------------------------------------
 
                    Orbital Energies (a.u.)
 --------------------------------------------------------------
 
 Alpha MOs
 -- Occupied --
-91.9801 -91.9415 -11.2813 -11.2650 -11.2624 -11.2554 -11.2507 -11.2441
-11.2408 -11.2316 -11.2293 -11.2192  -8.9801  -8.9461  -6.6610  -6.6605
 -6.6599  -6.6275  -6.6265  -6.6252  -1.1979  -1.1537  -1.0580  -1.0260
 -1.0059  -0.9598  -0.9120  -0.9010  -0.8154  -0.7614  -0.7356  -0.7018
 -0.6611  -0.6410  -0.6105  -0.5890  -0.5803  -0.5714  -0.5659  -0.5505
 -0.5416  -0.5301  -0.5128  -0.5061  -0.4925  -0.4815  -0.4598  -0.4486
 -0.3563  -0.3408  -0.3117  -0.2828
 -- Virtual --
  0.0951   0.1323   0.1418   0.1504   0.1583   0.1716   0.1767   0.1805
  0.1874   0.1959   0.2043   0.2156   0.2278   0.2313   0.2354   0.2452
  0.2493   0.2569   0.2648   0.3007   0.3013   0.3393   0.3449   0.3526
  0.3697   0.3734   0.3773   0.3916   0.3952   0.4048   0.4102   0.4191
  0.4329   0.4393   0.4552   0.4603   0.4647   0.4749   0.4795   0.4864
  0.5034   0.5119   0.5155   0.5253   0.5279   0.5364   0.5436   0.5555
  0.5677   0.5808   0.5831   0.5960   0.6029   0.6075   0.6104   0.6169
  0.6280   0.6286   0.6317   0.6365   0.6423   0.6445   0.6488   0.6511
  0.6603   0.6691   0.6800   0.6818   0.6891   0.7007   0.7176   0.7222
  0.7321   0.7495   0.7554   0.7737   0.7820   0.8033   0.8096   0.8195
  0.8268   0.8427   0.8510   0.8533   0.8775   0.8965   0.9111   0.9144
  0.9249   0.9433   0.9460   0.9568   0.9670   0.9875   0.9981   1.0074
  1.0162   1.0232   1.0307   1.0437   1.0604   1.0662   1.0697   1.0805
  1.0923   1.0993   1.1031   1.1214   1.1272   1.1595   1.1659   1.1690
  1.1728   1.1884   1.1912   1.2068   1.2119   1.2278   1.2289   1.2468
  1.2535   1.2583   1.2661   1.2676   1.2825   1.2921   1.3077   1.3149
  1.3210   1.3318   1.3429   1.3514   1.3606   1.3945   1.4090   1.4126
  1.4209   1.4321   1.4468   1.4584   1.4686   1.4816   1.4861   1.4980
  1.5067   1.5182   1.5213   1.5309   1.5412   1.5417   1.5484   1.5525
  1.5698   1.5737   1.5840   1.5946   1.6033   1.6134   1.6255   1.6372
  1.6482   1.6771   1.6829   1.6903   1.7004   1.7178   1.7256   1.7383
  1.7432   1.7600   1.7723   1.7817   1.7967   1.8251   1.8311   1.8594
  1.8730   1.9088   1.9148   1.9375   1.9532   1.9728   1.9906   2.0056
  2.0121   2.0307   2.0446   2.0555   2.0740   2.1309   2.1369   2.1496
  2.1869   2.1961   2.2018   2.2187   2.2258   2.2489   2.2687   2.2759
  2.2905   2.3278   2.3423   2.3690   2.4103   2.4363   2.4544   2.4700
  2.4929   2.4968   2.5237   2.5368   2.5786   2.5844   2.6032   2.6151
  2.6296   2.6364   2.6605   2.6629   2.6742   2.6854   2.7062   2.7187
  2.7371   2.7459   2.7595   2.7630   2.7752   2.7829   2.7987   2.8207
  2.8411   2.8446   2.8627   2.8766   2.8872   2.9014   2.9150   2.9189
  2.9282   2.9475   2.9660   2.9804   3.0168   3.0207   3.0224   3.0394
  3.0513   3.0847   3.0869   3.0966   3.1107   3.1158   3.1326   3.1416
  3.1537   3.1588   3.1661   3.1703   3.1835   3.2017   3.2069   3.2182
  3.2364   3.2374   3.2509   3.2613   3.2818   3.2924   3.2987   3.3101
  3.3148   3.3238   3.3313   3.3370   3.3473   3.3476   3.3550   3.3720
  3.3735   3.3812   3.3849   3.3963   3.3998   3.4055   3.4243   3.4360
  3.4406   3.4449   3.4527   3.4657   3.4772   3.4914   3.4951   3.5099
  3.5151   3.5288   3.5365   3.5412   3.5502   3.5599   3.5717   3.5783
  3.5940   3.6011   3.6116   3.6164   3.6242   3.6308   3.6415   3.6510
  3.6709   3.6770   3.6892   3.6973   3.7086   3.7167   3.7290   3.7335
  3.7386   3.7516   3.7563   3.7801   3.7930   3.7991   3.8090   3.8147
  3.8303   3.8317   3.8442   3.8683   3.8825   3.8873   3.8987   3.9166
  3.9253   3.9467   3.9527   3.9705   3.9792   3.9917   4.0015   4.0114
  4.0139   4.0354   4.0429   4.0511   4.0711   4.0788   4.0840   4.1006
  4.1179   4.1263   4.1449   4.1592   4.1664   4.1698   4.1903   4.1971
  4.2161   4.2172   4.2290   4.2445   4.2523   4.2577   4.2694   4.2783
  4.2935   4.3109   4.3127   4.3344   4.3370   4.3488   4.3634   4.3677
  4.3736   4.3873   4.3995   4.4027   4.4086   4.4182   4.4255   4.4488
  4.4607   4.4748   4.4819   4.4866   4.5069   4.5171   4.5424   4.5532
  4.5744   4.5934   4.6156   4.6191   4.6388   4.6493   4.6510   4.6710
  4.6968   4.7204   4.7292   4.7601   4.7706   4.8079   4.8222   4.8311
  4.8564   4.8609   4.8967   4.8999   4.9258   4.9557   4.9793   4.9936
  5.0189   5.0435   5.0917   5.1106   5.1137   5.1281   5.1533   5.1817
  5.1948   5.2084   5.2326   5.2649   5.2841   5.2957   5.3091   5.3236
  5.3453   5.3682   5.3770   5.3987   5.4092   5.4278   5.4408   5.4548
  5.4842   5.5209   5.5247   5.5426   5.5494   5.5585   5.5776   5.5923
  5.6221   5.6283   5.6496   5.6660   5.6795   5.6976   5.7125   5.7345
  5.7774   5.7960   5.8378   5.9708   6.0010   6.0771   6.1295   6.1505
  6.2022   6.2168   6.2259   6.2436   6.2513   6.2769   6.3013   6.3289
  6.3764   6.4923   9.4870  10.6438  12.0550  12.9513  13.1831  13.9303
 14.1002  14.1954  14.3434  14.7020
 --------------------------------------------------------------
 
          Ground-State Mulliken Net Atomic Charges

     Atom                 Charge (a.u.)
  ----------------------------------------
      1 C                    -0.077092
      2 C                    -0.327758
      3 C                    -0.025221
      4 H                     0.176448
      5 C                     0.090358
      6 S                    -0.174278
      7 C                    -0.265852
      8 H                     0.112481
      9 H                     0.106623
     10 H                     0.100834
     11 C                    -0.083217
     12 C                    -0.241900
     13 C                     0.021373
     14 H                     0.182021
     15 C                    -0.235735
     16 S                     0.005977
     17 C                    -0.271767
     18 H                     0.102007
     19 H                     0.107862
     20 H                     0.108851
     21 H                     0.196861
     22 H                     0.112546
     23 H                     0.111042
     24 H                     0.167536
  ----------------------------------------
  Sum of atomic charges =     0.000000

 -----------------------------------------------------------------
                    Cartesian Multipole Moments
 -----------------------------------------------------------------
    Charge (ESU x 10^10)
                -0.0000
    Dipole Moment (Debye)
         X      -2.2532      Y       0.5772      Z       2.2997
       Tot       3.2709
    Quadrupole Moments (Debye-Ang)
        XX     -91.6354     XY       4.5283     YY     -73.6832
        XZ       0.4276     YZ      -0.2584     ZZ     -86.0723
    Octopole Moments (Debye-Ang^2)
       XXX     -24.8344    XXY      40.5670    XYY      -1.7084
       YYY     125.8834    XXZ      -1.3224    XYZ      -0.9884
       YYZ      -1.2997    XZZ      -3.4277    YZZ      55.7178
       ZZZ       3.5052
    Hexadecapole Moments (Debye-Ang^3)
      XXXX    -709.5466   XXXY      -8.5486   XXYY    -618.2191
      XYYY     -33.5214   YYYY   -2780.3551   XXXZ      -5.6603
      XXYZ     -30.8737   XYYZ      -1.7279   YYYZ    -112.7498
      XXZZ    -221.4410   XYZZ     -14.5152   YYZZ    -597.4357
      XZZZ      -7.7000   YZZZ     -95.6092   ZZZZ    -537.5004
 -----------------------------------------------------------------
 Total job time:  647.54s(wall), 643.93s(cpu) 
 Sun Jul 10 04:35:53 2022

        *************************************************************
        *                                                           *
        *  Thank you very much for using Q-Chem.  Have a nice day.  *
        *                                                           *
        *************************************************************


remove work dirs ./qchem397304.0 -- ./qchem397304.-1
rm -rf ./qchem397304
