You are running Q-Chem version: 5.4.0

#
# job setting
#
local host:  exp-2-30
current dir: /expanse/lustre/scratch/theleonzhang/temp_project/Hydrogenated_Rotation_Test
input file:  Methylthiophene_Phi_30_Theta_150_Methylthiophene_Hydrogenated_Alternate.qcin
output file: 
nprocs     : 0
nthreads   : 1
#
# qchem installation setting
#
QC:          /cm/shared/apps/spack/cpu/opt/spack/linux-centos8-zen2/gcc-10.2.0/qchem-5.4-akfmr7b3t57bfs6qan3padb2wnb2i7cl
QCAUX:       /cm/shared/apps/spack/cpu/opt/spack/linux-centos8-zen2/gcc-10.2.0/qchem-5.4-akfmr7b3t57bfs6qan3padb2wnb2i7cl/qcaux
QCPROG:      /cm/shared/apps/spack/cpu/opt/spack/linux-centos8-zen2/gcc-10.2.0/qchem-5.4-akfmr7b3t57bfs6qan3padb2wnb2i7cl/exe/qcprog.exe_s
QCPROG_S:    /cm/shared/apps/spack/cpu/opt/spack/linux-centos8-zen2/gcc-10.2.0/qchem-5.4-akfmr7b3t57bfs6qan3padb2wnb2i7cl/exe/qcprog.exe_s
PARALLEL:    -DSERIAL
QCMPI:       mpich
#
# qchem directory setting
#
qcrun:       qchem279423
QCSCRATCH:   .
QCLOCALSCR:  
QCTMPDIR:    .
QCFILEPREF:  ./qchem279423
QCSAVEDIR:   
workdirs:    ./qchem279423
workdir0:    ./qchem279423
partmpdirs =  
#
# parallel setting
#
QCRSH:           ssh
QCMPI:           mpich
QCMPIRUN:        /cm/shared/apps/spack/cpu/opt/spack/linux-centos8-zen2/gcc-10.2.0/qchem-5.4-akfmr7b3t57bfs6qan3padb2wnb2i7cl/bin/mpi/mpirun_qchem
QCMACHINEFILE:   ./qchem279423/hostfile

#
# env setting
#
exported envs:   QC QCAUX QCSCRATCH QCRUNNAME QCFILEPREF QCPROG QCPROG_S GUIFILE

Running Job 1 of 1 Methylthiophene_Phi_30_Theta_150_Methylthiophene_Hydrogenated_Alternate.qcin
qchem Methylthiophene_Phi_30_Theta_150_Methylthiophene_Hydrogenated_Alternate.qcin_279423.0 ./qchem279423/ 0
/cm/shared/apps/spack/cpu/opt/spack/linux-centos8-zen2/gcc-10.2.0/qchem-5.4-akfmr7b3t57bfs6qan3padb2wnb2i7cl/exe/qcprog.exe_s Methylthiophene_Phi_30_Theta_150_Methylthiophene_Hydrogenated_Alternate.qcin_279423.0 ./qchem279423/
                  Welcome to Q-Chem
     A Quantum Leap Into The Future Of Chemistry


 Q-Chem 5.4, Q-Chem, Inc., Pleasanton, CA (2021)

 License issued to: University of California, San Diego (site)

 E. Epifanovsky,  A. T. B. Gilbert,  Xintian Feng,  Joonho Lee,  Yuezhi Mao,  
 N. Mardirossian,  P. Pokhilko,  A. White,  M. Wormit,  M. P. Coons,  
 A. L. Dempwolff,  Zhengting Gan,  D. Hait,  P. R. Horn,  L. D. Jacobson,  
 I. Kaliman,  J. Kussmann,  A. W. Lange,  Ka Un Lao,  D. S. Levine,  Jie Liu,  
 S. C. McKenzie,  A. F. Morrison,  K. Nanda,  F. Plasser,  D. R. Rehn,  
 M. L. Vidal,  Zhi-Qiang You,  Ying Zhu,  B. Alam,  B. Albrecht,  
 A. Aldossary,  E. Alguire,  J. H. Andersen,  D. Barton,  K. Begam,  A. Behn,  
 Y. A. Bernard,  E. J. Berquist,  H. Burton,  A. Carreras,  K. Carter-Fenk,  
 R. Chakraborty,  A. D. Chien,  K. D. Closser,  V. Cofer-Shabica,  
 S. Dasgupta,  Jia Deng,  M. de Wergifosse,  M. Diedenhofen,  Hainam Do,  
 S. Ehlert,  Po-Tung Fang,  S. Fatehi,  Qingguo Feng,  J. Gayvert,  
 Qinghui Ge,  G. Gidofalvi,  M. Goldey,  J. Gomes,  C. Gonzalez-Espinoza,  
 S. Gulania,  A. Gunina,  M. W. D. Hanson-Heine,  P. H. P. Harbach,  
 A. W. Hauser,  M. F. Herbst,  M. Hernandez Vera,  M. Hodecker,  
 Z. C. Holden,  S. Houck,  Xunkun Huang,  Kerwin Hui,  B. C. Huynh,  
 M. Ivanov,  Hyunjun Ji,  Hanjie Jiang,  B. Kaduk,  S. Kaehler,  
 K. Khistyaev,  Jaehoon Kim,  P. Klunzinger,  Z. Koczor-Benda,  
 Joong Hoon Koh,  D. Kosenkov,  L. Koulias,  T. Kowalczyk,  C. M. Krauter,  
 K. Kue,  A. Kunitsa,  T. Kus,  A. Landau,  K. V. Lawler,  D. Lefrancois,  
 S. Lehtola,  Rain Li,  Yi-Pei Li,  Jiashu Liang,  M. Liebenthal,  
 Hung-Hsuan Lin,  You-Sheng Lin,  Fenglai Liu,  Kuan-Yu Liu,  
 M. Loipersberger,  A. Luenser,  A. Manjanath,  P. Manohar,  E. Mansoor,  
 S. F. Manzer,  Shan-Ping Mao,  A. V. Marenich,  T. Markovich,  S. Mason,  
 S. A. Maurer,  P. F. McLaughlin,  M. F. S. J. Menger,  J.-M. Mewes,  
 S. A. Mewes,  P. Morgante,  J. W. Mullinax,  T. S. Nguyen-Beck,  
 K. J. Oosterbaan,  G. Paran,  Alexander C. Paul,  Suranjan K. Paul,  
 F. Pavosevic,  Zheng Pei,  S. Prager,  E. I. Proynov,  E. Ramos,  B. Rana,  
 A. E. Rask,  A. Rettig,  R. M. Richard,  F. Rob,  E. Rossomme,  T. Scheele,  
 M. Scheurer,  M. Schneider,  N. Sergueev,  S. M. Sharada,  W. Skomorowski,  
 D. W. Small,  C. J. Stein,  Yu-Chuan Su,  E. J. Sundstrom,  Zhen Tao,  
 J. Thirman,  T. Tsuchimochi,  N. M. Tubman,  S. P. Veccham,  O. Vydrov,  
 J. Wenzel,  J. Witte,  A. Yamada,  Kun Yao,  S. Yeganeh,  S. R. Yost,  
 A. Zech,  Igor Ying Zhang,  Xing Zhang,  Yu Zhang,  D. Zuev,  
 A. Aspuru-Guzik,  A. T. Bell,  N. A. Besley,  K. B. Bravaya,  B. R. Brooks,  
 D. Casanova,  Jeng-Da Chai,  S. Coriani,  C. J. Cramer,  
 A. E. DePrince, III,  R. A. DiStasio Jr.,  A. Dreuw,  B. D. Dunietz,  
 T. R. Furlani,  W. A. Goddard III,  S. Grimme,  S. Hammes-Schiffer,  
 T. Head-Gordon,  W. J. Hehre,  Chao-Ping Hsu,  T.-C. Jagau,  Yousung Jung,  
 A. Klamt,  Jing Kong,  D. S. Lambrecht,  WanZhen Liang,  N. J. Mayhall,  
 C. W. McCurdy,  J. B. Neaton,  C. Ochsenfeld,  J. A. Parkhill,  R. Peverati,  
 V. A. Rassolov,  Yihan Shao,  L. V. Slipchenko,  T. Stauch,  R. P. Steele,  
 J. E. Subotnik,  A. J. W. Thom,  A. Tkatchenko,  D. G. Truhlar,  
 T. Van Voorhis,  T. A. Wesolowski,  K. B. Whaley,  H. L. Woodcock III,  
 P. M. Zimmerman,  S. Faraji,  P. M. W. Gill,  M. Head-Gordon,  
 J. M. Herbert,  A. I. Krylov

 Contributors to earlier versions of Q-Chem not listed above: 
 R. D. Adamson,  B. Austin,  R. Baer,  J. Baker,  G. J. O. Beran,  
 K. Brandhorst,  S. T. Brown,  E. F. C. Byrd,  A. K. Chakraborty,  
 G. K. L. Chan,  Chun-Min Chang,  Yunqing Chen,  C.-L. Cheng,  
 Siu Hung Chien,  D. M. Chipman,  D. L. Crittenden,  H. Dachsel,  
 R. J. Doerksen,  A. D. Dutoi,  R. G. Edgar,  J. Fosso-Tande,  
 L. Fusti-Molnar,  D. Ghosh,  A. Ghysels,  A. Golubeva-Zadorozhnaya,  
 J. Gonthier,  M. S. Gordon,  S. R. Gwaltney,  G. Hawkins,  J. E. Herr,  
 A. Heyden,  S. Hirata,  E. G. Hohenstein,  G. Kedziora,  F. J. Keil,  
 C. Kelley,  Jihan Kim,  R. A. King,  R. Z. Khaliullin,  P. P. Korambath,  
 W. Kurlancheek,  A. Laurent,  A. M. Lee,  M. S. Lee,  S. V. Levchenko,  
 Ching Yeh Lin,  D. Liotard,  E. Livshits,  R. C. Lochan,  I. Lotan,  
 L. A. Martinez-Martinez,  P. E. Maslen,  N. Nair,  D. P. O'Neill,  
 D. Neuhauser,  E. Neuscamman,  C. M. Oana,  R. Olivares-Amaya,  R. Olson,  
 T. M. Perrine,  B. Peters,  P. A. Pieniazek,  A. Prociuk,  Y. M. Rhee,  
 J. Ritchie,  M. A. Rohrdanz,  E. Rosta,  N. J. Russ,  H. F. Schaefer III,  
 M. W. Schmidt,  N. E. Schultz,  S. Sharma,  N. Shenvi,  C. D. Sherrill,  
 A. C. Simmonett,  A. Sodt,  T. Stein,  D. Stuck,  K. S. Thanthiriwatte,  
 V. Vanovschi,  L. Vogt,  Tao Wang,  A. Warshel,  M. A. Watson,  
 C. F. Williams,  Q. Wu,  X. Xu,  Jun Yang,  W. Zhang,  Yan Zhao

 Please cite Q-Chem as follows:
 Y. Shao et al., Mol. Phys. 113, 184-215 (2015)
 DOI: 10.1080/00268976.2014.952696

 Q-Chem 5.4.0 for Intel X86 EM64T Linux

 Parts of Q-Chem use Armadillo 9.800.1 (Horizon Scraper).
 http://arma.sourceforge.net/

 Q-Chem begins on Sun Jul 10 02:55:20 2022  

 Host: 
0

     Scratch files written to ./qchem279423//
 May1621 |scratch|qcdevops|jenkins|workspace|build_RNUM    
 Processing $rem in /cm/shared/apps/spack/cpu/opt/spack/linux-centos8-zen2/gcc-10.2.0/qchem-5.4-akfmr7b3t57bfs6qan3padb2wnb2i7cl/config/preferences:
 Processing $rem in /home/theleonzhang/.qchemrc:
 Symmetry turned off for PCM/SM12/SMD calculation
 Core orbitals will be frozen

 Checking the input file for inconsistencies... 	...done.

--------------------------------------------------------------
User input:
--------------------------------------------------------------
$molecule
0 1
C	-0.386946	-3.866725	-0.671636
C	0.306544	-3.703963	0.530345
C	0.533261	-2.357056	0.923770
H	0.651857	-4.561092	1.128109
C	-0.000000	-1.440664	-0.000000
S	-0.772250	-2.286957	-1.337557
C	1.260680	-1.978743	2.184153
H	1.583283	-2.878678	2.742769
H	0.622180	-1.376015	2.863347
H	2.168011	-1.375728	1.971094
C	0.000000	0.000000	0.000000
C	0.431829	0.747884	1.099446
C	1.123799	1.946373	0.776721
H	0.247423	0.428497	2.136088
C	1.234147	2.137457	-0.612546
S	0.471221	0.816130	-1.486809
C	1.667694	2.888380	1.814609
H	1.454874	2.519768	2.836676
H	1.222009	3.901210	1.726239
H	2.767675	3.008788	1.726228
H	1.708773	2.959493	-1.161575
H	-1.336254	-4.392713	-0.521098
H	0.218374	-4.392347	-1.418509
H	0.935365	-1.440391	-0.539900
$end

$rem
JOBTYPE		SP
EXCHANGE	HF
CORRELATION	pRIMP2
BASIS		cc-pvtz
METHOD		rimp2
AUX_BASIS	rimp2-cc-pvtz
SOLVENT_METHOD	PCM
PURECART	11111
SYMMETRY	false
MEM_TOTAL	110000
SCF_CONVERGENCE = 6
THRESH=10
$end



$solvent
dielectric 4.90
$end
--------------------------------------------------------------
 ----------------------------------------------------------------
             Standard Nuclear Orientation (Angstroms)
    I     Atom           X                Y                Z
 ----------------------------------------------------------------
    1      C      -0.3869460000    -3.8667250000    -0.6716360000
    2      C       0.3065440000    -3.7039630000     0.5303450000
    3      C       0.5332610000    -2.3570560000     0.9237700000
    4      H       0.6518570000    -4.5610920000     1.1281090000
    5      C       0.0000000000    -1.4406640000     0.0000000000
    6      S      -0.7722500000    -2.2869570000    -1.3375570000
    7      C       1.2606800000    -1.9787430000     2.1841530000
    8      H       1.5832830000    -2.8786780000     2.7427690000
    9      H       0.6221800000    -1.3760150000     2.8633470000
   10      H       2.1680110000    -1.3757280000     1.9710940000
   11      C       0.0000000000     0.0000000000     0.0000000000
   12      C       0.4318290000     0.7478840000     1.0994460000
   13      C       1.1237990000     1.9463730000     0.7767210000
   14      H       0.2474230000     0.4284970000     2.1360880000
   15      C       1.2341470000     2.1374570000    -0.6125460000
   16      S       0.4712210000     0.8161300000    -1.4868090000
   17      C       1.6676940000     2.8883800000     1.8146090000
   18      H       1.4548740000     2.5197680000     2.8366760000
   19      H       1.2220090000     3.9012100000     1.7262390000
   20      H       2.7676750000     3.0087880000     1.7262280000
   21      H       1.7087730000     2.9594930000    -1.1615750000
   22      H      -1.3362540000    -4.3927130000    -0.5210980000
   23      H       0.2183740000    -4.3923470000    -1.4185090000
   24      H       0.9353650000    -1.4403910000    -0.5399000000
 ----------------------------------------------------------------
 Nuclear Repulsion Energy =         882.59835509 hartrees
 There are       52 alpha and       52 beta electrons

 Q-Chem warning in module forms1/BasisType.C, line 2236:

 You are not using the predefined 5D/6D in this basis set.

 Requested basis set is cc-pVTZ
 There are 196 shells and 536 basis functions

 Total QAlloc Memory Limit 110000 MB
 Mega-Array Size       188 MB
 MEM_STATIC part       192 MB
 Discretize the solute cavity surface with Lebedev spheres
	Using 110 Lebedev grid points for each H atom
	Using 194 Lebedev grid points for other atoms
	Atomic van der Waals radii will be scaled by 1.20
 Remove points where switching function is < 1.0e-08
 Keep 1564 surface tesserae and discard 2084 interior tesserae
 Molecular Surface Area = 231.143 Angst**2
 Requested basis set is rimp2-cc-pVTZ
 There are 414 shells and 1414 basis functions
 A cutoff of  1.0D-10 yielded  14318 shell pairs
 There are    103952 function pairs (    133231 Cartesian)
 Smallest overlap matrix eigenvalue = 5.43E-05

 Scale SEOQF with 1.000000e-01/1.000000e-01/1.000000e-01

 Standard Electronic Orientation quadrupole field applied
 Nucleus-field energy     =     0.0000000234 hartrees
 Guess from superposition of atomic densities
 Warning:  Energy on first SCF cycle will be non-variational
 SAD guess density has 104.000000 electrons

 -----------------------------------------------------------------------
  General SCF calculation program by
  Eric Jon Sundstrom, Paul Horn, Yuezhi Mao, Dmitri Zuev, Alec White,
  David Stuck, Shaama M.S., Shane Yost, Joonho Lee, David Small,
  Daniel Levine, Susi Lehtola, Hugh Burton, Evgeny Epifanovsky,
  Bang C. Huynh
 -----------------------------------------------------------------------
 Hartree-Fock
 A restricted SCF calculation will be
 performed using DIIS
 SCF converges when DIIS error is below 1.0e-06
 ---------------------------------------
  Cycle       Energy         DIIS error
 ---------------------------------------
    1   -1186.0913143398      2.40e-02  
    2   -1180.5940926703      1.57e-03  
    3   -1180.7206878005      6.18e-04  
    4   -1180.7355604786      3.35e-04  
    5   -1180.7407786191      6.00e-05  
    6   -1180.7410354969      2.50e-05  
    7   -1180.7410979836      9.19e-06  
    8   -1180.7411118206      4.32e-06  
    9   -1180.7411148093      1.50e-06  
   10   -1180.7411152946      5.14e-07  Convergence criterion met
 ---------------------------------------
 SCF time:   CPU 586.66s  wall 589.00s 

************** Final PCM Free Energy Summary **************
 G_electrostatic  =      -0.00958128 hartree =      -6.01234537 kcal/mol
 G_cavitation     =       0.00000000 hartree =       0.00000000 kcal/mol
 G_dispersion     =       0.00000000 hartree =       0.00000000 kcal/mol
 G_repulsion      =       0.00000000 hartree =       0.00000000 kcal/mol
 --------------------------------------------------
 Non-electrostatic Free Energy =       0.00000000 hartree =       0.00000000 kcal/mol
 Total                         =      -0.00958128 hartree =      -6.01234537 kcal/mol
 --------------------------------------------------
 SCF Energy (H0 + V/2)                       =   -1180.74111529 
 Solute Internal Energy (H0)                 =   -1180.73153401 
 Total Free Energy (H0 + V/2 + non-elec)     =   -1180.74111529 hartree
                                             = -740926.23264648 kcal/mol
***********************************************************

 SCF   energy in the final basis set =    -1180.7411152946
 Total energy in the final basis set =    -1180.7411152946


 --------------------------------------------------------------
  Generalized many-body perturbation theory program
  by Joonho Lee, Fazle Rob, Xintian Feng, Evgeny Epifanovsky

 No regularization used 
 (reg. param. = 0.0000e+00)
  (P|Q)^-1/2 Time:  CPU 1.90 s  wall 1.91 s

 In RI-MP2 calculation: 
 # of frozen core orbitals: 20

 Components of the RIMP2 correlation energy:
        aaaa    correlation energy =        -0.2521679936 a.u.
        abab    correlation energy =        -1.5057492844 a.u.
        bbbb    correlation energy =        -0.2521679936 a.u.
        non-Brillouin singles      =        -0.0000000000 a.u.
        total same-spin energy     =        -0.5043359871 a.u.
        total opposite-spin energy =        -1.5057492844 a.u.

 Total  RIMP2   correlation energy =        -2.0100852715 a.u.
        RIMP2         total energy =     -1182.7512005661 a.u.

 RI-MP2 Energy Time:  CPU 80.32 s  wall 80.57 s
 
 --------------------------------------------------------------
 
                    Orbital Energies (a.u.)
 --------------------------------------------------------------
 
 Alpha MOs
 -- Occupied --
-91.9802 -91.9415 -11.2821 -11.2645 -11.2626 -11.2592 -11.2508 -11.2425
-11.2362 -11.2326 -11.2291 -11.2217  -8.9806  -8.9465  -6.6615  -6.6609
 -6.6603  -6.6279  -6.6269  -6.6256  -1.2032  -1.1531  -1.0604  -1.0307
 -0.9996  -0.9636  -0.9145  -0.9002  -0.8134  -0.7622  -0.7380  -0.7052
 -0.6537  -0.6439  -0.6111  -0.5932  -0.5814  -0.5706  -0.5645  -0.5524
 -0.5467  -0.5346  -0.5224  -0.5063  -0.4839  -0.4757  -0.4634  -0.4456
 -0.3567  -0.3432  -0.3248  -0.2660
 -- Virtual --
  0.0896   0.1324   0.1422   0.1470   0.1563   0.1731   0.1768   0.1842
  0.1903   0.2023   0.2063   0.2148   0.2269   0.2355   0.2378   0.2446
  0.2494   0.2739   0.2799   0.2988   0.3230   0.3315   0.3461   0.3554
  0.3607   0.3794   0.3905   0.3933   0.3977   0.4084   0.4193   0.4259
  0.4412   0.4423   0.4558   0.4705   0.4719   0.4772   0.4851   0.4907
  0.4970   0.5097   0.5192   0.5240   0.5319   0.5429   0.5531   0.5585
  0.5629   0.5821   0.5894   0.5924   0.6019   0.6082   0.6129   0.6159
  0.6212   0.6218   0.6296   0.6398   0.6429   0.6494   0.6601   0.6632
  0.6661   0.6812   0.6866   0.6972   0.7015   0.7131   0.7174   0.7307
  0.7383   0.7530   0.7624   0.7689   0.7841   0.7945   0.8030   0.8109
  0.8262   0.8418   0.8498   0.8628   0.8723   0.8975   0.9093   0.9172
  0.9307   0.9416   0.9507   0.9629   0.9820   0.9841   0.9918   1.0029
  1.0126   1.0338   1.0422   1.0530   1.0591   1.0628   1.0761   1.0860
  1.0917   1.1032   1.1061   1.1322   1.1412   1.1552   1.1676   1.1818
  1.1885   1.1996   1.2009   1.2128   1.2201   1.2277   1.2375   1.2391
  1.2422   1.2608   1.2691   1.2777   1.2901   1.2950   1.3097   1.3187
  1.3263   1.3333   1.3470   1.3665   1.3778   1.3919   1.4073   1.4147
  1.4282   1.4378   1.4467   1.4556   1.4813   1.4838   1.4849   1.4974
  1.5043   1.5151   1.5185   1.5301   1.5348   1.5427   1.5499   1.5599
  1.5721   1.5797   1.5876   1.6041   1.6148   1.6274   1.6322   1.6423
  1.6522   1.6628   1.6847   1.6910   1.7103   1.7137   1.7411   1.7534
  1.7588   1.7624   1.7792   1.7955   1.7992   1.8312   1.8493   1.8726
  1.9060   1.9162   1.9282   1.9472   1.9525   1.9817   1.9931   2.0024
  2.0254   2.0420   2.0489   2.0593   2.0866   2.1157   2.1284   2.1525
  2.1867   2.1952   2.2167   2.2238   2.2405   2.2459   2.2584   2.2822
  2.2990   2.3107   2.3342   2.3512   2.4169   2.4289   2.4569   2.4785
  2.5007   2.5168   2.5405   2.5650   2.5750   2.5889   2.5991   2.6156
  2.6345   2.6493   2.6545   2.6681   2.6770   2.6982   2.7073   2.7312
  2.7449   2.7492   2.7654   2.7679   2.7788   2.8026   2.8174   2.8237
  2.8319   2.8552   2.8620   2.8689   2.8928   2.9210   2.9273   2.9408
  2.9610   2.9697   2.9783   2.9937   3.0139   3.0202   3.0282   3.0447
  3.0517   3.0835   3.0952   3.1055   3.1090   3.1153   3.1279   3.1416
  3.1450   3.1613   3.1656   3.1767   3.1889   3.1922   3.2088   3.2226
  3.2304   3.2377   3.2510   3.2612   3.2751   3.2768   3.2945   3.3049
  3.3097   3.3283   3.3319   3.3353   3.3430   3.3537   3.3657   3.3697
  3.3751   3.3798   3.3875   3.4001   3.4119   3.4163   3.4241   3.4322
  3.4384   3.4479   3.4607   3.4689   3.4772   3.4895   3.4994   3.5083
  3.5174   3.5320   3.5360   3.5424   3.5452   3.5615   3.5711   3.5739
  3.5984   3.6083   3.6215   3.6284   3.6395   3.6453   3.6562   3.6605
  3.6836   3.6852   3.6982   3.7041   3.7165   3.7216   3.7287   3.7434
  3.7552   3.7695   3.7786   3.7864   3.7977   3.8047   3.8163   3.8301
  3.8349   3.8473   3.8624   3.8649   3.8794   3.8933   3.9051   3.9251
  3.9438   3.9515   3.9653   3.9720   3.9748   3.9876   4.0098   4.0176
  4.0280   4.0513   4.0552   4.0581   4.0750   4.0948   4.1082   4.1213
  4.1309   4.1426   4.1525   4.1591   4.1639   4.1743   4.1951   4.2032
  4.2213   4.2302   4.2373   4.2395   4.2554   4.2644   4.2760   4.2816
  4.3029   4.3114   4.3212   4.3331   4.3440   4.3601   4.3697   4.3840
  4.3889   4.3963   4.4000   4.4083   4.4199   4.4404   4.4429   4.4569
  4.4679   4.4771   4.4897   4.5060   4.5193   4.5422   4.5514   4.5854
  4.5973   4.6172   4.6193   4.6371   4.6447   4.6611   4.6699   4.6869
  4.7178   4.7362   4.7437   4.7655   4.7929   4.8060   4.8376   4.8465
  4.8604   4.8715   4.8979   4.9162   4.9419   4.9531   4.9741   5.0153
  5.0462   5.0614   5.0927   5.1009   5.1229   5.1262   5.1371   5.1732
  5.2127   5.2157   5.2499   5.2528   5.2795   5.2986   5.3109   5.3223
  5.3358   5.3759   5.3786   5.4031   5.4106   5.4243   5.4400   5.4484
  5.4743   5.5131   5.5201   5.5363   5.5546   5.5766   5.5793   5.6005
  5.6139   5.6281   5.6315   5.6596   5.6678   5.7031   5.7152   5.7533
  5.7640   5.7894   5.8271   5.9859   6.0286   6.0473   6.1200   6.1557
  6.2161   6.2279   6.2418   6.2489   6.2648   6.2872   6.3039   6.3105
  6.4129   6.5140   9.4325  10.6021  12.1125  12.8697  13.1455  13.9892
 14.1087  14.2082  14.4095  14.8885
 --------------------------------------------------------------
 
          Ground-State Mulliken Net Atomic Charges

     Atom                 Charge (a.u.)
  ----------------------------------------
      1 C                    -0.075484
      2 C                    -0.314498
      3 C                    -0.062026
      4 H                     0.178890
      5 C                     0.109744
      6 S                    -0.182170
      7 C                    -0.296129
      8 H                     0.119509
      9 H                     0.103402
     10 H                     0.112536
     11 C                    -0.005198
     12 C                    -0.337429
     13 C                     0.063464
     14 H                     0.190916
     15 C                    -0.262452
     16 S                     0.005298
     17 C                    -0.271008
     18 H                     0.101628
     19 H                     0.109891
     20 H                     0.108121
     21 H                     0.197044
     22 H                     0.113072
     23 H                     0.110400
     24 H                     0.182481
  ----------------------------------------
  Sum of atomic charges =     0.000000

 -----------------------------------------------------------------
                    Cartesian Multipole Moments
 -----------------------------------------------------------------
    Charge (ESU x 10^10)
                -0.0000
    Dipole Moment (Debye)
         X       2.8313      Y      -0.0559      Z       3.2713
       Tot       4.3268
    Quadrupole Moments (Debye-Ang)
        XX     -89.3053     XY       1.6021     YY     -75.7806
        XZ       0.4618     YZ      -1.3863     ZZ     -85.7556
    Octopole Moments (Debye-Ang^2)
       XXX    -106.5418    XXY      62.5295    XYY     -19.6742
       YYY     135.5747    XXZ      -0.6749    XYZ      -2.8153
       YYZ      -5.0554    XZZ     -28.1017    YZZ      59.2707
       ZZZ       6.6321
    Hexadecapole Moments (Debye-Ang^3)
      XXXX    -533.6564   XXXY    -209.4358   XXYY    -547.5774
      XYYY    -180.3489   YYYY   -2574.8845   XXXZ    -174.9927
      XXYZ     -37.9461   XYYZ     -51.5464   YYYZ     -87.7213
      XXZZ    -249.1830   XYZZ     -74.6205   YYZZ    -609.3515
      XZZZ    -168.4398   YZZZ    -104.2134   ZZZZ    -964.1026
 -----------------------------------------------------------------
 Total job time:  672.13s(wall), 667.86s(cpu) 
 Sun Jul 10 03:06:32 2022

        *************************************************************
        *                                                           *
        *  Thank you very much for using Q-Chem.  Have a nice day.  *
        *                                                           *
        *************************************************************


remove work dirs ./qchem279423.0 -- ./qchem279423.-1
rm -rf ./qchem279423
You are running Q-Chem version: 5.4.0

#
# job setting
#
local host:  exp-5-13
current dir: /expanse/lustre/scratch/theleonzhang/temp_project/Hydrogenated_Rotation_Test
input file:  Methylthiophene_Phi_30_Theta_150_Methylthiophene_Hydrogenated_Alternate.qcin
output file: 
nprocs     : 0
nthreads   : 1
#
# qchem installation setting
#
QC:          /cm/shared/apps/spack/cpu/opt/spack/linux-centos8-zen2/gcc-10.2.0/qchem-5.4-akfmr7b3t57bfs6qan3padb2wnb2i7cl
QCAUX:       /cm/shared/apps/spack/cpu/opt/spack/linux-centos8-zen2/gcc-10.2.0/qchem-5.4-akfmr7b3t57bfs6qan3padb2wnb2i7cl/qcaux
QCPROG:      /cm/shared/apps/spack/cpu/opt/spack/linux-centos8-zen2/gcc-10.2.0/qchem-5.4-akfmr7b3t57bfs6qan3padb2wnb2i7cl/exe/qcprog.exe_s
QCPROG_S:    /cm/shared/apps/spack/cpu/opt/spack/linux-centos8-zen2/gcc-10.2.0/qchem-5.4-akfmr7b3t57bfs6qan3padb2wnb2i7cl/exe/qcprog.exe_s
PARALLEL:    -DSERIAL
QCMPI:       mpich
#
# qchem directory setting
#
qcrun:       qchem3830164
QCSCRATCH:   .
QCLOCALSCR:  
QCTMPDIR:    .
QCFILEPREF:  ./qchem3830164
QCSAVEDIR:   
workdirs:    ./qchem3830164
workdir0:    ./qchem3830164
partmpdirs =  
#
# parallel setting
#
QCRSH:           ssh
QCMPI:           mpich
QCMPIRUN:        /cm/shared/apps/spack/cpu/opt/spack/linux-centos8-zen2/gcc-10.2.0/qchem-5.4-akfmr7b3t57bfs6qan3padb2wnb2i7cl/bin/mpi/mpirun_qchem
QCMACHINEFILE:   ./qchem3830164/hostfile

#
# env setting
#
exported envs:   QC QCAUX QCSCRATCH QCRUNNAME QCFILEPREF QCPROG QCPROG_S GUIFILE

Running Job 1 of 1 Methylthiophene_Phi_30_Theta_150_Methylthiophene_Hydrogenated_Alternate.qcin
qchem Methylthiophene_Phi_30_Theta_150_Methylthiophene_Hydrogenated_Alternate.qcin_3830164.0 ./qchem3830164/ 0
/cm/shared/apps/spack/cpu/opt/spack/linux-centos8-zen2/gcc-10.2.0/qchem-5.4-akfmr7b3t57bfs6qan3padb2wnb2i7cl/exe/qcprog.exe_s Methylthiophene_Phi_30_Theta_150_Methylthiophene_Hydrogenated_Alternate.qcin_3830164.0 ./qchem3830164/
                  Welcome to Q-Chem
     A Quantum Leap Into The Future Of Chemistry


 Q-Chem 5.4, Q-Chem, Inc., Pleasanton, CA (2021)

 License issued to: University of California, San Diego (site)

 E. Epifanovsky,  A. T. B. Gilbert,  Xintian Feng,  Joonho Lee,  Yuezhi Mao,  
 N. Mardirossian,  P. Pokhilko,  A. White,  M. Wormit,  M. P. Coons,  
 A. L. Dempwolff,  Zhengting Gan,  D. Hait,  P. R. Horn,  L. D. Jacobson,  
 I. Kaliman,  J. Kussmann,  A. W. Lange,  Ka Un Lao,  D. S. Levine,  Jie Liu,  
 S. C. McKenzie,  A. F. Morrison,  K. Nanda,  F. Plasser,  D. R. Rehn,  
 M. L. Vidal,  Zhi-Qiang You,  Ying Zhu,  B. Alam,  B. Albrecht,  
 A. Aldossary,  E. Alguire,  J. H. Andersen,  D. Barton,  K. Begam,  A. Behn,  
 Y. A. Bernard,  E. J. Berquist,  H. Burton,  A. Carreras,  K. Carter-Fenk,  
 R. Chakraborty,  A. D. Chien,  K. D. Closser,  V. Cofer-Shabica,  
 S. Dasgupta,  Jia Deng,  M. de Wergifosse,  M. Diedenhofen,  Hainam Do,  
 S. Ehlert,  Po-Tung Fang,  S. Fatehi,  Qingguo Feng,  J. Gayvert,  
 Qinghui Ge,  G. Gidofalvi,  M. Goldey,  J. Gomes,  C. Gonzalez-Espinoza,  
 S. Gulania,  A. Gunina,  M. W. D. Hanson-Heine,  P. H. P. Harbach,  
 A. W. Hauser,  M. F. Herbst,  M. Hernandez Vera,  M. Hodecker,  
 Z. C. Holden,  S. Houck,  Xunkun Huang,  Kerwin Hui,  B. C. Huynh,  
 M. Ivanov,  Hyunjun Ji,  Hanjie Jiang,  B. Kaduk,  S. Kaehler,  
 K. Khistyaev,  Jaehoon Kim,  P. Klunzinger,  Z. Koczor-Benda,  
 Joong Hoon Koh,  D. Kosenkov,  L. Koulias,  T. Kowalczyk,  C. M. Krauter,  
 K. Kue,  A. Kunitsa,  T. Kus,  A. Landau,  K. V. Lawler,  D. Lefrancois,  
 S. Lehtola,  Rain Li,  Yi-Pei Li,  Jiashu Liang,  M. Liebenthal,  
 Hung-Hsuan Lin,  You-Sheng Lin,  Fenglai Liu,  Kuan-Yu Liu,  
 M. Loipersberger,  A. Luenser,  A. Manjanath,  P. Manohar,  E. Mansoor,  
 S. F. Manzer,  Shan-Ping Mao,  A. V. Marenich,  T. Markovich,  S. Mason,  
 S. A. Maurer,  P. F. McLaughlin,  M. F. S. J. Menger,  J.-M. Mewes,  
 S. A. Mewes,  P. Morgante,  J. W. Mullinax,  T. S. Nguyen-Beck,  
 K. J. Oosterbaan,  G. Paran,  Alexander C. Paul,  Suranjan K. Paul,  
 F. Pavosevic,  Zheng Pei,  S. Prager,  E. I. Proynov,  E. Ramos,  B. Rana,  
 A. E. Rask,  A. Rettig,  R. M. Richard,  F. Rob,  E. Rossomme,  T. Scheele,  
 M. Scheurer,  M. Schneider,  N. Sergueev,  S. M. Sharada,  W. Skomorowski,  
 D. W. Small,  C. J. Stein,  Yu-Chuan Su,  E. J. Sundstrom,  Zhen Tao,  
 J. Thirman,  T. Tsuchimochi,  N. M. Tubman,  S. P. Veccham,  O. Vydrov,  
 J. Wenzel,  J. Witte,  A. Yamada,  Kun Yao,  S. Yeganeh,  S. R. Yost,  
 A. Zech,  Igor Ying Zhang,  Xing Zhang,  Yu Zhang,  D. Zuev,  
 A. Aspuru-Guzik,  A. T. Bell,  N. A. Besley,  K. B. Bravaya,  B. R. Brooks,  
 D. Casanova,  Jeng-Da Chai,  S. Coriani,  C. J. Cramer,  
 A. E. DePrince, III,  R. A. DiStasio Jr.,  A. Dreuw,  B. D. Dunietz,  
 T. R. Furlani,  W. A. Goddard III,  S. Grimme,  S. Hammes-Schiffer,  
 T. Head-Gordon,  W. J. Hehre,  Chao-Ping Hsu,  T.-C. Jagau,  Yousung Jung,  
 A. Klamt,  Jing Kong,  D. S. Lambrecht,  WanZhen Liang,  N. J. Mayhall,  
 C. W. McCurdy,  J. B. Neaton,  C. Ochsenfeld,  J. A. Parkhill,  R. Peverati,  
 V. A. Rassolov,  Yihan Shao,  L. V. Slipchenko,  T. Stauch,  R. P. Steele,  
 J. E. Subotnik,  A. J. W. Thom,  A. Tkatchenko,  D. G. Truhlar,  
 T. Van Voorhis,  T. A. Wesolowski,  K. B. Whaley,  H. L. Woodcock III,  
 P. M. Zimmerman,  S. Faraji,  P. M. W. Gill,  M. Head-Gordon,  
 J. M. Herbert,  A. I. Krylov

 Contributors to earlier versions of Q-Chem not listed above: 
 R. D. Adamson,  B. Austin,  R. Baer,  J. Baker,  G. J. O. Beran,  
 K. Brandhorst,  S. T. Brown,  E. F. C. Byrd,  A. K. Chakraborty,  
 G. K. L. Chan,  Chun-Min Chang,  Yunqing Chen,  C.-L. Cheng,  
 Siu Hung Chien,  D. M. Chipman,  D. L. Crittenden,  H. Dachsel,  
 R. J. Doerksen,  A. D. Dutoi,  R. G. Edgar,  J. Fosso-Tande,  
 L. Fusti-Molnar,  D. Ghosh,  A. Ghysels,  A. Golubeva-Zadorozhnaya,  
 J. Gonthier,  M. S. Gordon,  S. R. Gwaltney,  G. Hawkins,  J. E. Herr,  
 A. Heyden,  S. Hirata,  E. G. Hohenstein,  G. Kedziora,  F. J. Keil,  
 C. Kelley,  Jihan Kim,  R. A. King,  R. Z. Khaliullin,  P. P. Korambath,  
 W. Kurlancheek,  A. Laurent,  A. M. Lee,  M. S. Lee,  S. V. Levchenko,  
 Ching Yeh Lin,  D. Liotard,  E. Livshits,  R. C. Lochan,  I. Lotan,  
 L. A. Martinez-Martinez,  P. E. Maslen,  N. Nair,  D. P. O'Neill,  
 D. Neuhauser,  E. Neuscamman,  C. M. Oana,  R. Olivares-Amaya,  R. Olson,  
 T. M. Perrine,  B. Peters,  P. A. Pieniazek,  A. Prociuk,  Y. M. Rhee,  
 J. Ritchie,  M. A. Rohrdanz,  E. Rosta,  N. J. Russ,  H. F. Schaefer III,  
 M. W. Schmidt,  N. E. Schultz,  S. Sharma,  N. Shenvi,  C. D. Sherrill,  
 A. C. Simmonett,  A. Sodt,  T. Stein,  D. Stuck,  K. S. Thanthiriwatte,  
 V. Vanovschi,  L. Vogt,  Tao Wang,  A. Warshel,  M. A. Watson,  
 C. F. Williams,  Q. Wu,  X. Xu,  Jun Yang,  W. Zhang,  Yan Zhao

 Please cite Q-Chem as follows:
 Y. Shao et al., Mol. Phys. 113, 184-215 (2015)
 DOI: 10.1080/00268976.2014.952696

 Q-Chem 5.4.0 for Intel X86 EM64T Linux

 Parts of Q-Chem use Armadillo 9.800.1 (Horizon Scraper).
 http://arma.sourceforge.net/

 Q-Chem begins on Sun Jul 10 03:37:38 2022  

 Host: 
0

     Scratch files written to ./qchem3830164//
 May1621 |scratch|qcdevops|jenkins|workspace|build_RNUM    
 Processing $rem in /cm/shared/apps/spack/cpu/opt/spack/linux-centos8-zen2/gcc-10.2.0/qchem-5.4-akfmr7b3t57bfs6qan3padb2wnb2i7cl/config/preferences:
 Processing $rem in /home/theleonzhang/.qchemrc:
 Symmetry turned off for PCM/SM12/SMD calculation
 Core orbitals will be frozen

 Checking the input file for inconsistencies... 	...done.

--------------------------------------------------------------
User input:
--------------------------------------------------------------
$molecule
0 1
C	-0.386946	-3.866725	-0.671636
C	0.306544	-3.703963	0.530345
C	0.533261	-2.357056	0.923770
H	0.651857	-4.561092	1.128109
C	-0.000000	-1.440664	-0.000000
S	-0.772250	-2.286957	-1.337557
C	1.260680	-1.978743	2.184153
H	1.583283	-2.878678	2.742769
H	0.622180	-1.376015	2.863347
H	2.168011	-1.375728	1.971094
C	0.000000	0.000000	0.000000
C	0.431829	0.747884	1.099446
C	1.123799	1.946373	0.776721
H	0.247423	0.428497	2.136088
C	1.234147	2.137457	-0.612546
S	0.471221	0.816130	-1.486809
C	1.667694	2.888380	1.814609
H	1.454874	2.519768	2.836676
H	1.222009	3.901210	1.726239
H	2.767675	3.008788	1.726228
H	1.708773	2.959493	-1.161575
H	-1.336254	-4.392713	-0.521098
H	0.218374	-4.392347	-1.418509
H	0.935365	-1.440391	-0.539900
$end

$rem
JOBTYPE		SP
EXCHANGE	HF
CORRELATION	pRIMP2
BASIS		cc-pvtz
METHOD		rimp2
AUX_BASIS	rimp2-cc-pvtz
SOLVENT_METHOD	PCM
PURECART	11111
SYMMETRY	false
MEM_TOTAL	110000
SCF_CONVERGENCE = 6
THRESH=10
$end



$solvent
dielectric 4.90
$end
--------------------------------------------------------------
 ----------------------------------------------------------------
             Standard Nuclear Orientation (Angstroms)
    I     Atom           X                Y                Z
 ----------------------------------------------------------------
    1      C      -0.3869460000    -3.8667250000    -0.6716360000
    2      C       0.3065440000    -3.7039630000     0.5303450000
    3      C       0.5332610000    -2.3570560000     0.9237700000
    4      H       0.6518570000    -4.5610920000     1.1281090000
    5      C       0.0000000000    -1.4406640000     0.0000000000
    6      S      -0.7722500000    -2.2869570000    -1.3375570000
    7      C       1.2606800000    -1.9787430000     2.1841530000
    8      H       1.5832830000    -2.8786780000     2.7427690000
    9      H       0.6221800000    -1.3760150000     2.8633470000
   10      H       2.1680110000    -1.3757280000     1.9710940000
   11      C       0.0000000000     0.0000000000     0.0000000000
   12      C       0.4318290000     0.7478840000     1.0994460000
   13      C       1.1237990000     1.9463730000     0.7767210000
   14      H       0.2474230000     0.4284970000     2.1360880000
   15      C       1.2341470000     2.1374570000    -0.6125460000
   16      S       0.4712210000     0.8161300000    -1.4868090000
   17      C       1.6676940000     2.8883800000     1.8146090000
   18      H       1.4548740000     2.5197680000     2.8366760000
   19      H       1.2220090000     3.9012100000     1.7262390000
   20      H       2.7676750000     3.0087880000     1.7262280000
   21      H       1.7087730000     2.9594930000    -1.1615750000
   22      H      -1.3362540000    -4.3927130000    -0.5210980000
   23      H       0.2183740000    -4.3923470000    -1.4185090000
   24      H       0.9353650000    -1.4403910000    -0.5399000000
 ----------------------------------------------------------------
 Nuclear Repulsion Energy =         882.59835509 hartrees
 There are       52 alpha and       52 beta electrons

 Q-Chem warning in module forms1/BasisType.C, line 2236:

 You are not using the predefined 5D/6D in this basis set.

 Requested basis set is cc-pVTZ
 There are 196 shells and 536 basis functions

 Total QAlloc Memory Limit 110000 MB
 Mega-Array Size       188 MB
 MEM_STATIC part       192 MB
 Discretize the solute cavity surface with Lebedev spheres
	Using 110 Lebedev grid points for each H atom
	Using 194 Lebedev grid points for other atoms
	Atomic van der Waals radii will be scaled by 1.20
 Remove points where switching function is < 1.0e-08
 Keep 1564 surface tesserae and discard 2084 interior tesserae
 Molecular Surface Area = 231.143 Angst**2
 Requested basis set is rimp2-cc-pVTZ
 There are 414 shells and 1414 basis functions
 A cutoff of  1.0D-10 yielded  14318 shell pairs
 There are    103952 function pairs (    133231 Cartesian)
 Smallest overlap matrix eigenvalue = 5.43E-05

 Scale SEOQF with 1.000000e-01/1.000000e-01/1.000000e-01

 Standard Electronic Orientation quadrupole field applied
 Nucleus-field energy     =     0.0000000234 hartrees
 Guess from superposition of atomic densities
 Warning:  Energy on first SCF cycle will be non-variational
 SAD guess density has 104.000000 electrons

 -----------------------------------------------------------------------
  General SCF calculation program by
  Eric Jon Sundstrom, Paul Horn, Yuezhi Mao, Dmitri Zuev, Alec White,
  David Stuck, Shaama M.S., Shane Yost, Joonho Lee, David Small,
  Daniel Levine, Susi Lehtola, Hugh Burton, Evgeny Epifanovsky,
  Bang C. Huynh
 -----------------------------------------------------------------------
 Hartree-Fock
 A restricted SCF calculation will be
 performed using DIIS
 SCF converges when DIIS error is below 1.0e-06
 ---------------------------------------
  Cycle       Energy         DIIS error
 ---------------------------------------
    1   -1186.0913143398      2.40e-02  
    2   -1180.5940926703      1.57e-03  
    3   -1180.7206878005      6.18e-04  
    4   -1180.7355604786      3.35e-04  
    5   -1180.7407786191      6.00e-05  
    6   -1180.7410354969      2.50e-05  
    7   -1180.7410979836      9.19e-06  
    8   -1180.7411118206      4.32e-06  
    9   -1180.7411148093      1.50e-06  
   10   -1180.7411152946      5.14e-07  Convergence criterion met
 ---------------------------------------
 SCF time:   CPU 585.64s  wall 587.00s 

************** Final PCM Free Energy Summary **************
 G_electrostatic  =      -0.00958128 hartree =      -6.01234537 kcal/mol
 G_cavitation     =       0.00000000 hartree =       0.00000000 kcal/mol
 G_dispersion     =       0.00000000 hartree =       0.00000000 kcal/mol
 G_repulsion      =       0.00000000 hartree =       0.00000000 kcal/mol
 --------------------------------------------------
 Non-electrostatic Free Energy =       0.00000000 hartree =       0.00000000 kcal/mol
 Total                         =      -0.00958128 hartree =      -6.01234537 kcal/mol
 --------------------------------------------------
 SCF Energy (H0 + V/2)                       =   -1180.74111529 
 Solute Internal Energy (H0)                 =   -1180.73153401 
 Total Free Energy (H0 + V/2 + non-elec)     =   -1180.74111529 hartree
                                             = -740926.23264648 kcal/mol
***********************************************************

 SCF   energy in the final basis set =    -1180.7411152946
 Total energy in the final basis set =    -1180.7411152946


 --------------------------------------------------------------
  Generalized many-body perturbation theory program
  by Joonho Lee, Fazle Rob, Xintian Feng, Evgeny Epifanovsky

 No regularization used 
 (reg. param. = 0.0000e+00)
  (P|Q)^-1/2 Time:  CPU 1.89 s  wall 1.89 s

 In RI-MP2 calculation: 
 # of frozen core orbitals: 20

 Components of the RIMP2 correlation energy:
        aaaa    correlation energy =        -0.2521679936 a.u.
        abab    correlation energy =        -1.5057492844 a.u.
        bbbb    correlation energy =        -0.2521679936 a.u.
        non-Brillouin singles      =        -0.0000000000 a.u.
        total same-spin energy     =        -0.5043359871 a.u.
        total opposite-spin energy =        -1.5057492844 a.u.

 Total  RIMP2   correlation energy =        -2.0100852715 a.u.
        RIMP2         total energy =     -1182.7512005661 a.u.

 RI-MP2 Energy Time:  CPU 80.16 s  wall 80.31 s
 
 --------------------------------------------------------------
 
                    Orbital Energies (a.u.)
 --------------------------------------------------------------
 
 Alpha MOs
 -- Occupied --
-91.9802 -91.9415 -11.2821 -11.2645 -11.2626 -11.2592 -11.2508 -11.2425
-11.2362 -11.2326 -11.2291 -11.2217  -8.9806  -8.9465  -6.6615  -6.6609
 -6.6603  -6.6279  -6.6269  -6.6256  -1.2032  -1.1531  -1.0604  -1.0307
 -0.9996  -0.9636  -0.9145  -0.9002  -0.8134  -0.7622  -0.7380  -0.7052
 -0.6537  -0.6439  -0.6111  -0.5932  -0.5814  -0.5706  -0.5645  -0.5524
 -0.5467  -0.5346  -0.5224  -0.5063  -0.4839  -0.4757  -0.4634  -0.4456
 -0.3567  -0.3432  -0.3248  -0.2660
 -- Virtual --
  0.0896   0.1324   0.1422   0.1470   0.1563   0.1731   0.1768   0.1842
  0.1903   0.2023   0.2063   0.2148   0.2269   0.2355   0.2378   0.2446
  0.2494   0.2739   0.2799   0.2988   0.3230   0.3315   0.3461   0.3554
  0.3607   0.3794   0.3905   0.3933   0.3977   0.4084   0.4193   0.4259
  0.4412   0.4423   0.4558   0.4705   0.4719   0.4772   0.4851   0.4907
  0.4970   0.5097   0.5192   0.5240   0.5319   0.5429   0.5531   0.5585
  0.5629   0.5821   0.5894   0.5924   0.6019   0.6082   0.6129   0.6159
  0.6212   0.6218   0.6296   0.6398   0.6429   0.6494   0.6601   0.6632
  0.6661   0.6812   0.6866   0.6972   0.7015   0.7131   0.7174   0.7307
  0.7383   0.7530   0.7624   0.7689   0.7841   0.7945   0.8030   0.8109
  0.8262   0.8418   0.8498   0.8628   0.8723   0.8975   0.9093   0.9172
  0.9307   0.9416   0.9507   0.9629   0.9820   0.9841   0.9918   1.0029
  1.0126   1.0338   1.0422   1.0530   1.0591   1.0628   1.0761   1.0860
  1.0917   1.1032   1.1061   1.1322   1.1412   1.1552   1.1676   1.1818
  1.1885   1.1996   1.2009   1.2128   1.2201   1.2277   1.2375   1.2391
  1.2422   1.2608   1.2691   1.2777   1.2901   1.2950   1.3097   1.3187
  1.3263   1.3333   1.3470   1.3665   1.3778   1.3919   1.4073   1.4147
  1.4282   1.4378   1.4467   1.4556   1.4813   1.4838   1.4849   1.4974
  1.5043   1.5151   1.5185   1.5301   1.5348   1.5427   1.5499   1.5599
  1.5721   1.5797   1.5876   1.6041   1.6148   1.6274   1.6322   1.6423
  1.6522   1.6628   1.6847   1.6910   1.7103   1.7137   1.7411   1.7534
  1.7588   1.7624   1.7792   1.7955   1.7992   1.8312   1.8493   1.8726
  1.9060   1.9162   1.9282   1.9472   1.9525   1.9817   1.9931   2.0024
  2.0254   2.0420   2.0489   2.0593   2.0866   2.1157   2.1284   2.1525
  2.1867   2.1952   2.2167   2.2238   2.2405   2.2459   2.2584   2.2822
  2.2990   2.3107   2.3342   2.3512   2.4169   2.4289   2.4569   2.4785
  2.5007   2.5168   2.5405   2.5650   2.5750   2.5889   2.5991   2.6156
  2.6345   2.6493   2.6545   2.6681   2.6770   2.6982   2.7073   2.7312
  2.7449   2.7492   2.7654   2.7679   2.7788   2.8026   2.8174   2.8237
  2.8319   2.8552   2.8620   2.8689   2.8928   2.9210   2.9273   2.9408
  2.9610   2.9697   2.9783   2.9937   3.0139   3.0202   3.0282   3.0447
  3.0517   3.0835   3.0952   3.1055   3.1090   3.1153   3.1279   3.1416
  3.1450   3.1613   3.1656   3.1767   3.1889   3.1922   3.2088   3.2226
  3.2304   3.2377   3.2510   3.2612   3.2751   3.2768   3.2945   3.3049
  3.3097   3.3283   3.3319   3.3353   3.3430   3.3537   3.3657   3.3697
  3.3751   3.3798   3.3875   3.4001   3.4119   3.4163   3.4241   3.4322
  3.4384   3.4479   3.4607   3.4689   3.4772   3.4895   3.4994   3.5083
  3.5174   3.5320   3.5360   3.5424   3.5452   3.5615   3.5711   3.5739
  3.5984   3.6083   3.6215   3.6284   3.6395   3.6453   3.6562   3.6605
  3.6836   3.6852   3.6982   3.7041   3.7165   3.7216   3.7287   3.7434
  3.7552   3.7695   3.7786   3.7864   3.7977   3.8047   3.8163   3.8301
  3.8349   3.8473   3.8624   3.8649   3.8794   3.8933   3.9051   3.9251
  3.9438   3.9515   3.9653   3.9720   3.9748   3.9876   4.0098   4.0176
  4.0280   4.0513   4.0552   4.0581   4.0750   4.0948   4.1082   4.1213
  4.1309   4.1426   4.1525   4.1591   4.1639   4.1743   4.1951   4.2032
  4.2213   4.2302   4.2373   4.2395   4.2554   4.2644   4.2760   4.2816
  4.3029   4.3114   4.3212   4.3331   4.3440   4.3601   4.3697   4.3840
  4.3889   4.3963   4.4000   4.4083   4.4199   4.4404   4.4429   4.4569
  4.4679   4.4771   4.4897   4.5060   4.5193   4.5422   4.5514   4.5854
  4.5973   4.6172   4.6193   4.6371   4.6447   4.6611   4.6699   4.6869
  4.7178   4.7362   4.7437   4.7655   4.7929   4.8060   4.8376   4.8465
  4.8604   4.8715   4.8979   4.9162   4.9419   4.9531   4.9741   5.0153
  5.0462   5.0614   5.0927   5.1009   5.1229   5.1262   5.1371   5.1732
  5.2127   5.2157   5.2499   5.2528   5.2795   5.2986   5.3109   5.3223
  5.3358   5.3759   5.3786   5.4031   5.4106   5.4243   5.4400   5.4484
  5.4743   5.5131   5.5201   5.5363   5.5546   5.5766   5.5793   5.6005
  5.6139   5.6281   5.6315   5.6596   5.6678   5.7031   5.7152   5.7533
  5.7640   5.7894   5.8271   5.9859   6.0286   6.0473   6.1200   6.1557
  6.2161   6.2279   6.2418   6.2489   6.2648   6.2872   6.3039   6.3105
  6.4129   6.5140   9.4325  10.6021  12.1125  12.8697  13.1455  13.9892
 14.1087  14.2082  14.4095  14.8885
 --------------------------------------------------------------
 
          Ground-State Mulliken Net Atomic Charges

     Atom                 Charge (a.u.)
  ----------------------------------------
      1 C                    -0.075484
      2 C                    -0.314498
      3 C                    -0.062026
      4 H                     0.178890
      5 C                     0.109744
      6 S                    -0.182170
      7 C                    -0.296129
      8 H                     0.119509
      9 H                     0.103402
     10 H                     0.112536
     11 C                    -0.005198
     12 C                    -0.337429
     13 C                     0.063464
     14 H                     0.190916
     15 C                    -0.262452
     16 S                     0.005298
     17 C                    -0.271008
     18 H                     0.101628
     19 H                     0.109891
     20 H                     0.108121
     21 H                     0.197044
     22 H                     0.113072
     23 H                     0.110400
     24 H                     0.182481
  ----------------------------------------
  Sum of atomic charges =     0.000000

 -----------------------------------------------------------------
                    Cartesian Multipole Moments
 -----------------------------------------------------------------
    Charge (ESU x 10^10)
                -0.0000
    Dipole Moment (Debye)
         X       2.8313      Y      -0.0559      Z       3.2713
       Tot       4.3268
    Quadrupole Moments (Debye-Ang)
        XX     -89.3053     XY       1.6021     YY     -75.7806
        XZ       0.4618     YZ      -1.3863     ZZ     -85.7556
    Octopole Moments (Debye-Ang^2)
       XXX    -106.5418    XXY      62.5295    XYY     -19.6742
       YYY     135.5747    XXZ      -0.6749    XYZ      -2.8153
       YYZ      -5.0554    XZZ     -28.1017    YZZ      59.2707
       ZZZ       6.6321
    Hexadecapole Moments (Debye-Ang^3)
      XXXX    -533.6564   XXXY    -209.4358   XXYY    -547.5774
      XYYY    -180.3489   YYYY   -2574.8845   XXXZ    -174.9927
      XXYZ     -37.9461   XYYZ     -51.5464   YYYZ     -87.7213
      XXZZ    -249.1830   XYZZ     -74.6205   YYZZ    -609.3515
      XZZZ    -168.4398   YZZZ    -104.2134   ZZZZ    -964.1026
 -----------------------------------------------------------------
 Total job time:  669.58s(wall), 666.68s(cpu) 
 Sun Jul 10 03:48:48 2022

        *************************************************************
        *                                                           *
        *  Thank you very much for using Q-Chem.  Have a nice day.  *
        *                                                           *
        *************************************************************


remove work dirs ./qchem3830164.0 -- ./qchem3830164.-1
rm -rf ./qchem3830164
