You are running Q-Chem version: 5.4.0

#
# job setting
#
local host:  exp-1-46
current dir: /expanse/lustre/scratch/theleonzhang/temp_project/Hydrogenated_Rotation_Test
input file:  Methylthiophene_Phi_20_Theta_200_Methylthiophene_Hydrogenated.qcin
output file: 
nprocs     : 0
nthreads   : 1
#
# qchem installation setting
#
QC:          /cm/shared/apps/spack/cpu/opt/spack/linux-centos8-zen2/gcc-10.2.0/qchem-5.4-akfmr7b3t57bfs6qan3padb2wnb2i7cl
QCAUX:       /cm/shared/apps/spack/cpu/opt/spack/linux-centos8-zen2/gcc-10.2.0/qchem-5.4-akfmr7b3t57bfs6qan3padb2wnb2i7cl/qcaux
QCPROG:      /cm/shared/apps/spack/cpu/opt/spack/linux-centos8-zen2/gcc-10.2.0/qchem-5.4-akfmr7b3t57bfs6qan3padb2wnb2i7cl/exe/qcprog.exe_s
QCPROG_S:    /cm/shared/apps/spack/cpu/opt/spack/linux-centos8-zen2/gcc-10.2.0/qchem-5.4-akfmr7b3t57bfs6qan3padb2wnb2i7cl/exe/qcprog.exe_s
PARALLEL:    -DSERIAL
QCMPI:       mpich
#
# qchem directory setting
#
qcrun:       qchem4013706
QCSCRATCH:   .
QCLOCALSCR:  
QCTMPDIR:    .
QCFILEPREF:  ./qchem4013706
QCSAVEDIR:   
workdirs:    ./qchem4013706
workdir0:    ./qchem4013706
partmpdirs =  
#
# parallel setting
#
QCRSH:           ssh
QCMPI:           mpich
QCMPIRUN:        /cm/shared/apps/spack/cpu/opt/spack/linux-centos8-zen2/gcc-10.2.0/qchem-5.4-akfmr7b3t57bfs6qan3padb2wnb2i7cl/bin/mpi/mpirun_qchem
QCMACHINEFILE:   ./qchem4013706/hostfile

#
# env setting
#
exported envs:   QC QCAUX QCSCRATCH QCRUNNAME QCFILEPREF QCPROG QCPROG_S GUIFILE

Running Job 1 of 1 Methylthiophene_Phi_20_Theta_200_Methylthiophene_Hydrogenated.qcin
qchem Methylthiophene_Phi_20_Theta_200_Methylthiophene_Hydrogenated.qcin_4013706.0 ./qchem4013706/ 0
/cm/shared/apps/spack/cpu/opt/spack/linux-centos8-zen2/gcc-10.2.0/qchem-5.4-akfmr7b3t57bfs6qan3padb2wnb2i7cl/exe/qcprog.exe_s Methylthiophene_Phi_20_Theta_200_Methylthiophene_Hydrogenated.qcin_4013706.0 ./qchem4013706/
                  Welcome to Q-Chem
     A Quantum Leap Into The Future Of Chemistry


 Q-Chem 5.4, Q-Chem, Inc., Pleasanton, CA (2021)

 License issued to: University of California, San Diego (site)

 E. Epifanovsky,  A. T. B. Gilbert,  Xintian Feng,  Joonho Lee,  Yuezhi Mao,  
 N. Mardirossian,  P. Pokhilko,  A. White,  M. Wormit,  M. P. Coons,  
 A. L. Dempwolff,  Zhengting Gan,  D. Hait,  P. R. Horn,  L. D. Jacobson,  
 I. Kaliman,  J. Kussmann,  A. W. Lange,  Ka Un Lao,  D. S. Levine,  Jie Liu,  
 S. C. McKenzie,  A. F. Morrison,  K. Nanda,  F. Plasser,  D. R. Rehn,  
 M. L. Vidal,  Zhi-Qiang You,  Ying Zhu,  B. Alam,  B. Albrecht,  
 A. Aldossary,  E. Alguire,  J. H. Andersen,  D. Barton,  K. Begam,  A. Behn,  
 Y. A. Bernard,  E. J. Berquist,  H. Burton,  A. Carreras,  K. Carter-Fenk,  
 R. Chakraborty,  A. D. Chien,  K. D. Closser,  V. Cofer-Shabica,  
 S. Dasgupta,  Jia Deng,  M. de Wergifosse,  M. Diedenhofen,  Hainam Do,  
 S. Ehlert,  Po-Tung Fang,  S. Fatehi,  Qingguo Feng,  J. Gayvert,  
 Qinghui Ge,  G. Gidofalvi,  M. Goldey,  J. Gomes,  C. Gonzalez-Espinoza,  
 S. Gulania,  A. Gunina,  M. W. D. Hanson-Heine,  P. H. P. Harbach,  
 A. W. Hauser,  M. F. Herbst,  M. Hernandez Vera,  M. Hodecker,  
 Z. C. Holden,  S. Houck,  Xunkun Huang,  Kerwin Hui,  B. C. Huynh,  
 M. Ivanov,  Hyunjun Ji,  Hanjie Jiang,  B. Kaduk,  S. Kaehler,  
 K. Khistyaev,  Jaehoon Kim,  P. Klunzinger,  Z. Koczor-Benda,  
 Joong Hoon Koh,  D. Kosenkov,  L. Koulias,  T. Kowalczyk,  C. M. Krauter,  
 K. Kue,  A. Kunitsa,  T. Kus,  A. Landau,  K. V. Lawler,  D. Lefrancois,  
 S. Lehtola,  Rain Li,  Yi-Pei Li,  Jiashu Liang,  M. Liebenthal,  
 Hung-Hsuan Lin,  You-Sheng Lin,  Fenglai Liu,  Kuan-Yu Liu,  
 M. Loipersberger,  A. Luenser,  A. Manjanath,  P. Manohar,  E. Mansoor,  
 S. F. Manzer,  Shan-Ping Mao,  A. V. Marenich,  T. Markovich,  S. Mason,  
 S. A. Maurer,  P. F. McLaughlin,  M. F. S. J. Menger,  J.-M. Mewes,  
 S. A. Mewes,  P. Morgante,  J. W. Mullinax,  T. S. Nguyen-Beck,  
 K. J. Oosterbaan,  G. Paran,  Alexander C. Paul,  Suranjan K. Paul,  
 F. Pavosevic,  Zheng Pei,  S. Prager,  E. I. Proynov,  E. Ramos,  B. Rana,  
 A. E. Rask,  A. Rettig,  R. M. Richard,  F. Rob,  E. Rossomme,  T. Scheele,  
 M. Scheurer,  M. Schneider,  N. Sergueev,  S. M. Sharada,  W. Skomorowski,  
 D. W. Small,  C. J. Stein,  Yu-Chuan Su,  E. J. Sundstrom,  Zhen Tao,  
 J. Thirman,  T. Tsuchimochi,  N. M. Tubman,  S. P. Veccham,  O. Vydrov,  
 J. Wenzel,  J. Witte,  A. Yamada,  Kun Yao,  S. Yeganeh,  S. R. Yost,  
 A. Zech,  Igor Ying Zhang,  Xing Zhang,  Yu Zhang,  D. Zuev,  
 A. Aspuru-Guzik,  A. T. Bell,  N. A. Besley,  K. B. Bravaya,  B. R. Brooks,  
 D. Casanova,  Jeng-Da Chai,  S. Coriani,  C. J. Cramer,  
 A. E. DePrince, III,  R. A. DiStasio Jr.,  A. Dreuw,  B. D. Dunietz,  
 T. R. Furlani,  W. A. Goddard III,  S. Grimme,  S. Hammes-Schiffer,  
 T. Head-Gordon,  W. J. Hehre,  Chao-Ping Hsu,  T.-C. Jagau,  Yousung Jung,  
 A. Klamt,  Jing Kong,  D. S. Lambrecht,  WanZhen Liang,  N. J. Mayhall,  
 C. W. McCurdy,  J. B. Neaton,  C. Ochsenfeld,  J. A. Parkhill,  R. Peverati,  
 V. A. Rassolov,  Yihan Shao,  L. V. Slipchenko,  T. Stauch,  R. P. Steele,  
 J. E. Subotnik,  A. J. W. Thom,  A. Tkatchenko,  D. G. Truhlar,  
 T. Van Voorhis,  T. A. Wesolowski,  K. B. Whaley,  H. L. Woodcock III,  
 P. M. Zimmerman,  S. Faraji,  P. M. W. Gill,  M. Head-Gordon,  
 J. M. Herbert,  A. I. Krylov

 Contributors to earlier versions of Q-Chem not listed above: 
 R. D. Adamson,  B. Austin,  R. Baer,  J. Baker,  G. J. O. Beran,  
 K. Brandhorst,  S. T. Brown,  E. F. C. Byrd,  A. K. Chakraborty,  
 G. K. L. Chan,  Chun-Min Chang,  Yunqing Chen,  C.-L. Cheng,  
 Siu Hung Chien,  D. M. Chipman,  D. L. Crittenden,  H. Dachsel,  
 R. J. Doerksen,  A. D. Dutoi,  R. G. Edgar,  J. Fosso-Tande,  
 L. Fusti-Molnar,  D. Ghosh,  A. Ghysels,  A. Golubeva-Zadorozhnaya,  
 J. Gonthier,  M. S. Gordon,  S. R. Gwaltney,  G. Hawkins,  J. E. Herr,  
 A. Heyden,  S. Hirata,  E. G. Hohenstein,  G. Kedziora,  F. J. Keil,  
 C. Kelley,  Jihan Kim,  R. A. King,  R. Z. Khaliullin,  P. P. Korambath,  
 W. Kurlancheek,  A. Laurent,  A. M. Lee,  M. S. Lee,  S. V. Levchenko,  
 Ching Yeh Lin,  D. Liotard,  E. Livshits,  R. C. Lochan,  I. Lotan,  
 L. A. Martinez-Martinez,  P. E. Maslen,  N. Nair,  D. P. O'Neill,  
 D. Neuhauser,  E. Neuscamman,  C. M. Oana,  R. Olivares-Amaya,  R. Olson,  
 T. M. Perrine,  B. Peters,  P. A. Pieniazek,  A. Prociuk,  Y. M. Rhee,  
 J. Ritchie,  M. A. Rohrdanz,  E. Rosta,  N. J. Russ,  H. F. Schaefer III,  
 M. W. Schmidt,  N. E. Schultz,  S. Sharma,  N. Shenvi,  C. D. Sherrill,  
 A. C. Simmonett,  A. Sodt,  T. Stein,  D. Stuck,  K. S. Thanthiriwatte,  
 V. Vanovschi,  L. Vogt,  Tao Wang,  A. Warshel,  M. A. Watson,  
 C. F. Williams,  Q. Wu,  X. Xu,  Jun Yang,  W. Zhang,  Yan Zhao

 Please cite Q-Chem as follows:
 Y. Shao et al., Mol. Phys. 113, 184-215 (2015)
 DOI: 10.1080/00268976.2014.952696

 Q-Chem 5.4.0 for Intel X86 EM64T Linux

 Parts of Q-Chem use Armadillo 9.800.1 (Horizon Scraper).
 http://arma.sourceforge.net/

 Q-Chem begins on Sun Jul 10 02:57:51 2022  

 Host: 
0

     Scratch files written to ./qchem4013706//
 May1621 |scratch|qcdevops|jenkins|workspace|build_RNUM    
 Processing $rem in /cm/shared/apps/spack/cpu/opt/spack/linux-centos8-zen2/gcc-10.2.0/qchem-5.4-akfmr7b3t57bfs6qan3padb2wnb2i7cl/config/preferences:
 Processing $rem in /home/theleonzhang/.qchemrc:
 Symmetry turned off for PCM/SM12/SMD calculation
 Core orbitals will be frozen

 Checking the input file for inconsistencies... 	...done.

--------------------------------------------------------------
User input:
--------------------------------------------------------------
$molecule
0 1
C	0.265779	-3.866725	-0.728138
C	-0.209225	-3.703963	0.575726
C	-0.364875	-2.357056	1.002290
H	-0.445176	-4.561092	1.224486
C	0.000000	-1.440664	0.000000
S	0.528236	-2.286957	-1.451343
C	-0.862808	-1.978743	2.369683
H	-1.083368	-2.878678	2.975883
H	-1.793522	-1.376015	2.317142
H	-0.116375	-1.375728	2.927787
C	0.000000	0.000000	0.000000
C	0.295399	0.811508	1.099446
C	0.768742	2.111949	0.776721
H	0.169256	0.464952	2.136088
C	0.844232	2.319291	-0.612546
S	0.322342	0.885558	-1.486809
C	1.140796	3.134091	1.814609
H	0.995218	2.734123	2.836676
H	0.526006	4.054142	1.726239
H	2.203157	3.443680	1.726228
H	1.168902	3.211257	-1.161575
H	-0.459743	-4.392713	-1.358585
H	1.227009	-4.392347	-0.744515
H	-1.014829	-1.440937	-0.369490
$end

$rem
JOBTYPE		SP
EXCHANGE	HF
CORRELATION	pRIMP2
BASIS		cc-pvtz
METHOD		rimp2
AUX_BASIS	rimp2-cc-pvtz
SOLVENT_METHOD	PCM
PURECART	11111
SYMMETRY	false
MEM_TOTAL	110000
SCF_CONVERGENCE = 6
THRESH=10
$end



$solvent
dielectric 4.90
$end
--------------------------------------------------------------
 ----------------------------------------------------------------
             Standard Nuclear Orientation (Angstroms)
    I     Atom           X                Y                Z
 ----------------------------------------------------------------
    1      C       0.2657790000    -3.8667250000    -0.7281380000
    2      C      -0.2092250000    -3.7039630000     0.5757260000
    3      C      -0.3648750000    -2.3570560000     1.0022900000
    4      H      -0.4451760000    -4.5610920000     1.2244860000
    5      C       0.0000000000    -1.4406640000     0.0000000000
    6      S       0.5282360000    -2.2869570000    -1.4513430000
    7      C      -0.8628080000    -1.9787430000     2.3696830000
    8      H      -1.0833680000    -2.8786780000     2.9758830000
    9      H      -1.7935220000    -1.3760150000     2.3171420000
   10      H      -0.1163750000    -1.3757280000     2.9277870000
   11      C       0.0000000000     0.0000000000     0.0000000000
   12      C       0.2953990000     0.8115080000     1.0994460000
   13      C       0.7687420000     2.1119490000     0.7767210000
   14      H       0.1692560000     0.4649520000     2.1360880000
   15      C       0.8442320000     2.3192910000    -0.6125460000
   16      S       0.3223420000     0.8855580000    -1.4868090000
   17      C       1.1407960000     3.1340910000     1.8146090000
   18      H       0.9952180000     2.7341230000     2.8366760000
   19      H       0.5260060000     4.0541420000     1.7262390000
   20      H       2.2031570000     3.4436800000     1.7262280000
   21      H       1.1689020000     3.2112570000    -1.1615750000
   22      H      -0.4597430000    -4.3927130000    -1.3585850000
   23      H       1.2270090000    -4.3923470000    -0.7445150000
   24      H      -1.0148290000    -1.4409370000    -0.3694900000
 ----------------------------------------------------------------
 Nuclear Repulsion Energy =         878.31396431 hartrees
 There are       52 alpha and       52 beta electrons

 Q-Chem warning in module forms1/BasisType.C, line 2236:

 You are not using the predefined 5D/6D in this basis set.

 Requested basis set is cc-pVTZ
 There are 196 shells and 536 basis functions

 Total QAlloc Memory Limit 110000 MB
 Mega-Array Size       188 MB
 MEM_STATIC part       192 MB
 Discretize the solute cavity surface with Lebedev spheres
	Using 110 Lebedev grid points for each H atom
	Using 194 Lebedev grid points for other atoms
	Atomic van der Waals radii will be scaled by 1.20
 Remove points where switching function is < 1.0e-08
 Keep 1601 surface tesserae and discard 2047 interior tesserae
 Molecular Surface Area = 231.351 Angst**2
 Requested basis set is rimp2-cc-pVTZ
 There are 414 shells and 1414 basis functions
 A cutoff of  1.0D-10 yielded  14054 shell pairs
 There are    101762 function pairs (    130418 Cartesian)
 Smallest overlap matrix eigenvalue = 6.81E-05

 Scale SEOQF with 1.000000e-01/1.000000e-01/1.000000e-01

 Standard Electronic Orientation quadrupole field applied
 Nucleus-field energy     =     0.0000000222 hartrees
 Guess from superposition of atomic densities
 Warning:  Energy on first SCF cycle will be non-variational
 SAD guess density has 104.000000 electrons

 -----------------------------------------------------------------------
  General SCF calculation program by
  Eric Jon Sundstrom, Paul Horn, Yuezhi Mao, Dmitri Zuev, Alec White,
  David Stuck, Shaama M.S., Shane Yost, Joonho Lee, David Small,
  Daniel Levine, Susi Lehtola, Hugh Burton, Evgeny Epifanovsky,
  Bang C. Huynh
 -----------------------------------------------------------------------
 Hartree-Fock
 A restricted SCF calculation will be
 performed using DIIS
 SCF converges when DIIS error is below 1.0e-06
 ---------------------------------------
  Cycle       Energy         DIIS error
 ---------------------------------------
    1   -1186.0578667389      2.39e-02  
    2   -1180.5981035827      1.58e-03  
    3   -1180.7247060992      6.45e-04  
    4   -1180.7404331187      3.42e-04  
    5   -1180.7459192378      6.08e-05  
    6   -1180.7461818269      2.53e-05  
    7   -1180.7462462346      9.33e-06  
    8   -1180.7462608972      4.49e-06  
    9   -1180.7462642319      1.52e-06  
   10   -1180.7462647217      5.16e-07  Convergence criterion met
 ---------------------------------------
 SCF time:   CPU 576.32s  wall 578.00s 

************** Final PCM Free Energy Summary **************
 G_electrostatic  =      -0.00957845 hartree =      -6.01056822 kcal/mol
 G_cavitation     =       0.00000000 hartree =       0.00000000 kcal/mol
 G_dispersion     =       0.00000000 hartree =       0.00000000 kcal/mol
 G_repulsion      =       0.00000000 hartree =       0.00000000 kcal/mol
 --------------------------------------------------
 Non-electrostatic Free Energy =       0.00000000 hartree =       0.00000000 kcal/mol
 Total                         =      -0.00957845 hartree =      -6.01056822 kcal/mol
 --------------------------------------------------
 SCF Energy (H0 + V/2)                       =   -1180.74626472 
 Solute Internal Energy (H0)                 =   -1180.73668627 
 Total Free Energy (H0 + V/2 + non-elec)     =   -1180.74626472 hartree
                                             = -740929.46396073 kcal/mol
***********************************************************

 SCF   energy in the final basis set =    -1180.7462647217
 Total energy in the final basis set =    -1180.7462647217


 --------------------------------------------------------------
  Generalized many-body perturbation theory program
  by Joonho Lee, Fazle Rob, Xintian Feng, Evgeny Epifanovsky

 No regularization used 
 (reg. param. = 0.0000e+00)
  (P|Q)^-1/2 Time:  CPU 2.32 s  wall 2.32 s

 In RI-MP2 calculation: 
 # of frozen core orbitals: 20

 Components of the RIMP2 correlation energy:
        aaaa    correlation energy =        -0.2518376395 a.u.
        abab    correlation energy =        -1.5045487425 a.u.
        bbbb    correlation energy =        -0.2518376395 a.u.
        non-Brillouin singles      =        -0.0000000000 a.u.
        total same-spin energy     =        -0.5036752790 a.u.
        total opposite-spin energy =        -1.5045487425 a.u.

 Total  RIMP2   correlation energy =        -2.0082240216 a.u.
        RIMP2         total energy =     -1182.7544887433 a.u.

 RI-MP2 Energy Time:  CPU 118.94 s  wall 119.37 s
 
 --------------------------------------------------------------
 
                    Orbital Energies (a.u.)
 --------------------------------------------------------------
 
 Alpha MOs
 -- Occupied --
-91.9837 -91.9455 -11.2851 -11.2656 -11.2583 -11.2579 -11.2501 -11.2431
-11.2340 -11.2324 -11.2282 -11.2219  -8.9835  -8.9501  -6.6645  -6.6639
 -6.6633  -6.6315  -6.6304  -6.6291  -1.2015  -1.1527  -1.0596  -1.0317
 -1.0004  -0.9629  -0.9152  -0.8997  -0.8177  -0.7619  -0.7335  -0.7048
 -0.6550  -0.6443  -0.6099  -0.5935  -0.5843  -0.5682  -0.5651  -0.5512
 -0.5460  -0.5347  -0.5209  -0.5034  -0.4867  -0.4786  -0.4695  -0.4433
 -0.3594  -0.3432  -0.3239  -0.2634
 -- Virtual --
  0.0963   0.1325   0.1404   0.1480   0.1578   0.1699   0.1785   0.1861
  0.1882   0.2025   0.2088   0.2189   0.2201   0.2316   0.2377   0.2416
  0.2563   0.2772   0.2784   0.3044   0.3145   0.3228   0.3542   0.3589
  0.3674   0.3830   0.3840   0.3904   0.4021   0.4090   0.4152   0.4189
  0.4373   0.4499   0.4659   0.4703   0.4744   0.4808   0.4850   0.4926
  0.4948   0.5148   0.5243   0.5327   0.5396   0.5460   0.5572   0.5658
  0.5674   0.5839   0.5862   0.5912   0.6026   0.6038   0.6130   0.6193
  0.6243   0.6298   0.6310   0.6338   0.6389   0.6501   0.6545   0.6622
  0.6705   0.6731   0.6770   0.6886   0.7008   0.7121   0.7219   0.7273
  0.7432   0.7464   0.7619   0.7752   0.7808   0.7933   0.7965   0.8277
  0.8313   0.8527   0.8546   0.8662   0.8854   0.8977   0.9035   0.9186
  0.9284   0.9432   0.9476   0.9590   0.9710   0.9984   1.0034   1.0065
  1.0259   1.0278   1.0309   1.0406   1.0528   1.0583   1.0703   1.0717
  1.0885   1.0916   1.1042   1.1323   1.1426   1.1529   1.1647   1.1733
  1.1825   1.1867   1.1914   1.2064   1.2112   1.2193   1.2304   1.2439
  1.2496   1.2602   1.2642   1.2693   1.2789   1.2835   1.3031   1.3064
  1.3218   1.3298   1.3415   1.3589   1.3688   1.3848   1.4091   1.4133
  1.4267   1.4285   1.4373   1.4574   1.4778   1.4828   1.4870   1.5009
  1.5080   1.5161   1.5260   1.5338   1.5362   1.5419   1.5525   1.5582
  1.5672   1.5797   1.5915   1.6025   1.6249   1.6306   1.6356   1.6437
  1.6577   1.6667   1.6673   1.6946   1.6975   1.7161   1.7252   1.7353
  1.7500   1.7595   1.7780   1.8002   1.8177   1.8259   1.8504   1.8528
  1.8912   1.9012   1.9125   1.9339   1.9484   1.9673   1.9866   2.0067
  2.0155   2.0436   2.0622   2.0676   2.0970   2.1132   2.1448   2.1526
  2.1871   2.1961   2.2062   2.2190   2.2310   2.2527   2.2664   2.2826
  2.2947   2.2991   2.3099   2.3929   2.4251   2.4390   2.4592   2.4737
  2.4890   2.5167   2.5291   2.5473   2.5706   2.5728   2.5843   2.5991
  2.6292   2.6484   2.6584   2.6713   2.6762   2.6913   2.7193   2.7366
  2.7520   2.7598   2.7619   2.7835   2.7911   2.7973   2.8002   2.8064
  2.8340   2.8434   2.8467   2.8772   2.8922   2.8980   2.9171   2.9357
  2.9472   2.9583   2.9748   2.9955   3.0058   3.0298   3.0391   3.0436
  3.0646   3.0791   3.0919   3.0958   3.1074   3.1145   3.1294   3.1389
  3.1479   3.1626   3.1673   3.1686   3.1776   3.1873   3.1975   3.2237
  3.2256   3.2414   3.2496   3.2539   3.2795   3.2813   3.2967   3.3127
  3.3217   3.3279   3.3337   3.3445   3.3518   3.3539   3.3581   3.3666
  3.3744   3.3862   3.3911   3.3982   3.4064   3.4134   3.4214   3.4336
  3.4390   3.4459   3.4629   3.4726   3.4757   3.4805   3.4916   3.5080
  3.5128   3.5257   3.5356   3.5432   3.5504   3.5617   3.5746   3.5884
  3.5989   3.6064   3.6133   3.6181   3.6296   3.6359   3.6421   3.6627
  3.6712   3.6842   3.6945   3.6992   3.7134   3.7266   3.7338   3.7351
  3.7454   3.7614   3.7690   3.7754   3.7870   3.7932   3.7984   3.8174
  3.8206   3.8491   3.8509   3.8640   3.8690   3.8824   3.8962   3.9179
  3.9241   3.9458   3.9560   3.9689   3.9819   3.9891   4.0152   4.0282
  4.0305   4.0479   4.0545   4.0613   4.0647   4.0770   4.0972   4.1059
  4.1206   4.1338   4.1494   4.1554   4.1656   4.1752   4.1879   4.2024
  4.2154   4.2266   4.2341   4.2425   4.2460   4.2638   4.2704   4.2898
  4.2982   4.3105   4.3187   4.3358   4.3451   4.3561   4.3659   4.3752
  4.3805   4.3879   4.4019   4.4144   4.4224   4.4368   4.4490   4.4546
  4.4656   4.4726   4.4779   4.4827   4.4935   4.5041   4.5418   4.5817
  4.5959   4.6035   4.6109   4.6315   4.6416   4.6472   4.6581   4.6883
  4.7041   4.7299   4.7626   4.7751   4.7882   4.8163   4.8310   4.8512
  4.8685   4.8696   4.8825   4.9133   4.9422   4.9515   4.9899   4.9979
  5.0267   5.0554   5.0921   5.1068   5.1169   5.1270   5.1661   5.1952
  5.1969   5.2289   5.2430   5.2636   5.2880   5.2984   5.3130   5.3231
  5.3482   5.3718   5.3745   5.4079   5.4110   5.4172   5.4342   5.4420
  5.4850   5.5164   5.5340   5.5388   5.5516   5.5685   5.5767   5.5981
  5.6149   5.6248   5.6334   5.6582   5.6923   5.6986   5.7124   5.7326
  5.7716   5.8160   5.8361   5.9841   6.0297   6.0876   6.1310   6.1679
  6.2097   6.2286   6.2356   6.2579   6.2652   6.2943   6.3124   6.3768
  6.4094   6.5170   9.5151  10.8629  12.0843  12.9451  13.1795  13.9472
 14.0977  14.2079  14.3558  14.8084
 --------------------------------------------------------------
 
          Ground-State Mulliken Net Atomic Charges

     Atom                 Charge (a.u.)
  ----------------------------------------
      1 C                    -0.077004
      2 C                    -0.320464
      3 C                    -0.039127
      4 H                     0.177988
      5 C                     0.115135
      6 S                    -0.174374
      7 C                    -0.299252
      8 H                     0.120566
      9 H                     0.112901
     10 H                     0.104086
     11 C                    -0.070754
     12 C                    -0.256618
     13 C                     0.029911
     14 H                     0.191407
     15 C                    -0.259820
     16 S                     0.000864
     17 C                    -0.272559
     18 H                     0.100552
     19 H                     0.108388
     20 H                     0.108312
     21 H                     0.197881
     22 H                     0.111108
     23 H                     0.114298
     24 H                     0.176575
  ----------------------------------------
  Sum of atomic charges =     0.000000

 -----------------------------------------------------------------
                    Cartesian Multipole Moments
 -----------------------------------------------------------------
    Charge (ESU x 10^10)
                -0.0000
    Dipole Moment (Debye)
         X      -1.0847      Y      -0.1732      Z       3.3130
       Tot       3.4904
    Quadrupole Moments (Debye-Ang)
        XX     -90.7435     XY       5.8068     YY     -74.2157
        XZ       0.3833     YZ      -1.7504     ZZ     -85.5116
    Octopole Moments (Debye-Ang^2)
       XXX     -71.4713    XXY      52.9047    XYY     -13.8892
       YYY     123.5904    XXZ      -1.9496    XYZ       0.6924
       YYZ      -5.2896    XZZ     -24.0745    YZZ      53.1798
       ZZZ       6.8689
    Hexadecapole Moments (Debye-Ang^3)
      XXXX    -325.0027   XXXY    -161.6170   XXYY    -549.3102
      XYYY    -126.0671   YYYY   -2678.7099   XXXZ      63.5929
      XXYZ     -33.0261   XYYZ       5.1101   YYYZ     -96.9590
      XXZZ    -233.1376   XYZZ     -32.3336   YYZZ    -634.1079
      XZZZ      53.0758   YZZZ    -119.9442   ZZZZ   -1033.4661
 -----------------------------------------------------------------
 Total job time:  700.30s(wall), 696.30s(cpu) 
 Sun Jul 10 03:09:31 2022

        *************************************************************
        *                                                           *
        *  Thank you very much for using Q-Chem.  Have a nice day.  *
        *                                                           *
        *************************************************************


remove work dirs ./qchem4013706.0 -- ./qchem4013706.-1
rm -rf ./qchem4013706
You are running Q-Chem version: 5.4.0

#
# job setting
#
local host:  exp-3-09
current dir: /expanse/lustre/scratch/theleonzhang/temp_project/Hydrogenated_Rotation_Test
input file:  Methylthiophene_Phi_20_Theta_200_Methylthiophene_Hydrogenated.qcin
output file: 
nprocs     : 0
nthreads   : 1
#
# qchem installation setting
#
QC:          /cm/shared/apps/spack/cpu/opt/spack/linux-centos8-zen2/gcc-10.2.0/qchem-5.4-akfmr7b3t57bfs6qan3padb2wnb2i7cl
QCAUX:       /cm/shared/apps/spack/cpu/opt/spack/linux-centos8-zen2/gcc-10.2.0/qchem-5.4-akfmr7b3t57bfs6qan3padb2wnb2i7cl/qcaux
QCPROG:      /cm/shared/apps/spack/cpu/opt/spack/linux-centos8-zen2/gcc-10.2.0/qchem-5.4-akfmr7b3t57bfs6qan3padb2wnb2i7cl/exe/qcprog.exe_s
QCPROG_S:    /cm/shared/apps/spack/cpu/opt/spack/linux-centos8-zen2/gcc-10.2.0/qchem-5.4-akfmr7b3t57bfs6qan3padb2wnb2i7cl/exe/qcprog.exe_s
PARALLEL:    -DSERIAL
QCMPI:       mpich
#
# qchem directory setting
#
qcrun:       qchem916725
QCSCRATCH:   .
QCLOCALSCR:  
QCTMPDIR:    .
QCFILEPREF:  ./qchem916725
QCSAVEDIR:   
workdirs:    ./qchem916725
workdir0:    ./qchem916725
partmpdirs =  
#
# parallel setting
#
QCRSH:           ssh
QCMPI:           mpich
QCMPIRUN:        /cm/shared/apps/spack/cpu/opt/spack/linux-centos8-zen2/gcc-10.2.0/qchem-5.4-akfmr7b3t57bfs6qan3padb2wnb2i7cl/bin/mpi/mpirun_qchem
QCMACHINEFILE:   ./qchem916725/hostfile

#
# env setting
#
exported envs:   QC QCAUX QCSCRATCH QCRUNNAME QCFILEPREF QCPROG QCPROG_S GUIFILE

Running Job 1 of 1 Methylthiophene_Phi_20_Theta_200_Methylthiophene_Hydrogenated.qcin
qchem Methylthiophene_Phi_20_Theta_200_Methylthiophene_Hydrogenated.qcin_916725.0 ./qchem916725/ 0
/cm/shared/apps/spack/cpu/opt/spack/linux-centos8-zen2/gcc-10.2.0/qchem-5.4-akfmr7b3t57bfs6qan3padb2wnb2i7cl/exe/qcprog.exe_s Methylthiophene_Phi_20_Theta_200_Methylthiophene_Hydrogenated.qcin_916725.0 ./qchem916725/
                  Welcome to Q-Chem
     A Quantum Leap Into The Future Of Chemistry


 Q-Chem 5.4, Q-Chem, Inc., Pleasanton, CA (2021)

 License issued to: University of California, San Diego (site)

 E. Epifanovsky,  A. T. B. Gilbert,  Xintian Feng,  Joonho Lee,  Yuezhi Mao,  
 N. Mardirossian,  P. Pokhilko,  A. White,  M. Wormit,  M. P. Coons,  
 A. L. Dempwolff,  Zhengting Gan,  D. Hait,  P. R. Horn,  L. D. Jacobson,  
 I. Kaliman,  J. Kussmann,  A. W. Lange,  Ka Un Lao,  D. S. Levine,  Jie Liu,  
 S. C. McKenzie,  A. F. Morrison,  K. Nanda,  F. Plasser,  D. R. Rehn,  
 M. L. Vidal,  Zhi-Qiang You,  Ying Zhu,  B. Alam,  B. Albrecht,  
 A. Aldossary,  E. Alguire,  J. H. Andersen,  D. Barton,  K. Begam,  A. Behn,  
 Y. A. Bernard,  E. J. Berquist,  H. Burton,  A. Carreras,  K. Carter-Fenk,  
 R. Chakraborty,  A. D. Chien,  K. D. Closser,  V. Cofer-Shabica,  
 S. Dasgupta,  Jia Deng,  M. de Wergifosse,  M. Diedenhofen,  Hainam Do,  
 S. Ehlert,  Po-Tung Fang,  S. Fatehi,  Qingguo Feng,  J. Gayvert,  
 Qinghui Ge,  G. Gidofalvi,  M. Goldey,  J. Gomes,  C. Gonzalez-Espinoza,  
 S. Gulania,  A. Gunina,  M. W. D. Hanson-Heine,  P. H. P. Harbach,  
 A. W. Hauser,  M. F. Herbst,  M. Hernandez Vera,  M. Hodecker,  
 Z. C. Holden,  S. Houck,  Xunkun Huang,  Kerwin Hui,  B. C. Huynh,  
 M. Ivanov,  Hyunjun Ji,  Hanjie Jiang,  B. Kaduk,  S. Kaehler,  
 K. Khistyaev,  Jaehoon Kim,  P. Klunzinger,  Z. Koczor-Benda,  
 Joong Hoon Koh,  D. Kosenkov,  L. Koulias,  T. Kowalczyk,  C. M. Krauter,  
 K. Kue,  A. Kunitsa,  T. Kus,  A. Landau,  K. V. Lawler,  D. Lefrancois,  
 S. Lehtola,  Rain Li,  Yi-Pei Li,  Jiashu Liang,  M. Liebenthal,  
 Hung-Hsuan Lin,  You-Sheng Lin,  Fenglai Liu,  Kuan-Yu Liu,  
 M. Loipersberger,  A. Luenser,  A. Manjanath,  P. Manohar,  E. Mansoor,  
 S. F. Manzer,  Shan-Ping Mao,  A. V. Marenich,  T. Markovich,  S. Mason,  
 S. A. Maurer,  P. F. McLaughlin,  M. F. S. J. Menger,  J.-M. Mewes,  
 S. A. Mewes,  P. Morgante,  J. W. Mullinax,  T. S. Nguyen-Beck,  
 K. J. Oosterbaan,  G. Paran,  Alexander C. Paul,  Suranjan K. Paul,  
 F. Pavosevic,  Zheng Pei,  S. Prager,  E. I. Proynov,  E. Ramos,  B. Rana,  
 A. E. Rask,  A. Rettig,  R. M. Richard,  F. Rob,  E. Rossomme,  T. Scheele,  
 M. Scheurer,  M. Schneider,  N. Sergueev,  S. M. Sharada,  W. Skomorowski,  
 D. W. Small,  C. J. Stein,  Yu-Chuan Su,  E. J. Sundstrom,  Zhen Tao,  
 J. Thirman,  T. Tsuchimochi,  N. M. Tubman,  S. P. Veccham,  O. Vydrov,  
 J. Wenzel,  J. Witte,  A. Yamada,  Kun Yao,  S. Yeganeh,  S. R. Yost,  
 A. Zech,  Igor Ying Zhang,  Xing Zhang,  Yu Zhang,  D. Zuev,  
 A. Aspuru-Guzik,  A. T. Bell,  N. A. Besley,  K. B. Bravaya,  B. R. Brooks,  
 D. Casanova,  Jeng-Da Chai,  S. Coriani,  C. J. Cramer,  
 A. E. DePrince, III,  R. A. DiStasio Jr.,  A. Dreuw,  B. D. Dunietz,  
 T. R. Furlani,  W. A. Goddard III,  S. Grimme,  S. Hammes-Schiffer,  
 T. Head-Gordon,  W. J. Hehre,  Chao-Ping Hsu,  T.-C. Jagau,  Yousung Jung,  
 A. Klamt,  Jing Kong,  D. S. Lambrecht,  WanZhen Liang,  N. J. Mayhall,  
 C. W. McCurdy,  J. B. Neaton,  C. Ochsenfeld,  J. A. Parkhill,  R. Peverati,  
 V. A. Rassolov,  Yihan Shao,  L. V. Slipchenko,  T. Stauch,  R. P. Steele,  
 J. E. Subotnik,  A. J. W. Thom,  A. Tkatchenko,  D. G. Truhlar,  
 T. Van Voorhis,  T. A. Wesolowski,  K. B. Whaley,  H. L. Woodcock III,  
 P. M. Zimmerman,  S. Faraji,  P. M. W. Gill,  M. Head-Gordon,  
 J. M. Herbert,  A. I. Krylov

 Contributors to earlier versions of Q-Chem not listed above: 
 R. D. Adamson,  B. Austin,  R. Baer,  J. Baker,  G. J. O. Beran,  
 K. Brandhorst,  S. T. Brown,  E. F. C. Byrd,  A. K. Chakraborty,  
 G. K. L. Chan,  Chun-Min Chang,  Yunqing Chen,  C.-L. Cheng,  
 Siu Hung Chien,  D. M. Chipman,  D. L. Crittenden,  H. Dachsel,  
 R. J. Doerksen,  A. D. Dutoi,  R. G. Edgar,  J. Fosso-Tande,  
 L. Fusti-Molnar,  D. Ghosh,  A. Ghysels,  A. Golubeva-Zadorozhnaya,  
 J. Gonthier,  M. S. Gordon,  S. R. Gwaltney,  G. Hawkins,  J. E. Herr,  
 A. Heyden,  S. Hirata,  E. G. Hohenstein,  G. Kedziora,  F. J. Keil,  
 C. Kelley,  Jihan Kim,  R. A. King,  R. Z. Khaliullin,  P. P. Korambath,  
 W. Kurlancheek,  A. Laurent,  A. M. Lee,  M. S. Lee,  S. V. Levchenko,  
 Ching Yeh Lin,  D. Liotard,  E. Livshits,  R. C. Lochan,  I. Lotan,  
 L. A. Martinez-Martinez,  P. E. Maslen,  N. Nair,  D. P. O'Neill,  
 D. Neuhauser,  E. Neuscamman,  C. M. Oana,  R. Olivares-Amaya,  R. Olson,  
 T. M. Perrine,  B. Peters,  P. A. Pieniazek,  A. Prociuk,  Y. M. Rhee,  
 J. Ritchie,  M. A. Rohrdanz,  E. Rosta,  N. J. Russ,  H. F. Schaefer III,  
 M. W. Schmidt,  N. E. Schultz,  S. Sharma,  N. Shenvi,  C. D. Sherrill,  
 A. C. Simmonett,  A. Sodt,  T. Stein,  D. Stuck,  K. S. Thanthiriwatte,  
 V. Vanovschi,  L. Vogt,  Tao Wang,  A. Warshel,  M. A. Watson,  
 C. F. Williams,  Q. Wu,  X. Xu,  Jun Yang,  W. Zhang,  Yan Zhao

 Please cite Q-Chem as follows:
 Y. Shao et al., Mol. Phys. 113, 184-215 (2015)
 DOI: 10.1080/00268976.2014.952696

 Q-Chem 5.4.0 for Intel X86 EM64T Linux

 Parts of Q-Chem use Armadillo 9.800.1 (Horizon Scraper).
 http://arma.sourceforge.net/

 Q-Chem begins on Sun Jul 10 03:26:58 2022  

 Host: 
0

     Scratch files written to ./qchem916725//
 May1621 |scratch|qcdevops|jenkins|workspace|build_RNUM    
 Processing $rem in /cm/shared/apps/spack/cpu/opt/spack/linux-centos8-zen2/gcc-10.2.0/qchem-5.4-akfmr7b3t57bfs6qan3padb2wnb2i7cl/config/preferences:
 Processing $rem in /home/theleonzhang/.qchemrc:
 Symmetry turned off for PCM/SM12/SMD calculation
 Core orbitals will be frozen

 Checking the input file for inconsistencies... 	...done.

--------------------------------------------------------------
User input:
--------------------------------------------------------------
$molecule
0 1
C	0.265779	-3.866725	-0.728138
C	-0.209225	-3.703963	0.575726
C	-0.364875	-2.357056	1.002290
H	-0.445176	-4.561092	1.224486
C	0.000000	-1.440664	0.000000
S	0.528236	-2.286957	-1.451343
C	-0.862808	-1.978743	2.369683
H	-1.083368	-2.878678	2.975883
H	-1.793522	-1.376015	2.317142
H	-0.116375	-1.375728	2.927787
C	0.000000	0.000000	0.000000
C	0.295399	0.811508	1.099446
C	0.768742	2.111949	0.776721
H	0.169256	0.464952	2.136088
C	0.844232	2.319291	-0.612546
S	0.322342	0.885558	-1.486809
C	1.140796	3.134091	1.814609
H	0.995218	2.734123	2.836676
H	0.526006	4.054142	1.726239
H	2.203157	3.443680	1.726228
H	1.168902	3.211257	-1.161575
H	-0.459743	-4.392713	-1.358585
H	1.227009	-4.392347	-0.744515
H	-1.014829	-1.440937	-0.369490
$end

$rem
JOBTYPE		SP
EXCHANGE	HF
CORRELATION	pRIMP2
BASIS		cc-pvtz
METHOD		rimp2
AUX_BASIS	rimp2-cc-pvtz
SOLVENT_METHOD	PCM
PURECART	11111
SYMMETRY	false
MEM_TOTAL	110000
SCF_CONVERGENCE = 6
THRESH=10
$end



$solvent
dielectric 4.90
$end
--------------------------------------------------------------
 ----------------------------------------------------------------
             Standard Nuclear Orientation (Angstroms)
    I     Atom           X                Y                Z
 ----------------------------------------------------------------
    1      C       0.2657790000    -3.8667250000    -0.7281380000
    2      C      -0.2092250000    -3.7039630000     0.5757260000
    3      C      -0.3648750000    -2.3570560000     1.0022900000
    4      H      -0.4451760000    -4.5610920000     1.2244860000
    5      C       0.0000000000    -1.4406640000     0.0000000000
    6      S       0.5282360000    -2.2869570000    -1.4513430000
    7      C      -0.8628080000    -1.9787430000     2.3696830000
    8      H      -1.0833680000    -2.8786780000     2.9758830000
    9      H      -1.7935220000    -1.3760150000     2.3171420000
   10      H      -0.1163750000    -1.3757280000     2.9277870000
   11      C       0.0000000000     0.0000000000     0.0000000000
   12      C       0.2953990000     0.8115080000     1.0994460000
   13      C       0.7687420000     2.1119490000     0.7767210000
   14      H       0.1692560000     0.4649520000     2.1360880000
   15      C       0.8442320000     2.3192910000    -0.6125460000
   16      S       0.3223420000     0.8855580000    -1.4868090000
   17      C       1.1407960000     3.1340910000     1.8146090000
   18      H       0.9952180000     2.7341230000     2.8366760000
   19      H       0.5260060000     4.0541420000     1.7262390000
   20      H       2.2031570000     3.4436800000     1.7262280000
   21      H       1.1689020000     3.2112570000    -1.1615750000
   22      H      -0.4597430000    -4.3927130000    -1.3585850000
   23      H       1.2270090000    -4.3923470000    -0.7445150000
   24      H      -1.0148290000    -1.4409370000    -0.3694900000
 ----------------------------------------------------------------
 Nuclear Repulsion Energy =         878.31396431 hartrees
 There are       52 alpha and       52 beta electrons

 Q-Chem warning in module forms1/BasisType.C, line 2236:

 You are not using the predefined 5D/6D in this basis set.

 Requested basis set is cc-pVTZ
 There are 196 shells and 536 basis functions

 Total QAlloc Memory Limit 110000 MB
 Mega-Array Size       188 MB
 MEM_STATIC part       192 MB
 Discretize the solute cavity surface with Lebedev spheres
	Using 110 Lebedev grid points for each H atom
	Using 194 Lebedev grid points for other atoms
	Atomic van der Waals radii will be scaled by 1.20
 Remove points where switching function is < 1.0e-08
 Keep 1601 surface tesserae and discard 2047 interior tesserae
 Molecular Surface Area = 231.351 Angst**2
 Requested basis set is rimp2-cc-pVTZ
 There are 414 shells and 1414 basis functions
 A cutoff of  1.0D-10 yielded  14054 shell pairs
 There are    101762 function pairs (    130418 Cartesian)
 Smallest overlap matrix eigenvalue = 6.81E-05

 Scale SEOQF with 1.000000e-01/1.000000e-01/1.000000e-01

 Standard Electronic Orientation quadrupole field applied
 Nucleus-field energy     =     0.0000000222 hartrees
 Guess from superposition of atomic densities
 Warning:  Energy on first SCF cycle will be non-variational
 SAD guess density has 104.000000 electrons

 -----------------------------------------------------------------------
  General SCF calculation program by
  Eric Jon Sundstrom, Paul Horn, Yuezhi Mao, Dmitri Zuev, Alec White,
  David Stuck, Shaama M.S., Shane Yost, Joonho Lee, David Small,
  Daniel Levine, Susi Lehtola, Hugh Burton, Evgeny Epifanovsky,
  Bang C. Huynh
 -----------------------------------------------------------------------
 Hartree-Fock
 A restricted SCF calculation will be
 performed using DIIS
 SCF converges when DIIS error is below 1.0e-06
 ---------------------------------------
  Cycle       Energy         DIIS error
 ---------------------------------------
    1   -1186.0578667389      2.39e-02  
    2   -1180.5981035827      1.58e-03  
    3   -1180.7247060992      6.45e-04  
    4   -1180.7404331187      3.42e-04  
    5   -1180.7459192378      6.08e-05  
    6   -1180.7461818269      2.53e-05  
    7   -1180.7462462346      9.33e-06  
    8   -1180.7462608972      4.49e-06  
    9   -1180.7462642319      1.52e-06  
   10   -1180.7462647217      5.16e-07  Convergence criterion met
 ---------------------------------------
 SCF time:   CPU 573.08s  wall 575.00s 

************** Final PCM Free Energy Summary **************
 G_electrostatic  =      -0.00957845 hartree =      -6.01056822 kcal/mol
 G_cavitation     =       0.00000000 hartree =       0.00000000 kcal/mol
 G_dispersion     =       0.00000000 hartree =       0.00000000 kcal/mol
 G_repulsion      =       0.00000000 hartree =       0.00000000 kcal/mol
 --------------------------------------------------
 Non-electrostatic Free Energy =       0.00000000 hartree =       0.00000000 kcal/mol
 Total                         =      -0.00957845 hartree =      -6.01056822 kcal/mol
 --------------------------------------------------
 SCF Energy (H0 + V/2)                       =   -1180.74626472 
 Solute Internal Energy (H0)                 =   -1180.73668627 
 Total Free Energy (H0 + V/2 + non-elec)     =   -1180.74626472 hartree
                                             = -740929.46396073 kcal/mol
***********************************************************

 SCF   energy in the final basis set =    -1180.7462647217
 Total energy in the final basis set =    -1180.7462647217


 --------------------------------------------------------------
  Generalized many-body perturbation theory program
  by Joonho Lee, Fazle Rob, Xintian Feng, Evgeny Epifanovsky

 No regularization used 
 (reg. param. = 0.0000e+00)
  (P|Q)^-1/2 Time:  CPU 1.90 s  wall 1.91 s

 In RI-MP2 calculation: 
 # of frozen core orbitals: 20

 Components of the RIMP2 correlation energy:
        aaaa    correlation energy =        -0.2518376395 a.u.
        abab    correlation energy =        -1.5045487425 a.u.
        bbbb    correlation energy =        -0.2518376395 a.u.
        non-Brillouin singles      =        -0.0000000000 a.u.
        total same-spin energy     =        -0.5036752790 a.u.
        total opposite-spin energy =        -1.5045487425 a.u.

 Total  RIMP2   correlation energy =        -2.0082240216 a.u.
        RIMP2         total energy =     -1182.7544887433 a.u.

 RI-MP2 Energy Time:  CPU 79.73 s  wall 79.99 s
 
 --------------------------------------------------------------
 
                    Orbital Energies (a.u.)
 --------------------------------------------------------------
 
 Alpha MOs
 -- Occupied --
-91.9837 -91.9455 -11.2851 -11.2656 -11.2583 -11.2579 -11.2501 -11.2431
-11.2340 -11.2324 -11.2282 -11.2219  -8.9835  -8.9501  -6.6645  -6.6639
 -6.6633  -6.6315  -6.6304  -6.6291  -1.2015  -1.1527  -1.0596  -1.0317
 -1.0004  -0.9629  -0.9152  -0.8997  -0.8177  -0.7619  -0.7335  -0.7048
 -0.6550  -0.6443  -0.6099  -0.5935  -0.5843  -0.5682  -0.5651  -0.5512
 -0.5460  -0.5347  -0.5209  -0.5034  -0.4867  -0.4786  -0.4695  -0.4433
 -0.3594  -0.3432  -0.3239  -0.2634
 -- Virtual --
  0.0963   0.1325   0.1404   0.1480   0.1578   0.1699   0.1785   0.1861
  0.1882   0.2025   0.2088   0.2189   0.2201   0.2316   0.2377   0.2416
  0.2563   0.2772   0.2784   0.3044   0.3145   0.3228   0.3542   0.3589
  0.3674   0.3830   0.3840   0.3904   0.4021   0.4090   0.4152   0.4189
  0.4373   0.4499   0.4659   0.4703   0.4744   0.4808   0.4850   0.4926
  0.4948   0.5148   0.5243   0.5327   0.5396   0.5460   0.5572   0.5658
  0.5674   0.5839   0.5862   0.5912   0.6026   0.6038   0.6130   0.6193
  0.6243   0.6298   0.6310   0.6338   0.6389   0.6501   0.6545   0.6622
  0.6705   0.6731   0.6770   0.6886   0.7008   0.7121   0.7219   0.7273
  0.7432   0.7464   0.7619   0.7752   0.7808   0.7933   0.7965   0.8277
  0.8313   0.8527   0.8546   0.8662   0.8854   0.8977   0.9035   0.9186
  0.9284   0.9432   0.9476   0.9590   0.9710   0.9984   1.0034   1.0065
  1.0259   1.0278   1.0309   1.0406   1.0528   1.0583   1.0703   1.0717
  1.0885   1.0916   1.1042   1.1323   1.1426   1.1529   1.1647   1.1733
  1.1825   1.1867   1.1914   1.2064   1.2112   1.2193   1.2304   1.2439
  1.2496   1.2602   1.2642   1.2693   1.2789   1.2835   1.3031   1.3064
  1.3218   1.3298   1.3415   1.3589   1.3688   1.3848   1.4091   1.4133
  1.4267   1.4285   1.4373   1.4574   1.4778   1.4828   1.4870   1.5009
  1.5080   1.5161   1.5260   1.5338   1.5362   1.5419   1.5525   1.5582
  1.5672   1.5797   1.5915   1.6025   1.6249   1.6306   1.6356   1.6437
  1.6577   1.6667   1.6673   1.6946   1.6975   1.7161   1.7252   1.7353
  1.7500   1.7595   1.7780   1.8002   1.8177   1.8259   1.8504   1.8528
  1.8912   1.9012   1.9125   1.9339   1.9484   1.9673   1.9866   2.0067
  2.0155   2.0436   2.0622   2.0676   2.0970   2.1132   2.1448   2.1526
  2.1871   2.1961   2.2062   2.2190   2.2310   2.2527   2.2664   2.2826
  2.2947   2.2991   2.3099   2.3929   2.4251   2.4390   2.4592   2.4737
  2.4890   2.5167   2.5291   2.5473   2.5706   2.5728   2.5843   2.5991
  2.6292   2.6484   2.6584   2.6713   2.6762   2.6913   2.7193   2.7366
  2.7520   2.7598   2.7619   2.7835   2.7911   2.7973   2.8002   2.8064
  2.8340   2.8434   2.8467   2.8772   2.8922   2.8980   2.9171   2.9357
  2.9472   2.9583   2.9748   2.9955   3.0058   3.0298   3.0391   3.0436
  3.0646   3.0791   3.0919   3.0958   3.1074   3.1145   3.1294   3.1389
  3.1479   3.1626   3.1673   3.1686   3.1776   3.1873   3.1975   3.2237
  3.2256   3.2414   3.2496   3.2539   3.2795   3.2813   3.2967   3.3127
  3.3217   3.3279   3.3337   3.3445   3.3518   3.3539   3.3581   3.3666
  3.3744   3.3862   3.3911   3.3982   3.4064   3.4134   3.4214   3.4336
  3.4390   3.4459   3.4629   3.4726   3.4757   3.4805   3.4916   3.5080
  3.5128   3.5257   3.5356   3.5432   3.5504   3.5617   3.5746   3.5884
  3.5989   3.6064   3.6133   3.6181   3.6296   3.6359   3.6421   3.6627
  3.6712   3.6842   3.6945   3.6992   3.7134   3.7266   3.7338   3.7351
  3.7454   3.7614   3.7690   3.7754   3.7870   3.7932   3.7984   3.8174
  3.8206   3.8491   3.8509   3.8640   3.8690   3.8824   3.8962   3.9179
  3.9241   3.9458   3.9560   3.9689   3.9819   3.9891   4.0152   4.0282
  4.0305   4.0479   4.0545   4.0613   4.0647   4.0770   4.0972   4.1059
  4.1206   4.1338   4.1494   4.1554   4.1656   4.1752   4.1879   4.2024
  4.2154   4.2266   4.2341   4.2425   4.2460   4.2638   4.2704   4.2898
  4.2982   4.3105   4.3187   4.3358   4.3451   4.3561   4.3659   4.3752
  4.3805   4.3879   4.4019   4.4144   4.4224   4.4368   4.4490   4.4546
  4.4656   4.4726   4.4779   4.4827   4.4935   4.5041   4.5418   4.5817
  4.5959   4.6035   4.6109   4.6315   4.6416   4.6472   4.6581   4.6883
  4.7041   4.7299   4.7626   4.7751   4.7882   4.8163   4.8310   4.8512
  4.8685   4.8696   4.8825   4.9133   4.9422   4.9515   4.9899   4.9979
  5.0267   5.0554   5.0921   5.1068   5.1169   5.1270   5.1661   5.1952
  5.1969   5.2289   5.2430   5.2636   5.2880   5.2984   5.3130   5.3231
  5.3482   5.3718   5.3745   5.4079   5.4110   5.4172   5.4342   5.4420
  5.4850   5.5164   5.5340   5.5388   5.5516   5.5685   5.5767   5.5981
  5.6149   5.6248   5.6334   5.6582   5.6923   5.6986   5.7124   5.7326
  5.7716   5.8160   5.8361   5.9841   6.0297   6.0876   6.1310   6.1679
  6.2097   6.2286   6.2356   6.2579   6.2652   6.2943   6.3124   6.3768
  6.4094   6.5170   9.5151  10.8629  12.0843  12.9451  13.1795  13.9472
 14.0977  14.2079  14.3558  14.8084
 --------------------------------------------------------------
 
          Ground-State Mulliken Net Atomic Charges

     Atom                 Charge (a.u.)
  ----------------------------------------
      1 C                    -0.077004
      2 C                    -0.320464
      3 C                    -0.039127
      4 H                     0.177988
      5 C                     0.115135
      6 S                    -0.174374
      7 C                    -0.299252
      8 H                     0.120566
      9 H                     0.112901
     10 H                     0.104086
     11 C                    -0.070754
     12 C                    -0.256618
     13 C                     0.029911
     14 H                     0.191407
     15 C                    -0.259820
     16 S                     0.000864
     17 C                    -0.272559
     18 H                     0.100552
     19 H                     0.108388
     20 H                     0.108312
     21 H                     0.197881
     22 H                     0.111108
     23 H                     0.114298
     24 H                     0.176575
  ----------------------------------------
  Sum of atomic charges =     0.000000

 -----------------------------------------------------------------
                    Cartesian Multipole Moments
 -----------------------------------------------------------------
    Charge (ESU x 10^10)
                -0.0000
    Dipole Moment (Debye)
         X      -1.0847      Y      -0.1732      Z       3.3130
       Tot       3.4904
    Quadrupole Moments (Debye-Ang)
        XX     -90.7435     XY       5.8068     YY     -74.2157
        XZ       0.3833     YZ      -1.7504     ZZ     -85.5116
    Octopole Moments (Debye-Ang^2)
       XXX     -71.4713    XXY      52.9047    XYY     -13.8892
       YYY     123.5904    XXZ      -1.9496    XYZ       0.6924
       YYZ      -5.2896    XZZ     -24.0745    YZZ      53.1798
       ZZZ       6.8689
    Hexadecapole Moments (Debye-Ang^3)
      XXXX    -325.0027   XXXY    -161.6170   XXYY    -549.3102
      XYYY    -126.0671   YYYY   -2678.7099   XXXZ      63.5929
      XXYZ     -33.0261   XYYZ       5.1101   YYYZ     -96.9590
      XXZZ    -233.1376   XYZZ     -32.3336   YYZZ    -634.1079
      XZZZ      53.0758   YZZZ    -119.9442   ZZZZ   -1033.4661
 -----------------------------------------------------------------
 Total job time:  657.62s(wall), 653.72s(cpu) 
 Sun Jul 10 03:37:55 2022

        *************************************************************
        *                                                           *
        *  Thank you very much for using Q-Chem.  Have a nice day.  *
        *                                                           *
        *************************************************************


remove work dirs ./qchem916725.0 -- ./qchem916725.-1
rm -rf ./qchem916725
