You are running Q-Chem version: 5.4.0

#
# job setting
#
local host:  exp-1-17
current dir: /expanse/lustre/scratch/theleonzhang/temp_project/Hydrogenated_Rotation_Test
input file:  Methylthiophene_Phi_0_Theta_190_Methylthiophene_Hydrogenated.qcin
output file: 
nprocs     : 0
nthreads   : 1
#
# qchem installation setting
#
QC:          /cm/shared/apps/spack/cpu/opt/spack/linux-centos8-zen2/gcc-10.2.0/qchem-5.4-akfmr7b3t57bfs6qan3padb2wnb2i7cl
QCAUX:       /cm/shared/apps/spack/cpu/opt/spack/linux-centos8-zen2/gcc-10.2.0/qchem-5.4-akfmr7b3t57bfs6qan3padb2wnb2i7cl/qcaux
QCPROG:      /cm/shared/apps/spack/cpu/opt/spack/linux-centos8-zen2/gcc-10.2.0/qchem-5.4-akfmr7b3t57bfs6qan3padb2wnb2i7cl/exe/qcprog.exe_s
QCPROG_S:    /cm/shared/apps/spack/cpu/opt/spack/linux-centos8-zen2/gcc-10.2.0/qchem-5.4-akfmr7b3t57bfs6qan3padb2wnb2i7cl/exe/qcprog.exe_s
PARALLEL:    -DSERIAL
QCMPI:       mpich
#
# qchem directory setting
#
qcrun:       qchem3521719
QCSCRATCH:   .
QCLOCALSCR:  
QCTMPDIR:    .
QCFILEPREF:  ./qchem3521719
QCSAVEDIR:   
workdirs:    ./qchem3521719
workdir0:    ./qchem3521719
partmpdirs =  
#
# parallel setting
#
QCRSH:           ssh
QCMPI:           mpich
QCMPIRUN:        /cm/shared/apps/spack/cpu/opt/spack/linux-centos8-zen2/gcc-10.2.0/qchem-5.4-akfmr7b3t57bfs6qan3padb2wnb2i7cl/bin/mpi/mpirun_qchem
QCMACHINEFILE:   ./qchem3521719/hostfile

#
# env setting
#
exported envs:   QC QCAUX QCSCRATCH QCRUNNAME QCFILEPREF QCPROG QCPROG_S GUIFILE

Running Job 1 of 1 Methylthiophene_Phi_0_Theta_190_Methylthiophene_Hydrogenated.qcin
qchem Methylthiophene_Phi_0_Theta_190_Methylthiophene_Hydrogenated.qcin_3521719.0 ./qchem3521719/ 0
/cm/shared/apps/spack/cpu/opt/spack/linux-centos8-zen2/gcc-10.2.0/qchem-5.4-akfmr7b3t57bfs6qan3padb2wnb2i7cl/exe/qcprog.exe_s Methylthiophene_Phi_0_Theta_190_Methylthiophene_Hydrogenated.qcin_3521719.0 ./qchem3521719/
                  Welcome to Q-Chem
     A Quantum Leap Into The Future Of Chemistry


 Q-Chem 5.4, Q-Chem, Inc., Pleasanton, CA (2021)

 License issued to: University of California, San Diego (site)

 E. Epifanovsky,  A. T. B. Gilbert,  Xintian Feng,  Joonho Lee,  Yuezhi Mao,  
 N. Mardirossian,  P. Pokhilko,  A. White,  M. Wormit,  M. P. Coons,  
 A. L. Dempwolff,  Zhengting Gan,  D. Hait,  P. R. Horn,  L. D. Jacobson,  
 I. Kaliman,  J. Kussmann,  A. W. Lange,  Ka Un Lao,  D. S. Levine,  Jie Liu,  
 S. C. McKenzie,  A. F. Morrison,  K. Nanda,  F. Plasser,  D. R. Rehn,  
 M. L. Vidal,  Zhi-Qiang You,  Ying Zhu,  B. Alam,  B. Albrecht,  
 A. Aldossary,  E. Alguire,  J. H. Andersen,  D. Barton,  K. Begam,  A. Behn,  
 Y. A. Bernard,  E. J. Berquist,  H. Burton,  A. Carreras,  K. Carter-Fenk,  
 R. Chakraborty,  A. D. Chien,  K. D. Closser,  V. Cofer-Shabica,  
 S. Dasgupta,  Jia Deng,  M. de Wergifosse,  M. Diedenhofen,  Hainam Do,  
 S. Ehlert,  Po-Tung Fang,  S. Fatehi,  Qingguo Feng,  J. Gayvert,  
 Qinghui Ge,  G. Gidofalvi,  M. Goldey,  J. Gomes,  C. Gonzalez-Espinoza,  
 S. Gulania,  A. Gunina,  M. W. D. Hanson-Heine,  P. H. P. Harbach,  
 A. W. Hauser,  M. F. Herbst,  M. Hernandez Vera,  M. Hodecker,  
 Z. C. Holden,  S. Houck,  Xunkun Huang,  Kerwin Hui,  B. C. Huynh,  
 M. Ivanov,  Hyunjun Ji,  Hanjie Jiang,  B. Kaduk,  S. Kaehler,  
 K. Khistyaev,  Jaehoon Kim,  P. Klunzinger,  Z. Koczor-Benda,  
 Joong Hoon Koh,  D. Kosenkov,  L. Koulias,  T. Kowalczyk,  C. M. Krauter,  
 K. Kue,  A. Kunitsa,  T. Kus,  A. Landau,  K. V. Lawler,  D. Lefrancois,  
 S. Lehtola,  Rain Li,  Yi-Pei Li,  Jiashu Liang,  M. Liebenthal,  
 Hung-Hsuan Lin,  You-Sheng Lin,  Fenglai Liu,  Kuan-Yu Liu,  
 M. Loipersberger,  A. Luenser,  A. Manjanath,  P. Manohar,  E. Mansoor,  
 S. F. Manzer,  Shan-Ping Mao,  A. V. Marenich,  T. Markovich,  S. Mason,  
 S. A. Maurer,  P. F. McLaughlin,  M. F. S. J. Menger,  J.-M. Mewes,  
 S. A. Mewes,  P. Morgante,  J. W. Mullinax,  T. S. Nguyen-Beck,  
 K. J. Oosterbaan,  G. Paran,  Alexander C. Paul,  Suranjan K. Paul,  
 F. Pavosevic,  Zheng Pei,  S. Prager,  E. I. Proynov,  E. Ramos,  B. Rana,  
 A. E. Rask,  A. Rettig,  R. M. Richard,  F. Rob,  E. Rossomme,  T. Scheele,  
 M. Scheurer,  M. Schneider,  N. Sergueev,  S. M. Sharada,  W. Skomorowski,  
 D. W. Small,  C. J. Stein,  Yu-Chuan Su,  E. J. Sundstrom,  Zhen Tao,  
 J. Thirman,  T. Tsuchimochi,  N. M. Tubman,  S. P. Veccham,  O. Vydrov,  
 J. Wenzel,  J. Witte,  A. Yamada,  Kun Yao,  S. Yeganeh,  S. R. Yost,  
 A. Zech,  Igor Ying Zhang,  Xing Zhang,  Yu Zhang,  D. Zuev,  
 A. Aspuru-Guzik,  A. T. Bell,  N. A. Besley,  K. B. Bravaya,  B. R. Brooks,  
 D. Casanova,  Jeng-Da Chai,  S. Coriani,  C. J. Cramer,  
 A. E. DePrince, III,  R. A. DiStasio Jr.,  A. Dreuw,  B. D. Dunietz,  
 T. R. Furlani,  W. A. Goddard III,  S. Grimme,  S. Hammes-Schiffer,  
 T. Head-Gordon,  W. J. Hehre,  Chao-Ping Hsu,  T.-C. Jagau,  Yousung Jung,  
 A. Klamt,  Jing Kong,  D. S. Lambrecht,  WanZhen Liang,  N. J. Mayhall,  
 C. W. McCurdy,  J. B. Neaton,  C. Ochsenfeld,  J. A. Parkhill,  R. Peverati,  
 V. A. Rassolov,  Yihan Shao,  L. V. Slipchenko,  T. Stauch,  R. P. Steele,  
 J. E. Subotnik,  A. J. W. Thom,  A. Tkatchenko,  D. G. Truhlar,  
 T. Van Voorhis,  T. A. Wesolowski,  K. B. Whaley,  H. L. Woodcock III,  
 P. M. Zimmerman,  S. Faraji,  P. M. W. Gill,  M. Head-Gordon,  
 J. M. Herbert,  A. I. Krylov

 Contributors to earlier versions of Q-Chem not listed above: 
 R. D. Adamson,  B. Austin,  R. Baer,  J. Baker,  G. J. O. Beran,  
 K. Brandhorst,  S. T. Brown,  E. F. C. Byrd,  A. K. Chakraborty,  
 G. K. L. Chan,  Chun-Min Chang,  Yunqing Chen,  C.-L. Cheng,  
 Siu Hung Chien,  D. M. Chipman,  D. L. Crittenden,  H. Dachsel,  
 R. J. Doerksen,  A. D. Dutoi,  R. G. Edgar,  J. Fosso-Tande,  
 L. Fusti-Molnar,  D. Ghosh,  A. Ghysels,  A. Golubeva-Zadorozhnaya,  
 J. Gonthier,  M. S. Gordon,  S. R. Gwaltney,  G. Hawkins,  J. E. Herr,  
 A. Heyden,  S. Hirata,  E. G. Hohenstein,  G. Kedziora,  F. J. Keil,  
 C. Kelley,  Jihan Kim,  R. A. King,  R. Z. Khaliullin,  P. P. Korambath,  
 W. Kurlancheek,  A. Laurent,  A. M. Lee,  M. S. Lee,  S. V. Levchenko,  
 Ching Yeh Lin,  D. Liotard,  E. Livshits,  R. C. Lochan,  I. Lotan,  
 L. A. Martinez-Martinez,  P. E. Maslen,  N. Nair,  D. P. O'Neill,  
 D. Neuhauser,  E. Neuscamman,  C. M. Oana,  R. Olivares-Amaya,  R. Olson,  
 T. M. Perrine,  B. Peters,  P. A. Pieniazek,  A. Prociuk,  Y. M. Rhee,  
 J. Ritchie,  M. A. Rohrdanz,  E. Rosta,  N. J. Russ,  H. F. Schaefer III,  
 M. W. Schmidt,  N. E. Schultz,  S. Sharma,  N. Shenvi,  C. D. Sherrill,  
 A. C. Simmonett,  A. Sodt,  T. Stein,  D. Stuck,  K. S. Thanthiriwatte,  
 V. Vanovschi,  L. Vogt,  Tao Wang,  A. Warshel,  M. A. Watson,  
 C. F. Williams,  Q. Wu,  X. Xu,  Jun Yang,  W. Zhang,  Yan Zhao

 Please cite Q-Chem as follows:
 Y. Shao et al., Mol. Phys. 113, 184-215 (2015)
 DOI: 10.1080/00268976.2014.952696

 Q-Chem 5.4.0 for Intel X86 EM64T Linux

 Parts of Q-Chem use Armadillo 9.800.1 (Horizon Scraper).
 http://arma.sourceforge.net/

 Q-Chem begins on Sun Jul 10 02:21:57 2022  

 Host: 
0

     Scratch files written to ./qchem3521719//
 May1621 |scratch|qcdevops|jenkins|workspace|build_RNUM    
 Processing $rem in /cm/shared/apps/spack/cpu/opt/spack/linux-centos8-zen2/gcc-10.2.0/qchem-5.4-akfmr7b3t57bfs6qan3padb2wnb2i7cl/config/preferences:
 Processing $rem in /home/theleonzhang/.qchemrc:
 Symmetry turned off for PCM/SM12/SMD calculation
 Core orbitals will be frozen

 Checking the input file for inconsistencies... 	...done.

--------------------------------------------------------------
User input:
--------------------------------------------------------------
$molecule
0 1
C	0.135301	-3.866725	-0.763228
C	-0.106073	-3.703963	0.603311
C	-0.185286	-2.357056	1.050423
H	-0.225783	-4.561092	1.283188
C	0.000000	-1.440664	0.000000
S	0.268187	-2.286957	-1.521021
C	-0.438209	-1.978743	2.483507
H	-0.550153	-2.878678	3.118798
H	-1.363906	-1.376015	2.593381
H	0.393798	-1.375728	2.903516
C	0.000000	0.000000	0.000000
C	0.000033	0.863600	1.099446
C	0.000052	2.247508	0.776721
H	0.000026	0.494801	2.136088
C	0.000074	2.468165	-0.612546
S	0.000024	0.942399	-1.486809
C	0.000075	3.335257	1.814609
H	0.000074	2.909620	2.836676
H	-0.892314	3.989552	1.726239
H	0.892483	3.989525	1.726228
H	0.000094	3.417382	-1.161575
H	-0.688674	-4.392713	-1.258111
H	1.079084	-4.392347	-0.946272
H	1.063572	-1.440391	0.187654
$end

$rem
JOBTYPE		SP
EXCHANGE	HF
CORRELATION	pRIMP2
BASIS		cc-pvtz
METHOD		rimp2
AUX_BASIS	rimp2-cc-pvtz
SOLVENT_METHOD	PCM
PURECART	11111
SYMMETRY	false
MEM_TOTAL	110000
SCF_CONVERGENCE = 6
THRESH=10
$end



$solvent
dielectric 4.90
$end
--------------------------------------------------------------
 ----------------------------------------------------------------
             Standard Nuclear Orientation (Angstroms)
    I     Atom           X                Y                Z
 ----------------------------------------------------------------
    1      C       0.1353010000    -3.8667250000    -0.7632280000
    2      C      -0.1060730000    -3.7039630000     0.6033110000
    3      C      -0.1852860000    -2.3570560000     1.0504230000
    4      H      -0.2257830000    -4.5610920000     1.2831880000
    5      C       0.0000000000    -1.4406640000     0.0000000000
    6      S       0.2681870000    -2.2869570000    -1.5210210000
    7      C      -0.4382090000    -1.9787430000     2.4835070000
    8      H      -0.5501530000    -2.8786780000     3.1187980000
    9      H      -1.3639060000    -1.3760150000     2.5933810000
   10      H       0.3937980000    -1.3757280000     2.9035160000
   11      C       0.0000000000     0.0000000000     0.0000000000
   12      C       0.0000330000     0.8636000000     1.0994460000
   13      C       0.0000520000     2.2475080000     0.7767210000
   14      H       0.0000260000     0.4948010000     2.1360880000
   15      C       0.0000740000     2.4681650000    -0.6125460000
   16      S       0.0000240000     0.9423990000    -1.4868090000
   17      C       0.0000750000     3.3352570000     1.8146090000
   18      H       0.0000740000     2.9096200000     2.8366760000
   19      H      -0.8923140000     3.9895520000     1.7262390000
   20      H       0.8924830000     3.9895250000     1.7262280000
   21      H       0.0000940000     3.4173820000    -1.1615750000
   22      H      -0.6886740000    -4.3927130000    -1.2581110000
   23      H       1.0790840000    -4.3923470000    -0.9462720000
   24      H       1.0635720000    -1.4403910000     0.1876540000
 ----------------------------------------------------------------
 Nuclear Repulsion Energy =         875.82431581 hartrees
 There are       52 alpha and       52 beta electrons

 Q-Chem warning in module forms1/BasisType.C, line 2236:

 You are not using the predefined 5D/6D in this basis set.

 Requested basis set is cc-pVTZ
 There are 196 shells and 536 basis functions

 Total QAlloc Memory Limit 110000 MB
 Mega-Array Size       188 MB
 MEM_STATIC part       192 MB
 Discretize the solute cavity surface with Lebedev spheres
	Using 110 Lebedev grid points for each H atom
	Using 194 Lebedev grid points for other atoms
	Atomic van der Waals radii will be scaled by 1.20
 Remove points where switching function is < 1.0e-08
 Keep 1586 surface tesserae and discard 2062 interior tesserae
 Molecular Surface Area = 231.566 Angst**2
 Requested basis set is rimp2-cc-pVTZ
 There are 414 shells and 1414 basis functions
 A cutoff of  1.0D-10 yielded  14031 shell pairs
 There are    101587 function pairs (    130154 Cartesian)
 Smallest overlap matrix eigenvalue = 3.93E-05

 Scale SEOQF with 1.000000e+00/1.000000e-01/1.000000e-01

 Standard Electronic Orientation quadrupole field applied
 Nucleus-field energy     =     0.0000000246 hartrees
 Guess from superposition of atomic densities
 Warning:  Energy on first SCF cycle will be non-variational
 SAD guess density has 104.000000 electrons

 -----------------------------------------------------------------------
  General SCF calculation program by
  Eric Jon Sundstrom, Paul Horn, Yuezhi Mao, Dmitri Zuev, Alec White,
  David Stuck, Shaama M.S., Shane Yost, Joonho Lee, David Small,
  Daniel Levine, Susi Lehtola, Hugh Burton, Evgeny Epifanovsky,
  Bang C. Huynh
 -----------------------------------------------------------------------
 Hartree-Fock
 A restricted SCF calculation will be
 performed using DIIS
 SCF converges when DIIS error is below 1.0e-06
 ---------------------------------------
  Cycle       Energy         DIIS error
 ---------------------------------------
    1   -1186.0553896112      2.39e-02  
    2   -1180.6076704003      1.60e-03  
    3   -1180.7345302815      6.72e-04  
    4   -1180.7512632838      3.49e-04  
    5   -1180.7569979867      5.94e-05  
    6   -1180.7572458510      2.49e-05  
    7   -1180.7573039251      8.62e-06  
    8   -1180.7573159447      4.15e-06  
    9   -1180.7573185661      1.39e-06  
   10   -1180.7573189756      5.08e-07  Convergence criterion met
 ---------------------------------------
 SCF time:   CPU 577.21s  wall 579.00s 

************** Final PCM Free Energy Summary **************
 G_electrostatic  =      -0.00958387 hartree =      -6.01396697 kcal/mol
 G_cavitation     =       0.00000000 hartree =       0.00000000 kcal/mol
 G_dispersion     =       0.00000000 hartree =       0.00000000 kcal/mol
 G_repulsion      =       0.00000000 hartree =       0.00000000 kcal/mol
 --------------------------------------------------
 Non-electrostatic Free Energy =       0.00000000 hartree =       0.00000000 kcal/mol
 Total                         =      -0.00958387 hartree =      -6.01396697 kcal/mol
 --------------------------------------------------
 SCF Energy (H0 + V/2)                       =   -1180.75731898 
 Solute Internal Energy (H0)                 =   -1180.74773511 
 Total Free Energy (H0 + V/2 + non-elec)     =   -1180.75731898 hartree
                                             = -740936.40060977 kcal/mol
***********************************************************

 SCF   energy in the final basis set =    -1180.7573189756
 Total energy in the final basis set =    -1180.7573189756


 --------------------------------------------------------------
  Generalized many-body perturbation theory program
  by Joonho Lee, Fazle Rob, Xintian Feng, Evgeny Epifanovsky

 No regularization used 
 (reg. param. = 0.0000e+00)
  (P|Q)^-1/2 Time:  CPU 1.90 s  wall 1.91 s

 In RI-MP2 calculation: 
 # of frozen core orbitals: 20

 Components of the RIMP2 correlation energy:
        aaaa    correlation energy =        -0.2514949632 a.u.
        abab    correlation energy =        -1.5027379182 a.u.
        bbbb    correlation energy =        -0.2514949632 a.u.
        non-Brillouin singles      =        -0.0000000000 a.u.
        total same-spin energy     =        -0.5029899265 a.u.
        total opposite-spin energy =        -1.5027379182 a.u.

 Total  RIMP2   correlation energy =        -2.0057278447 a.u.
        RIMP2         total energy =     -1182.7630468203 a.u.

 RI-MP2 Energy Time:  CPU 79.70 s  wall 80.03 s
 
 --------------------------------------------------------------
 
                    Orbital Energies (a.u.)
 --------------------------------------------------------------
 
 Alpha MOs
 -- Occupied --
-91.9842 -91.9465 -11.2911 -11.2669 -11.2624 -11.2524 -11.2498 -11.2449
-11.2345 -11.2280 -11.2275 -11.2244  -8.9838  -8.9512  -6.6648  -6.6642
 -6.6635  -6.6326  -6.6316  -6.6303  -1.2030  -1.1522  -1.0608  -1.0324
 -1.0015  -0.9614  -0.9166  -0.8994  -0.8189  -0.7638  -0.7264  -0.7064
 -0.6591  -0.6493  -0.6107  -0.5943  -0.5861  -0.5689  -0.5599  -0.5526
 -0.5446  -0.5360  -0.5237  -0.5013  -0.4867  -0.4823  -0.4698  -0.4432
 -0.3614  -0.3441  -0.3238  -0.2642
 -- Virtual --
  0.1075   0.1299   0.1405   0.1491   0.1562   0.1703   0.1726   0.1865
  0.1905   0.2034   0.2077   0.2124   0.2182   0.2338   0.2376   0.2419
  0.2629   0.2733   0.2907   0.3065   0.3150   0.3230   0.3533   0.3591
  0.3735   0.3768   0.3883   0.3918   0.4006   0.4091   0.4164   0.4247
  0.4345   0.4564   0.4666   0.4713   0.4743   0.4784   0.4858   0.4962
  0.5105   0.5227   0.5262   0.5336   0.5389   0.5455   0.5497   0.5619
  0.5717   0.5825   0.5860   0.5972   0.6007   0.6111   0.6148   0.6238
  0.6257   0.6285   0.6318   0.6369   0.6420   0.6475   0.6530   0.6627
  0.6699   0.6760   0.6795   0.6932   0.6971   0.7204   0.7238   0.7315
  0.7486   0.7490   0.7671   0.7718   0.7877   0.8049   0.8177   0.8223
  0.8362   0.8388   0.8564   0.8758   0.8871   0.8933   0.9051   0.9125
  0.9403   0.9509   0.9585   0.9645   0.9819   0.9931   1.0004   1.0073
  1.0276   1.0367   1.0447   1.0510   1.0585   1.0672   1.0713   1.0829
  1.0882   1.0954   1.1098   1.1307   1.1410   1.1493   1.1573   1.1733
  1.1785   1.1885   1.2018   1.2102   1.2149   1.2243   1.2274   1.2438
  1.2460   1.2540   1.2589   1.2790   1.2853   1.2992   1.3080   1.3137
  1.3181   1.3333   1.3536   1.3592   1.3677   1.3785   1.4144   1.4192
  1.4360   1.4391   1.4423   1.4649   1.4717   1.4875   1.4898   1.4960
  1.5177   1.5186   1.5276   1.5332   1.5401   1.5416   1.5505   1.5605
  1.5757   1.6015   1.6025   1.6101   1.6132   1.6305   1.6402   1.6437
  1.6539   1.6625   1.6863   1.6939   1.7051   1.7123   1.7275   1.7368
  1.7522   1.7650   1.7847   1.7948   1.8319   1.8399   1.8540   1.8703
  1.8844   1.8975   1.9121   1.9407   1.9455   1.9780   1.9889   2.0039
  2.0220   2.0448   2.0516   2.0606   2.0962   2.1130   2.1321   2.1767
  2.1810   2.2026   2.2064   2.2198   2.2342   2.2436   2.2617   2.2810
  2.2959   2.3034   2.3405   2.3857   2.4105   2.4432   2.4628   2.4753
  2.4904   2.5146   2.5328   2.5457   2.5605   2.5963   2.6013   2.6126
  2.6304   2.6545   2.6584   2.6722   2.6892   2.6994   2.7297   2.7390
  2.7453   2.7591   2.7691   2.7703   2.7777   2.7878   2.8025   2.8105
  2.8316   2.8588   2.8623   2.8849   2.8951   2.9059   2.9118   2.9160
  2.9368   2.9535   2.9787   3.0056   3.0101   3.0245   3.0389   3.0454
  3.0668   3.0755   3.1003   3.1126   3.1131   3.1176   3.1274   3.1431
  3.1511   3.1594   3.1616   3.1816   3.1864   3.1907   3.1993   3.2127
  3.2248   3.2367   3.2480   3.2646   3.2683   3.2842   3.2909   3.3032
  3.3084   3.3300   3.3306   3.3432   3.3475   3.3585   3.3668   3.3754
  3.3815   3.3834   3.3863   3.3903   3.4053   3.4165   3.4250   3.4337
  3.4430   3.4490   3.4552   3.4661   3.4885   3.4912   3.4984   3.5062
  3.5137   3.5170   3.5285   3.5385   3.5458   3.5563   3.5628   3.5731
  3.5794   3.5990   3.6090   3.6192   3.6326   3.6411   3.6480   3.6592
  3.6691   3.6809   3.6932   3.6985   3.7158   3.7258   3.7326   3.7463
  3.7513   3.7568   3.7601   3.7739   3.7886   3.7936   3.8093   3.8179
  3.8246   3.8400   3.8530   3.8668   3.8826   3.8845   3.9006   3.9045
  3.9320   3.9414   3.9601   3.9697   3.9874   3.9914   4.0145   4.0275
  4.0433   4.0466   4.0568   4.0590   4.0679   4.0864   4.0956   4.1053
  4.1256   4.1364   4.1462   4.1575   4.1608   4.1747   4.1817   4.1930
  4.2093   4.2233   4.2303   4.2423   4.2591   4.2671   4.2793   4.3032
  4.3055   4.3096   4.3317   4.3379   4.3442   4.3539   4.3631   4.3784
  4.3899   4.4012   4.4050   4.4213   4.4232   4.4318   4.4421   4.4475
  4.4697   4.4825   4.4846   4.4901   4.5235   4.5265   4.5627   4.5772
  4.5815   4.6019   4.6053   4.6253   4.6403   4.6545   4.6593   4.6926
  4.6994   4.7187   4.7574   4.7706   4.8004   4.8135   4.8253   4.8485
  4.8640   4.8739   4.8869   4.9187   4.9475   4.9714   4.9830   5.0040
  5.0479   5.0853   5.0988   5.1170   5.1245   5.1284   5.1745   5.1966
  5.2214   5.2422   5.2575   5.2699   5.2889   5.3034   5.3208   5.3307
  5.3598   5.3616   5.3818   5.3968   5.4110   5.4284   5.4379   5.4405
  5.4675   5.5236   5.5310   5.5487   5.5522   5.5683   5.5774   5.5981
  5.6215   5.6251   5.6311   5.6590   5.6831   5.7090   5.7121   5.7394
  5.7743   5.8054   5.8429   5.9660   6.0321   6.0929   6.1399   6.1834
  6.2214   6.2272   6.2292   6.2667   6.2757   6.2913   6.3197   6.4265
  6.4613   6.6074   9.5705  11.1124  12.0665  12.9810  13.1935  13.9505
 14.1244  14.2176  14.4159  15.2852
 --------------------------------------------------------------
 
          Ground-State Mulliken Net Atomic Charges

     Atom                 Charge (a.u.)
  ----------------------------------------
      1 C                    -0.072820
      2 C                    -0.310960
      3 C                    -0.064614
      4 H                     0.179117
      5 C                     0.141295
      6 S                    -0.180714
      7 C                    -0.302005
      8 H                     0.123000
      9 H                     0.116179
     10 H                     0.101693
     11 C                    -0.059522
     12 C                    -0.271713
     13 C                     0.034011
     14 H                     0.188463
     15 C                    -0.285660
     16 S                     0.008043
     17 C                    -0.273345
     18 H                     0.100423
     19 H                     0.108444
     20 H                     0.108485
     21 H                     0.196382
     22 H                     0.113386
     23 H                     0.112529
     24 H                     0.189906
  ----------------------------------------
  Sum of atomic charges =     0.000000

 -----------------------------------------------------------------
                    Cartesian Multipole Moments
 -----------------------------------------------------------------
    Charge (ESU x 10^10)
                -0.0000
    Dipole Moment (Debye)
         X       0.4499      Y      -0.6057      Z       3.8571
       Tot       3.9302
    Quadrupole Moments (Debye-Ang)
        XX     -91.6572     XY      -0.8898     YY     -72.7290
        XZ      -0.3175     YZ      -2.5481     ZZ     -85.7988
    Octopole Moments (Debye-Ang^2)
       XXX       0.5642    XXY      43.0209    XYY       2.1595
       YYY     111.6781    XXZ      -2.7269    XYZ       1.7102
       YYZ      -3.8793    XZZ      -1.8881    YZZ      48.8724
       ZZZ       7.6999
    Hexadecapole Moments (Debye-Ang^3)
      XXXX    -152.9739   XXXY      -1.0718   XXYY    -556.0206
      XYYY      -3.8208   YYYY   -2757.8384   XXXZ      50.1725
      XXYZ     -28.8053   XYYZ       8.3341   YYYZ    -104.7060
      XXZZ    -218.3074   XYZZ       6.4760   YYZZ    -656.4806
      XZZZ      43.4178   YZZZ    -132.0108   ZZZZ   -1082.9869
 -----------------------------------------------------------------
 Total job time:  662.87s(wall), 657.83s(cpu) 
 Sun Jul 10 02:33:00 2022

        *************************************************************
        *                                                           *
        *  Thank you very much for using Q-Chem.  Have a nice day.  *
        *                                                           *
        *************************************************************


remove work dirs ./qchem3521719.0 -- ./qchem3521719.-1
rm -rf ./qchem3521719
You are running Q-Chem version: 5.4.0

#
# job setting
#
local host:  exp-2-18
current dir: /expanse/lustre/scratch/theleonzhang/temp_project/Hydrogenated_Rotation_Test
input file:  Methylthiophene_Phi_0_Theta_190_Methylthiophene_Hydrogenated.qcin
output file: 
nprocs     : 0
nthreads   : 1
#
# qchem installation setting
#
QC:          /cm/shared/apps/spack/cpu/opt/spack/linux-centos8-zen2/gcc-10.2.0/qchem-5.4-akfmr7b3t57bfs6qan3padb2wnb2i7cl
QCAUX:       /cm/shared/apps/spack/cpu/opt/spack/linux-centos8-zen2/gcc-10.2.0/qchem-5.4-akfmr7b3t57bfs6qan3padb2wnb2i7cl/qcaux
QCPROG:      /cm/shared/apps/spack/cpu/opt/spack/linux-centos8-zen2/gcc-10.2.0/qchem-5.4-akfmr7b3t57bfs6qan3padb2wnb2i7cl/exe/qcprog.exe_s
QCPROG_S:    /cm/shared/apps/spack/cpu/opt/spack/linux-centos8-zen2/gcc-10.2.0/qchem-5.4-akfmr7b3t57bfs6qan3padb2wnb2i7cl/exe/qcprog.exe_s
PARALLEL:    -DSERIAL
QCMPI:       mpich
#
# qchem directory setting
#
qcrun:       qchem1898251
QCSCRATCH:   .
QCLOCALSCR:  
QCTMPDIR:    .
QCFILEPREF:  ./qchem1898251
QCSAVEDIR:   
workdirs:    ./qchem1898251
workdir0:    ./qchem1898251
partmpdirs =  
#
# parallel setting
#
QCRSH:           ssh
QCMPI:           mpich
QCMPIRUN:        /cm/shared/apps/spack/cpu/opt/spack/linux-centos8-zen2/gcc-10.2.0/qchem-5.4-akfmr7b3t57bfs6qan3padb2wnb2i7cl/bin/mpi/mpirun_qchem
QCMACHINEFILE:   ./qchem1898251/hostfile

#
# env setting
#
exported envs:   QC QCAUX QCSCRATCH QCRUNNAME QCFILEPREF QCPROG QCPROG_S GUIFILE

Running Job 1 of 1 Methylthiophene_Phi_0_Theta_190_Methylthiophene_Hydrogenated.qcin
qchem Methylthiophene_Phi_0_Theta_190_Methylthiophene_Hydrogenated.qcin_1898251.0 ./qchem1898251/ 0
/cm/shared/apps/spack/cpu/opt/spack/linux-centos8-zen2/gcc-10.2.0/qchem-5.4-akfmr7b3t57bfs6qan3padb2wnb2i7cl/exe/qcprog.exe_s Methylthiophene_Phi_0_Theta_190_Methylthiophene_Hydrogenated.qcin_1898251.0 ./qchem1898251/
                  Welcome to Q-Chem
     A Quantum Leap Into The Future Of Chemistry


 Q-Chem 5.4, Q-Chem, Inc., Pleasanton, CA (2021)

 License issued to: University of California, San Diego (site)

 E. Epifanovsky,  A. T. B. Gilbert,  Xintian Feng,  Joonho Lee,  Yuezhi Mao,  
 N. Mardirossian,  P. Pokhilko,  A. White,  M. Wormit,  M. P. Coons,  
 A. L. Dempwolff,  Zhengting Gan,  D. Hait,  P. R. Horn,  L. D. Jacobson,  
 I. Kaliman,  J. Kussmann,  A. W. Lange,  Ka Un Lao,  D. S. Levine,  Jie Liu,  
 S. C. McKenzie,  A. F. Morrison,  K. Nanda,  F. Plasser,  D. R. Rehn,  
 M. L. Vidal,  Zhi-Qiang You,  Ying Zhu,  B. Alam,  B. Albrecht,  
 A. Aldossary,  E. Alguire,  J. H. Andersen,  D. Barton,  K. Begam,  A. Behn,  
 Y. A. Bernard,  E. J. Berquist,  H. Burton,  A. Carreras,  K. Carter-Fenk,  
 R. Chakraborty,  A. D. Chien,  K. D. Closser,  V. Cofer-Shabica,  
 S. Dasgupta,  Jia Deng,  M. de Wergifosse,  M. Diedenhofen,  Hainam Do,  
 S. Ehlert,  Po-Tung Fang,  S. Fatehi,  Qingguo Feng,  J. Gayvert,  
 Qinghui Ge,  G. Gidofalvi,  M. Goldey,  J. Gomes,  C. Gonzalez-Espinoza,  
 S. Gulania,  A. Gunina,  M. W. D. Hanson-Heine,  P. H. P. Harbach,  
 A. W. Hauser,  M. F. Herbst,  M. Hernandez Vera,  M. Hodecker,  
 Z. C. Holden,  S. Houck,  Xunkun Huang,  Kerwin Hui,  B. C. Huynh,  
 M. Ivanov,  Hyunjun Ji,  Hanjie Jiang,  B. Kaduk,  S. Kaehler,  
 K. Khistyaev,  Jaehoon Kim,  P. Klunzinger,  Z. Koczor-Benda,  
 Joong Hoon Koh,  D. Kosenkov,  L. Koulias,  T. Kowalczyk,  C. M. Krauter,  
 K. Kue,  A. Kunitsa,  T. Kus,  A. Landau,  K. V. Lawler,  D. Lefrancois,  
 S. Lehtola,  Rain Li,  Yi-Pei Li,  Jiashu Liang,  M. Liebenthal,  
 Hung-Hsuan Lin,  You-Sheng Lin,  Fenglai Liu,  Kuan-Yu Liu,  
 M. Loipersberger,  A. Luenser,  A. Manjanath,  P. Manohar,  E. Mansoor,  
 S. F. Manzer,  Shan-Ping Mao,  A. V. Marenich,  T. Markovich,  S. Mason,  
 S. A. Maurer,  P. F. McLaughlin,  M. F. S. J. Menger,  J.-M. Mewes,  
 S. A. Mewes,  P. Morgante,  J. W. Mullinax,  T. S. Nguyen-Beck,  
 K. J. Oosterbaan,  G. Paran,  Alexander C. Paul,  Suranjan K. Paul,  
 F. Pavosevic,  Zheng Pei,  S. Prager,  E. I. Proynov,  E. Ramos,  B. Rana,  
 A. E. Rask,  A. Rettig,  R. M. Richard,  F. Rob,  E. Rossomme,  T. Scheele,  
 M. Scheurer,  M. Schneider,  N. Sergueev,  S. M. Sharada,  W. Skomorowski,  
 D. W. Small,  C. J. Stein,  Yu-Chuan Su,  E. J. Sundstrom,  Zhen Tao,  
 J. Thirman,  T. Tsuchimochi,  N. M. Tubman,  S. P. Veccham,  O. Vydrov,  
 J. Wenzel,  J. Witte,  A. Yamada,  Kun Yao,  S. Yeganeh,  S. R. Yost,  
 A. Zech,  Igor Ying Zhang,  Xing Zhang,  Yu Zhang,  D. Zuev,  
 A. Aspuru-Guzik,  A. T. Bell,  N. A. Besley,  K. B. Bravaya,  B. R. Brooks,  
 D. Casanova,  Jeng-Da Chai,  S. Coriani,  C. J. Cramer,  
 A. E. DePrince, III,  R. A. DiStasio Jr.,  A. Dreuw,  B. D. Dunietz,  
 T. R. Furlani,  W. A. Goddard III,  S. Grimme,  S. Hammes-Schiffer,  
 T. Head-Gordon,  W. J. Hehre,  Chao-Ping Hsu,  T.-C. Jagau,  Yousung Jung,  
 A. Klamt,  Jing Kong,  D. S. Lambrecht,  WanZhen Liang,  N. J. Mayhall,  
 C. W. McCurdy,  J. B. Neaton,  C. Ochsenfeld,  J. A. Parkhill,  R. Peverati,  
 V. A. Rassolov,  Yihan Shao,  L. V. Slipchenko,  T. Stauch,  R. P. Steele,  
 J. E. Subotnik,  A. J. W. Thom,  A. Tkatchenko,  D. G. Truhlar,  
 T. Van Voorhis,  T. A. Wesolowski,  K. B. Whaley,  H. L. Woodcock III,  
 P. M. Zimmerman,  S. Faraji,  P. M. W. Gill,  M. Head-Gordon,  
 J. M. Herbert,  A. I. Krylov

 Contributors to earlier versions of Q-Chem not listed above: 
 R. D. Adamson,  B. Austin,  R. Baer,  J. Baker,  G. J. O. Beran,  
 K. Brandhorst,  S. T. Brown,  E. F. C. Byrd,  A. K. Chakraborty,  
 G. K. L. Chan,  Chun-Min Chang,  Yunqing Chen,  C.-L. Cheng,  
 Siu Hung Chien,  D. M. Chipman,  D. L. Crittenden,  H. Dachsel,  
 R. J. Doerksen,  A. D. Dutoi,  R. G. Edgar,  J. Fosso-Tande,  
 L. Fusti-Molnar,  D. Ghosh,  A. Ghysels,  A. Golubeva-Zadorozhnaya,  
 J. Gonthier,  M. S. Gordon,  S. R. Gwaltney,  G. Hawkins,  J. E. Herr,  
 A. Heyden,  S. Hirata,  E. G. Hohenstein,  G. Kedziora,  F. J. Keil,  
 C. Kelley,  Jihan Kim,  R. A. King,  R. Z. Khaliullin,  P. P. Korambath,  
 W. Kurlancheek,  A. Laurent,  A. M. Lee,  M. S. Lee,  S. V. Levchenko,  
 Ching Yeh Lin,  D. Liotard,  E. Livshits,  R. C. Lochan,  I. Lotan,  
 L. A. Martinez-Martinez,  P. E. Maslen,  N. Nair,  D. P. O'Neill,  
 D. Neuhauser,  E. Neuscamman,  C. M. Oana,  R. Olivares-Amaya,  R. Olson,  
 T. M. Perrine,  B. Peters,  P. A. Pieniazek,  A. Prociuk,  Y. M. Rhee,  
 J. Ritchie,  M. A. Rohrdanz,  E. Rosta,  N. J. Russ,  H. F. Schaefer III,  
 M. W. Schmidt,  N. E. Schultz,  S. Sharma,  N. Shenvi,  C. D. Sherrill,  
 A. C. Simmonett,  A. Sodt,  T. Stein,  D. Stuck,  K. S. Thanthiriwatte,  
 V. Vanovschi,  L. Vogt,  Tao Wang,  A. Warshel,  M. A. Watson,  
 C. F. Williams,  Q. Wu,  X. Xu,  Jun Yang,  W. Zhang,  Yan Zhao

 Please cite Q-Chem as follows:
 Y. Shao et al., Mol. Phys. 113, 184-215 (2015)
 DOI: 10.1080/00268976.2014.952696

 Q-Chem 5.4.0 for Intel X86 EM64T Linux

 Parts of Q-Chem use Armadillo 9.800.1 (Horizon Scraper).
 http://arma.sourceforge.net/

 Q-Chem begins on Sun Jul 10 02:54:20 2022  

 Host: 
0

     Scratch files written to ./qchem1898251//
 May1621 |scratch|qcdevops|jenkins|workspace|build_RNUM    
 Processing $rem in /cm/shared/apps/spack/cpu/opt/spack/linux-centos8-zen2/gcc-10.2.0/qchem-5.4-akfmr7b3t57bfs6qan3padb2wnb2i7cl/config/preferences:
 Processing $rem in /home/theleonzhang/.qchemrc:
 Symmetry turned off for PCM/SM12/SMD calculation
 Core orbitals will be frozen

 Checking the input file for inconsistencies... 	...done.

--------------------------------------------------------------
User input:
--------------------------------------------------------------
$molecule
0 1
C	0.135301	-3.866725	-0.763228
C	-0.106073	-3.703963	0.603311
C	-0.185286	-2.357056	1.050423
H	-0.225783	-4.561092	1.283188
C	0.000000	-1.440664	0.000000
S	0.268187	-2.286957	-1.521021
C	-0.438209	-1.978743	2.483507
H	-0.550153	-2.878678	3.118798
H	-1.363906	-1.376015	2.593381
H	0.393798	-1.375728	2.903516
C	0.000000	0.000000	0.000000
C	0.000033	0.863600	1.099446
C	0.000052	2.247508	0.776721
H	0.000026	0.494801	2.136088
C	0.000074	2.468165	-0.612546
S	0.000024	0.942399	-1.486809
C	0.000075	3.335257	1.814609
H	0.000074	2.909620	2.836676
H	-0.892314	3.989552	1.726239
H	0.892483	3.989525	1.726228
H	0.000094	3.417382	-1.161575
H	-0.688674	-4.392713	-1.258111
H	1.079084	-4.392347	-0.946272
H	1.063572	-1.440391	0.187654
$end

$rem
JOBTYPE		SP
EXCHANGE	HF
CORRELATION	pRIMP2
BASIS		cc-pvtz
METHOD		rimp2
AUX_BASIS	rimp2-cc-pvtz
SOLVENT_METHOD	PCM
PURECART	11111
SYMMETRY	false
MEM_TOTAL	110000
SCF_CONVERGENCE = 6
THRESH=10
$end



$solvent
dielectric 4.90
$end
--------------------------------------------------------------
 ----------------------------------------------------------------
             Standard Nuclear Orientation (Angstroms)
    I     Atom           X                Y                Z
 ----------------------------------------------------------------
    1      C       0.1353010000    -3.8667250000    -0.7632280000
    2      C      -0.1060730000    -3.7039630000     0.6033110000
    3      C      -0.1852860000    -2.3570560000     1.0504230000
    4      H      -0.2257830000    -4.5610920000     1.2831880000
    5      C       0.0000000000    -1.4406640000     0.0000000000
    6      S       0.2681870000    -2.2869570000    -1.5210210000
    7      C      -0.4382090000    -1.9787430000     2.4835070000
    8      H      -0.5501530000    -2.8786780000     3.1187980000
    9      H      -1.3639060000    -1.3760150000     2.5933810000
   10      H       0.3937980000    -1.3757280000     2.9035160000
   11      C       0.0000000000     0.0000000000     0.0000000000
   12      C       0.0000330000     0.8636000000     1.0994460000
   13      C       0.0000520000     2.2475080000     0.7767210000
   14      H       0.0000260000     0.4948010000     2.1360880000
   15      C       0.0000740000     2.4681650000    -0.6125460000
   16      S       0.0000240000     0.9423990000    -1.4868090000
   17      C       0.0000750000     3.3352570000     1.8146090000
   18      H       0.0000740000     2.9096200000     2.8366760000
   19      H      -0.8923140000     3.9895520000     1.7262390000
   20      H       0.8924830000     3.9895250000     1.7262280000
   21      H       0.0000940000     3.4173820000    -1.1615750000
   22      H      -0.6886740000    -4.3927130000    -1.2581110000
   23      H       1.0790840000    -4.3923470000    -0.9462720000
   24      H       1.0635720000    -1.4403910000     0.1876540000
 ----------------------------------------------------------------
 Nuclear Repulsion Energy =         875.82431581 hartrees
 There are       52 alpha and       52 beta electrons

 Q-Chem warning in module forms1/BasisType.C, line 2236:

 You are not using the predefined 5D/6D in this basis set.

 Requested basis set is cc-pVTZ
 There are 196 shells and 536 basis functions

 Total QAlloc Memory Limit 110000 MB
 Mega-Array Size       188 MB
 MEM_STATIC part       192 MB
 Discretize the solute cavity surface with Lebedev spheres
	Using 110 Lebedev grid points for each H atom
	Using 194 Lebedev grid points for other atoms
	Atomic van der Waals radii will be scaled by 1.20
 Remove points where switching function is < 1.0e-08
 Keep 1586 surface tesserae and discard 2062 interior tesserae
 Molecular Surface Area = 231.566 Angst**2
 Requested basis set is rimp2-cc-pVTZ
 There are 414 shells and 1414 basis functions
 A cutoff of  1.0D-10 yielded  14031 shell pairs
 There are    101587 function pairs (    130154 Cartesian)
 Smallest overlap matrix eigenvalue = 3.93E-05

 Scale SEOQF with 1.000000e+00/1.000000e-01/1.000000e-01

 Standard Electronic Orientation quadrupole field applied
 Nucleus-field energy     =     0.0000000246 hartrees
 Guess from superposition of atomic densities
 Warning:  Energy on first SCF cycle will be non-variational
 SAD guess density has 104.000000 electrons

 -----------------------------------------------------------------------
  General SCF calculation program by
  Eric Jon Sundstrom, Paul Horn, Yuezhi Mao, Dmitri Zuev, Alec White,
  David Stuck, Shaama M.S., Shane Yost, Joonho Lee, David Small,
  Daniel Levine, Susi Lehtola, Hugh Burton, Evgeny Epifanovsky,
  Bang C. Huynh
 -----------------------------------------------------------------------
 Hartree-Fock
 A restricted SCF calculation will be
 performed using DIIS
 SCF converges when DIIS error is below 1.0e-06
 ---------------------------------------
  Cycle       Energy         DIIS error
 ---------------------------------------
    1   -1186.0553896112      2.39e-02  
    2   -1180.6076704003      1.60e-03  
    3   -1180.7345302815      6.72e-04  
    4   -1180.7512632838      3.49e-04  
    5   -1180.7569979867      5.94e-05  
    6   -1180.7572458510      2.49e-05  
    7   -1180.7573039251      8.62e-06  
    8   -1180.7573159447      4.15e-06  
    9   -1180.7573185661      1.39e-06  
   10   -1180.7573189756      5.08e-07  Convergence criterion met
 ---------------------------------------
 SCF time:   CPU 576.79s  wall 580.00s 

************** Final PCM Free Energy Summary **************
 G_electrostatic  =      -0.00958387 hartree =      -6.01396697 kcal/mol
 G_cavitation     =       0.00000000 hartree =       0.00000000 kcal/mol
 G_dispersion     =       0.00000000 hartree =       0.00000000 kcal/mol
 G_repulsion      =       0.00000000 hartree =       0.00000000 kcal/mol
 --------------------------------------------------
 Non-electrostatic Free Energy =       0.00000000 hartree =       0.00000000 kcal/mol
 Total                         =      -0.00958387 hartree =      -6.01396697 kcal/mol
 --------------------------------------------------
 SCF Energy (H0 + V/2)                       =   -1180.75731898 
 Solute Internal Energy (H0)                 =   -1180.74773511 
 Total Free Energy (H0 + V/2 + non-elec)     =   -1180.75731898 hartree
                                             = -740936.40060977 kcal/mol
***********************************************************

 SCF   energy in the final basis set =    -1180.7573189756
 Total energy in the final basis set =    -1180.7573189756


 --------------------------------------------------------------
  Generalized many-body perturbation theory program
  by Joonho Lee, Fazle Rob, Xintian Feng, Evgeny Epifanovsky

 No regularization used 
 (reg. param. = 0.0000e+00)
  (P|Q)^-1/2 Time:  CPU 1.90 s  wall 1.91 s

 In RI-MP2 calculation: 
 # of frozen core orbitals: 20

 Components of the RIMP2 correlation energy:
        aaaa    correlation energy =        -0.2514949632 a.u.
        abab    correlation energy =        -1.5027379182 a.u.
        bbbb    correlation energy =        -0.2514949632 a.u.
        non-Brillouin singles      =        -0.0000000000 a.u.
        total same-spin energy     =        -0.5029899265 a.u.
        total opposite-spin energy =        -1.5027379182 a.u.

 Total  RIMP2   correlation energy =        -2.0057278447 a.u.
        RIMP2         total energy =     -1182.7630468203 a.u.

 RI-MP2 Energy Time:  CPU 79.66 s  wall 79.93 s
 
 --------------------------------------------------------------
 
                    Orbital Energies (a.u.)
 --------------------------------------------------------------
 
 Alpha MOs
 -- Occupied --
-91.9842 -91.9465 -11.2911 -11.2669 -11.2624 -11.2524 -11.2498 -11.2449
-11.2345 -11.2280 -11.2275 -11.2244  -8.9838  -8.9512  -6.6648  -6.6642
 -6.6635  -6.6326  -6.6316  -6.6303  -1.2030  -1.1522  -1.0608  -1.0324
 -1.0015  -0.9614  -0.9166  -0.8994  -0.8189  -0.7638  -0.7264  -0.7064
 -0.6591  -0.6493  -0.6107  -0.5943  -0.5861  -0.5689  -0.5599  -0.5526
 -0.5446  -0.5360  -0.5237  -0.5013  -0.4867  -0.4823  -0.4698  -0.4432
 -0.3614  -0.3441  -0.3238  -0.2642
 -- Virtual --
  0.1075   0.1299   0.1405   0.1491   0.1562   0.1703   0.1726   0.1865
  0.1905   0.2034   0.2077   0.2124   0.2182   0.2338   0.2376   0.2419
  0.2629   0.2733   0.2907   0.3065   0.3150   0.3230   0.3533   0.3591
  0.3735   0.3768   0.3883   0.3918   0.4006   0.4091   0.4164   0.4247
  0.4345   0.4564   0.4666   0.4713   0.4743   0.4784   0.4858   0.4962
  0.5105   0.5227   0.5262   0.5336   0.5389   0.5455   0.5497   0.5619
  0.5717   0.5825   0.5860   0.5972   0.6007   0.6111   0.6148   0.6238
  0.6257   0.6285   0.6318   0.6369   0.6420   0.6475   0.6530   0.6627
  0.6699   0.6760   0.6795   0.6932   0.6971   0.7204   0.7238   0.7315
  0.7486   0.7490   0.7671   0.7718   0.7877   0.8049   0.8177   0.8223
  0.8362   0.8388   0.8564   0.8758   0.8871   0.8933   0.9051   0.9125
  0.9403   0.9509   0.9585   0.9645   0.9819   0.9931   1.0004   1.0073
  1.0276   1.0367   1.0447   1.0510   1.0585   1.0672   1.0713   1.0829
  1.0882   1.0954   1.1098   1.1307   1.1410   1.1493   1.1573   1.1733
  1.1785   1.1885   1.2018   1.2102   1.2149   1.2243   1.2274   1.2438
  1.2460   1.2540   1.2589   1.2790   1.2853   1.2992   1.3080   1.3137
  1.3181   1.3333   1.3536   1.3592   1.3677   1.3785   1.4144   1.4192
  1.4360   1.4391   1.4423   1.4649   1.4717   1.4875   1.4898   1.4960
  1.5177   1.5186   1.5276   1.5332   1.5401   1.5416   1.5505   1.5605
  1.5757   1.6015   1.6025   1.6101   1.6132   1.6305   1.6402   1.6437
  1.6539   1.6625   1.6863   1.6939   1.7051   1.7123   1.7275   1.7368
  1.7522   1.7650   1.7847   1.7948   1.8319   1.8399   1.8540   1.8703
  1.8844   1.8975   1.9121   1.9407   1.9455   1.9780   1.9889   2.0039
  2.0220   2.0448   2.0516   2.0606   2.0962   2.1130   2.1321   2.1767
  2.1810   2.2026   2.2064   2.2198   2.2342   2.2436   2.2617   2.2810
  2.2959   2.3034   2.3405   2.3857   2.4105   2.4432   2.4628   2.4753
  2.4904   2.5146   2.5328   2.5457   2.5605   2.5963   2.6013   2.6126
  2.6304   2.6545   2.6584   2.6722   2.6892   2.6994   2.7297   2.7390
  2.7453   2.7591   2.7691   2.7703   2.7777   2.7878   2.8025   2.8105
  2.8316   2.8588   2.8623   2.8849   2.8951   2.9059   2.9118   2.9160
  2.9368   2.9535   2.9787   3.0056   3.0101   3.0245   3.0389   3.0454
  3.0668   3.0755   3.1003   3.1126   3.1131   3.1176   3.1274   3.1431
  3.1511   3.1594   3.1616   3.1816   3.1864   3.1907   3.1993   3.2127
  3.2248   3.2367   3.2480   3.2646   3.2683   3.2842   3.2909   3.3032
  3.3084   3.3300   3.3306   3.3432   3.3475   3.3585   3.3668   3.3754
  3.3815   3.3834   3.3863   3.3903   3.4053   3.4165   3.4250   3.4337
  3.4430   3.4490   3.4552   3.4661   3.4885   3.4912   3.4984   3.5062
  3.5137   3.5170   3.5285   3.5385   3.5458   3.5563   3.5628   3.5731
  3.5794   3.5990   3.6090   3.6192   3.6326   3.6411   3.6480   3.6592
  3.6691   3.6809   3.6932   3.6985   3.7158   3.7258   3.7326   3.7463
  3.7513   3.7568   3.7601   3.7739   3.7886   3.7936   3.8093   3.8179
  3.8246   3.8400   3.8530   3.8668   3.8826   3.8845   3.9006   3.9045
  3.9320   3.9414   3.9601   3.9697   3.9874   3.9914   4.0145   4.0275
  4.0433   4.0466   4.0568   4.0590   4.0679   4.0864   4.0956   4.1053
  4.1256   4.1364   4.1462   4.1575   4.1608   4.1747   4.1817   4.1930
  4.2093   4.2233   4.2303   4.2423   4.2591   4.2671   4.2793   4.3032
  4.3055   4.3096   4.3317   4.3379   4.3442   4.3539   4.3631   4.3784
  4.3899   4.4012   4.4050   4.4213   4.4232   4.4318   4.4421   4.4475
  4.4697   4.4825   4.4846   4.4901   4.5235   4.5265   4.5627   4.5772
  4.5815   4.6019   4.6053   4.6253   4.6403   4.6545   4.6593   4.6926
  4.6994   4.7187   4.7574   4.7706   4.8004   4.8135   4.8253   4.8485
  4.8640   4.8739   4.8869   4.9187   4.9475   4.9714   4.9830   5.0040
  5.0479   5.0853   5.0988   5.1170   5.1245   5.1284   5.1745   5.1966
  5.2214   5.2422   5.2575   5.2699   5.2889   5.3034   5.3208   5.3307
  5.3598   5.3616   5.3818   5.3968   5.4110   5.4284   5.4379   5.4405
  5.4675   5.5236   5.5310   5.5487   5.5522   5.5683   5.5774   5.5981
  5.6215   5.6251   5.6311   5.6590   5.6831   5.7090   5.7121   5.7394
  5.7743   5.8054   5.8429   5.9660   6.0321   6.0929   6.1399   6.1834
  6.2214   6.2272   6.2292   6.2667   6.2757   6.2913   6.3197   6.4265
  6.4613   6.6074   9.5705  11.1124  12.0665  12.9810  13.1935  13.9505
 14.1244  14.2176  14.4159  15.2852
 --------------------------------------------------------------
 
          Ground-State Mulliken Net Atomic Charges

     Atom                 Charge (a.u.)
  ----------------------------------------
      1 C                    -0.072820
      2 C                    -0.310960
      3 C                    -0.064614
      4 H                     0.179117
      5 C                     0.141295
      6 S                    -0.180714
      7 C                    -0.302005
      8 H                     0.123000
      9 H                     0.116179
     10 H                     0.101693
     11 C                    -0.059522
     12 C                    -0.271713
     13 C                     0.034011
     14 H                     0.188463
     15 C                    -0.285660
     16 S                     0.008043
     17 C                    -0.273345
     18 H                     0.100423
     19 H                     0.108444
     20 H                     0.108485
     21 H                     0.196382
     22 H                     0.113386
     23 H                     0.112529
     24 H                     0.189906
  ----------------------------------------
  Sum of atomic charges =     0.000000

 -----------------------------------------------------------------
                    Cartesian Multipole Moments
 -----------------------------------------------------------------
    Charge (ESU x 10^10)
                -0.0000
    Dipole Moment (Debye)
         X       0.4499      Y      -0.6057      Z       3.8571
       Tot       3.9302
    Quadrupole Moments (Debye-Ang)
        XX     -91.6572     XY      -0.8898     YY     -72.7290
        XZ      -0.3175     YZ      -2.5481     ZZ     -85.7988
    Octopole Moments (Debye-Ang^2)
       XXX       0.5642    XXY      43.0209    XYY       2.1595
       YYY     111.6781    XXZ      -2.7269    XYZ       1.7102
       YYZ      -3.8793    XZZ      -1.8881    YZZ      48.8724
       ZZZ       7.6999
    Hexadecapole Moments (Debye-Ang^3)
      XXXX    -152.9739   XXXY      -1.0718   XXYY    -556.0206
      XYYY      -3.8208   YYYY   -2757.8384   XXXZ      50.1725
      XXYZ     -28.8053   XYYZ       8.3341   YYYZ    -104.7060
      XXZZ    -218.3074   XYZZ       6.4760   YYZZ    -656.4806
      XZZZ      43.4178   YZZZ    -132.0108   ZZZZ   -1082.9869
 -----------------------------------------------------------------
 Total job time:  661.38s(wall), 657.34s(cpu) 
 Sun Jul 10 03:05:22 2022

        *************************************************************
        *                                                           *
        *  Thank you very much for using Q-Chem.  Have a nice day.  *
        *                                                           *
        *************************************************************


remove work dirs ./qchem1898251.0 -- ./qchem1898251.-1
rm -rf ./qchem1898251
