You are running Q-Chem version: 5.4.0

#
# job setting
#
local host:  exp-2-23
current dir: /expanse/lustre/scratch/theleonzhang/temp_project/Hydrogenated_Rotation_Test
input file:  Methylthiophene_Phi_25_Theta_250_Methylthiophene_Hydrogenated_Alternate.qcin
output file: 
nprocs     : 0
nthreads   : 1
#
# qchem installation setting
#
QC:          /cm/shared/apps/spack/cpu/opt/spack/linux-centos8-zen2/gcc-10.2.0/qchem-5.4-akfmr7b3t57bfs6qan3padb2wnb2i7cl
QCAUX:       /cm/shared/apps/spack/cpu/opt/spack/linux-centos8-zen2/gcc-10.2.0/qchem-5.4-akfmr7b3t57bfs6qan3padb2wnb2i7cl/qcaux
QCPROG:      /cm/shared/apps/spack/cpu/opt/spack/linux-centos8-zen2/gcc-10.2.0/qchem-5.4-akfmr7b3t57bfs6qan3padb2wnb2i7cl/exe/qcprog.exe_s
QCPROG_S:    /cm/shared/apps/spack/cpu/opt/spack/linux-centos8-zen2/gcc-10.2.0/qchem-5.4-akfmr7b3t57bfs6qan3padb2wnb2i7cl/exe/qcprog.exe_s
PARALLEL:    -DSERIAL
QCMPI:       mpich
#
# qchem directory setting
#
qcrun:       qchem4156038
QCSCRATCH:   .
QCLOCALSCR:  
QCTMPDIR:    .
QCFILEPREF:  ./qchem4156038
QCSAVEDIR:   
workdirs:    ./qchem4156038
workdir0:    ./qchem4156038
partmpdirs =  
#
# parallel setting
#
QCRSH:           ssh
QCMPI:           mpich
QCMPIRUN:        /cm/shared/apps/spack/cpu/opt/spack/linux-centos8-zen2/gcc-10.2.0/qchem-5.4-akfmr7b3t57bfs6qan3padb2wnb2i7cl/bin/mpi/mpirun_qchem
QCMACHINEFILE:   ./qchem4156038/hostfile

#
# env setting
#
exported envs:   QC QCAUX QCSCRATCH QCRUNNAME QCFILEPREF QCPROG QCPROG_S GUIFILE

Running Job 1 of 1 Methylthiophene_Phi_25_Theta_250_Methylthiophene_Hydrogenated_Alternate.qcin
qchem Methylthiophene_Phi_25_Theta_250_Methylthiophene_Hydrogenated_Alternate.qcin_4156038.0 ./qchem4156038/ 0
/cm/shared/apps/spack/cpu/opt/spack/linux-centos8-zen2/gcc-10.2.0/qchem-5.4-akfmr7b3t57bfs6qan3padb2wnb2i7cl/exe/qcprog.exe_s Methylthiophene_Phi_25_Theta_250_Methylthiophene_Hydrogenated_Alternate.qcin_4156038.0 ./qchem4156038/
                  Welcome to Q-Chem
     A Quantum Leap Into The Future Of Chemistry


 Q-Chem 5.4, Q-Chem, Inc., Pleasanton, CA (2021)

 License issued to: University of California, San Diego (site)

 E. Epifanovsky,  A. T. B. Gilbert,  Xintian Feng,  Joonho Lee,  Yuezhi Mao,  
 N. Mardirossian,  P. Pokhilko,  A. White,  M. Wormit,  M. P. Coons,  
 A. L. Dempwolff,  Zhengting Gan,  D. Hait,  P. R. Horn,  L. D. Jacobson,  
 I. Kaliman,  J. Kussmann,  A. W. Lange,  Ka Un Lao,  D. S. Levine,  Jie Liu,  
 S. C. McKenzie,  A. F. Morrison,  K. Nanda,  F. Plasser,  D. R. Rehn,  
 M. L. Vidal,  Zhi-Qiang You,  Ying Zhu,  B. Alam,  B. Albrecht,  
 A. Aldossary,  E. Alguire,  J. H. Andersen,  D. Barton,  K. Begam,  A. Behn,  
 Y. A. Bernard,  E. J. Berquist,  H. Burton,  A. Carreras,  K. Carter-Fenk,  
 R. Chakraborty,  A. D. Chien,  K. D. Closser,  V. Cofer-Shabica,  
 S. Dasgupta,  Jia Deng,  M. de Wergifosse,  M. Diedenhofen,  Hainam Do,  
 S. Ehlert,  Po-Tung Fang,  S. Fatehi,  Qingguo Feng,  J. Gayvert,  
 Qinghui Ge,  G. Gidofalvi,  M. Goldey,  J. Gomes,  C. Gonzalez-Espinoza,  
 S. Gulania,  A. Gunina,  M. W. D. Hanson-Heine,  P. H. P. Harbach,  
 A. W. Hauser,  M. F. Herbst,  M. Hernandez Vera,  M. Hodecker,  
 Z. C. Holden,  S. Houck,  Xunkun Huang,  Kerwin Hui,  B. C. Huynh,  
 M. Ivanov,  Hyunjun Ji,  Hanjie Jiang,  B. Kaduk,  S. Kaehler,  
 K. Khistyaev,  Jaehoon Kim,  P. Klunzinger,  Z. Koczor-Benda,  
 Joong Hoon Koh,  D. Kosenkov,  L. Koulias,  T. Kowalczyk,  C. M. Krauter,  
 K. Kue,  A. Kunitsa,  T. Kus,  A. Landau,  K. V. Lawler,  D. Lefrancois,  
 S. Lehtola,  Rain Li,  Yi-Pei Li,  Jiashu Liang,  M. Liebenthal,  
 Hung-Hsuan Lin,  You-Sheng Lin,  Fenglai Liu,  Kuan-Yu Liu,  
 M. Loipersberger,  A. Luenser,  A. Manjanath,  P. Manohar,  E. Mansoor,  
 S. F. Manzer,  Shan-Ping Mao,  A. V. Marenich,  T. Markovich,  S. Mason,  
 S. A. Maurer,  P. F. McLaughlin,  M. F. S. J. Menger,  J.-M. Mewes,  
 S. A. Mewes,  P. Morgante,  J. W. Mullinax,  T. S. Nguyen-Beck,  
 K. J. Oosterbaan,  G. Paran,  Alexander C. Paul,  Suranjan K. Paul,  
 F. Pavosevic,  Zheng Pei,  S. Prager,  E. I. Proynov,  E. Ramos,  B. Rana,  
 A. E. Rask,  A. Rettig,  R. M. Richard,  F. Rob,  E. Rossomme,  T. Scheele,  
 M. Scheurer,  M. Schneider,  N. Sergueev,  S. M. Sharada,  W. Skomorowski,  
 D. W. Small,  C. J. Stein,  Yu-Chuan Su,  E. J. Sundstrom,  Zhen Tao,  
 J. Thirman,  T. Tsuchimochi,  N. M. Tubman,  S. P. Veccham,  O. Vydrov,  
 J. Wenzel,  J. Witte,  A. Yamada,  Kun Yao,  S. Yeganeh,  S. R. Yost,  
 A. Zech,  Igor Ying Zhang,  Xing Zhang,  Yu Zhang,  D. Zuev,  
 A. Aspuru-Guzik,  A. T. Bell,  N. A. Besley,  K. B. Bravaya,  B. R. Brooks,  
 D. Casanova,  Jeng-Da Chai,  S. Coriani,  C. J. Cramer,  
 A. E. DePrince, III,  R. A. DiStasio Jr.,  A. Dreuw,  B. D. Dunietz,  
 T. R. Furlani,  W. A. Goddard III,  S. Grimme,  S. Hammes-Schiffer,  
 T. Head-Gordon,  W. J. Hehre,  Chao-Ping Hsu,  T.-C. Jagau,  Yousung Jung,  
 A. Klamt,  Jing Kong,  D. S. Lambrecht,  WanZhen Liang,  N. J. Mayhall,  
 C. W. McCurdy,  J. B. Neaton,  C. Ochsenfeld,  J. A. Parkhill,  R. Peverati,  
 V. A. Rassolov,  Yihan Shao,  L. V. Slipchenko,  T. Stauch,  R. P. Steele,  
 J. E. Subotnik,  A. J. W. Thom,  A. Tkatchenko,  D. G. Truhlar,  
 T. Van Voorhis,  T. A. Wesolowski,  K. B. Whaley,  H. L. Woodcock III,  
 P. M. Zimmerman,  S. Faraji,  P. M. W. Gill,  M. Head-Gordon,  
 J. M. Herbert,  A. I. Krylov

 Contributors to earlier versions of Q-Chem not listed above: 
 R. D. Adamson,  B. Austin,  R. Baer,  J. Baker,  G. J. O. Beran,  
 K. Brandhorst,  S. T. Brown,  E. F. C. Byrd,  A. K. Chakraborty,  
 G. K. L. Chan,  Chun-Min Chang,  Yunqing Chen,  C.-L. Cheng,  
 Siu Hung Chien,  D. M. Chipman,  D. L. Crittenden,  H. Dachsel,  
 R. J. Doerksen,  A. D. Dutoi,  R. G. Edgar,  J. Fosso-Tande,  
 L. Fusti-Molnar,  D. Ghosh,  A. Ghysels,  A. Golubeva-Zadorozhnaya,  
 J. Gonthier,  M. S. Gordon,  S. R. Gwaltney,  G. Hawkins,  J. E. Herr,  
 A. Heyden,  S. Hirata,  E. G. Hohenstein,  G. Kedziora,  F. J. Keil,  
 C. Kelley,  Jihan Kim,  R. A. King,  R. Z. Khaliullin,  P. P. Korambath,  
 W. Kurlancheek,  A. Laurent,  A. M. Lee,  M. S. Lee,  S. V. Levchenko,  
 Ching Yeh Lin,  D. Liotard,  E. Livshits,  R. C. Lochan,  I. Lotan,  
 L. A. Martinez-Martinez,  P. E. Maslen,  N. Nair,  D. P. O'Neill,  
 D. Neuhauser,  E. Neuscamman,  C. M. Oana,  R. Olivares-Amaya,  R. Olson,  
 T. M. Perrine,  B. Peters,  P. A. Pieniazek,  A. Prociuk,  Y. M. Rhee,  
 J. Ritchie,  M. A. Rohrdanz,  E. Rosta,  N. J. Russ,  H. F. Schaefer III,  
 M. W. Schmidt,  N. E. Schultz,  S. Sharma,  N. Shenvi,  C. D. Sherrill,  
 A. C. Simmonett,  A. Sodt,  T. Stein,  D. Stuck,  K. S. Thanthiriwatte,  
 V. Vanovschi,  L. Vogt,  Tao Wang,  A. Warshel,  M. A. Watson,  
 C. F. Williams,  Q. Wu,  X. Xu,  Jun Yang,  W. Zhang,  Yan Zhao

 Please cite Q-Chem as follows:
 Y. Shao et al., Mol. Phys. 113, 184-215 (2015)
 DOI: 10.1080/00268976.2014.952696

 Q-Chem 5.4.0 for Intel X86 EM64T Linux

 Parts of Q-Chem use Armadillo 9.800.1 (Horizon Scraper).
 http://arma.sourceforge.net/

 Q-Chem begins on Sun Jul 10 05:23:25 2022  

 Host: 
0

     Scratch files written to ./qchem4156038//
 May1621 |scratch|qcdevops|jenkins|workspace|build_RNUM    
 Processing $rem in /cm/shared/apps/spack/cpu/opt/spack/linux-centos8-zen2/gcc-10.2.0/qchem-5.4-akfmr7b3t57bfs6qan3padb2wnb2i7cl/config/preferences:
 Processing $rem in /home/theleonzhang/.qchemrc:
 Symmetry turned off for PCM/SM12/SMD calculation
 Core orbitals will be frozen

 Checking the input file for inconsistencies... 	...done.

--------------------------------------------------------------
User input:
--------------------------------------------------------------
$molecule
0 1
C	0.728625	-3.866725	-0.264439
C	-0.575519	-3.703963	0.209794
C	-1.002336	-2.357056	0.364749
H	-1.224165	-4.561092	0.446060
C	-0.000000	-1.440664	-0.000000
S	1.451336	-2.286957	-0.528253
C	-2.369885	-1.978743	0.862253
H	-2.976034	-2.878678	1.082953
H	-2.927887	-1.376015	0.115513
H	-2.317620	-1.375728	1.792797
C	0.000000	0.000000	0.000000
C	0.365003	0.782674	1.099446
C	0.949885	2.036912	0.776721
H	0.209135	0.448431	2.136088
C	1.043159	2.236886	-0.612546
S	0.398297	0.854094	-1.486809
C	1.409609	3.022738	1.814609
H	1.229726	2.636980	2.836676
H	0.877346	3.992870	1.726239
H	2.494910	3.238558	1.726228
H	1.444334	3.097160	-1.161575
H	0.745219	-4.392713	-1.225465
H	1.359038	-4.392347	0.461378
H	0.369273	-1.440391	1.014907
$end

$rem
JOBTYPE		SP
EXCHANGE	HF
CORRELATION	pRIMP2
BASIS		cc-pvtz
METHOD		rimp2
AUX_BASIS	rimp2-cc-pvtz
SOLVENT_METHOD	PCM
PURECART	11111
SYMMETRY	false
MEM_TOTAL	110000
SCF_CONVERGENCE = 6
THRESH=10
$end



$solvent
dielectric 4.90
$end
--------------------------------------------------------------
 ----------------------------------------------------------------
             Standard Nuclear Orientation (Angstroms)
    I     Atom           X                Y                Z
 ----------------------------------------------------------------
    1      C       0.7286250000    -3.8667250000    -0.2644390000
    2      C      -0.5755190000    -3.7039630000     0.2097940000
    3      C      -1.0023360000    -2.3570560000     0.3647490000
    4      H      -1.2241650000    -4.5610920000     0.4460600000
    5      C       0.0000000000    -1.4406640000     0.0000000000
    6      S       1.4513360000    -2.2869570000    -0.5282530000
    7      C      -2.3698850000    -1.9787430000     0.8622530000
    8      H      -2.9760340000    -2.8786780000     1.0829530000
    9      H      -2.9278870000    -1.3760150000     0.1155130000
   10      H      -2.3176200000    -1.3757280000     1.7927970000
   11      C       0.0000000000     0.0000000000     0.0000000000
   12      C       0.3650030000     0.7826740000     1.0994460000
   13      C       0.9498850000     2.0369120000     0.7767210000
   14      H       0.2091350000     0.4484310000     2.1360880000
   15      C       1.0431590000     2.2368860000    -0.6125460000
   16      S       0.3982970000     0.8540940000    -1.4868090000
   17      C       1.4096090000     3.0227380000     1.8146090000
   18      H       1.2297260000     2.6369800000     2.8366760000
   19      H       0.8773460000     3.9928700000     1.7262390000
   20      H       2.4949100000     3.2385580000     1.7262280000
   21      H       1.4443340000     3.0971600000    -1.1615750000
   22      H       0.7452190000    -4.3927130000    -1.2254650000
   23      H       1.3590380000    -4.3923470000     0.4613780000
   24      H       0.3692730000    -1.4403910000     1.0149070000
 ----------------------------------------------------------------
 Nuclear Repulsion Energy =         876.84975032 hartrees
 There are       52 alpha and       52 beta electrons

 Q-Chem warning in module forms1/BasisType.C, line 2236:

 You are not using the predefined 5D/6D in this basis set.

 Requested basis set is cc-pVTZ
 There are 196 shells and 536 basis functions

 Total QAlloc Memory Limit 110000 MB
 Mega-Array Size       188 MB
 MEM_STATIC part       192 MB
 Discretize the solute cavity surface with Lebedev spheres
	Using 110 Lebedev grid points for each H atom
	Using 194 Lebedev grid points for other atoms
	Atomic van der Waals radii will be scaled by 1.20
 Remove points where switching function is < 1.0e-08
 Keep 1626 surface tesserae and discard 2022 interior tesserae
 Molecular Surface Area = 237.441 Angst**2
 Requested basis set is rimp2-cc-pVTZ
 There are 414 shells and 1414 basis functions
 A cutoff of  1.0D-10 yielded  13978 shell pairs
 There are    101122 function pairs (    129630 Cartesian)
 Smallest overlap matrix eigenvalue = 6.96E-05

 Scale SEOQF with 1.000000e-01/1.000000e-01/1.000000e-01

 Standard Electronic Orientation quadrupole field applied
 Nucleus-field energy     =     0.0000000343 hartrees
 Guess from superposition of atomic densities
 Warning:  Energy on first SCF cycle will be non-variational
 SAD guess density has 104.000000 electrons

 -----------------------------------------------------------------------
  General SCF calculation program by
  Eric Jon Sundstrom, Paul Horn, Yuezhi Mao, Dmitri Zuev, Alec White,
  David Stuck, Shaama M.S., Shane Yost, Joonho Lee, David Small,
  Daniel Levine, Susi Lehtola, Hugh Burton, Evgeny Epifanovsky,
  Bang C. Huynh
 -----------------------------------------------------------------------
 Hartree-Fock
 A restricted SCF calculation will be
 performed using DIIS
 SCF converges when DIIS error is below 1.0e-06
 ---------------------------------------
  Cycle       Energy         DIIS error
 ---------------------------------------
    1   -1186.0413829835      2.39e-02  
    2   -1180.6075840568      1.55e-03  
    3   -1180.7316661035      5.77e-04  
    4   -1180.7450303078      3.23e-04  
    5   -1180.7497264737      5.95e-05  
    6   -1180.7499701356      2.42e-05  
    7   -1180.7500292789      9.14e-06  
    8   -1180.7500435326      4.41e-06  
    9   -1180.7500469053      1.58e-06  
   10   -1180.7500474609      5.34e-07  Convergence criterion met
 ---------------------------------------
 SCF time:   CPU 561.51s  wall 563.00s 

************** Final PCM Free Energy Summary **************
 G_electrostatic  =      -0.00964156 hartree =      -6.05016925 kcal/mol
 G_cavitation     =       0.00000000 hartree =       0.00000000 kcal/mol
 G_dispersion     =       0.00000000 hartree =       0.00000000 kcal/mol
 G_repulsion      =       0.00000000 hartree =       0.00000000 kcal/mol
 --------------------------------------------------
 Non-electrostatic Free Energy =       0.00000000 hartree =       0.00000000 kcal/mol
 Total                         =      -0.00964156 hartree =      -6.05016925 kcal/mol
 --------------------------------------------------
 SCF Energy (H0 + V/2)                       =   -1180.75004746 
 Solute Internal Energy (H0)                 =   -1180.74040590 
 Total Free Energy (H0 + V/2 + non-elec)     =   -1180.75004746 hartree
                                             = -740931.83766538 kcal/mol
***********************************************************

 SCF   energy in the final basis set =    -1180.7500474609
 Total energy in the final basis set =    -1180.7500474609


 --------------------------------------------------------------
  Generalized many-body perturbation theory program
  by Joonho Lee, Fazle Rob, Xintian Feng, Evgeny Epifanovsky

 No regularization used 
 (reg. param. = 0.0000e+00)
  (P|Q)^-1/2 Time:  CPU 1.90 s  wall 1.90 s

 In RI-MP2 calculation: 
 # of frozen core orbitals: 20

 Components of the RIMP2 correlation energy:
        aaaa    correlation energy =        -0.2516276467 a.u.
        abab    correlation energy =        -1.5042509042 a.u.
        bbbb    correlation energy =        -0.2516276467 a.u.
        non-Brillouin singles      =        -0.0000000000 a.u.
        total same-spin energy     =        -0.5032552933 a.u.
        total opposite-spin energy =        -1.5042509042 a.u.

 Total  RIMP2   correlation energy =        -2.0075061975 a.u.
        RIMP2         total energy =     -1182.7575536584 a.u.

 RI-MP2 Energy Time:  CPU 79.14 s  wall 79.32 s
 
 --------------------------------------------------------------
 
                    Orbital Energies (a.u.)
 --------------------------------------------------------------
 
 Alpha MOs
 -- Occupied --
-91.9806 -91.9418 -11.2783 -11.2662 -11.2605 -11.2535 -11.2507 -11.2439
-11.2401 -11.2315 -11.2293 -11.2167  -8.9805  -8.9463  -6.6614  -6.6609
 -6.6603  -6.6277  -6.6267  -6.6254  -1.1988  -1.1533  -1.0577  -1.0269
 -1.0040  -0.9600  -0.9110  -0.9011  -0.8151  -0.7586  -0.7360  -0.7013
 -0.6608  -0.6409  -0.6100  -0.5885  -0.5821  -0.5706  -0.5644  -0.5509
 -0.5411  -0.5305  -0.5109  -0.5067  -0.4923  -0.4774  -0.4616  -0.4469
 -0.3567  -0.3393  -0.3151  -0.2764
 -- Virtual --
  0.0859   0.1333   0.1422   0.1540   0.1591   0.1715   0.1731   0.1816
  0.1913   0.1964   0.2051   0.2175   0.2239   0.2280   0.2347   0.2430
  0.2502   0.2548   0.2716   0.2958   0.3131   0.3345   0.3451   0.3509
  0.3703   0.3777   0.3795   0.3825   0.3937   0.3994   0.4108   0.4192
  0.4342   0.4404   0.4435   0.4606   0.4682   0.4719   0.4854   0.4899
  0.5020   0.5145   0.5171   0.5205   0.5298   0.5372   0.5404   0.5500
  0.5735   0.5805   0.5856   0.5946   0.6000   0.6057   0.6158   0.6201
  0.6272   0.6290   0.6340   0.6376   0.6429   0.6451   0.6505   0.6562
  0.6588   0.6636   0.6794   0.6890   0.6921   0.6988   0.7114   0.7218
  0.7361   0.7432   0.7504   0.7753   0.7937   0.7992   0.8108   0.8224
  0.8234   0.8406   0.8482   0.8496   0.8745   0.8889   0.8987   0.9107
  0.9236   0.9430   0.9511   0.9603   0.9797   0.9879   0.9962   1.0086
  1.0175   1.0307   1.0365   1.0380   1.0454   1.0611   1.0640   1.0832
  1.0868   1.1007   1.1095   1.1192   1.1304   1.1548   1.1608   1.1764
  1.1777   1.1857   1.1922   1.2003   1.2139   1.2228   1.2315   1.2491
  1.2510   1.2621   1.2626   1.2698   1.2755   1.2887   1.3072   1.3222
  1.3285   1.3322   1.3557   1.3659   1.3796   1.3953   1.3993   1.4046
  1.4270   1.4324   1.4505   1.4539   1.4709   1.4743   1.4798   1.4935
  1.5025   1.5149   1.5207   1.5284   1.5394   1.5452   1.5487   1.5548
  1.5622   1.5681   1.5780   1.5898   1.6088   1.6191   1.6225   1.6423
  1.6475   1.6633   1.6832   1.6971   1.7016   1.7100   1.7239   1.7332
  1.7517   1.7572   1.7669   1.7911   1.7979   1.8092   1.8292   1.8565
  1.8706   1.9237   1.9355   1.9450   1.9481   1.9682   1.9768   1.9953
  2.0160   2.0272   2.0466   2.0556   2.0872   2.1296   2.1358   2.1446
  2.1858   2.1956   2.2016   2.2176   2.2306   2.2520   2.2633   2.2718
  2.2789   2.3200   2.3531   2.3726   2.4096   2.4445   2.4574   2.4709
  2.4981   2.5029   2.5209   2.5510   2.5728   2.5849   2.6042   2.6067
  2.6169   2.6343   2.6612   2.6682   2.6721   2.6907   2.7041   2.7309
  2.7475   2.7530   2.7608   2.7736   2.7759   2.7904   2.8081   2.8360
  2.8447   2.8514   2.8633   2.8818   2.9009   2.9040   2.9133   2.9179
  2.9435   2.9579   2.9607   2.9737   2.9968   3.0131   3.0261   3.0363
  3.0412   3.0711   3.0944   3.1066   3.1115   3.1145   3.1337   3.1450
  3.1518   3.1600   3.1627   3.1738   3.1811   3.1925   3.1988   3.2166
  3.2282   3.2433   3.2450   3.2630   3.2761   3.2792   3.2993   3.3048
  3.3188   3.3261   3.3333   3.3368   3.3420   3.3630   3.3648   3.3712
  3.3812   3.3887   3.3946   3.4019   3.4058   3.4164   3.4200   3.4282
  3.4356   3.4422   3.4555   3.4675   3.4803   3.4927   3.5038   3.5069
  3.5192   3.5325   3.5336   3.5436   3.5469   3.5625   3.5781   3.5865
  3.5944   3.6106   3.6161   3.6228   3.6359   3.6413   3.6462   3.6491
  3.6677   3.6811   3.6873   3.6961   3.7167   3.7234   3.7302   3.7397
  3.7493   3.7584   3.7714   3.7728   3.7861   3.7939   3.7978   3.8262
  3.8315   3.8406   3.8468   3.8594   3.8806   3.8866   3.8976   3.9136
  3.9290   3.9449   3.9489   3.9591   3.9648   3.9843   3.9992   4.0032
  4.0247   4.0321   4.0454   4.0542   4.0785   4.0901   4.0993   4.1092
  4.1218   4.1248   4.1443   4.1527   4.1627   4.1690   4.1907   4.1967
  4.2063   4.2184   4.2300   4.2439   4.2556   4.2605   4.2638   4.2915
  4.2989   4.3046   4.3167   4.3260   4.3419   4.3430   4.3607   4.3628
  4.3755   4.3835   4.3963   4.4014   4.4055   4.4266   4.4315   4.4541
  4.4584   4.4724   4.4859   4.4953   4.4998   4.5153   4.5345   4.5497
  4.5840   4.5888   4.6038   4.6321   4.6451   4.6481   4.6574   4.6756
  4.6950   4.7174   4.7303   4.7563   4.7623   4.8161   4.8263   4.8531
  4.8603   4.8651   4.8962   4.9091   4.9271   4.9722   4.9803   4.9889
  5.0285   5.0478   5.0926   5.1022   5.1106   5.1265   5.1521   5.1691
  5.1785   5.1930   5.2282   5.2607   5.2812   5.2904   5.3095   5.3261
  5.3361   5.3654   5.3747   5.3921   5.4032   5.4271   5.4400   5.4472
  5.4937   5.5113   5.5279   5.5447   5.5476   5.5605   5.5706   5.5785
  5.6238   5.6312   5.6536   5.6659   5.6850   5.7010   5.7089   5.7330
  5.7776   5.7893   5.8291   5.9563   5.9995   6.0521   6.1254   6.1377
  6.2044   6.2195   6.2269   6.2413   6.2541   6.2755   6.2870   6.3208
  6.3785   6.4427   9.4114  10.5942  12.1558  12.9268  13.1859  13.8968
 14.1028  14.1979  14.3293  14.6020
 --------------------------------------------------------------
 
          Ground-State Mulliken Net Atomic Charges

     Atom                 Charge (a.u.)
  ----------------------------------------
      1 C                    -0.073753
      2 C                    -0.330251
      3 C                    -0.033982
      4 H                     0.174690
      5 C                     0.058660
      6 S                    -0.167519
      7 C                    -0.270418
      8 H                     0.113451
      9 H                     0.108125
     10 H                     0.099429
     11 C                    -0.063229
     12 C                    -0.238300
     13 C                     0.023772
     14 H                     0.180983
     15 C                    -0.232359
     16 S                     0.008812
     17 C                    -0.271026
     18 H                     0.101694
     19 H                     0.107789
     20 H                     0.108422
     21 H                     0.196574
     22 H                     0.110303
     23 H                     0.109720
     24 H                     0.178413
  ----------------------------------------
  Sum of atomic charges =     0.000000

 -----------------------------------------------------------------
                    Cartesian Multipole Moments
 -----------------------------------------------------------------
    Charge (ESU x 10^10)
                -0.0000
    Dipole Moment (Debye)
         X      -1.1315      Y       0.5808      Z       3.0247
       Tot       3.2812
    Quadrupole Moments (Debye-Ang)
        XX     -89.5363     XY       6.8589     YY     -76.1452
        XZ       0.6382     YZ      -1.4746     ZZ     -86.0593
    Octopole Moments (Debye-Ang^2)
       XXX     -93.2720    XXY      53.9367    XYY     -13.8618
       YYY     138.5397    XXZ       0.9114    XYZ      -0.0247
       YYZ      -1.8213    XZZ     -25.7817    YZZ      61.3256
       ZZZ       1.5623
    Hexadecapole Moments (Debye-Ang^3)
      XXXX    -815.0043   XXXY    -158.8990   XXYY    -590.6890
      XYYY    -157.9198   YYYY   -2661.1708   XXXZ      47.8304
      XXYZ     -42.9605   XYYZ       2.8108   YYYZ     -98.7422
      XXZZ    -242.0788   XYZZ     -50.7122   YYZZ    -583.4847
      XZZZ      54.8891   YZZZ     -86.1437   ZZZZ    -607.1296
 -----------------------------------------------------------------
 Total job time:  646.02s(wall), 641.54s(cpu) 
 Sun Jul 10 05:34:11 2022

        *************************************************************
        *                                                           *
        *  Thank you very much for using Q-Chem.  Have a nice day.  *
        *                                                           *
        *************************************************************


remove work dirs ./qchem4156038.0 -- ./qchem4156038.-1
rm -rf ./qchem4156038
