You are running Q-Chem version: 5.4.0

#
# job setting
#
local host:  exp-2-27
current dir: /expanse/lustre/scratch/theleonzhang/temp_project/Hydrogenated_Rotation_Test
input file:  Methylthiophene_Phi_15_Theta_130_Methylthiophene_Hydrogenated.qcin
output file: 
nprocs     : 0
nthreads   : 1
#
# qchem installation setting
#
QC:          /cm/shared/apps/spack/cpu/opt/spack/linux-centos8-zen2/gcc-10.2.0/qchem-5.4-akfmr7b3t57bfs6qan3padb2wnb2i7cl
QCAUX:       /cm/shared/apps/spack/cpu/opt/spack/linux-centos8-zen2/gcc-10.2.0/qchem-5.4-akfmr7b3t57bfs6qan3padb2wnb2i7cl/qcaux
QCPROG:      /cm/shared/apps/spack/cpu/opt/spack/linux-centos8-zen2/gcc-10.2.0/qchem-5.4-akfmr7b3t57bfs6qan3padb2wnb2i7cl/exe/qcprog.exe_s
QCPROG_S:    /cm/shared/apps/spack/cpu/opt/spack/linux-centos8-zen2/gcc-10.2.0/qchem-5.4-akfmr7b3t57bfs6qan3padb2wnb2i7cl/exe/qcprog.exe_s
PARALLEL:    -DSERIAL
QCMPI:       mpich
#
# qchem directory setting
#
qcrun:       qchem1610773
QCSCRATCH:   .
QCLOCALSCR:  
QCTMPDIR:    .
QCFILEPREF:  ./qchem1610773
QCSAVEDIR:   
workdirs:    ./qchem1610773
workdir0:    ./qchem1610773
partmpdirs =  
#
# parallel setting
#
QCRSH:           ssh
QCMPI:           mpich
QCMPIRUN:        /cm/shared/apps/spack/cpu/opt/spack/linux-centos8-zen2/gcc-10.2.0/qchem-5.4-akfmr7b3t57bfs6qan3padb2wnb2i7cl/bin/mpi/mpirun_qchem
QCMACHINEFILE:   ./qchem1610773/hostfile

#
# env setting
#
exported envs:   QC QCAUX QCSCRATCH QCRUNNAME QCFILEPREF QCPROG QCPROG_S GUIFILE

Running Job 1 of 1 Methylthiophene_Phi_15_Theta_130_Methylthiophene_Hydrogenated.qcin
qchem Methylthiophene_Phi_15_Theta_130_Methylthiophene_Hydrogenated.qcin_1610773.0 ./qchem1610773/ 0
/cm/shared/apps/spack/cpu/opt/spack/linux-centos8-zen2/gcc-10.2.0/qchem-5.4-akfmr7b3t57bfs6qan3padb2wnb2i7cl/exe/qcprog.exe_s Methylthiophene_Phi_15_Theta_130_Methylthiophene_Hydrogenated.qcin_1610773.0 ./qchem1610773/
                  Welcome to Q-Chem
     A Quantum Leap Into The Future Of Chemistry


 Q-Chem 5.4, Q-Chem, Inc., Pleasanton, CA (2021)

 License issued to: University of California, San Diego (site)

 E. Epifanovsky,  A. T. B. Gilbert,  Xintian Feng,  Joonho Lee,  Yuezhi Mao,  
 N. Mardirossian,  P. Pokhilko,  A. White,  M. Wormit,  M. P. Coons,  
 A. L. Dempwolff,  Zhengting Gan,  D. Hait,  P. R. Horn,  L. D. Jacobson,  
 I. Kaliman,  J. Kussmann,  A. W. Lange,  Ka Un Lao,  D. S. Levine,  Jie Liu,  
 S. C. McKenzie,  A. F. Morrison,  K. Nanda,  F. Plasser,  D. R. Rehn,  
 M. L. Vidal,  Zhi-Qiang You,  Ying Zhu,  B. Alam,  B. Albrecht,  
 A. Aldossary,  E. Alguire,  J. H. Andersen,  D. Barton,  K. Begam,  A. Behn,  
 Y. A. Bernard,  E. J. Berquist,  H. Burton,  A. Carreras,  K. Carter-Fenk,  
 R. Chakraborty,  A. D. Chien,  K. D. Closser,  V. Cofer-Shabica,  
 S. Dasgupta,  Jia Deng,  M. de Wergifosse,  M. Diedenhofen,  Hainam Do,  
 S. Ehlert,  Po-Tung Fang,  S. Fatehi,  Qingguo Feng,  J. Gayvert,  
 Qinghui Ge,  G. Gidofalvi,  M. Goldey,  J. Gomes,  C. Gonzalez-Espinoza,  
 S. Gulania,  A. Gunina,  M. W. D. Hanson-Heine,  P. H. P. Harbach,  
 A. W. Hauser,  M. F. Herbst,  M. Hernandez Vera,  M. Hodecker,  
 Z. C. Holden,  S. Houck,  Xunkun Huang,  Kerwin Hui,  B. C. Huynh,  
 M. Ivanov,  Hyunjun Ji,  Hanjie Jiang,  B. Kaduk,  S. Kaehler,  
 K. Khistyaev,  Jaehoon Kim,  P. Klunzinger,  Z. Koczor-Benda,  
 Joong Hoon Koh,  D. Kosenkov,  L. Koulias,  T. Kowalczyk,  C. M. Krauter,  
 K. Kue,  A. Kunitsa,  T. Kus,  A. Landau,  K. V. Lawler,  D. Lefrancois,  
 S. Lehtola,  Rain Li,  Yi-Pei Li,  Jiashu Liang,  M. Liebenthal,  
 Hung-Hsuan Lin,  You-Sheng Lin,  Fenglai Liu,  Kuan-Yu Liu,  
 M. Loipersberger,  A. Luenser,  A. Manjanath,  P. Manohar,  E. Mansoor,  
 S. F. Manzer,  Shan-Ping Mao,  A. V. Marenich,  T. Markovich,  S. Mason,  
 S. A. Maurer,  P. F. McLaughlin,  M. F. S. J. Menger,  J.-M. Mewes,  
 S. A. Mewes,  P. Morgante,  J. W. Mullinax,  T. S. Nguyen-Beck,  
 K. J. Oosterbaan,  G. Paran,  Alexander C. Paul,  Suranjan K. Paul,  
 F. Pavosevic,  Zheng Pei,  S. Prager,  E. I. Proynov,  E. Ramos,  B. Rana,  
 A. E. Rask,  A. Rettig,  R. M. Richard,  F. Rob,  E. Rossomme,  T. Scheele,  
 M. Scheurer,  M. Schneider,  N. Sergueev,  S. M. Sharada,  W. Skomorowski,  
 D. W. Small,  C. J. Stein,  Yu-Chuan Su,  E. J. Sundstrom,  Zhen Tao,  
 J. Thirman,  T. Tsuchimochi,  N. M. Tubman,  S. P. Veccham,  O. Vydrov,  
 J. Wenzel,  J. Witte,  A. Yamada,  Kun Yao,  S. Yeganeh,  S. R. Yost,  
 A. Zech,  Igor Ying Zhang,  Xing Zhang,  Yu Zhang,  D. Zuev,  
 A. Aspuru-Guzik,  A. T. Bell,  N. A. Besley,  K. B. Bravaya,  B. R. Brooks,  
 D. Casanova,  Jeng-Da Chai,  S. Coriani,  C. J. Cramer,  
 A. E. DePrince, III,  R. A. DiStasio Jr.,  A. Dreuw,  B. D. Dunietz,  
 T. R. Furlani,  W. A. Goddard III,  S. Grimme,  S. Hammes-Schiffer,  
 T. Head-Gordon,  W. J. Hehre,  Chao-Ping Hsu,  T.-C. Jagau,  Yousung Jung,  
 A. Klamt,  Jing Kong,  D. S. Lambrecht,  WanZhen Liang,  N. J. Mayhall,  
 C. W. McCurdy,  J. B. Neaton,  C. Ochsenfeld,  J. A. Parkhill,  R. Peverati,  
 V. A. Rassolov,  Yihan Shao,  L. V. Slipchenko,  T. Stauch,  R. P. Steele,  
 J. E. Subotnik,  A. J. W. Thom,  A. Tkatchenko,  D. G. Truhlar,  
 T. Van Voorhis,  T. A. Wesolowski,  K. B. Whaley,  H. L. Woodcock III,  
 P. M. Zimmerman,  S. Faraji,  P. M. W. Gill,  M. Head-Gordon,  
 J. M. Herbert,  A. I. Krylov

 Contributors to earlier versions of Q-Chem not listed above: 
 R. D. Adamson,  B. Austin,  R. Baer,  J. Baker,  G. J. O. Beran,  
 K. Brandhorst,  S. T. Brown,  E. F. C. Byrd,  A. K. Chakraborty,  
 G. K. L. Chan,  Chun-Min Chang,  Yunqing Chen,  C.-L. Cheng,  
 Siu Hung Chien,  D. M. Chipman,  D. L. Crittenden,  H. Dachsel,  
 R. J. Doerksen,  A. D. Dutoi,  R. G. Edgar,  J. Fosso-Tande,  
 L. Fusti-Molnar,  D. Ghosh,  A. Ghysels,  A. Golubeva-Zadorozhnaya,  
 J. Gonthier,  M. S. Gordon,  S. R. Gwaltney,  G. Hawkins,  J. E. Herr,  
 A. Heyden,  S. Hirata,  E. G. Hohenstein,  G. Kedziora,  F. J. Keil,  
 C. Kelley,  Jihan Kim,  R. A. King,  R. Z. Khaliullin,  P. P. Korambath,  
 W. Kurlancheek,  A. Laurent,  A. M. Lee,  M. S. Lee,  S. V. Levchenko,  
 Ching Yeh Lin,  D. Liotard,  E. Livshits,  R. C. Lochan,  I. Lotan,  
 L. A. Martinez-Martinez,  P. E. Maslen,  N. Nair,  D. P. O'Neill,  
 D. Neuhauser,  E. Neuscamman,  C. M. Oana,  R. Olivares-Amaya,  R. Olson,  
 T. M. Perrine,  B. Peters,  P. A. Pieniazek,  A. Prociuk,  Y. M. Rhee,  
 J. Ritchie,  M. A. Rohrdanz,  E. Rosta,  N. J. Russ,  H. F. Schaefer III,  
 M. W. Schmidt,  N. E. Schultz,  S. Sharma,  N. Shenvi,  C. D. Sherrill,  
 A. C. Simmonett,  A. Sodt,  T. Stein,  D. Stuck,  K. S. Thanthiriwatte,  
 V. Vanovschi,  L. Vogt,  Tao Wang,  A. Warshel,  M. A. Watson,  
 C. F. Williams,  Q. Wu,  X. Xu,  Jun Yang,  W. Zhang,  Yan Zhao

 Please cite Q-Chem as follows:
 Y. Shao et al., Mol. Phys. 113, 184-215 (2015)
 DOI: 10.1080/00268976.2014.952696

 Q-Chem 5.4.0 for Intel X86 EM64T Linux

 Parts of Q-Chem use Armadillo 9.800.1 (Horizon Scraper).
 http://arma.sourceforge.net/

 Q-Chem begins on Sun Jul 10 02:02:03 2022  

 Host: 
0

     Scratch files written to ./qchem1610773//
 May1621 |scratch|qcdevops|jenkins|workspace|build_RNUM    
 Processing $rem in /cm/shared/apps/spack/cpu/opt/spack/linux-centos8-zen2/gcc-10.2.0/qchem-5.4-akfmr7b3t57bfs6qan3padb2wnb2i7cl/config/preferences:
 Processing $rem in /home/theleonzhang/.qchemrc:
 Symmetry turned off for PCM/SM12/SMD calculation
 Core orbitals will be frozen

 Checking the input file for inconsistencies... 	...done.

--------------------------------------------------------------
User input:
--------------------------------------------------------------
$molecule
0 1
C	-0.593324	-3.866725	-0.498788
C	0.469446	-3.703963	0.393517
C	0.817050	-2.357056	0.685674
H	0.998381	-4.561092	0.837128
C	0.000000	-1.440664	0.000000
S	-1.183149	-2.286957	-0.992768
C	1.931676	-1.978743	1.621254
H	2.425882	-2.878678	2.035845
H	1.563980	-1.376015	2.477868
H	2.711417	-1.375728	1.110719
C	0.000000	0.000000	0.000000
C	0.223548	0.834165	1.099446
C	0.581748	2.170912	0.776721
H	0.128089	0.477934	2.136088
C	0.638880	2.384045	-0.612546
S	0.243934	0.910282	-1.486809
C	0.863301	3.221592	1.814609
H	0.753137	2.810458	2.836676
H	0.170663	4.084559	1.726239
H	1.894637	3.622593	1.726228
H	0.884575	3.300913	-1.161575
H	-1.433894	-4.392713	-0.032646
H	-0.279954	-4.392347	-1.407651
H	-0.694299	-1.440937	0.827254
$end

$rem
JOBTYPE		SP
EXCHANGE	HF
CORRELATION	pRIMP2
BASIS		cc-pvtz
METHOD		rimp2
AUX_BASIS	rimp2-cc-pvtz
SOLVENT_METHOD	PCM
PURECART	11111
SYMMETRY	false
MEM_TOTAL	110000
SCF_CONVERGENCE = 6
THRESH=10
$end



$solvent
dielectric 4.90
$end
--------------------------------------------------------------
 ----------------------------------------------------------------
             Standard Nuclear Orientation (Angstroms)
    I     Atom           X                Y                Z
 ----------------------------------------------------------------
    1      C      -0.5933240000    -3.8667250000    -0.4987880000
    2      C       0.4694460000    -3.7039630000     0.3935170000
    3      C       0.8170500000    -2.3570560000     0.6856740000
    4      H       0.9983810000    -4.5610920000     0.8371280000
    5      C       0.0000000000    -1.4406640000     0.0000000000
    6      S      -1.1831490000    -2.2869570000    -0.9927680000
    7      C       1.9316760000    -1.9787430000     1.6212540000
    8      H       2.4258820000    -2.8786780000     2.0358450000
    9      H       1.5639800000    -1.3760150000     2.4778680000
   10      H       2.7114170000    -1.3757280000     1.1107190000
   11      C       0.0000000000     0.0000000000     0.0000000000
   12      C       0.2235480000     0.8341650000     1.0994460000
   13      C       0.5817480000     2.1709120000     0.7767210000
   14      H       0.1280890000     0.4779340000     2.1360880000
   15      C       0.6388800000     2.3840450000    -0.6125460000
   16      S       0.2439340000     0.9102820000    -1.4868090000
   17      C       0.8633010000     3.2215920000     1.8146090000
   18      H       0.7531370000     2.8104580000     2.8366760000
   19      H       0.1706630000     4.0845590000     1.7262390000
   20      H       1.8946370000     3.6225930000     1.7262280000
   21      H       0.8845750000     3.3009130000    -1.1615750000
   22      H      -1.4338940000    -4.3927130000    -0.0326460000
   23      H      -0.2799540000    -4.3923470000    -1.4076510000
   24      H      -0.6942990000    -1.4409370000     0.8272540000
 ----------------------------------------------------------------
 Nuclear Repulsion Energy =         874.75695771 hartrees
 There are       52 alpha and       52 beta electrons

 Q-Chem warning in module forms1/BasisType.C, line 2236:

 You are not using the predefined 5D/6D in this basis set.

 Requested basis set is cc-pVTZ
 There are 196 shells and 536 basis functions

 Total QAlloc Memory Limit 110000 MB
 Mega-Array Size       188 MB
 MEM_STATIC part       192 MB
 Discretize the solute cavity surface with Lebedev spheres
	Using 110 Lebedev grid points for each H atom
	Using 194 Lebedev grid points for other atoms
	Atomic van der Waals radii will be scaled by 1.20
 Remove points where switching function is < 1.0e-08
 Keep 1595 surface tesserae and discard 2053 interior tesserae
 Molecular Surface Area = 234.963 Angst**2
 Requested basis set is rimp2-cc-pVTZ
 There are 414 shells and 1414 basis functions
 A cutoff of  1.0D-10 yielded  14094 shell pairs
 There are    102296 function pairs (    131162 Cartesian)
 Smallest overlap matrix eigenvalue = 5.46E-05

 Scale SEOQF with 1.000000e-01/1.000000e-01/1.000000e-01

 Standard Electronic Orientation quadrupole field applied
 Nucleus-field energy     =     0.0000000302 hartrees
 Guess from superposition of atomic densities
 Warning:  Energy on first SCF cycle will be non-variational
 SAD guess density has 104.000000 electrons

 -----------------------------------------------------------------------
  General SCF calculation program by
  Eric Jon Sundstrom, Paul Horn, Yuezhi Mao, Dmitri Zuev, Alec White,
  David Stuck, Shaama M.S., Shane Yost, Joonho Lee, David Small,
  Daniel Levine, Susi Lehtola, Hugh Burton, Evgeny Epifanovsky,
  Bang C. Huynh
 -----------------------------------------------------------------------
 Hartree-Fock
 A restricted SCF calculation will be
 performed using DIIS
 SCF converges when DIIS error is below 1.0e-06
 ---------------------------------------
  Cycle       Energy         DIIS error
 ---------------------------------------
    1   -1186.0281489771      2.39e-02  
    2   -1180.6136148496      1.55e-03  
    3   -1180.7379344849      6.03e-04  
    4   -1180.7519839182      3.35e-04  
    5   -1180.7570714518      5.89e-05  
    6   -1180.7573084167      2.39e-05  
    7   -1180.7573630266      8.63e-06  
    8   -1180.7573751194      4.11e-06  
    9   -1180.7573778617      1.46e-06  
   10   -1180.7573783158      5.14e-07  Convergence criterion met
 ---------------------------------------
 SCF time:   CPU 568.51s  wall 572.00s 

************** Final PCM Free Energy Summary **************
 G_electrostatic  =      -0.00955398 hartree =      -5.99521273 kcal/mol
 G_cavitation     =       0.00000000 hartree =       0.00000000 kcal/mol
 G_dispersion     =       0.00000000 hartree =       0.00000000 kcal/mol
 G_repulsion      =       0.00000000 hartree =       0.00000000 kcal/mol
 --------------------------------------------------
 Non-electrostatic Free Energy =       0.00000000 hartree =       0.00000000 kcal/mol
 Total                         =      -0.00955398 hartree =      -5.99521273 kcal/mol
 --------------------------------------------------
 SCF Energy (H0 + V/2)                       =   -1180.75737832 
 Solute Internal Energy (H0)                 =   -1180.74782434 
 Total Free Energy (H0 + V/2 + non-elec)     =   -1180.75737832 hartree
                                             = -740936.43784630 kcal/mol
***********************************************************

 SCF   energy in the final basis set =    -1180.7573783158
 Total energy in the final basis set =    -1180.7573783158


 --------------------------------------------------------------
  Generalized many-body perturbation theory program
  by Joonho Lee, Fazle Rob, Xintian Feng, Evgeny Epifanovsky

 No regularization used 
 (reg. param. = 0.0000e+00)
  (P|Q)^-1/2 Time:  CPU 1.90 s  wall 1.91 s

 In RI-MP2 calculation: 
 # of frozen core orbitals: 20

 Components of the RIMP2 correlation energy:
        aaaa    correlation energy =        -0.2516115902 a.u.
        abab    correlation energy =        -1.5038001377 a.u.
        bbbb    correlation energy =        -0.2516115902 a.u.
        non-Brillouin singles      =        -0.0000000000 a.u.
        total same-spin energy     =        -0.5032231804 a.u.
        total opposite-spin energy =        -1.5038001377 a.u.

 Total  RIMP2   correlation energy =        -2.0070233181 a.u.
        RIMP2         total energy =     -1182.7644016339 a.u.

 RI-MP2 Energy Time:  CPU 80.25 s  wall 80.55 s
 
 --------------------------------------------------------------
 
                    Orbital Energies (a.u.)
 --------------------------------------------------------------
 
 Alpha MOs
 -- Occupied --
-91.9809 -91.9427 -11.2826 -11.2643 -11.2622 -11.2571 -11.2511 -11.2418
-11.2403 -11.2320 -11.2293 -11.2205  -8.9808  -8.9473  -6.6618  -6.6612
 -6.6606  -6.6287  -6.6277  -6.6264  -1.1995  -1.1534  -1.0588  -1.0280
 -1.0035  -0.9616  -0.9127  -0.9008  -0.8162  -0.7611  -0.7314  -0.7062
 -0.6591  -0.6438  -0.6108  -0.5908  -0.5841  -0.5709  -0.5612  -0.5538
 -0.5419  -0.5316  -0.5180  -0.5067  -0.4855  -0.4799  -0.4629  -0.4468
 -0.3560  -0.3423  -0.3194  -0.2732
 -- Virtual --
  0.0965   0.1312   0.1434   0.1488   0.1575   0.1701   0.1735   0.1855
  0.1927   0.1977   0.2027   0.2163   0.2210   0.2340   0.2374   0.2432
  0.2541   0.2635   0.2781   0.2982   0.3135   0.3383   0.3467   0.3566
  0.3660   0.3725   0.3850   0.3939   0.3993   0.4123   0.4134   0.4179
  0.4290   0.4412   0.4492   0.4601   0.4695   0.4788   0.4859   0.4921
  0.4949   0.5088   0.5169   0.5261   0.5397   0.5421   0.5470   0.5558
  0.5650   0.5797   0.5877   0.5923   0.5985   0.6061   0.6122   0.6178
  0.6198   0.6267   0.6336   0.6404   0.6437   0.6493   0.6514   0.6567
  0.6606   0.6704   0.6828   0.6917   0.6977   0.7067   0.7150   0.7258
  0.7366   0.7474   0.7571   0.7741   0.7786   0.7853   0.8086   0.8190
  0.8292   0.8302   0.8605   0.8689   0.8783   0.8862   0.9030   0.9145
  0.9319   0.9434   0.9465   0.9578   0.9744   0.9941   1.0000   1.0098
  1.0159   1.0331   1.0415   1.0435   1.0537   1.0623   1.0785   1.0880
  1.0915   1.0958   1.1242   1.1261   1.1356   1.1485   1.1611   1.1721
  1.1830   1.1911   1.2025   1.2082   1.2143   1.2196   1.2344   1.2427
  1.2527   1.2588   1.2677   1.2735   1.2825   1.2889   1.3067   1.3206
  1.3338   1.3408   1.3627   1.3669   1.3756   1.3831   1.3909   1.4111
  1.4189   1.4359   1.4479   1.4568   1.4711   1.4773   1.4854   1.4981
  1.5080   1.5169   1.5195   1.5229   1.5361   1.5402   1.5453   1.5553
  1.5769   1.5886   1.5943   1.6055   1.6145   1.6203   1.6381   1.6428
  1.6525   1.6647   1.6716   1.6881   1.7069   1.7092   1.7261   1.7347
  1.7463   1.7526   1.7728   1.7863   1.8078   1.8144   1.8566   1.8787
  1.8916   1.9075   1.9322   1.9415   1.9498   1.9574   1.9984   2.0071
  2.0183   2.0351   2.0389   2.0578   2.0736   2.1205   2.1338   2.1622
  2.1850   2.1978   2.2110   2.2291   2.2400   2.2518   2.2665   2.2763
  2.2928   2.3110   2.3152   2.3534   2.3985   2.4354   2.4614   2.4723
  2.4932   2.5143   2.5384   2.5637   2.5734   2.5917   2.6024   2.6312
  2.6423   2.6527   2.6560   2.6680   2.6721   2.6891   2.6969   2.7347
  2.7393   2.7513   2.7640   2.7682   2.7717   2.7887   2.8100   2.8194
  2.8424   2.8494   2.8548   2.8653   2.8853   2.9033   2.9133   2.9221
  2.9342   2.9575   2.9657   2.9819   2.9983   3.0148   3.0329   3.0406
  3.0424   3.0652   3.0867   3.0945   3.1114   3.1189   3.1322   3.1346
  3.1500   3.1637   3.1693   3.1802   3.1904   3.1942   3.2032   3.2199
  3.2277   3.2445   3.2460   3.2646   3.2797   3.2899   3.2934   3.3007
  3.3062   3.3240   3.3307   3.3345   3.3470   3.3546   3.3609   3.3641
  3.3754   3.3853   3.3936   3.3981   3.4073   3.4189   3.4287   3.4390
  3.4420   3.4479   3.4625   3.4651   3.4784   3.4879   3.4971   3.5024
  3.5202   3.5265   3.5293   3.5445   3.5491   3.5591   3.5685   3.5779
  3.5847   3.6013   3.6172   3.6201   3.6338   3.6373   3.6515   3.6606
  3.6702   3.6757   3.6906   3.6990   3.7104   3.7223   3.7336   3.7413
  3.7476   3.7584   3.7789   3.7869   3.7929   3.7967   3.8123   3.8186
  3.8343   3.8478   3.8622   3.8649   3.8814   3.8878   3.8988   3.9232
  3.9256   3.9342   3.9453   3.9634   3.9696   3.9974   4.0063   4.0188
  4.0275   4.0421   4.0496   4.0547   4.0624   4.0740   4.0821   4.1021
  4.1179   4.1296   4.1451   4.1576   4.1657   4.1818   4.1882   4.1980
  4.2074   4.2211   4.2280   4.2297   4.2398   4.2640   4.2746   4.2850
  4.2923   4.3050   4.3082   4.3311   4.3405   4.3594   4.3679   4.3724
  4.3750   4.3948   4.4032   4.4094   4.4189   4.4301   4.4415   4.4468
  4.4571   4.4698   4.4807   4.4940   4.5122   4.5260   4.5308   4.5445
  4.5601   4.5982   4.6136   4.6289   4.6360   4.6483   4.6566   4.6771
  4.6843   4.7202   4.7406   4.7469   4.7819   4.8071   4.8252   4.8432
  4.8555   4.8845   4.8919   4.9265   4.9434   4.9458   4.9647   4.9824
  5.0229   5.0699   5.0849   5.1097   5.1247   5.1302   5.1368   5.1819
  5.1998   5.2081   5.2401   5.2599   5.2733   5.2877   5.3003   5.3263
  5.3392   5.3569   5.3820   5.3941   5.4100   5.4287   5.4349   5.4471
  5.4576   5.5203   5.5260   5.5403   5.5483   5.5628   5.5716   5.5986
  5.6167   5.6217   5.6383   5.6431   5.6654   5.6994   5.7153   5.7446
  5.7723   5.7955   5.8282   5.9730   6.0341   6.1004   6.1266   6.1705
  6.2061   6.2257   6.2308   6.2337   6.2568   6.2782   6.3004   6.3118
  6.3905   6.5647   9.3605  10.5715  12.0470  12.9433  13.1681  13.8851
 14.0989  14.2035  14.3759  15.0624
 --------------------------------------------------------------
 
          Ground-State Mulliken Net Atomic Charges

     Atom                 Charge (a.u.)
  ----------------------------------------
      1 C                    -0.074836
      2 C                    -0.322813
      3 C                    -0.045554
      4 H                     0.177346
      5 C                     0.100022
      6 S                    -0.175825
      7 C                    -0.272369
      8 H                     0.117738
      9 H                     0.096918
     10 H                     0.113365
     11 C                    -0.062538
     12 C                    -0.278075
     13 C                     0.031295
     14 H                     0.191149
     15 C                    -0.248410
     16 S                     0.008866
     17 C                    -0.272378
     18 H                     0.101458
     19 H                     0.108828
     20 H                     0.108361
     21 H                     0.196448
     22 H                     0.111363
     23 H                     0.111164
     24 H                     0.178477
  ----------------------------------------
  Sum of atomic charges =     0.000000

 -----------------------------------------------------------------
                    Cartesian Multipole Moments
 -----------------------------------------------------------------
    Charge (ESU x 10^10)
                -0.0000
    Dipole Moment (Debye)
         X       1.7926      Y       0.2609      Z       3.6837
       Tot       4.1050
    Quadrupole Moments (Debye-Ang)
        XX     -90.6842     XY       0.9453     YY     -74.1435
        XZ       0.3444     YZ      -2.2556     ZZ     -86.3446
    Octopole Moments (Debye-Ang^2)
       XXX     -54.9281    XXY      46.1253    XYY     -10.9937
       YYY     125.5922    XXZ       1.7769    XYZ      -2.9569
       YYZ      -2.2878    XZZ     -14.0330    YZZ      55.9927
       ZZZ       2.4565
    Hexadecapole Moments (Debye-Ang^3)
      XXXX    -540.7144   XXXY    -139.0241   XXYY    -581.5954
      XYYY     -93.3076   YYYY   -2728.1777   XXXZ    -161.1183
      XXYZ     -45.0091   XYYZ     -43.8032   YYYZ    -105.1668
      XXZZ    -221.4774   XYZZ     -46.4670   YYZZ    -617.5352
      XZZZ    -166.9841   YZZZ    -100.1613   ZZZZ    -781.9411
 -----------------------------------------------------------------
 Total job time:  655.39s(wall), 649.67s(cpu) 
 Sun Jul 10 02:12:59 2022

        *************************************************************
        *                                                           *
        *  Thank you very much for using Q-Chem.  Have a nice day.  *
        *                                                           *
        *************************************************************


remove work dirs ./qchem1610773.0 -- ./qchem1610773.-1
rm -rf ./qchem1610773
