You are running Q-Chem version: 5.4.0

#
# job setting
#
local host:  exp-1-52
current dir: /expanse/lustre/scratch/theleonzhang/temp_project/Hydrogenated_Rotation_Test
input file:  Methylthiophene_Phi_20_Theta_140_Methylthiophene_Hydrogenated_Alternate.qcin
output file: 
nprocs     : 0
nthreads   : 1
#
# qchem installation setting
#
QC:          /cm/shared/apps/spack/cpu/opt/spack/linux-centos8-zen2/gcc-10.2.0/qchem-5.4-akfmr7b3t57bfs6qan3padb2wnb2i7cl
QCAUX:       /cm/shared/apps/spack/cpu/opt/spack/linux-centos8-zen2/gcc-10.2.0/qchem-5.4-akfmr7b3t57bfs6qan3padb2wnb2i7cl/qcaux
QCPROG:      /cm/shared/apps/spack/cpu/opt/spack/linux-centos8-zen2/gcc-10.2.0/qchem-5.4-akfmr7b3t57bfs6qan3padb2wnb2i7cl/exe/qcprog.exe_s
QCPROG_S:    /cm/shared/apps/spack/cpu/opt/spack/linux-centos8-zen2/gcc-10.2.0/qchem-5.4-akfmr7b3t57bfs6qan3padb2wnb2i7cl/exe/qcprog.exe_s
PARALLEL:    -DSERIAL
QCMPI:       mpich
#
# qchem directory setting
#
qcrun:       qchem3011644
QCSCRATCH:   .
QCLOCALSCR:  
QCTMPDIR:    .
QCFILEPREF:  ./qchem3011644
QCSAVEDIR:   
workdirs:    ./qchem3011644
workdir0:    ./qchem3011644
partmpdirs =  
#
# parallel setting
#
QCRSH:           ssh
QCMPI:           mpich
QCMPIRUN:        /cm/shared/apps/spack/cpu/opt/spack/linux-centos8-zen2/gcc-10.2.0/qchem-5.4-akfmr7b3t57bfs6qan3padb2wnb2i7cl/bin/mpi/mpirun_qchem
QCMACHINEFILE:   ./qchem3011644/hostfile

#
# env setting
#
exported envs:   QC QCAUX QCSCRATCH QCRUNNAME QCFILEPREF QCPROG QCPROG_S GUIFILE

Running Job 1 of 1 Methylthiophene_Phi_20_Theta_140_Methylthiophene_Hydrogenated_Alternate.qcin
qchem Methylthiophene_Phi_20_Theta_140_Methylthiophene_Hydrogenated_Alternate.qcin_3011644.0 ./qchem3011644/ 0
/cm/shared/apps/spack/cpu/opt/spack/linux-centos8-zen2/gcc-10.2.0/qchem-5.4-akfmr7b3t57bfs6qan3padb2wnb2i7cl/exe/qcprog.exe_s Methylthiophene_Phi_20_Theta_140_Methylthiophene_Hydrogenated_Alternate.qcin_3011644.0 ./qchem3011644/
                  Welcome to Q-Chem
     A Quantum Leap Into The Future Of Chemistry


 Q-Chem 5.4, Q-Chem, Inc., Pleasanton, CA (2021)

 License issued to: University of California, San Diego (site)

 E. Epifanovsky,  A. T. B. Gilbert,  Xintian Feng,  Joonho Lee,  Yuezhi Mao,  
 N. Mardirossian,  P. Pokhilko,  A. White,  M. Wormit,  M. P. Coons,  
 A. L. Dempwolff,  Zhengting Gan,  D. Hait,  P. R. Horn,  L. D. Jacobson,  
 I. Kaliman,  J. Kussmann,  A. W. Lange,  Ka Un Lao,  D. S. Levine,  Jie Liu,  
 S. C. McKenzie,  A. F. Morrison,  K. Nanda,  F. Plasser,  D. R. Rehn,  
 M. L. Vidal,  Zhi-Qiang You,  Ying Zhu,  B. Alam,  B. Albrecht,  
 A. Aldossary,  E. Alguire,  J. H. Andersen,  D. Barton,  K. Begam,  A. Behn,  
 Y. A. Bernard,  E. J. Berquist,  H. Burton,  A. Carreras,  K. Carter-Fenk,  
 R. Chakraborty,  A. D. Chien,  K. D. Closser,  V. Cofer-Shabica,  
 S. Dasgupta,  Jia Deng,  M. de Wergifosse,  M. Diedenhofen,  Hainam Do,  
 S. Ehlert,  Po-Tung Fang,  S. Fatehi,  Qingguo Feng,  J. Gayvert,  
 Qinghui Ge,  G. Gidofalvi,  M. Goldey,  J. Gomes,  C. Gonzalez-Espinoza,  
 S. Gulania,  A. Gunina,  M. W. D. Hanson-Heine,  P. H. P. Harbach,  
 A. W. Hauser,  M. F. Herbst,  M. Hernandez Vera,  M. Hodecker,  
 Z. C. Holden,  S. Houck,  Xunkun Huang,  Kerwin Hui,  B. C. Huynh,  
 M. Ivanov,  Hyunjun Ji,  Hanjie Jiang,  B. Kaduk,  S. Kaehler,  
 K. Khistyaev,  Jaehoon Kim,  P. Klunzinger,  Z. Koczor-Benda,  
 Joong Hoon Koh,  D. Kosenkov,  L. Koulias,  T. Kowalczyk,  C. M. Krauter,  
 K. Kue,  A. Kunitsa,  T. Kus,  A. Landau,  K. V. Lawler,  D. Lefrancois,  
 S. Lehtola,  Rain Li,  Yi-Pei Li,  Jiashu Liang,  M. Liebenthal,  
 Hung-Hsuan Lin,  You-Sheng Lin,  Fenglai Liu,  Kuan-Yu Liu,  
 M. Loipersberger,  A. Luenser,  A. Manjanath,  P. Manohar,  E. Mansoor,  
 S. F. Manzer,  Shan-Ping Mao,  A. V. Marenich,  T. Markovich,  S. Mason,  
 S. A. Maurer,  P. F. McLaughlin,  M. F. S. J. Menger,  J.-M. Mewes,  
 S. A. Mewes,  P. Morgante,  J. W. Mullinax,  T. S. Nguyen-Beck,  
 K. J. Oosterbaan,  G. Paran,  Alexander C. Paul,  Suranjan K. Paul,  
 F. Pavosevic,  Zheng Pei,  S. Prager,  E. I. Proynov,  E. Ramos,  B. Rana,  
 A. E. Rask,  A. Rettig,  R. M. Richard,  F. Rob,  E. Rossomme,  T. Scheele,  
 M. Scheurer,  M. Schneider,  N. Sergueev,  S. M. Sharada,  W. Skomorowski,  
 D. W. Small,  C. J. Stein,  Yu-Chuan Su,  E. J. Sundstrom,  Zhen Tao,  
 J. Thirman,  T. Tsuchimochi,  N. M. Tubman,  S. P. Veccham,  O. Vydrov,  
 J. Wenzel,  J. Witte,  A. Yamada,  Kun Yao,  S. Yeganeh,  S. R. Yost,  
 A. Zech,  Igor Ying Zhang,  Xing Zhang,  Yu Zhang,  D. Zuev,  
 A. Aspuru-Guzik,  A. T. Bell,  N. A. Besley,  K. B. Bravaya,  B. R. Brooks,  
 D. Casanova,  Jeng-Da Chai,  S. Coriani,  C. J. Cramer,  
 A. E. DePrince, III,  R. A. DiStasio Jr.,  A. Dreuw,  B. D. Dunietz,  
 T. R. Furlani,  W. A. Goddard III,  S. Grimme,  S. Hammes-Schiffer,  
 T. Head-Gordon,  W. J. Hehre,  Chao-Ping Hsu,  T.-C. Jagau,  Yousung Jung,  
 A. Klamt,  Jing Kong,  D. S. Lambrecht,  WanZhen Liang,  N. J. Mayhall,  
 C. W. McCurdy,  J. B. Neaton,  C. Ochsenfeld,  J. A. Parkhill,  R. Peverati,  
 V. A. Rassolov,  Yihan Shao,  L. V. Slipchenko,  T. Stauch,  R. P. Steele,  
 J. E. Subotnik,  A. J. W. Thom,  A. Tkatchenko,  D. G. Truhlar,  
 T. Van Voorhis,  T. A. Wesolowski,  K. B. Whaley,  H. L. Woodcock III,  
 P. M. Zimmerman,  S. Faraji,  P. M. W. Gill,  M. Head-Gordon,  
 J. M. Herbert,  A. I. Krylov

 Contributors to earlier versions of Q-Chem not listed above: 
 R. D. Adamson,  B. Austin,  R. Baer,  J. Baker,  G. J. O. Beran,  
 K. Brandhorst,  S. T. Brown,  E. F. C. Byrd,  A. K. Chakraborty,  
 G. K. L. Chan,  Chun-Min Chang,  Yunqing Chen,  C.-L. Cheng,  
 Siu Hung Chien,  D. M. Chipman,  D. L. Crittenden,  H. Dachsel,  
 R. J. Doerksen,  A. D. Dutoi,  R. G. Edgar,  J. Fosso-Tande,  
 L. Fusti-Molnar,  D. Ghosh,  A. Ghysels,  A. Golubeva-Zadorozhnaya,  
 J. Gonthier,  M. S. Gordon,  S. R. Gwaltney,  G. Hawkins,  J. E. Herr,  
 A. Heyden,  S. Hirata,  E. G. Hohenstein,  G. Kedziora,  F. J. Keil,  
 C. Kelley,  Jihan Kim,  R. A. King,  R. Z. Khaliullin,  P. P. Korambath,  
 W. Kurlancheek,  A. Laurent,  A. M. Lee,  M. S. Lee,  S. V. Levchenko,  
 Ching Yeh Lin,  D. Liotard,  E. Livshits,  R. C. Lochan,  I. Lotan,  
 L. A. Martinez-Martinez,  P. E. Maslen,  N. Nair,  D. P. O'Neill,  
 D. Neuhauser,  E. Neuscamman,  C. M. Oana,  R. Olivares-Amaya,  R. Olson,  
 T. M. Perrine,  B. Peters,  P. A. Pieniazek,  A. Prociuk,  Y. M. Rhee,  
 J. Ritchie,  M. A. Rohrdanz,  E. Rosta,  N. J. Russ,  H. F. Schaefer III,  
 M. W. Schmidt,  N. E. Schultz,  S. Sharma,  N. Shenvi,  C. D. Sherrill,  
 A. C. Simmonett,  A. Sodt,  T. Stein,  D. Stuck,  K. S. Thanthiriwatte,  
 V. Vanovschi,  L. Vogt,  Tao Wang,  A. Warshel,  M. A. Watson,  
 C. F. Williams,  Q. Wu,  X. Xu,  Jun Yang,  W. Zhang,  Yan Zhao

 Please cite Q-Chem as follows:
 Y. Shao et al., Mol. Phys. 113, 184-215 (2015)
 DOI: 10.1080/00268976.2014.952696

 Q-Chem 5.4.0 for Intel X86 EM64T Linux

 Parts of Q-Chem use Armadillo 9.800.1 (Horizon Scraper).
 http://arma.sourceforge.net/

 Q-Chem begins on Sun Jul 10 02:43:57 2022  

 Host: 
0

     Scratch files written to ./qchem3011644//
 May1621 |scratch|qcdevops|jenkins|workspace|build_RNUM    
 Processing $rem in /cm/shared/apps/spack/cpu/opt/spack/linux-centos8-zen2/gcc-10.2.0/qchem-5.4-akfmr7b3t57bfs6qan3padb2wnb2i7cl/config/preferences:
 Processing $rem in /home/theleonzhang/.qchemrc:
 Symmetry turned off for PCM/SM12/SMD calculation
 Core orbitals will be frozen

 Checking the input file for inconsistencies... 	...done.

--------------------------------------------------------------
User input:
--------------------------------------------------------------
$molecule
0 1
C	-0.497696	-3.866725	-0.594240
C	0.393981	-3.703963	0.469057
C	0.685571	-2.357056	0.817136
H	0.837848	-4.561092	0.997777
C	0.000000	-1.440664	0.000000
S	-0.992782	-2.286957	-1.183137
C	1.620802	-1.978743	1.932056
H	2.035506	-2.878678	2.426166
H	1.109943	-1.376015	2.711806
H	2.477350	-1.375728	1.564678
C	0.000000	0.000000	0.000000
C	0.295399	0.811508	1.099446
C	0.768742	2.111949	0.776721
H	0.169256	0.464952	2.136088
C	0.844232	2.319291	-0.612546
S	0.322342	0.885558	-1.486809
C	1.140796	3.134091	1.814609
H	0.995218	2.734123	2.836676
H	0.526006	4.054142	1.726239
H	2.203157	3.443680	1.726228
H	1.168902	3.211257	-1.161575
H	-1.406441	-4.392713	-0.281143
H	-0.031265	-4.392347	-1.434879
H	0.827402	-1.440391	-0.694122
$end

$rem
JOBTYPE		SP
EXCHANGE	HF
CORRELATION	pRIMP2
BASIS		cc-pvtz
METHOD		rimp2
AUX_BASIS	rimp2-cc-pvtz
SOLVENT_METHOD	PCM
PURECART	11111
SYMMETRY	false
MEM_TOTAL	110000
SCF_CONVERGENCE = 6
THRESH=10
$end



$solvent
dielectric 4.90
$end
--------------------------------------------------------------
 ----------------------------------------------------------------
             Standard Nuclear Orientation (Angstroms)
    I     Atom           X                Y                Z
 ----------------------------------------------------------------
    1      C      -0.4976960000    -3.8667250000    -0.5942400000
    2      C       0.3939810000    -3.7039630000     0.4690570000
    3      C       0.6855710000    -2.3570560000     0.8171360000
    4      H       0.8378480000    -4.5610920000     0.9977770000
    5      C       0.0000000000    -1.4406640000     0.0000000000
    6      S      -0.9927820000    -2.2869570000    -1.1831370000
    7      C       1.6208020000    -1.9787430000     1.9320560000
    8      H       2.0355060000    -2.8786780000     2.4261660000
    9      H       1.1099430000    -1.3760150000     2.7118060000
   10      H       2.4773500000    -1.3757280000     1.5646780000
   11      C       0.0000000000     0.0000000000     0.0000000000
   12      C       0.2953990000     0.8115080000     1.0994460000
   13      C       0.7687420000     2.1119490000     0.7767210000
   14      H       0.1692560000     0.4649520000     2.1360880000
   15      C       0.8442320000     2.3192910000    -0.6125460000
   16      S       0.3223420000     0.8855580000    -1.4868090000
   17      C       1.1407960000     3.1340910000     1.8146090000
   18      H       0.9952180000     2.7341230000     2.8366760000
   19      H       0.5260060000     4.0541420000     1.7262390000
   20      H       2.2031570000     3.4436800000     1.7262280000
   21      H       1.1689020000     3.2112570000    -1.1615750000
   22      H      -1.4064410000    -4.3927130000    -0.2811430000
   23      H      -0.0312650000    -4.3923470000    -1.4348790000
   24      H       0.8274020000    -1.4403910000    -0.6941220000
 ----------------------------------------------------------------
 Nuclear Repulsion Energy =         877.67765235 hartrees
 There are       52 alpha and       52 beta electrons

 Q-Chem warning in module forms1/BasisType.C, line 2236:

 You are not using the predefined 5D/6D in this basis set.

 Requested basis set is cc-pVTZ
 There are 196 shells and 536 basis functions

 Total QAlloc Memory Limit 110000 MB
 Mega-Array Size       188 MB
 MEM_STATIC part       192 MB
 Discretize the solute cavity surface with Lebedev spheres
	Using 110 Lebedev grid points for each H atom
	Using 194 Lebedev grid points for other atoms
	Atomic van der Waals radii will be scaled by 1.20
 Remove points where switching function is < 1.0e-08
 Keep 1592 surface tesserae and discard 2056 interior tesserae
 Molecular Surface Area = 233.013 Angst**2
 Requested basis set is rimp2-cc-pVTZ
 There are 414 shells and 1414 basis functions
 A cutoff of  1.0D-10 yielded  14160 shell pairs
 There are    102754 function pairs (    131732 Cartesian)
 Smallest overlap matrix eigenvalue = 5.42E-05

 Scale SEOQF with 1.000000e-01/1.000000e-01/1.000000e-01

 Standard Electronic Orientation quadrupole field applied
 Nucleus-field energy     =     0.0000000270 hartrees
 Guess from superposition of atomic densities
 Warning:  Energy on first SCF cycle will be non-variational
 SAD guess density has 104.000000 electrons

 -----------------------------------------------------------------------
  General SCF calculation program by
  Eric Jon Sundstrom, Paul Horn, Yuezhi Mao, Dmitri Zuev, Alec White,
  David Stuck, Shaama M.S., Shane Yost, Joonho Lee, David Small,
  Daniel Levine, Susi Lehtola, Hugh Burton, Evgeny Epifanovsky,
  Bang C. Huynh
 -----------------------------------------------------------------------
 Hartree-Fock
 A restricted SCF calculation will be
 performed using DIIS
 SCF converges when DIIS error is below 1.0e-06
 ---------------------------------------
  Cycle       Energy         DIIS error
 ---------------------------------------
    1   -1186.0546921346      2.39e-02  
    2   -1180.6059469058      1.57e-03  
    3   -1180.7318043438      6.21e-04  
    4   -1180.7466436215      3.36e-04  
    5   -1180.7518592944      5.93e-05  
    6   -1180.7521090069      2.47e-05  
    7   -1180.7521690008      8.99e-06  
    8   -1180.7521823264      4.32e-06  
    9   -1180.7521852375      1.44e-06  
   10   -1180.7521856875      5.04e-07  Convergence criterion met
 ---------------------------------------
 SCF time:   CPU 605.29s  wall 607.00s 

************** Final PCM Free Energy Summary **************
 G_electrostatic  =      -0.00936226 hartree =      -5.87490447 kcal/mol
 G_cavitation     =       0.00000000 hartree =       0.00000000 kcal/mol
 G_dispersion     =       0.00000000 hartree =       0.00000000 kcal/mol
 G_repulsion      =       0.00000000 hartree =       0.00000000 kcal/mol
 --------------------------------------------------
 Non-electrostatic Free Energy =       0.00000000 hartree =       0.00000000 kcal/mol
 Total                         =      -0.00936226 hartree =      -5.87490447 kcal/mol
 --------------------------------------------------
 SCF Energy (H0 + V/2)                       =   -1180.75218569 
 Solute Internal Energy (H0)                 =   -1180.74282343 
 Total Free Energy (H0 + V/2 + non-elec)     =   -1180.75218569 hartree
                                             = -740933.17942287 kcal/mol
***********************************************************

 SCF   energy in the final basis set =    -1180.7521856875
 Total energy in the final basis set =    -1180.7521856875


 --------------------------------------------------------------
  Generalized many-body perturbation theory program
  by Joonho Lee, Fazle Rob, Xintian Feng, Evgeny Epifanovsky

 No regularization used 
 (reg. param. = 0.0000e+00)
  (P|Q)^-1/2 Time:  CPU 1.99 s  wall 2.00 s

 In RI-MP2 calculation: 
 # of frozen core orbitals: 20

 Components of the RIMP2 correlation energy:
        aaaa    correlation energy =        -0.2514470454 a.u.
        abab    correlation energy =        -1.5037050487 a.u.
        bbbb    correlation energy =        -0.2514470454 a.u.
        non-Brillouin singles      =        -0.0000000000 a.u.
        total same-spin energy     =        -0.5028940907 a.u.
        total opposite-spin energy =        -1.5037050487 a.u.

 Total  RIMP2   correlation energy =        -2.0065991395 a.u.
        RIMP2         total energy =     -1182.7587848270 a.u.

 RI-MP2 Energy Time:  CPU 82.37 s  wall 82.66 s
 
 --------------------------------------------------------------
 
                    Orbital Energies (a.u.)
 --------------------------------------------------------------
 
 Alpha MOs
 -- Occupied --
-91.9819 -91.9421 -11.2835 -11.2646 -11.2615 -11.2585 -11.2506 -11.2424
-11.2362 -11.2322 -11.2289 -11.2216  -8.9821  -8.9470  -6.6630  -6.6625
 -6.6618  -6.6284  -6.6274  -6.6261  -1.2015  -1.1532  -1.0600  -1.0295
 -1.0006  -0.9635  -0.9139  -0.9002  -0.8142  -0.7617  -0.7399  -0.7039
 -0.6539  -0.6413  -0.6109  -0.5916  -0.5803  -0.5704  -0.5657  -0.5537
 -0.5458  -0.5333  -0.5198  -0.5062  -0.4863  -0.4782  -0.4637  -0.4477
 -0.3562  -0.3435  -0.3232  -0.2689
 -- Virtual --
  0.0944   0.1344   0.1390   0.1477   0.1574   0.1727   0.1763   0.1852
  0.1929   0.2005   0.2042   0.2123   0.2282   0.2365   0.2392   0.2450
  0.2489   0.2656   0.2797   0.2951   0.3254   0.3332   0.3472   0.3543
  0.3628   0.3778   0.3895   0.3934   0.3984   0.4101   0.4183   0.4240
  0.4383   0.4481   0.4499   0.4564   0.4718   0.4780   0.4867   0.4901
  0.4966   0.5052   0.5239   0.5259   0.5321   0.5437   0.5483   0.5536
  0.5657   0.5835   0.5885   0.5887   0.5946   0.6087   0.6135   0.6170
  0.6194   0.6250   0.6313   0.6389   0.6446   0.6511   0.6562   0.6617
  0.6662   0.6760   0.6835   0.6979   0.6983   0.7095   0.7190   0.7284
  0.7415   0.7504   0.7543   0.7776   0.7843   0.7860   0.8024   0.8152
  0.8298   0.8350   0.8523   0.8659   0.8786   0.8892   0.9046   0.9249
  0.9322   0.9440   0.9502   0.9551   0.9705   0.9880   1.0039   1.0106
  1.0160   1.0271   1.0415   1.0467   1.0529   1.0624   1.0744   1.0859
  1.0923   1.0975   1.1166   1.1344   1.1400   1.1416   1.1612   1.1778
  1.1910   1.1936   1.2034   1.2090   1.2156   1.2321   1.2333   1.2373
  1.2413   1.2653   1.2724   1.2833   1.2846   1.3021   1.3067   1.3146
  1.3201   1.3296   1.3377   1.3701   1.3791   1.3952   1.4058   1.4106
  1.4264   1.4370   1.4467   1.4562   1.4659   1.4845   1.4876   1.4904
  1.4945   1.5119   1.5156   1.5323   1.5345   1.5429   1.5453   1.5582
  1.5788   1.5818   1.5877   1.6106   1.6226   1.6306   1.6386   1.6418
  1.6511   1.6573   1.6866   1.6931   1.7017   1.7090   1.7332   1.7349
  1.7468   1.7589   1.7764   1.7845   1.7986   1.8246   1.8516   1.8854
  1.8883   1.9071   1.9194   1.9461   1.9581   1.9761   1.9922   2.0008
  2.0261   2.0377   2.0497   2.0525   2.0640   2.1104   2.1251   2.1514
  2.1868   2.1944   2.2139   2.2187   2.2373   2.2543   2.2578   2.2845
  2.2972   2.3197   2.3449   2.3639   2.4082   2.4209   2.4599   2.4691
  2.5029   2.5212   2.5391   2.5535   2.5794   2.5826   2.6039   2.6172
  2.6327   2.6516   2.6575   2.6625   2.6745   2.6939   2.7047   2.7296
  2.7440   2.7518   2.7644   2.7689   2.7767   2.8054   2.8100   2.8267
  2.8363   2.8521   2.8592   2.8646   2.8815   2.9104   2.9242   2.9336
  2.9452   2.9483   2.9665   2.9726   3.0022   3.0180   3.0336   3.0411
  3.0653   3.0684   3.0894   3.0989   3.1076   3.1121   3.1221   3.1333
  3.1515   3.1540   3.1659   3.1784   3.1861   3.1919   3.2030   3.2207
  3.2272   3.2386   3.2542   3.2710   3.2810   3.2885   3.2971   3.3036
  3.3125   3.3228   3.3307   3.3366   3.3496   3.3545   3.3650   3.3674
  3.3726   3.3852   3.3862   3.3989   3.4028   3.4152   3.4270   3.4321
  3.4388   3.4467   3.4556   3.4654   3.4749   3.4879   3.4959   3.5088
  3.5135   3.5212   3.5345   3.5379   3.5432   3.5572   3.5746   3.5794
  3.5876   3.6145   3.6214   3.6337   3.6382   3.6416   3.6563   3.6624
  3.6718   3.6825   3.6955   3.7005   3.7100   3.7183   3.7365   3.7438
  3.7545   3.7592   3.7713   3.7753   3.7853   3.7995   3.8186   3.8225
  3.8311   3.8340   3.8496   3.8588   3.8831   3.8901   3.9085   3.9185
  3.9306   3.9524   3.9599   3.9689   3.9727   3.9831   3.9979   4.0103
  4.0324   4.0401   4.0515   4.0630   4.0698   4.0919   4.1011   4.1091
  4.1236   4.1304   4.1515   4.1606   4.1645   4.1771   4.1902   4.2008
  4.2100   4.2245   4.2397   4.2457   4.2501   4.2554   4.2666   4.2872
  4.3008   4.3025   4.3127   4.3296   4.3420   4.3580   4.3704   4.3787
  4.3907   4.3924   4.4020   4.4098   4.4109   4.4253   4.4346   4.4567
  4.4661   4.4765   4.4776   4.4993   4.5091   4.5243   4.5430   4.5656
  4.5903   4.5941   4.6157   4.6262   4.6403   4.6553   4.6599   4.6738
  4.7069   4.7271   4.7522   4.7602   4.7831   4.7947   4.8208   4.8390
  4.8560   4.8717   4.8856   4.9089   4.9489   4.9516   4.9753   5.0019
  5.0389   5.0436   5.0956   5.1007   5.1228   5.1267   5.1484   5.1665
  5.2010   5.2137   5.2432   5.2514   5.2746   5.2963   5.3043   5.3244
  5.3429   5.3713   5.3779   5.4043   5.4093   5.4201   5.4425   5.4470
  5.4555   5.5144   5.5211   5.5390   5.5541   5.5633   5.5727   5.5995
  5.6127   5.6241   5.6363   5.6543   5.6661   5.7016   5.7116   5.7440
  5.7578   5.7869   5.8294   5.9786   6.0221   6.0528   6.1237   6.1522
  6.2086   6.2225   6.2354   6.2433   6.2584   6.2932   6.3062   6.3074
  6.4007   6.5592   9.3958  10.6363  12.0150  12.8983  13.1575  13.9183
 14.0933  14.2058  14.3606  14.9142
 --------------------------------------------------------------
 
          Ground-State Mulliken Net Atomic Charges

     Atom                 Charge (a.u.)
  ----------------------------------------
      1 C                    -0.074382
      2 C                    -0.316797
      3 C                    -0.050406
      4 H                     0.178332
      5 C                     0.104419
      6 S                    -0.177207
      7 C                    -0.285766
      8 H                     0.118619
      9 H                     0.102593
     10 H                     0.110627
     11 C                    -0.036520
     12 C                    -0.309020
     13 C                     0.052257
     14 H                     0.189815
     15 C                    -0.259392
     16 S                     0.007364
     17 C                    -0.271469
     18 H                     0.101695
     19 H                     0.109386
     20 H                     0.108292
     21 H                     0.197214
     22 H                     0.113188
     23 H                     0.110033
     24 H                     0.177126
  ----------------------------------------
  Sum of atomic charges =     0.000000

 -----------------------------------------------------------------
                    Cartesian Multipole Moments
 -----------------------------------------------------------------
    Charge (ESU x 10^10)
                -0.0000
    Dipole Moment (Debye)
         X       2.7861      Y       0.0831      Z       2.8595
       Tot       3.9932
    Quadrupole Moments (Debye-Ang)
        XX     -90.7828     XY       0.0488     YY     -74.4018
        XZ       0.3769     YZ      -0.7747     ZZ     -85.7428
    Octopole Moments (Debye-Ang^2)
       XXX     -74.6596    XXY      51.9951    XYY     -11.5966
       YYY     126.7408    XXZ       0.9636    XYZ      -3.1145
       YYZ      -5.4235    XZZ     -18.4895    YZZ      55.4272
       ZZZ       4.7549
    Hexadecapole Moments (Debye-Ang^3)
      XXXX    -498.5611   XXXY    -166.8133   XXYY    -569.6163
      XYYY    -127.9690   YYYY   -2682.8311   XXXZ    -173.4775
      XXYZ     -42.5507   XYYZ     -48.1138   YYYZ     -97.9204
      XXZZ    -228.6235   XYZZ     -58.6540   YYZZ    -616.6939
      XZZZ    -171.2727   YZZZ    -104.3050   ZZZZ    -874.0163
 -----------------------------------------------------------------
 Total job time:  692.31s(wall), 688.62s(cpu) 
 Sun Jul 10 02:55:29 2022

        *************************************************************
        *                                                           *
        *  Thank you very much for using Q-Chem.  Have a nice day.  *
        *                                                           *
        *************************************************************


remove work dirs ./qchem3011644.0 -- ./qchem3011644.-1
rm -rf ./qchem3011644
You are running Q-Chem version: 5.4.0

#
# job setting
#
local host:  exp-5-17
current dir: /expanse/lustre/scratch/theleonzhang/temp_project/Hydrogenated_Rotation_Test
input file:  Methylthiophene_Phi_20_Theta_140_Methylthiophene_Hydrogenated_Alternate.qcin
output file: 
nprocs     : 0
nthreads   : 1
#
# qchem installation setting
#
QC:          /cm/shared/apps/spack/cpu/opt/spack/linux-centos8-zen2/gcc-10.2.0/qchem-5.4-akfmr7b3t57bfs6qan3padb2wnb2i7cl
QCAUX:       /cm/shared/apps/spack/cpu/opt/spack/linux-centos8-zen2/gcc-10.2.0/qchem-5.4-akfmr7b3t57bfs6qan3padb2wnb2i7cl/qcaux
QCPROG:      /cm/shared/apps/spack/cpu/opt/spack/linux-centos8-zen2/gcc-10.2.0/qchem-5.4-akfmr7b3t57bfs6qan3padb2wnb2i7cl/exe/qcprog.exe_s
QCPROG_S:    /cm/shared/apps/spack/cpu/opt/spack/linux-centos8-zen2/gcc-10.2.0/qchem-5.4-akfmr7b3t57bfs6qan3padb2wnb2i7cl/exe/qcprog.exe_s
PARALLEL:    -DSERIAL
QCMPI:       mpich
#
# qchem directory setting
#
qcrun:       qchem614648
QCSCRATCH:   .
QCLOCALSCR:  
QCTMPDIR:    .
QCFILEPREF:  ./qchem614648
QCSAVEDIR:   
workdirs:    ./qchem614648
workdir0:    ./qchem614648
partmpdirs =  
#
# parallel setting
#
QCRSH:           ssh
QCMPI:           mpich
QCMPIRUN:        /cm/shared/apps/spack/cpu/opt/spack/linux-centos8-zen2/gcc-10.2.0/qchem-5.4-akfmr7b3t57bfs6qan3padb2wnb2i7cl/bin/mpi/mpirun_qchem
QCMACHINEFILE:   ./qchem614648/hostfile

#
# env setting
#
exported envs:   QC QCAUX QCSCRATCH QCRUNNAME QCFILEPREF QCPROG QCPROG_S GUIFILE

Running Job 1 of 1 Methylthiophene_Phi_20_Theta_140_Methylthiophene_Hydrogenated_Alternate.qcin
qchem Methylthiophene_Phi_20_Theta_140_Methylthiophene_Hydrogenated_Alternate.qcin_614648.0 ./qchem614648/ 0
/cm/shared/apps/spack/cpu/opt/spack/linux-centos8-zen2/gcc-10.2.0/qchem-5.4-akfmr7b3t57bfs6qan3padb2wnb2i7cl/exe/qcprog.exe_s Methylthiophene_Phi_20_Theta_140_Methylthiophene_Hydrogenated_Alternate.qcin_614648.0 ./qchem614648/
                  Welcome to Q-Chem
     A Quantum Leap Into The Future Of Chemistry


 Q-Chem 5.4, Q-Chem, Inc., Pleasanton, CA (2021)

 License issued to: University of California, San Diego (site)

 E. Epifanovsky,  A. T. B. Gilbert,  Xintian Feng,  Joonho Lee,  Yuezhi Mao,  
 N. Mardirossian,  P. Pokhilko,  A. White,  M. Wormit,  M. P. Coons,  
 A. L. Dempwolff,  Zhengting Gan,  D. Hait,  P. R. Horn,  L. D. Jacobson,  
 I. Kaliman,  J. Kussmann,  A. W. Lange,  Ka Un Lao,  D. S. Levine,  Jie Liu,  
 S. C. McKenzie,  A. F. Morrison,  K. Nanda,  F. Plasser,  D. R. Rehn,  
 M. L. Vidal,  Zhi-Qiang You,  Ying Zhu,  B. Alam,  B. Albrecht,  
 A. Aldossary,  E. Alguire,  J. H. Andersen,  D. Barton,  K. Begam,  A. Behn,  
 Y. A. Bernard,  E. J. Berquist,  H. Burton,  A. Carreras,  K. Carter-Fenk,  
 R. Chakraborty,  A. D. Chien,  K. D. Closser,  V. Cofer-Shabica,  
 S. Dasgupta,  Jia Deng,  M. de Wergifosse,  M. Diedenhofen,  Hainam Do,  
 S. Ehlert,  Po-Tung Fang,  S. Fatehi,  Qingguo Feng,  J. Gayvert,  
 Qinghui Ge,  G. Gidofalvi,  M. Goldey,  J. Gomes,  C. Gonzalez-Espinoza,  
 S. Gulania,  A. Gunina,  M. W. D. Hanson-Heine,  P. H. P. Harbach,  
 A. W. Hauser,  M. F. Herbst,  M. Hernandez Vera,  M. Hodecker,  
 Z. C. Holden,  S. Houck,  Xunkun Huang,  Kerwin Hui,  B. C. Huynh,  
 M. Ivanov,  Hyunjun Ji,  Hanjie Jiang,  B. Kaduk,  S. Kaehler,  
 K. Khistyaev,  Jaehoon Kim,  P. Klunzinger,  Z. Koczor-Benda,  
 Joong Hoon Koh,  D. Kosenkov,  L. Koulias,  T. Kowalczyk,  C. M. Krauter,  
 K. Kue,  A. Kunitsa,  T. Kus,  A. Landau,  K. V. Lawler,  D. Lefrancois,  
 S. Lehtola,  Rain Li,  Yi-Pei Li,  Jiashu Liang,  M. Liebenthal,  
 Hung-Hsuan Lin,  You-Sheng Lin,  Fenglai Liu,  Kuan-Yu Liu,  
 M. Loipersberger,  A. Luenser,  A. Manjanath,  P. Manohar,  E. Mansoor,  
 S. F. Manzer,  Shan-Ping Mao,  A. V. Marenich,  T. Markovich,  S. Mason,  
 S. A. Maurer,  P. F. McLaughlin,  M. F. S. J. Menger,  J.-M. Mewes,  
 S. A. Mewes,  P. Morgante,  J. W. Mullinax,  T. S. Nguyen-Beck,  
 K. J. Oosterbaan,  G. Paran,  Alexander C. Paul,  Suranjan K. Paul,  
 F. Pavosevic,  Zheng Pei,  S. Prager,  E. I. Proynov,  E. Ramos,  B. Rana,  
 A. E. Rask,  A. Rettig,  R. M. Richard,  F. Rob,  E. Rossomme,  T. Scheele,  
 M. Scheurer,  M. Schneider,  N. Sergueev,  S. M. Sharada,  W. Skomorowski,  
 D. W. Small,  C. J. Stein,  Yu-Chuan Su,  E. J. Sundstrom,  Zhen Tao,  
 J. Thirman,  T. Tsuchimochi,  N. M. Tubman,  S. P. Veccham,  O. Vydrov,  
 J. Wenzel,  J. Witte,  A. Yamada,  Kun Yao,  S. Yeganeh,  S. R. Yost,  
 A. Zech,  Igor Ying Zhang,  Xing Zhang,  Yu Zhang,  D. Zuev,  
 A. Aspuru-Guzik,  A. T. Bell,  N. A. Besley,  K. B. Bravaya,  B. R. Brooks,  
 D. Casanova,  Jeng-Da Chai,  S. Coriani,  C. J. Cramer,  
 A. E. DePrince, III,  R. A. DiStasio Jr.,  A. Dreuw,  B. D. Dunietz,  
 T. R. Furlani,  W. A. Goddard III,  S. Grimme,  S. Hammes-Schiffer,  
 T. Head-Gordon,  W. J. Hehre,  Chao-Ping Hsu,  T.-C. Jagau,  Yousung Jung,  
 A. Klamt,  Jing Kong,  D. S. Lambrecht,  WanZhen Liang,  N. J. Mayhall,  
 C. W. McCurdy,  J. B. Neaton,  C. Ochsenfeld,  J. A. Parkhill,  R. Peverati,  
 V. A. Rassolov,  Yihan Shao,  L. V. Slipchenko,  T. Stauch,  R. P. Steele,  
 J. E. Subotnik,  A. J. W. Thom,  A. Tkatchenko,  D. G. Truhlar,  
 T. Van Voorhis,  T. A. Wesolowski,  K. B. Whaley,  H. L. Woodcock III,  
 P. M. Zimmerman,  S. Faraji,  P. M. W. Gill,  M. Head-Gordon,  
 J. M. Herbert,  A. I. Krylov

 Contributors to earlier versions of Q-Chem not listed above: 
 R. D. Adamson,  B. Austin,  R. Baer,  J. Baker,  G. J. O. Beran,  
 K. Brandhorst,  S. T. Brown,  E. F. C. Byrd,  A. K. Chakraborty,  
 G. K. L. Chan,  Chun-Min Chang,  Yunqing Chen,  C.-L. Cheng,  
 Siu Hung Chien,  D. M. Chipman,  D. L. Crittenden,  H. Dachsel,  
 R. J. Doerksen,  A. D. Dutoi,  R. G. Edgar,  J. Fosso-Tande,  
 L. Fusti-Molnar,  D. Ghosh,  A. Ghysels,  A. Golubeva-Zadorozhnaya,  
 J. Gonthier,  M. S. Gordon,  S. R. Gwaltney,  G. Hawkins,  J. E. Herr,  
 A. Heyden,  S. Hirata,  E. G. Hohenstein,  G. Kedziora,  F. J. Keil,  
 C. Kelley,  Jihan Kim,  R. A. King,  R. Z. Khaliullin,  P. P. Korambath,  
 W. Kurlancheek,  A. Laurent,  A. M. Lee,  M. S. Lee,  S. V. Levchenko,  
 Ching Yeh Lin,  D. Liotard,  E. Livshits,  R. C. Lochan,  I. Lotan,  
 L. A. Martinez-Martinez,  P. E. Maslen,  N. Nair,  D. P. O'Neill,  
 D. Neuhauser,  E. Neuscamman,  C. M. Oana,  R. Olivares-Amaya,  R. Olson,  
 T. M. Perrine,  B. Peters,  P. A. Pieniazek,  A. Prociuk,  Y. M. Rhee,  
 J. Ritchie,  M. A. Rohrdanz,  E. Rosta,  N. J. Russ,  H. F. Schaefer III,  
 M. W. Schmidt,  N. E. Schultz,  S. Sharma,  N. Shenvi,  C. D. Sherrill,  
 A. C. Simmonett,  A. Sodt,  T. Stein,  D. Stuck,  K. S. Thanthiriwatte,  
 V. Vanovschi,  L. Vogt,  Tao Wang,  A. Warshel,  M. A. Watson,  
 C. F. Williams,  Q. Wu,  X. Xu,  Jun Yang,  W. Zhang,  Yan Zhao

 Please cite Q-Chem as follows:
 Y. Shao et al., Mol. Phys. 113, 184-215 (2015)
 DOI: 10.1080/00268976.2014.952696

 Q-Chem 5.4.0 for Intel X86 EM64T Linux

 Parts of Q-Chem use Armadillo 9.800.1 (Horizon Scraper).
 http://arma.sourceforge.net/

 Q-Chem begins on Sun Jul 10 03:16:05 2022  

 Host: 
0

     Scratch files written to ./qchem614648//
 May1621 |scratch|qcdevops|jenkins|workspace|build_RNUM    
 Processing $rem in /cm/shared/apps/spack/cpu/opt/spack/linux-centos8-zen2/gcc-10.2.0/qchem-5.4-akfmr7b3t57bfs6qan3padb2wnb2i7cl/config/preferences:
 Processing $rem in /home/theleonzhang/.qchemrc:
 Symmetry turned off for PCM/SM12/SMD calculation
 Core orbitals will be frozen

 Checking the input file for inconsistencies... 	...done.

--------------------------------------------------------------
User input:
--------------------------------------------------------------
$molecule
0 1
C	-0.497696	-3.866725	-0.594240
C	0.393981	-3.703963	0.469057
C	0.685571	-2.357056	0.817136
H	0.837848	-4.561092	0.997777
C	0.000000	-1.440664	0.000000
S	-0.992782	-2.286957	-1.183137
C	1.620802	-1.978743	1.932056
H	2.035506	-2.878678	2.426166
H	1.109943	-1.376015	2.711806
H	2.477350	-1.375728	1.564678
C	0.000000	0.000000	0.000000
C	0.295399	0.811508	1.099446
C	0.768742	2.111949	0.776721
H	0.169256	0.464952	2.136088
C	0.844232	2.319291	-0.612546
S	0.322342	0.885558	-1.486809
C	1.140796	3.134091	1.814609
H	0.995218	2.734123	2.836676
H	0.526006	4.054142	1.726239
H	2.203157	3.443680	1.726228
H	1.168902	3.211257	-1.161575
H	-1.406441	-4.392713	-0.281143
H	-0.031265	-4.392347	-1.434879
H	0.827402	-1.440391	-0.694122
$end

$rem
JOBTYPE		SP
EXCHANGE	HF
CORRELATION	pRIMP2
BASIS		cc-pvtz
METHOD		rimp2
AUX_BASIS	rimp2-cc-pvtz
SOLVENT_METHOD	PCM
PURECART	11111
SYMMETRY	false
MEM_TOTAL	110000
SCF_CONVERGENCE = 6
THRESH=10
$end



$solvent
dielectric 4.90
$end
--------------------------------------------------------------
 ----------------------------------------------------------------
             Standard Nuclear Orientation (Angstroms)
    I     Atom           X                Y                Z
 ----------------------------------------------------------------
    1      C      -0.4976960000    -3.8667250000    -0.5942400000
    2      C       0.3939810000    -3.7039630000     0.4690570000
    3      C       0.6855710000    -2.3570560000     0.8171360000
    4      H       0.8378480000    -4.5610920000     0.9977770000
    5      C       0.0000000000    -1.4406640000     0.0000000000
    6      S      -0.9927820000    -2.2869570000    -1.1831370000
    7      C       1.6208020000    -1.9787430000     1.9320560000
    8      H       2.0355060000    -2.8786780000     2.4261660000
    9      H       1.1099430000    -1.3760150000     2.7118060000
   10      H       2.4773500000    -1.3757280000     1.5646780000
   11      C       0.0000000000     0.0000000000     0.0000000000
   12      C       0.2953990000     0.8115080000     1.0994460000
   13      C       0.7687420000     2.1119490000     0.7767210000
   14      H       0.1692560000     0.4649520000     2.1360880000
   15      C       0.8442320000     2.3192910000    -0.6125460000
   16      S       0.3223420000     0.8855580000    -1.4868090000
   17      C       1.1407960000     3.1340910000     1.8146090000
   18      H       0.9952180000     2.7341230000     2.8366760000
   19      H       0.5260060000     4.0541420000     1.7262390000
   20      H       2.2031570000     3.4436800000     1.7262280000
   21      H       1.1689020000     3.2112570000    -1.1615750000
   22      H      -1.4064410000    -4.3927130000    -0.2811430000
   23      H      -0.0312650000    -4.3923470000    -1.4348790000
   24      H       0.8274020000    -1.4403910000    -0.6941220000
 ----------------------------------------------------------------
 Nuclear Repulsion Energy =         877.67765235 hartrees
 There are       52 alpha and       52 beta electrons

 Q-Chem warning in module forms1/BasisType.C, line 2236:

 You are not using the predefined 5D/6D in this basis set.

 Requested basis set is cc-pVTZ
 There are 196 shells and 536 basis functions

 Total QAlloc Memory Limit 110000 MB
 Mega-Array Size       188 MB
 MEM_STATIC part       192 MB
 Discretize the solute cavity surface with Lebedev spheres
	Using 110 Lebedev grid points for each H atom
	Using 194 Lebedev grid points for other atoms
	Atomic van der Waals radii will be scaled by 1.20
 Remove points where switching function is < 1.0e-08
 Keep 1592 surface tesserae and discard 2056 interior tesserae
 Molecular Surface Area = 233.013 Angst**2
 Requested basis set is rimp2-cc-pVTZ
 There are 414 shells and 1414 basis functions
 A cutoff of  1.0D-10 yielded  14160 shell pairs
 There are    102754 function pairs (    131732 Cartesian)
 Smallest overlap matrix eigenvalue = 5.42E-05

 Scale SEOQF with 1.000000e-01/1.000000e-01/1.000000e-01

 Standard Electronic Orientation quadrupole field applied
 Nucleus-field energy     =     0.0000000270 hartrees
 Guess from superposition of atomic densities
 Warning:  Energy on first SCF cycle will be non-variational
 SAD guess density has 104.000000 electrons

 -----------------------------------------------------------------------
  General SCF calculation program by
  Eric Jon Sundstrom, Paul Horn, Yuezhi Mao, Dmitri Zuev, Alec White,
  David Stuck, Shaama M.S., Shane Yost, Joonho Lee, David Small,
  Daniel Levine, Susi Lehtola, Hugh Burton, Evgeny Epifanovsky,
  Bang C. Huynh
 -----------------------------------------------------------------------
 Hartree-Fock
 A restricted SCF calculation will be
 performed using DIIS
 SCF converges when DIIS error is below 1.0e-06
 ---------------------------------------
  Cycle       Energy         DIIS error
 ---------------------------------------
    1   -1186.0546921346      2.39e-02  
    2   -1180.6059469058      1.57e-03  
    3   -1180.7318043438      6.21e-04  
    4   -1180.7466436215      3.36e-04  
    5   -1180.7518592944      5.93e-05  
    6   -1180.7521090069      2.47e-05  
    7   -1180.7521690008      8.99e-06  
    8   -1180.7521823264      4.32e-06  
    9   -1180.7521852375      1.44e-06  
   10   -1180.7521856875      5.04e-07  Convergence criterion met
 ---------------------------------------
 SCF time:   CPU 573.63s  wall 575.00s 

************** Final PCM Free Energy Summary **************
 G_electrostatic  =      -0.00936226 hartree =      -5.87490447 kcal/mol
 G_cavitation     =       0.00000000 hartree =       0.00000000 kcal/mol
 G_dispersion     =       0.00000000 hartree =       0.00000000 kcal/mol
 G_repulsion      =       0.00000000 hartree =       0.00000000 kcal/mol
 --------------------------------------------------
 Non-electrostatic Free Energy =       0.00000000 hartree =       0.00000000 kcal/mol
 Total                         =      -0.00936226 hartree =      -5.87490447 kcal/mol
 --------------------------------------------------
 SCF Energy (H0 + V/2)                       =   -1180.75218569 
 Solute Internal Energy (H0)                 =   -1180.74282343 
 Total Free Energy (H0 + V/2 + non-elec)     =   -1180.75218569 hartree
                                             = -740933.17942287 kcal/mol
***********************************************************

 SCF   energy in the final basis set =    -1180.7521856875
 Total energy in the final basis set =    -1180.7521856875


 --------------------------------------------------------------
  Generalized many-body perturbation theory program
  by Joonho Lee, Fazle Rob, Xintian Feng, Evgeny Epifanovsky

 No regularization used 
 (reg. param. = 0.0000e+00)
  (P|Q)^-1/2 Time:  CPU 1.89 s  wall 1.89 s

 In RI-MP2 calculation: 
 # of frozen core orbitals: 20

 Components of the RIMP2 correlation energy:
        aaaa    correlation energy =        -0.2514470454 a.u.
        abab    correlation energy =        -1.5037050487 a.u.
        bbbb    correlation energy =        -0.2514470454 a.u.
        non-Brillouin singles      =        -0.0000000000 a.u.
        total same-spin energy     =        -0.5028940907 a.u.
        total opposite-spin energy =        -1.5037050487 a.u.

 Total  RIMP2   correlation energy =        -2.0065991395 a.u.
        RIMP2         total energy =     -1182.7587848270 a.u.

 RI-MP2 Energy Time:  CPU 79.83 s  wall 80.04 s
 
 --------------------------------------------------------------
 
                    Orbital Energies (a.u.)
 --------------------------------------------------------------
 
 Alpha MOs
 -- Occupied --
-91.9819 -91.9421 -11.2835 -11.2646 -11.2615 -11.2585 -11.2506 -11.2424
-11.2362 -11.2322 -11.2289 -11.2216  -8.9821  -8.9470  -6.6630  -6.6625
 -6.6618  -6.6284  -6.6274  -6.6261  -1.2015  -1.1532  -1.0600  -1.0295
 -1.0006  -0.9635  -0.9139  -0.9002  -0.8142  -0.7617  -0.7399  -0.7039
 -0.6539  -0.6413  -0.6109  -0.5916  -0.5803  -0.5704  -0.5657  -0.5537
 -0.5458  -0.5333  -0.5198  -0.5062  -0.4863  -0.4782  -0.4637  -0.4477
 -0.3562  -0.3435  -0.3232  -0.2689
 -- Virtual --
  0.0944   0.1344   0.1390   0.1477   0.1574   0.1727   0.1763   0.1852
  0.1929   0.2005   0.2042   0.2123   0.2282   0.2365   0.2392   0.2450
  0.2489   0.2656   0.2797   0.2951   0.3254   0.3332   0.3472   0.3543
  0.3628   0.3778   0.3895   0.3934   0.3984   0.4101   0.4183   0.4240
  0.4383   0.4481   0.4499   0.4564   0.4718   0.4780   0.4867   0.4901
  0.4966   0.5052   0.5239   0.5259   0.5321   0.5437   0.5483   0.5536
  0.5657   0.5835   0.5885   0.5887   0.5946   0.6087   0.6135   0.6170
  0.6194   0.6250   0.6313   0.6389   0.6446   0.6511   0.6562   0.6617
  0.6662   0.6760   0.6835   0.6979   0.6983   0.7095   0.7190   0.7284
  0.7415   0.7504   0.7543   0.7776   0.7843   0.7860   0.8024   0.8152
  0.8298   0.8350   0.8523   0.8659   0.8786   0.8892   0.9046   0.9249
  0.9322   0.9440   0.9502   0.9551   0.9705   0.9880   1.0039   1.0106
  1.0160   1.0271   1.0415   1.0467   1.0529   1.0624   1.0744   1.0859
  1.0923   1.0975   1.1166   1.1344   1.1400   1.1416   1.1612   1.1778
  1.1910   1.1936   1.2034   1.2090   1.2156   1.2321   1.2333   1.2373
  1.2413   1.2653   1.2724   1.2833   1.2846   1.3021   1.3067   1.3146
  1.3201   1.3296   1.3377   1.3701   1.3791   1.3952   1.4058   1.4106
  1.4264   1.4370   1.4467   1.4562   1.4659   1.4845   1.4876   1.4904
  1.4945   1.5119   1.5156   1.5323   1.5345   1.5429   1.5453   1.5582
  1.5788   1.5818   1.5877   1.6106   1.6226   1.6306   1.6386   1.6418
  1.6511   1.6573   1.6866   1.6931   1.7017   1.7090   1.7332   1.7349
  1.7468   1.7589   1.7764   1.7845   1.7986   1.8246   1.8516   1.8854
  1.8883   1.9071   1.9194   1.9461   1.9581   1.9761   1.9922   2.0008
  2.0261   2.0377   2.0497   2.0525   2.0640   2.1104   2.1251   2.1514
  2.1868   2.1944   2.2139   2.2187   2.2373   2.2543   2.2578   2.2845
  2.2972   2.3197   2.3449   2.3639   2.4082   2.4209   2.4599   2.4691
  2.5029   2.5212   2.5391   2.5535   2.5794   2.5826   2.6039   2.6172
  2.6327   2.6516   2.6575   2.6625   2.6745   2.6939   2.7047   2.7296
  2.7440   2.7518   2.7644   2.7689   2.7767   2.8054   2.8100   2.8267
  2.8363   2.8521   2.8592   2.8646   2.8815   2.9104   2.9242   2.9336
  2.9452   2.9483   2.9665   2.9726   3.0022   3.0180   3.0336   3.0411
  3.0653   3.0684   3.0894   3.0989   3.1076   3.1121   3.1221   3.1333
  3.1515   3.1540   3.1659   3.1784   3.1861   3.1919   3.2030   3.2207
  3.2272   3.2386   3.2542   3.2710   3.2810   3.2885   3.2971   3.3036
  3.3125   3.3228   3.3307   3.3366   3.3496   3.3545   3.3650   3.3674
  3.3726   3.3852   3.3862   3.3989   3.4028   3.4152   3.4270   3.4321
  3.4388   3.4467   3.4556   3.4654   3.4749   3.4879   3.4959   3.5088
  3.5135   3.5212   3.5345   3.5379   3.5432   3.5572   3.5746   3.5794
  3.5876   3.6145   3.6214   3.6337   3.6382   3.6416   3.6563   3.6624
  3.6718   3.6825   3.6955   3.7005   3.7100   3.7183   3.7365   3.7438
  3.7545   3.7592   3.7713   3.7753   3.7853   3.7995   3.8186   3.8225
  3.8311   3.8340   3.8496   3.8588   3.8831   3.8901   3.9085   3.9185
  3.9306   3.9524   3.9599   3.9689   3.9727   3.9831   3.9979   4.0103
  4.0324   4.0401   4.0515   4.0630   4.0698   4.0919   4.1011   4.1091
  4.1236   4.1304   4.1515   4.1606   4.1645   4.1771   4.1902   4.2008
  4.2100   4.2245   4.2397   4.2457   4.2501   4.2554   4.2666   4.2872
  4.3008   4.3025   4.3127   4.3296   4.3420   4.3580   4.3704   4.3787
  4.3907   4.3924   4.4020   4.4098   4.4109   4.4253   4.4346   4.4567
  4.4661   4.4765   4.4776   4.4993   4.5091   4.5243   4.5430   4.5656
  4.5903   4.5941   4.6157   4.6262   4.6403   4.6553   4.6599   4.6738
  4.7069   4.7271   4.7522   4.7602   4.7831   4.7947   4.8208   4.8390
  4.8560   4.8717   4.8856   4.9089   4.9489   4.9516   4.9753   5.0019
  5.0389   5.0436   5.0956   5.1007   5.1228   5.1267   5.1484   5.1665
  5.2010   5.2137   5.2432   5.2514   5.2746   5.2963   5.3043   5.3244
  5.3429   5.3713   5.3779   5.4043   5.4093   5.4201   5.4425   5.4470
  5.4555   5.5144   5.5211   5.5390   5.5541   5.5633   5.5727   5.5995
  5.6127   5.6241   5.6363   5.6543   5.6661   5.7016   5.7116   5.7440
  5.7578   5.7869   5.8294   5.9786   6.0221   6.0528   6.1237   6.1522
  6.2086   6.2225   6.2354   6.2433   6.2584   6.2932   6.3062   6.3074
  6.4007   6.5592   9.3958  10.6363  12.0150  12.8983  13.1575  13.9183
 14.0933  14.2058  14.3606  14.9142
 --------------------------------------------------------------
 
          Ground-State Mulliken Net Atomic Charges

     Atom                 Charge (a.u.)
  ----------------------------------------
      1 C                    -0.074382
      2 C                    -0.316797
      3 C                    -0.050406
      4 H                     0.178332
      5 C                     0.104419
      6 S                    -0.177207
      7 C                    -0.285766
      8 H                     0.118619
      9 H                     0.102593
     10 H                     0.110627
     11 C                    -0.036520
     12 C                    -0.309020
     13 C                     0.052257
     14 H                     0.189815
     15 C                    -0.259392
     16 S                     0.007364
     17 C                    -0.271469
     18 H                     0.101695
     19 H                     0.109386
     20 H                     0.108292
     21 H                     0.197214
     22 H                     0.113188
     23 H                     0.110033
     24 H                     0.177126
  ----------------------------------------
  Sum of atomic charges =     0.000000

 -----------------------------------------------------------------
                    Cartesian Multipole Moments
 -----------------------------------------------------------------
    Charge (ESU x 10^10)
                -0.0000
    Dipole Moment (Debye)
         X       2.7861      Y       0.0831      Z       2.8595
       Tot       3.9932
    Quadrupole Moments (Debye-Ang)
        XX     -90.7828     XY       0.0488     YY     -74.4018
        XZ       0.3769     YZ      -0.7747     ZZ     -85.7428
    Octopole Moments (Debye-Ang^2)
       XXX     -74.6596    XXY      51.9951    XYY     -11.5966
       YYY     126.7408    XXZ       0.9636    XYZ      -3.1145
       YYZ      -5.4235    XZZ     -18.4895    YZZ      55.4272
       ZZZ       4.7549
    Hexadecapole Moments (Debye-Ang^3)
      XXXX    -498.5611   XXXY    -166.8133   XXYY    -569.6163
      XYYY    -127.9690   YYYY   -2682.8311   XXXZ    -173.4775
      XXYZ     -42.5507   XYYZ     -48.1138   YYYZ     -97.9204
      XXZZ    -228.6235   XYZZ     -58.6540   YYZZ    -616.6939
      XZZZ    -171.2727   YZZZ    -104.3050   ZZZZ    -874.0163
 -----------------------------------------------------------------
 Total job time:  657.05s(wall), 654.35s(cpu) 
 Sun Jul 10 03:27:02 2022

        *************************************************************
        *                                                           *
        *  Thank you very much for using Q-Chem.  Have a nice day.  *
        *                                                           *
        *************************************************************


remove work dirs ./qchem614648.0 -- ./qchem614648.-1
rm -rf ./qchem614648
