You are running Q-Chem version: 5.4.0

#
# job setting
#
local host:  exp-4-50
current dir: /expanse/lustre/scratch/theleonzhang/temp_project/Hydrogenated_Rotation_Test
input file:  Methylthiophene_Phi_10_Theta_290_Methylthiophene_Hydrogenated_Alternate.qcin
output file: 
nprocs     : 0
nthreads   : 1
#
# qchem installation setting
#
QC:          /cm/shared/apps/spack/cpu/opt/spack/linux-centos8-zen2/gcc-10.2.0/qchem-5.4-akfmr7b3t57bfs6qan3padb2wnb2i7cl
QCAUX:       /cm/shared/apps/spack/cpu/opt/spack/linux-centos8-zen2/gcc-10.2.0/qchem-5.4-akfmr7b3t57bfs6qan3padb2wnb2i7cl/qcaux
QCPROG:      /cm/shared/apps/spack/cpu/opt/spack/linux-centos8-zen2/gcc-10.2.0/qchem-5.4-akfmr7b3t57bfs6qan3padb2wnb2i7cl/exe/qcprog.exe_s
QCPROG_S:    /cm/shared/apps/spack/cpu/opt/spack/linux-centos8-zen2/gcc-10.2.0/qchem-5.4-akfmr7b3t57bfs6qan3padb2wnb2i7cl/exe/qcprog.exe_s
PARALLEL:    -DSERIAL
QCMPI:       mpich
#
# qchem directory setting
#
qcrun:       qchem1865233
QCSCRATCH:   .
QCLOCALSCR:  
QCTMPDIR:    .
QCFILEPREF:  ./qchem1865233
QCSAVEDIR:   
workdirs:    ./qchem1865233
workdir0:    ./qchem1865233
partmpdirs =  
#
# parallel setting
#
QCRSH:           ssh
QCMPI:           mpich
QCMPIRUN:        /cm/shared/apps/spack/cpu/opt/spack/linux-centos8-zen2/gcc-10.2.0/qchem-5.4-akfmr7b3t57bfs6qan3padb2wnb2i7cl/bin/mpi/mpirun_qchem
QCMACHINEFILE:   ./qchem1865233/hostfile

#
# env setting
#
exported envs:   QC QCAUX QCSCRATCH QCRUNNAME QCFILEPREF QCPROG QCPROG_S GUIFILE

Running Job 1 of 1 Methylthiophene_Phi_10_Theta_290_Methylthiophene_Hydrogenated_Alternate.qcin
qchem Methylthiophene_Phi_10_Theta_290_Methylthiophene_Hydrogenated_Alternate.qcin_1865233.0 ./qchem1865233/ 0
/cm/shared/apps/spack/cpu/opt/spack/linux-centos8-zen2/gcc-10.2.0/qchem-5.4-akfmr7b3t57bfs6qan3padb2wnb2i7cl/exe/qcprog.exe_s Methylthiophene_Phi_10_Theta_290_Methylthiophene_Hydrogenated_Alternate.qcin_1865233.0 ./qchem1865233/
                  Welcome to Q-Chem
     A Quantum Leap Into The Future Of Chemistry


 Q-Chem 5.4, Q-Chem, Inc., Pleasanton, CA (2021)

 License issued to: University of California, San Diego (site)

 E. Epifanovsky,  A. T. B. Gilbert,  Xintian Feng,  Joonho Lee,  Yuezhi Mao,  
 N. Mardirossian,  P. Pokhilko,  A. White,  M. Wormit,  M. P. Coons,  
 A. L. Dempwolff,  Zhengting Gan,  D. Hait,  P. R. Horn,  L. D. Jacobson,  
 I. Kaliman,  J. Kussmann,  A. W. Lange,  Ka Un Lao,  D. S. Levine,  Jie Liu,  
 S. C. McKenzie,  A. F. Morrison,  K. Nanda,  F. Plasser,  D. R. Rehn,  
 M. L. Vidal,  Zhi-Qiang You,  Ying Zhu,  B. Alam,  B. Albrecht,  
 A. Aldossary,  E. Alguire,  J. H. Andersen,  D. Barton,  K. Begam,  A. Behn,  
 Y. A. Bernard,  E. J. Berquist,  H. Burton,  A. Carreras,  K. Carter-Fenk,  
 R. Chakraborty,  A. D. Chien,  K. D. Closser,  V. Cofer-Shabica,  
 S. Dasgupta,  Jia Deng,  M. de Wergifosse,  M. Diedenhofen,  Hainam Do,  
 S. Ehlert,  Po-Tung Fang,  S. Fatehi,  Qingguo Feng,  J. Gayvert,  
 Qinghui Ge,  G. Gidofalvi,  M. Goldey,  J. Gomes,  C. Gonzalez-Espinoza,  
 S. Gulania,  A. Gunina,  M. W. D. Hanson-Heine,  P. H. P. Harbach,  
 A. W. Hauser,  M. F. Herbst,  M. Hernandez Vera,  M. Hodecker,  
 Z. C. Holden,  S. Houck,  Xunkun Huang,  Kerwin Hui,  B. C. Huynh,  
 M. Ivanov,  Hyunjun Ji,  Hanjie Jiang,  B. Kaduk,  S. Kaehler,  
 K. Khistyaev,  Jaehoon Kim,  P. Klunzinger,  Z. Koczor-Benda,  
 Joong Hoon Koh,  D. Kosenkov,  L. Koulias,  T. Kowalczyk,  C. M. Krauter,  
 K. Kue,  A. Kunitsa,  T. Kus,  A. Landau,  K. V. Lawler,  D. Lefrancois,  
 S. Lehtola,  Rain Li,  Yi-Pei Li,  Jiashu Liang,  M. Liebenthal,  
 Hung-Hsuan Lin,  You-Sheng Lin,  Fenglai Liu,  Kuan-Yu Liu,  
 M. Loipersberger,  A. Luenser,  A. Manjanath,  P. Manohar,  E. Mansoor,  
 S. F. Manzer,  Shan-Ping Mao,  A. V. Marenich,  T. Markovich,  S. Mason,  
 S. A. Maurer,  P. F. McLaughlin,  M. F. S. J. Menger,  J.-M. Mewes,  
 S. A. Mewes,  P. Morgante,  J. W. Mullinax,  T. S. Nguyen-Beck,  
 K. J. Oosterbaan,  G. Paran,  Alexander C. Paul,  Suranjan K. Paul,  
 F. Pavosevic,  Zheng Pei,  S. Prager,  E. I. Proynov,  E. Ramos,  B. Rana,  
 A. E. Rask,  A. Rettig,  R. M. Richard,  F. Rob,  E. Rossomme,  T. Scheele,  
 M. Scheurer,  M. Schneider,  N. Sergueev,  S. M. Sharada,  W. Skomorowski,  
 D. W. Small,  C. J. Stein,  Yu-Chuan Su,  E. J. Sundstrom,  Zhen Tao,  
 J. Thirman,  T. Tsuchimochi,  N. M. Tubman,  S. P. Veccham,  O. Vydrov,  
 J. Wenzel,  J. Witte,  A. Yamada,  Kun Yao,  S. Yeganeh,  S. R. Yost,  
 A. Zech,  Igor Ying Zhang,  Xing Zhang,  Yu Zhang,  D. Zuev,  
 A. Aspuru-Guzik,  A. T. Bell,  N. A. Besley,  K. B. Bravaya,  B. R. Brooks,  
 D. Casanova,  Jeng-Da Chai,  S. Coriani,  C. J. Cramer,  
 A. E. DePrince, III,  R. A. DiStasio Jr.,  A. Dreuw,  B. D. Dunietz,  
 T. R. Furlani,  W. A. Goddard III,  S. Grimme,  S. Hammes-Schiffer,  
 T. Head-Gordon,  W. J. Hehre,  Chao-Ping Hsu,  T.-C. Jagau,  Yousung Jung,  
 A. Klamt,  Jing Kong,  D. S. Lambrecht,  WanZhen Liang,  N. J. Mayhall,  
 C. W. McCurdy,  J. B. Neaton,  C. Ochsenfeld,  J. A. Parkhill,  R. Peverati,  
 V. A. Rassolov,  Yihan Shao,  L. V. Slipchenko,  T. Stauch,  R. P. Steele,  
 J. E. Subotnik,  A. J. W. Thom,  A. Tkatchenko,  D. G. Truhlar,  
 T. Van Voorhis,  T. A. Wesolowski,  K. B. Whaley,  H. L. Woodcock III,  
 P. M. Zimmerman,  S. Faraji,  P. M. W. Gill,  M. Head-Gordon,  
 J. M. Herbert,  A. I. Krylov

 Contributors to earlier versions of Q-Chem not listed above: 
 R. D. Adamson,  B. Austin,  R. Baer,  J. Baker,  G. J. O. Beran,  
 K. Brandhorst,  S. T. Brown,  E. F. C. Byrd,  A. K. Chakraborty,  
 G. K. L. Chan,  Chun-Min Chang,  Yunqing Chen,  C.-L. Cheng,  
 Siu Hung Chien,  D. M. Chipman,  D. L. Crittenden,  H. Dachsel,  
 R. J. Doerksen,  A. D. Dutoi,  R. G. Edgar,  J. Fosso-Tande,  
 L. Fusti-Molnar,  D. Ghosh,  A. Ghysels,  A. Golubeva-Zadorozhnaya,  
 J. Gonthier,  M. S. Gordon,  S. R. Gwaltney,  G. Hawkins,  J. E. Herr,  
 A. Heyden,  S. Hirata,  E. G. Hohenstein,  G. Kedziora,  F. J. Keil,  
 C. Kelley,  Jihan Kim,  R. A. King,  R. Z. Khaliullin,  P. P. Korambath,  
 W. Kurlancheek,  A. Laurent,  A. M. Lee,  M. S. Lee,  S. V. Levchenko,  
 Ching Yeh Lin,  D. Liotard,  E. Livshits,  R. C. Lochan,  I. Lotan,  
 L. A. Martinez-Martinez,  P. E. Maslen,  N. Nair,  D. P. O'Neill,  
 D. Neuhauser,  E. Neuscamman,  C. M. Oana,  R. Olivares-Amaya,  R. Olson,  
 T. M. Perrine,  B. Peters,  P. A. Pieniazek,  A. Prociuk,  Y. M. Rhee,  
 J. Ritchie,  M. A. Rohrdanz,  E. Rosta,  N. J. Russ,  H. F. Schaefer III,  
 M. W. Schmidt,  N. E. Schultz,  S. Sharma,  N. Shenvi,  C. D. Sherrill,  
 A. C. Simmonett,  A. Sodt,  T. Stein,  D. Stuck,  K. S. Thanthiriwatte,  
 V. Vanovschi,  L. Vogt,  Tao Wang,  A. Warshel,  M. A. Watson,  
 C. F. Williams,  Q. Wu,  X. Xu,  Jun Yang,  W. Zhang,  Yan Zhao

 Please cite Q-Chem as follows:
 Y. Shao et al., Mol. Phys. 113, 184-215 (2015)
 DOI: 10.1080/00268976.2014.952696

 Q-Chem 5.4.0 for Intel X86 EM64T Linux

 Parts of Q-Chem use Armadillo 9.800.1 (Horizon Scraper).
 http://arma.sourceforge.net/

 Q-Chem begins on Sun Jul 10 05:14:51 2022  

 Host: 
0

     Scratch files written to ./qchem1865233//
 May1621 |scratch|qcdevops|jenkins|workspace|build_RNUM    
 Processing $rem in /cm/shared/apps/spack/cpu/opt/spack/linux-centos8-zen2/gcc-10.2.0/qchem-5.4-akfmr7b3t57bfs6qan3padb2wnb2i7cl/config/preferences:
 Processing $rem in /home/theleonzhang/.qchemrc:
 Symmetry turned off for PCM/SM12/SMD calculation
 Core orbitals will be frozen

 Checking the input file for inconsistencies... 	...done.

--------------------------------------------------------------
User input:
--------------------------------------------------------------
$molecule
0 1
C	0.728138	-3.866725	0.265779
C	-0.575726	-3.703963	-0.209225
C	-1.002290	-2.357056	-0.364875
H	-1.224486	-4.561092	-0.445176
C	-0.000000	-1.440664	-0.000000
S	1.451343	-2.286957	0.528236
C	-2.369683	-1.978743	-0.862808
H	-2.975883	-2.878678	-1.083368
H	-2.317142	-1.376015	-1.793522
H	-2.927787	-1.375728	-0.116375
C	0.000000	0.000000	0.000000
C	0.149995	0.850475	1.099446
C	0.390327	2.213354	0.776721
H	0.085947	0.487279	2.136088
C	0.428665	2.430655	-0.612546
S	0.163670	0.928078	-1.486809
C	0.579235	3.284574	1.814609
H	0.505323	2.865404	2.836676
H	-0.185980	4.083890	1.726239
H	1.571698	3.773937	1.726228
H	0.593515	3.365448	-1.161575
H	1.358585	-4.392713	-0.459743
H	0.744515	-4.392347	1.227009
H	0.369490	-1.440937	-1.014829
$end

$rem
JOBTYPE		SP
EXCHANGE	HF
CORRELATION	pRIMP2
BASIS		cc-pvtz
METHOD		rimp2
AUX_BASIS	rimp2-cc-pvtz
SOLVENT_METHOD	PCM
PURECART	11111
SYMMETRY	false
MEM_TOTAL	110000
SCF_CONVERGENCE = 6
THRESH=10
$end



$solvent
dielectric 4.90
$end
--------------------------------------------------------------
 ----------------------------------------------------------------
             Standard Nuclear Orientation (Angstroms)
    I     Atom           X                Y                Z
 ----------------------------------------------------------------
    1      C       0.7281380000    -3.8667250000     0.2657790000
    2      C      -0.5757260000    -3.7039630000    -0.2092250000
    3      C      -1.0022900000    -2.3570560000    -0.3648750000
    4      H      -1.2244860000    -4.5610920000    -0.4451760000
    5      C       0.0000000000    -1.4406640000     0.0000000000
    6      S       1.4513430000    -2.2869570000     0.5282360000
    7      C      -2.3696830000    -1.9787430000    -0.8628080000
    8      H      -2.9758830000    -2.8786780000    -1.0833680000
    9      H      -2.3171420000    -1.3760150000    -1.7935220000
   10      H      -2.9277870000    -1.3757280000    -0.1163750000
   11      C       0.0000000000     0.0000000000     0.0000000000
   12      C       0.1499950000     0.8504750000     1.0994460000
   13      C       0.3903270000     2.2133540000     0.7767210000
   14      H       0.0859470000     0.4872790000     2.1360880000
   15      C       0.4286650000     2.4306550000    -0.6125460000
   16      S       0.1636700000     0.9280780000    -1.4868090000
   17      C       0.5792350000     3.2845740000     1.8146090000
   18      H       0.5053230000     2.8654040000     2.8366760000
   19      H      -0.1859800000     4.0838900000     1.7262390000
   20      H       1.5716980000     3.7739370000     1.7262280000
   21      H       0.5935150000     3.3654480000    -1.1615750000
   22      H       1.3585850000    -4.3927130000    -0.4597430000
   23      H       0.7445150000    -4.3923470000     1.2270090000
   24      H       0.3694900000    -1.4409370000    -1.0148290000
 ----------------------------------------------------------------
 Nuclear Repulsion Energy =         872.71449030 hartrees
 There are       52 alpha and       52 beta electrons

 Q-Chem warning in module forms1/BasisType.C, line 2236:

 You are not using the predefined 5D/6D in this basis set.

 Requested basis set is cc-pVTZ
 There are 196 shells and 536 basis functions

 Total QAlloc Memory Limit 110000 MB
 Mega-Array Size       188 MB
 MEM_STATIC part       192 MB
 Discretize the solute cavity surface with Lebedev spheres
	Using 110 Lebedev grid points for each H atom
	Using 194 Lebedev grid points for other atoms
	Atomic van der Waals radii will be scaled by 1.20
 Remove points where switching function is < 1.0e-08
 Keep 1627 surface tesserae and discard 2021 interior tesserae
 Molecular Surface Area = 238.002 Angst**2
 Requested basis set is rimp2-cc-pVTZ
 There are 414 shells and 1414 basis functions
 A cutoff of  1.0D-10 yielded  13829 shell pairs
 There are    100213 function pairs (    128545 Cartesian)
 Smallest overlap matrix eigenvalue = 6.59E-05

 Scale SEOQF with 1.000000e-01/1.000000e-01/1.000000e-01

 Standard Electronic Orientation quadrupole field applied
 Nucleus-field energy     =     0.0000000353 hartrees
 Guess from superposition of atomic densities
 Warning:  Energy on first SCF cycle will be non-variational
 SAD guess density has 104.000000 electrons

 -----------------------------------------------------------------------
  General SCF calculation program by
  Eric Jon Sundstrom, Paul Horn, Yuezhi Mao, Dmitri Zuev, Alec White,
  David Stuck, Shaama M.S., Shane Yost, Joonho Lee, David Small,
  Daniel Levine, Susi Lehtola, Hugh Burton, Evgeny Epifanovsky,
  Bang C. Huynh
 -----------------------------------------------------------------------
 Hartree-Fock
 A restricted SCF calculation will be
 performed using DIIS
 SCF converges when DIIS error is below 1.0e-06
 ---------------------------------------
  Cycle       Energy         DIIS error
 ---------------------------------------
    1   -1186.0236345115      2.39e-02  
    2   -1180.6141591080      1.56e-03  
    3   -1180.7389876977      6.10e-04  
    4   -1180.7533016823      3.32e-04  
    5   -1180.7583485789      6.05e-05  
    6   -1180.7585992678      2.48e-05  
    7   -1180.7586605066      9.22e-06  
    8   -1180.7586746366      4.50e-06  
    9   -1180.7586779260      1.49e-06  
   10   -1180.7586784134      5.01e-07  Convergence criterion met
 ---------------------------------------
 SCF time:   CPU 557.75s  wall 559.00s 

************** Final PCM Free Energy Summary **************
 G_electrostatic  =      -0.00848920 hartree =      -5.32705330 kcal/mol
 G_cavitation     =       0.00000000 hartree =       0.00000000 kcal/mol
 G_dispersion     =       0.00000000 hartree =       0.00000000 kcal/mol
 G_repulsion      =       0.00000000 hartree =       0.00000000 kcal/mol
 --------------------------------------------------
 Non-electrostatic Free Energy =       0.00000000 hartree =       0.00000000 kcal/mol
 Total                         =      -0.00848920 hartree =      -5.32705330 kcal/mol
 --------------------------------------------------
 SCF Energy (H0 + V/2)                       =   -1180.75867841 
 Solute Internal Energy (H0)                 =   -1180.75018921 
 Total Free Energy (H0 + V/2 + non-elec)     =   -1180.75867841 hartree
                                             = -740937.25366984 kcal/mol
***********************************************************

 SCF   energy in the final basis set =    -1180.7586784134
 Total energy in the final basis set =    -1180.7586784134


 --------------------------------------------------------------
  Generalized many-body perturbation theory program
  by Joonho Lee, Fazle Rob, Xintian Feng, Evgeny Epifanovsky

 No regularization used 
 (reg. param. = 0.0000e+00)
  (P|Q)^-1/2 Time:  CPU 1.88 s  wall 1.89 s

 In RI-MP2 calculation: 
 # of frozen core orbitals: 20

 Components of the RIMP2 correlation energy:
        aaaa    correlation energy =        -0.2509567814 a.u.
        abab    correlation energy =        -1.5024520356 a.u.
        bbbb    correlation energy =        -0.2509567814 a.u.
        non-Brillouin singles      =        -0.0000000000 a.u.
        total same-spin energy     =        -0.5019135628 a.u.
        total opposite-spin energy =        -1.5024520356 a.u.

 Total  RIMP2   correlation energy =        -2.0043655984 a.u.
        RIMP2         total energy =     -1182.7630440118 a.u.

 RI-MP2 Energy Time:  CPU 79.07 s  wall 79.32 s
 
 --------------------------------------------------------------
 
                    Orbital Energies (a.u.)
 --------------------------------------------------------------
 
 Alpha MOs
 -- Occupied --
-91.9857 -91.9422 -11.2798 -11.2645 -11.2622 -11.2554 -11.2509 -11.2407
-11.2383 -11.2315 -11.2285 -11.2187  -8.9855  -8.9468  -6.6664  -6.6658
 -6.6652  -6.6281  -6.6271  -6.6258  -1.1986  -1.1535  -1.0589  -1.0259
 -1.0037  -0.9616  -0.9136  -0.9003  -0.8128  -0.7659  -0.7360  -0.7035
 -0.6542  -0.6353  -0.6108  -0.5889  -0.5766  -0.5735  -0.5688  -0.5535
 -0.5423  -0.5310  -0.5126  -0.5059  -0.4889  -0.4834  -0.4634  -0.4477
 -0.3559  -0.3419  -0.3150  -0.2789
 -- Virtual --
  0.0937   0.1299   0.1437   0.1486   0.1599   0.1667   0.1800   0.1831
  0.1865   0.1972   0.2041   0.2151   0.2207   0.2347   0.2400   0.2448
  0.2510   0.2562   0.2699   0.2930   0.3052   0.3369   0.3389   0.3540
  0.3677   0.3747   0.3777   0.3866   0.3955   0.4055   0.4111   0.4263
  0.4389   0.4462   0.4510   0.4626   0.4645   0.4761   0.4810   0.4917
  0.4969   0.5083   0.5209   0.5267   0.5334   0.5443   0.5497   0.5576
  0.5664   0.5763   0.5834   0.5911   0.6018   0.6086   0.6113   0.6201
  0.6228   0.6238   0.6324   0.6353   0.6390   0.6428   0.6494   0.6549
  0.6630   0.6730   0.6831   0.6845   0.6914   0.7035   0.7171   0.7173
  0.7345   0.7482   0.7529   0.7711   0.7823   0.8042   0.8068   0.8223
  0.8274   0.8354   0.8422   0.8557   0.8643   0.8899   0.8989   0.9168
  0.9295   0.9435   0.9515   0.9591   0.9794   0.9922   0.9955   1.0060
  1.0234   1.0257   1.0369   1.0493   1.0605   1.0708   1.0765   1.0826
  1.0851   1.0990   1.1135   1.1214   1.1251   1.1292   1.1556   1.1621
  1.1780   1.1835   1.1945   1.2151   1.2165   1.2206   1.2409   1.2431
  1.2571   1.2588   1.2637   1.2779   1.2910   1.2947   1.3028   1.3215
  1.3324   1.3373   1.3445   1.3568   1.3721   1.3887   1.4030   1.4122
  1.4243   1.4300   1.4497   1.4510   1.4611   1.4781   1.4852   1.4965
  1.5031   1.5149   1.5222   1.5277   1.5336   1.5349   1.5468   1.5551
  1.5682   1.5757   1.5831   1.5902   1.6126   1.6225   1.6302   1.6364
  1.6536   1.6665   1.6792   1.6888   1.6966   1.7135   1.7218   1.7357
  1.7383   1.7515   1.7693   1.7832   1.7972   1.8311   1.8354   1.8527
  1.8813   1.9136   1.9192   1.9361   1.9567   1.9764   1.9936   2.0065
  2.0121   2.0146   2.0371   2.0474   2.0930   2.1168   2.1205   2.1507
  2.1825   2.1915   2.2085   2.2227   2.2348   2.2560   2.2677   2.2779
  2.3037   2.3387   2.3441   2.3739   2.4090   2.4304   2.4465   2.4617
  2.4865   2.5265   2.5296   2.5354   2.5660   2.5848   2.6029   2.6069
  2.6281   2.6504   2.6528   2.6571   2.6818   2.6845   2.6988   2.7188
  2.7407   2.7439   2.7574   2.7641   2.7755   2.7802   2.7918   2.8298
  2.8407   2.8468   2.8626   2.8804   2.8867   2.8982   2.9070   2.9160
  2.9323   2.9608   2.9738   2.9872   3.0039   3.0199   3.0383   3.0424
  3.0531   3.0659   3.0862   3.1063   3.1115   3.1231   3.1291   3.1360
  3.1468   3.1551   3.1584   3.1744   3.1828   3.1925   3.2007   3.2263
  3.2333   3.2403   3.2493   3.2594   3.2757   3.2868   3.2975   3.3014
  3.3150   3.3194   3.3304   3.3354   3.3464   3.3534   3.3602   3.3678
  3.3772   3.3845   3.3929   3.3948   3.4131   3.4153   3.4231   3.4292
  3.4450   3.4548   3.4571   3.4693   3.4823   3.4915   3.4995   3.5126
  3.5162   3.5283   3.5322   3.5418   3.5424   3.5637   3.5657   3.5793
  3.5905   3.6081   3.6144   3.6215   3.6288   3.6372   3.6512   3.6584
  3.6654   3.6779   3.6906   3.7002   3.7047   3.7104   3.7324   3.7398
  3.7460   3.7518   3.7694   3.7708   3.7867   3.7959   3.8047   3.8196
  3.8232   3.8336   3.8512   3.8744   3.8878   3.8949   3.8959   3.9081
  3.9202   3.9381   3.9422   3.9552   3.9751   3.9874   4.0022   4.0074
  4.0183   4.0427   4.0514   4.0532   4.0635   4.0835   4.0915   4.1090
  4.1192   4.1385   4.1484   4.1591   4.1637   4.1718   4.1748   4.1972
  4.2156   4.2207   4.2237   4.2392   4.2500   4.2645   4.2750   4.2795
  4.2861   4.3033   4.3096   4.3244   4.3424   4.3604   4.3651   4.3727
  4.3738   4.3882   4.3982   4.4051   4.4130   4.4176   4.4366   4.4440
  4.4577   4.4693   4.4770   4.4820   4.4973   4.5070   4.5266   4.5658
  4.5720   4.5803   4.6055   4.6227   4.6323   4.6424   4.6548   4.6708
  4.6946   4.7096   4.7374   4.7476   4.7713   4.8087   4.8153   4.8315
  4.8516   4.8743   4.8928   4.9076   4.9448   4.9497   4.9744   4.9860
  5.0211   5.0505   5.0820   5.0978   5.1101   5.1308   5.1529   5.1749
  5.1958   5.2190   5.2279   5.2659   5.2771   5.2848   5.3120   5.3143
  5.3517   5.3739   5.3827   5.3969   5.4132   5.4166   5.4431   5.4533
  5.4759   5.5144   5.5259   5.5437   5.5533   5.5590   5.5773   5.5810
  5.6198   5.6236   5.6450   5.6534   5.6780   5.7034   5.7065   5.7509
  5.7572   5.7874   5.8317   5.9508   5.9831   6.0631   6.1244   6.1489
  6.2059   6.2206   6.2266   6.2427   6.2626   6.2779   6.3063   6.3221
  6.3737   6.5122   9.4815  10.6984  12.0105  12.9286  13.1906  13.9657
 14.0675  14.2212  14.3813  14.6403
 --------------------------------------------------------------
 
          Ground-State Mulliken Net Atomic Charges

     Atom                 Charge (a.u.)
  ----------------------------------------
      1 C                    -0.076184
      2 C                    -0.326300
      3 C                    -0.045873
      4 H                     0.176043
      5 C                     0.120699
      6 S                    -0.174458
      7 C                    -0.266695
      8 H                     0.112757
      9 H                     0.099934
     10 H                     0.107984
     11 C                    -0.102524
     12 C                    -0.241134
     13 C                     0.029104
     14 H                     0.186054
     15 C                    -0.246149
     16 S                     0.013190
     17 C                    -0.272353
     18 H                     0.102977
     19 H                     0.107778
     20 H                     0.108390
     21 H                     0.198390
     22 H                     0.110798
     23 H                     0.111273
     24 H                     0.166299
  ----------------------------------------
  Sum of atomic charges =     0.000000

 -----------------------------------------------------------------
                    Cartesian Multipole Moments
 -----------------------------------------------------------------
    Charge (ESU x 10^10)
                -0.0000
    Dipole Moment (Debye)
         X      -1.6766      Y       0.6239      Z      -0.0445
       Tot       1.7894
    Quadrupole Moments (Debye-Ang)
        XX     -91.1780     XY       4.6947     YY     -73.9846
        XZ       0.0218     YZ       3.5038     ZZ     -86.0797
    Octopole Moments (Debye-Ang^2)
       XXX     -42.2110    XXY      42.3453    XYY      -3.6959
       YYY     127.3086    XXZ      -3.8049    XYZ      -1.4978
       YYZ      -5.3592    XZZ     -10.3377    YZZ      56.8685
       ZZZ       6.0455
    Hexadecapole Moments (Debye-Ang^3)
      XXXX    -666.8491   XXXY     -58.6709   XXYY    -606.1175
      XYYY     -67.4627   YYYY   -2765.6815   XXXZ    -103.7135
      XXYZ     -17.9154   XYYZ     -30.8737   YYYZ    -105.4618
      XXZZ    -221.5752   XYZZ     -20.7048   YYZZ    -602.7418
      XZZZ    -113.2527   YZZZ     -96.9974   ZZZZ    -606.7473
 -----------------------------------------------------------------
 Total job time:  640.95s(wall), 637.70s(cpu) 
 Sun Jul 10 05:25:32 2022

        *************************************************************
        *                                                           *
        *  Thank you very much for using Q-Chem.  Have a nice day.  *
        *                                                           *
        *************************************************************


remove work dirs ./qchem1865233.0 -- ./qchem1865233.-1
rm -rf ./qchem1865233
You are running Q-Chem version: 5.4.0

#
# job setting
#
local host:  exp-6-19
current dir: /expanse/lustre/scratch/theleonzhang/temp_project/Hydrogenated_Rotation_Test
input file:  Methylthiophene_Phi_10_Theta_290_Methylthiophene_Hydrogenated_Alternate.qcin
output file: 
nprocs     : 0
nthreads   : 1
#
# qchem installation setting
#
QC:          /cm/shared/apps/spack/cpu/opt/spack/linux-centos8-zen2/gcc-10.2.0/qchem-5.4-akfmr7b3t57bfs6qan3padb2wnb2i7cl
QCAUX:       /cm/shared/apps/spack/cpu/opt/spack/linux-centos8-zen2/gcc-10.2.0/qchem-5.4-akfmr7b3t57bfs6qan3padb2wnb2i7cl/qcaux
QCPROG:      /cm/shared/apps/spack/cpu/opt/spack/linux-centos8-zen2/gcc-10.2.0/qchem-5.4-akfmr7b3t57bfs6qan3padb2wnb2i7cl/exe/qcprog.exe_s
QCPROG_S:    /cm/shared/apps/spack/cpu/opt/spack/linux-centos8-zen2/gcc-10.2.0/qchem-5.4-akfmr7b3t57bfs6qan3padb2wnb2i7cl/exe/qcprog.exe_s
PARALLEL:    -DSERIAL
QCMPI:       mpich
#
# qchem directory setting
#
qcrun:       qchem2338558
QCSCRATCH:   .
QCLOCALSCR:  
QCTMPDIR:    .
QCFILEPREF:  ./qchem2338558
QCSAVEDIR:   
workdirs:    ./qchem2338558
workdir0:    ./qchem2338558
partmpdirs =  
#
# parallel setting
#
QCRSH:           ssh
QCMPI:           mpich
QCMPIRUN:        /cm/shared/apps/spack/cpu/opt/spack/linux-centos8-zen2/gcc-10.2.0/qchem-5.4-akfmr7b3t57bfs6qan3padb2wnb2i7cl/bin/mpi/mpirun_qchem
QCMACHINEFILE:   ./qchem2338558/hostfile

#
# env setting
#
exported envs:   QC QCAUX QCSCRATCH QCRUNNAME QCFILEPREF QCPROG QCPROG_S GUIFILE

Running Job 1 of 1 Methylthiophene_Phi_10_Theta_290_Methylthiophene_Hydrogenated_Alternate.qcin
qchem Methylthiophene_Phi_10_Theta_290_Methylthiophene_Hydrogenated_Alternate.qcin_2338558.0 ./qchem2338558/ 0
/cm/shared/apps/spack/cpu/opt/spack/linux-centos8-zen2/gcc-10.2.0/qchem-5.4-akfmr7b3t57bfs6qan3padb2wnb2i7cl/exe/qcprog.exe_s Methylthiophene_Phi_10_Theta_290_Methylthiophene_Hydrogenated_Alternate.qcin_2338558.0 ./qchem2338558/
                  Welcome to Q-Chem
     A Quantum Leap Into The Future Of Chemistry


 Q-Chem 5.4, Q-Chem, Inc., Pleasanton, CA (2021)

 License issued to: University of California, San Diego (site)

 E. Epifanovsky,  A. T. B. Gilbert,  Xintian Feng,  Joonho Lee,  Yuezhi Mao,  
 N. Mardirossian,  P. Pokhilko,  A. White,  M. Wormit,  M. P. Coons,  
 A. L. Dempwolff,  Zhengting Gan,  D. Hait,  P. R. Horn,  L. D. Jacobson,  
 I. Kaliman,  J. Kussmann,  A. W. Lange,  Ka Un Lao,  D. S. Levine,  Jie Liu,  
 S. C. McKenzie,  A. F. Morrison,  K. Nanda,  F. Plasser,  D. R. Rehn,  
 M. L. Vidal,  Zhi-Qiang You,  Ying Zhu,  B. Alam,  B. Albrecht,  
 A. Aldossary,  E. Alguire,  J. H. Andersen,  D. Barton,  K. Begam,  A. Behn,  
 Y. A. Bernard,  E. J. Berquist,  H. Burton,  A. Carreras,  K. Carter-Fenk,  
 R. Chakraborty,  A. D. Chien,  K. D. Closser,  V. Cofer-Shabica,  
 S. Dasgupta,  Jia Deng,  M. de Wergifosse,  M. Diedenhofen,  Hainam Do,  
 S. Ehlert,  Po-Tung Fang,  S. Fatehi,  Qingguo Feng,  J. Gayvert,  
 Qinghui Ge,  G. Gidofalvi,  M. Goldey,  J. Gomes,  C. Gonzalez-Espinoza,  
 S. Gulania,  A. Gunina,  M. W. D. Hanson-Heine,  P. H. P. Harbach,  
 A. W. Hauser,  M. F. Herbst,  M. Hernandez Vera,  M. Hodecker,  
 Z. C. Holden,  S. Houck,  Xunkun Huang,  Kerwin Hui,  B. C. Huynh,  
 M. Ivanov,  Hyunjun Ji,  Hanjie Jiang,  B. Kaduk,  S. Kaehler,  
 K. Khistyaev,  Jaehoon Kim,  P. Klunzinger,  Z. Koczor-Benda,  
 Joong Hoon Koh,  D. Kosenkov,  L. Koulias,  T. Kowalczyk,  C. M. Krauter,  
 K. Kue,  A. Kunitsa,  T. Kus,  A. Landau,  K. V. Lawler,  D. Lefrancois,  
 S. Lehtola,  Rain Li,  Yi-Pei Li,  Jiashu Liang,  M. Liebenthal,  
 Hung-Hsuan Lin,  You-Sheng Lin,  Fenglai Liu,  Kuan-Yu Liu,  
 M. Loipersberger,  A. Luenser,  A. Manjanath,  P. Manohar,  E. Mansoor,  
 S. F. Manzer,  Shan-Ping Mao,  A. V. Marenich,  T. Markovich,  S. Mason,  
 S. A. Maurer,  P. F. McLaughlin,  M. F. S. J. Menger,  J.-M. Mewes,  
 S. A. Mewes,  P. Morgante,  J. W. Mullinax,  T. S. Nguyen-Beck,  
 K. J. Oosterbaan,  G. Paran,  Alexander C. Paul,  Suranjan K. Paul,  
 F. Pavosevic,  Zheng Pei,  S. Prager,  E. I. Proynov,  E. Ramos,  B. Rana,  
 A. E. Rask,  A. Rettig,  R. M. Richard,  F. Rob,  E. Rossomme,  T. Scheele,  
 M. Scheurer,  M. Schneider,  N. Sergueev,  S. M. Sharada,  W. Skomorowski,  
 D. W. Small,  C. J. Stein,  Yu-Chuan Su,  E. J. Sundstrom,  Zhen Tao,  
 J. Thirman,  T. Tsuchimochi,  N. M. Tubman,  S. P. Veccham,  O. Vydrov,  
 J. Wenzel,  J. Witte,  A. Yamada,  Kun Yao,  S. Yeganeh,  S. R. Yost,  
 A. Zech,  Igor Ying Zhang,  Xing Zhang,  Yu Zhang,  D. Zuev,  
 A. Aspuru-Guzik,  A. T. Bell,  N. A. Besley,  K. B. Bravaya,  B. R. Brooks,  
 D. Casanova,  Jeng-Da Chai,  S. Coriani,  C. J. Cramer,  
 A. E. DePrince, III,  R. A. DiStasio Jr.,  A. Dreuw,  B. D. Dunietz,  
 T. R. Furlani,  W. A. Goddard III,  S. Grimme,  S. Hammes-Schiffer,  
 T. Head-Gordon,  W. J. Hehre,  Chao-Ping Hsu,  T.-C. Jagau,  Yousung Jung,  
 A. Klamt,  Jing Kong,  D. S. Lambrecht,  WanZhen Liang,  N. J. Mayhall,  
 C. W. McCurdy,  J. B. Neaton,  C. Ochsenfeld,  J. A. Parkhill,  R. Peverati,  
 V. A. Rassolov,  Yihan Shao,  L. V. Slipchenko,  T. Stauch,  R. P. Steele,  
 J. E. Subotnik,  A. J. W. Thom,  A. Tkatchenko,  D. G. Truhlar,  
 T. Van Voorhis,  T. A. Wesolowski,  K. B. Whaley,  H. L. Woodcock III,  
 P. M. Zimmerman,  S. Faraji,  P. M. W. Gill,  M. Head-Gordon,  
 J. M. Herbert,  A. I. Krylov

 Contributors to earlier versions of Q-Chem not listed above: 
 R. D. Adamson,  B. Austin,  R. Baer,  J. Baker,  G. J. O. Beran,  
 K. Brandhorst,  S. T. Brown,  E. F. C. Byrd,  A. K. Chakraborty,  
 G. K. L. Chan,  Chun-Min Chang,  Yunqing Chen,  C.-L. Cheng,  
 Siu Hung Chien,  D. M. Chipman,  D. L. Crittenden,  H. Dachsel,  
 R. J. Doerksen,  A. D. Dutoi,  R. G. Edgar,  J. Fosso-Tande,  
 L. Fusti-Molnar,  D. Ghosh,  A. Ghysels,  A. Golubeva-Zadorozhnaya,  
 J. Gonthier,  M. S. Gordon,  S. R. Gwaltney,  G. Hawkins,  J. E. Herr,  
 A. Heyden,  S. Hirata,  E. G. Hohenstein,  G. Kedziora,  F. J. Keil,  
 C. Kelley,  Jihan Kim,  R. A. King,  R. Z. Khaliullin,  P. P. Korambath,  
 W. Kurlancheek,  A. Laurent,  A. M. Lee,  M. S. Lee,  S. V. Levchenko,  
 Ching Yeh Lin,  D. Liotard,  E. Livshits,  R. C. Lochan,  I. Lotan,  
 L. A. Martinez-Martinez,  P. E. Maslen,  N. Nair,  D. P. O'Neill,  
 D. Neuhauser,  E. Neuscamman,  C. M. Oana,  R. Olivares-Amaya,  R. Olson,  
 T. M. Perrine,  B. Peters,  P. A. Pieniazek,  A. Prociuk,  Y. M. Rhee,  
 J. Ritchie,  M. A. Rohrdanz,  E. Rosta,  N. J. Russ,  H. F. Schaefer III,  
 M. W. Schmidt,  N. E. Schultz,  S. Sharma,  N. Shenvi,  C. D. Sherrill,  
 A. C. Simmonett,  A. Sodt,  T. Stein,  D. Stuck,  K. S. Thanthiriwatte,  
 V. Vanovschi,  L. Vogt,  Tao Wang,  A. Warshel,  M. A. Watson,  
 C. F. Williams,  Q. Wu,  X. Xu,  Jun Yang,  W. Zhang,  Yan Zhao

 Please cite Q-Chem as follows:
 Y. Shao et al., Mol. Phys. 113, 184-215 (2015)
 DOI: 10.1080/00268976.2014.952696

 Q-Chem 5.4.0 for Intel X86 EM64T Linux

 Parts of Q-Chem use Armadillo 9.800.1 (Horizon Scraper).
 http://arma.sourceforge.net/

 Q-Chem begins on Sun Jul 10 05:48:41 2022  

 Host: 
0

     Scratch files written to ./qchem2338558//
 May1621 |scratch|qcdevops|jenkins|workspace|build_RNUM    
 Processing $rem in /cm/shared/apps/spack/cpu/opt/spack/linux-centos8-zen2/gcc-10.2.0/qchem-5.4-akfmr7b3t57bfs6qan3padb2wnb2i7cl/config/preferences:
 Processing $rem in /home/theleonzhang/.qchemrc:
 Symmetry turned off for PCM/SM12/SMD calculation
 Core orbitals will be frozen

 Checking the input file for inconsistencies... 	...done.

--------------------------------------------------------------
User input:
--------------------------------------------------------------
$molecule
0 1
C	0.728138	-3.866725	0.265779
C	-0.575726	-3.703963	-0.209225
C	-1.002290	-2.357056	-0.364875
H	-1.224486	-4.561092	-0.445176
C	-0.000000	-1.440664	-0.000000
S	1.451343	-2.286957	0.528236
C	-2.369683	-1.978743	-0.862808
H	-2.975883	-2.878678	-1.083368
H	-2.317142	-1.376015	-1.793522
H	-2.927787	-1.375728	-0.116375
C	0.000000	0.000000	0.000000
C	0.149995	0.850475	1.099446
C	0.390327	2.213354	0.776721
H	0.085947	0.487279	2.136088
C	0.428665	2.430655	-0.612546
S	0.163670	0.928078	-1.486809
C	0.579235	3.284574	1.814609
H	0.505323	2.865404	2.836676
H	-0.185980	4.083890	1.726239
H	1.571698	3.773937	1.726228
H	0.593515	3.365448	-1.161575
H	1.358585	-4.392713	-0.459743
H	0.744515	-4.392347	1.227009
H	0.369490	-1.440937	-1.014829
$end

$rem
JOBTYPE		SP
EXCHANGE	HF
CORRELATION	pRIMP2
BASIS		cc-pvtz
METHOD		rimp2
AUX_BASIS	rimp2-cc-pvtz
SOLVENT_METHOD	PCM
PURECART	11111
SYMMETRY	false
MEM_TOTAL	110000
SCF_CONVERGENCE = 6
THRESH=10
$end



$solvent
dielectric 4.90
$end
--------------------------------------------------------------
 ----------------------------------------------------------------
             Standard Nuclear Orientation (Angstroms)
    I     Atom           X                Y                Z
 ----------------------------------------------------------------
    1      C       0.7281380000    -3.8667250000     0.2657790000
    2      C      -0.5757260000    -3.7039630000    -0.2092250000
    3      C      -1.0022900000    -2.3570560000    -0.3648750000
    4      H      -1.2244860000    -4.5610920000    -0.4451760000
    5      C       0.0000000000    -1.4406640000     0.0000000000
    6      S       1.4513430000    -2.2869570000     0.5282360000
    7      C      -2.3696830000    -1.9787430000    -0.8628080000
    8      H      -2.9758830000    -2.8786780000    -1.0833680000
    9      H      -2.3171420000    -1.3760150000    -1.7935220000
   10      H      -2.9277870000    -1.3757280000    -0.1163750000
   11      C       0.0000000000     0.0000000000     0.0000000000
   12      C       0.1499950000     0.8504750000     1.0994460000
   13      C       0.3903270000     2.2133540000     0.7767210000
   14      H       0.0859470000     0.4872790000     2.1360880000
   15      C       0.4286650000     2.4306550000    -0.6125460000
   16      S       0.1636700000     0.9280780000    -1.4868090000
   17      C       0.5792350000     3.2845740000     1.8146090000
   18      H       0.5053230000     2.8654040000     2.8366760000
   19      H      -0.1859800000     4.0838900000     1.7262390000
   20      H       1.5716980000     3.7739370000     1.7262280000
   21      H       0.5935150000     3.3654480000    -1.1615750000
   22      H       1.3585850000    -4.3927130000    -0.4597430000
   23      H       0.7445150000    -4.3923470000     1.2270090000
   24      H       0.3694900000    -1.4409370000    -1.0148290000
 ----------------------------------------------------------------
 Nuclear Repulsion Energy =         872.71449030 hartrees
 There are       52 alpha and       52 beta electrons

 Q-Chem warning in module forms1/BasisType.C, line 2236:

 You are not using the predefined 5D/6D in this basis set.

 Requested basis set is cc-pVTZ
 There are 196 shells and 536 basis functions

 Total QAlloc Memory Limit 110000 MB
 Mega-Array Size       188 MB
 MEM_STATIC part       192 MB
 Discretize the solute cavity surface with Lebedev spheres
	Using 110 Lebedev grid points for each H atom
	Using 194 Lebedev grid points for other atoms
	Atomic van der Waals radii will be scaled by 1.20
 Remove points where switching function is < 1.0e-08
 Keep 1627 surface tesserae and discard 2021 interior tesserae
 Molecular Surface Area = 238.002 Angst**2
 Requested basis set is rimp2-cc-pVTZ
 There are 414 shells and 1414 basis functions
 A cutoff of  1.0D-10 yielded  13829 shell pairs
 There are    100213 function pairs (    128545 Cartesian)
 Smallest overlap matrix eigenvalue = 6.59E-05

 Scale SEOQF with 1.000000e-01/1.000000e-01/1.000000e-01

 Standard Electronic Orientation quadrupole field applied
 Nucleus-field energy     =     0.0000000353 hartrees
 Guess from superposition of atomic densities
 Warning:  Energy on first SCF cycle will be non-variational
 SAD guess density has 104.000000 electrons

 -----------------------------------------------------------------------
  General SCF calculation program by
  Eric Jon Sundstrom, Paul Horn, Yuezhi Mao, Dmitri Zuev, Alec White,
  David Stuck, Shaama M.S., Shane Yost, Joonho Lee, David Small,
  Daniel Levine, Susi Lehtola, Hugh Burton, Evgeny Epifanovsky,
  Bang C. Huynh
 -----------------------------------------------------------------------
 Hartree-Fock
 A restricted SCF calculation will be
 performed using DIIS
 SCF converges when DIIS error is below 1.0e-06
 ---------------------------------------
  Cycle       Energy         DIIS error
 ---------------------------------------
    1   -1186.0236345115      2.39e-02  
    2   -1180.6141591080      1.56e-03  
    3   -1180.7389876977      6.10e-04  
    4   -1180.7533016823      3.32e-04  
    5   -1180.7583485789      6.05e-05  
    6   -1180.7585992678      2.48e-05  
    7   -1180.7586605066      9.22e-06  
    8   -1180.7586746366      4.50e-06  
    9   -1180.7586779260      1.49e-06  
   10   -1180.7586784134      5.01e-07  Convergence criterion met
 ---------------------------------------
 SCF time:   CPU 557.85s  wall 560.00s 

************** Final PCM Free Energy Summary **************
 G_electrostatic  =      -0.00848920 hartree =      -5.32705330 kcal/mol
 G_cavitation     =       0.00000000 hartree =       0.00000000 kcal/mol
 G_dispersion     =       0.00000000 hartree =       0.00000000 kcal/mol
 G_repulsion      =       0.00000000 hartree =       0.00000000 kcal/mol
 --------------------------------------------------
 Non-electrostatic Free Energy =       0.00000000 hartree =       0.00000000 kcal/mol
 Total                         =      -0.00848920 hartree =      -5.32705330 kcal/mol
 --------------------------------------------------
 SCF Energy (H0 + V/2)                       =   -1180.75867841 
 Solute Internal Energy (H0)                 =   -1180.75018921 
 Total Free Energy (H0 + V/2 + non-elec)     =   -1180.75867841 hartree
                                             = -740937.25366984 kcal/mol
***********************************************************

 SCF   energy in the final basis set =    -1180.7586784134
 Total energy in the final basis set =    -1180.7586784134


 --------------------------------------------------------------
  Generalized many-body perturbation theory program
  by Joonho Lee, Fazle Rob, Xintian Feng, Evgeny Epifanovsky

 No regularization used 
 (reg. param. = 0.0000e+00)
  (P|Q)^-1/2 Time:  CPU 1.89 s  wall 1.89 s

 In RI-MP2 calculation: 
 # of frozen core orbitals: 20

 Components of the RIMP2 correlation energy:
        aaaa    correlation energy =        -0.2509567814 a.u.
        abab    correlation energy =        -1.5024520356 a.u.
        bbbb    correlation energy =        -0.2509567814 a.u.
        non-Brillouin singles      =        -0.0000000000 a.u.
        total same-spin energy     =        -0.5019135628 a.u.
        total opposite-spin energy =        -1.5024520356 a.u.

 Total  RIMP2   correlation energy =        -2.0043655984 a.u.
        RIMP2         total energy =     -1182.7630440118 a.u.

 RI-MP2 Energy Time:  CPU 78.59 s  wall 78.85 s
 
 --------------------------------------------------------------
 
                    Orbital Energies (a.u.)
 --------------------------------------------------------------
 
 Alpha MOs
 -- Occupied --
-91.9857 -91.9422 -11.2798 -11.2645 -11.2622 -11.2554 -11.2509 -11.2407
-11.2383 -11.2315 -11.2285 -11.2187  -8.9855  -8.9468  -6.6664  -6.6658
 -6.6652  -6.6281  -6.6271  -6.6258  -1.1986  -1.1535  -1.0589  -1.0259
 -1.0037  -0.9616  -0.9136  -0.9003  -0.8128  -0.7659  -0.7360  -0.7035
 -0.6542  -0.6353  -0.6108  -0.5889  -0.5766  -0.5735  -0.5688  -0.5535
 -0.5423  -0.5310  -0.5126  -0.5059  -0.4889  -0.4834  -0.4634  -0.4477
 -0.3559  -0.3419  -0.3150  -0.2789
 -- Virtual --
  0.0937   0.1299   0.1437   0.1486   0.1599   0.1667   0.1800   0.1831
  0.1865   0.1972   0.2041   0.2151   0.2207   0.2347   0.2400   0.2448
  0.2510   0.2562   0.2699   0.2930   0.3052   0.3369   0.3389   0.3540
  0.3677   0.3747   0.3777   0.3866   0.3955   0.4055   0.4111   0.4263
  0.4389   0.4462   0.4510   0.4626   0.4645   0.4761   0.4810   0.4917
  0.4969   0.5083   0.5209   0.5267   0.5334   0.5443   0.5497   0.5576
  0.5664   0.5763   0.5834   0.5911   0.6018   0.6086   0.6113   0.6201
  0.6228   0.6238   0.6324   0.6353   0.6390   0.6428   0.6494   0.6549
  0.6630   0.6730   0.6831   0.6845   0.6914   0.7035   0.7171   0.7173
  0.7345   0.7482   0.7529   0.7711   0.7823   0.8042   0.8068   0.8223
  0.8274   0.8354   0.8422   0.8557   0.8643   0.8899   0.8989   0.9168
  0.9295   0.9435   0.9515   0.9591   0.9794   0.9922   0.9955   1.0060
  1.0234   1.0257   1.0369   1.0493   1.0605   1.0708   1.0765   1.0826
  1.0851   1.0990   1.1135   1.1214   1.1251   1.1292   1.1556   1.1621
  1.1780   1.1835   1.1945   1.2151   1.2165   1.2206   1.2409   1.2431
  1.2571   1.2588   1.2637   1.2779   1.2910   1.2947   1.3028   1.3215
  1.3324   1.3373   1.3445   1.3568   1.3721   1.3887   1.4030   1.4122
  1.4243   1.4300   1.4497   1.4510   1.4611   1.4781   1.4852   1.4965
  1.5031   1.5149   1.5222   1.5277   1.5336   1.5349   1.5468   1.5551
  1.5682   1.5757   1.5831   1.5902   1.6126   1.6225   1.6302   1.6364
  1.6536   1.6665   1.6792   1.6888   1.6966   1.7135   1.7218   1.7357
  1.7383   1.7515   1.7693   1.7832   1.7972   1.8311   1.8354   1.8527
  1.8813   1.9136   1.9192   1.9361   1.9567   1.9764   1.9936   2.0065
  2.0121   2.0146   2.0371   2.0474   2.0930   2.1168   2.1205   2.1507
  2.1825   2.1915   2.2085   2.2227   2.2348   2.2560   2.2677   2.2779
  2.3037   2.3387   2.3441   2.3739   2.4090   2.4304   2.4465   2.4617
  2.4865   2.5265   2.5296   2.5354   2.5660   2.5848   2.6029   2.6069
  2.6281   2.6504   2.6528   2.6571   2.6818   2.6845   2.6988   2.7188
  2.7407   2.7439   2.7574   2.7641   2.7755   2.7802   2.7918   2.8298
  2.8407   2.8468   2.8626   2.8804   2.8867   2.8982   2.9070   2.9160
  2.9323   2.9608   2.9738   2.9872   3.0039   3.0199   3.0383   3.0424
  3.0531   3.0659   3.0862   3.1063   3.1115   3.1231   3.1291   3.1360
  3.1468   3.1551   3.1584   3.1744   3.1828   3.1925   3.2007   3.2263
  3.2333   3.2403   3.2493   3.2594   3.2757   3.2868   3.2975   3.3014
  3.3150   3.3194   3.3304   3.3354   3.3464   3.3534   3.3602   3.3678
  3.3772   3.3845   3.3929   3.3948   3.4131   3.4153   3.4231   3.4292
  3.4450   3.4548   3.4571   3.4693   3.4823   3.4915   3.4995   3.5126
  3.5162   3.5283   3.5322   3.5418   3.5424   3.5637   3.5657   3.5793
  3.5905   3.6081   3.6144   3.6215   3.6288   3.6372   3.6512   3.6584
  3.6654   3.6779   3.6906   3.7002   3.7047   3.7104   3.7324   3.7398
  3.7460   3.7518   3.7694   3.7708   3.7867   3.7959   3.8047   3.8196
  3.8232   3.8336   3.8512   3.8744   3.8878   3.8949   3.8959   3.9081
  3.9202   3.9381   3.9422   3.9552   3.9751   3.9874   4.0022   4.0074
  4.0183   4.0427   4.0514   4.0532   4.0635   4.0835   4.0915   4.1090
  4.1192   4.1385   4.1484   4.1591   4.1637   4.1718   4.1748   4.1972
  4.2156   4.2207   4.2237   4.2392   4.2500   4.2645   4.2750   4.2795
  4.2861   4.3033   4.3096   4.3244   4.3424   4.3604   4.3651   4.3727
  4.3738   4.3882   4.3982   4.4051   4.4130   4.4176   4.4366   4.4440
  4.4577   4.4693   4.4770   4.4820   4.4973   4.5070   4.5266   4.5658
  4.5720   4.5803   4.6055   4.6227   4.6323   4.6424   4.6548   4.6708
  4.6946   4.7096   4.7374   4.7476   4.7713   4.8087   4.8153   4.8315
  4.8516   4.8743   4.8928   4.9076   4.9448   4.9497   4.9744   4.9860
  5.0211   5.0505   5.0820   5.0978   5.1101   5.1308   5.1529   5.1749
  5.1958   5.2190   5.2279   5.2659   5.2771   5.2848   5.3120   5.3143
  5.3517   5.3739   5.3827   5.3969   5.4132   5.4166   5.4431   5.4533
  5.4759   5.5144   5.5259   5.5437   5.5533   5.5590   5.5773   5.5810
  5.6198   5.6236   5.6450   5.6534   5.6780   5.7034   5.7065   5.7509
  5.7572   5.7874   5.8317   5.9508   5.9831   6.0631   6.1244   6.1489
  6.2059   6.2206   6.2266   6.2427   6.2626   6.2779   6.3063   6.3221
  6.3737   6.5122   9.4815  10.6984  12.0105  12.9286  13.1906  13.9657
 14.0675  14.2212  14.3813  14.6403
 --------------------------------------------------------------
 
          Ground-State Mulliken Net Atomic Charges

     Atom                 Charge (a.u.)
  ----------------------------------------
      1 C                    -0.076184
      2 C                    -0.326300
      3 C                    -0.045873
      4 H                     0.176043
      5 C                     0.120699
      6 S                    -0.174458
      7 C                    -0.266695
      8 H                     0.112757
      9 H                     0.099934
     10 H                     0.107984
     11 C                    -0.102524
     12 C                    -0.241134
     13 C                     0.029104
     14 H                     0.186054
     15 C                    -0.246149
     16 S                     0.013190
     17 C                    -0.272353
     18 H                     0.102977
     19 H                     0.107778
     20 H                     0.108390
     21 H                     0.198390
     22 H                     0.110798
     23 H                     0.111273
     24 H                     0.166299
  ----------------------------------------
  Sum of atomic charges =     0.000000

 -----------------------------------------------------------------
                    Cartesian Multipole Moments
 -----------------------------------------------------------------
    Charge (ESU x 10^10)
                -0.0000
    Dipole Moment (Debye)
         X      -1.6766      Y       0.6239      Z      -0.0445
       Tot       1.7894
    Quadrupole Moments (Debye-Ang)
        XX     -91.1780     XY       4.6947     YY     -73.9846
        XZ       0.0218     YZ       3.5038     ZZ     -86.0797
    Octopole Moments (Debye-Ang^2)
       XXX     -42.2110    XXY      42.3453    XYY      -3.6959
       YYY     127.3086    XXZ      -3.8049    XYZ      -1.4978
       YYZ      -5.3592    XZZ     -10.3377    YZZ      56.8685
       ZZZ       6.0455
    Hexadecapole Moments (Debye-Ang^3)
      XXXX    -666.8491   XXXY     -58.6709   XXYY    -606.1175
      XYYY     -67.4627   YYYY   -2765.6815   XXXZ    -103.7135
      XXYZ     -17.9154   XYYZ     -30.8737   YYYZ    -105.4618
      XXZZ    -221.5752   XYZZ     -20.7048   YYZZ    -602.7418
      XZZZ    -113.2527   YZZZ     -96.9974   ZZZZ    -606.7473
 -----------------------------------------------------------------
 Total job time:  640.87s(wall), 637.31s(cpu) 
 Sun Jul 10 05:59:22 2022

        *************************************************************
        *                                                           *
        *  Thank you very much for using Q-Chem.  Have a nice day.  *
        *                                                           *
        *************************************************************


remove work dirs ./qchem2338558.0 -- ./qchem2338558.-1
rm -rf ./qchem2338558
