You are running Q-Chem version: 5.4.0

#
# job setting
#
local host:  exp-3-35
current dir: /expanse/lustre/scratch/theleonzhang/temp_project/Hydrogenated_Rotation_Test
input file:  Methylthiophene_Phi_0_Theta_70_Methylthiophene_Hydrogenated_Alternate.qcin
output file: 
nprocs     : 0
nthreads   : 1
#
# qchem installation setting
#
QC:          /cm/shared/apps/spack/cpu/opt/spack/linux-centos8-zen2/gcc-10.2.0/qchem-5.4-akfmr7b3t57bfs6qan3padb2wnb2i7cl
QCAUX:       /cm/shared/apps/spack/cpu/opt/spack/linux-centos8-zen2/gcc-10.2.0/qchem-5.4-akfmr7b3t57bfs6qan3padb2wnb2i7cl/qcaux
QCPROG:      /cm/shared/apps/spack/cpu/opt/spack/linux-centos8-zen2/gcc-10.2.0/qchem-5.4-akfmr7b3t57bfs6qan3padb2wnb2i7cl/exe/qcprog.exe_s
QCPROG_S:    /cm/shared/apps/spack/cpu/opt/spack/linux-centos8-zen2/gcc-10.2.0/qchem-5.4-akfmr7b3t57bfs6qan3padb2wnb2i7cl/exe/qcprog.exe_s
PARALLEL:    -DSERIAL
QCMPI:       mpich
#
# qchem directory setting
#
qcrun:       qchem3934412
QCSCRATCH:   .
QCLOCALSCR:  
QCTMPDIR:    .
QCFILEPREF:  ./qchem3934412
QCSAVEDIR:   
workdirs:    ./qchem3934412
workdir0:    ./qchem3934412
partmpdirs =  
#
# parallel setting
#
QCRSH:           ssh
QCMPI:           mpich
QCMPIRUN:        /cm/shared/apps/spack/cpu/opt/spack/linux-centos8-zen2/gcc-10.2.0/qchem-5.4-akfmr7b3t57bfs6qan3padb2wnb2i7cl/bin/mpi/mpirun_qchem
QCMACHINEFILE:   ./qchem3934412/hostfile

#
# env setting
#
exported envs:   QC QCAUX QCSCRATCH QCRUNNAME QCFILEPREF QCPROG QCPROG_S GUIFILE

Running Job 1 of 1 Methylthiophene_Phi_0_Theta_70_Methylthiophene_Hydrogenated_Alternate.qcin
qchem Methylthiophene_Phi_0_Theta_70_Methylthiophene_Hydrogenated_Alternate.qcin_3934412.0 ./qchem3934412/ 0
/cm/shared/apps/spack/cpu/opt/spack/linux-centos8-zen2/gcc-10.2.0/qchem-5.4-akfmr7b3t57bfs6qan3padb2wnb2i7cl/exe/qcprog.exe_s Methylthiophene_Phi_0_Theta_70_Methylthiophene_Hydrogenated_Alternate.qcin_3934412.0 ./qchem3934412/
                  Welcome to Q-Chem
     A Quantum Leap Into The Future Of Chemistry


 Q-Chem 5.4, Q-Chem, Inc., Pleasanton, CA (2021)

 License issued to: University of California, San Diego (site)

 E. Epifanovsky,  A. T. B. Gilbert,  Xintian Feng,  Joonho Lee,  Yuezhi Mao,  
 N. Mardirossian,  P. Pokhilko,  A. White,  M. Wormit,  M. P. Coons,  
 A. L. Dempwolff,  Zhengting Gan,  D. Hait,  P. R. Horn,  L. D. Jacobson,  
 I. Kaliman,  J. Kussmann,  A. W. Lange,  Ka Un Lao,  D. S. Levine,  Jie Liu,  
 S. C. McKenzie,  A. F. Morrison,  K. Nanda,  F. Plasser,  D. R. Rehn,  
 M. L. Vidal,  Zhi-Qiang You,  Ying Zhu,  B. Alam,  B. Albrecht,  
 A. Aldossary,  E. Alguire,  J. H. Andersen,  D. Barton,  K. Begam,  A. Behn,  
 Y. A. Bernard,  E. J. Berquist,  H. Burton,  A. Carreras,  K. Carter-Fenk,  
 R. Chakraborty,  A. D. Chien,  K. D. Closser,  V. Cofer-Shabica,  
 S. Dasgupta,  Jia Deng,  M. de Wergifosse,  M. Diedenhofen,  Hainam Do,  
 S. Ehlert,  Po-Tung Fang,  S. Fatehi,  Qingguo Feng,  J. Gayvert,  
 Qinghui Ge,  G. Gidofalvi,  M. Goldey,  J. Gomes,  C. Gonzalez-Espinoza,  
 S. Gulania,  A. Gunina,  M. W. D. Hanson-Heine,  P. H. P. Harbach,  
 A. W. Hauser,  M. F. Herbst,  M. Hernandez Vera,  M. Hodecker,  
 Z. C. Holden,  S. Houck,  Xunkun Huang,  Kerwin Hui,  B. C. Huynh,  
 M. Ivanov,  Hyunjun Ji,  Hanjie Jiang,  B. Kaduk,  S. Kaehler,  
 K. Khistyaev,  Jaehoon Kim,  P. Klunzinger,  Z. Koczor-Benda,  
 Joong Hoon Koh,  D. Kosenkov,  L. Koulias,  T. Kowalczyk,  C. M. Krauter,  
 K. Kue,  A. Kunitsa,  T. Kus,  A. Landau,  K. V. Lawler,  D. Lefrancois,  
 S. Lehtola,  Rain Li,  Yi-Pei Li,  Jiashu Liang,  M. Liebenthal,  
 Hung-Hsuan Lin,  You-Sheng Lin,  Fenglai Liu,  Kuan-Yu Liu,  
 M. Loipersberger,  A. Luenser,  A. Manjanath,  P. Manohar,  E. Mansoor,  
 S. F. Manzer,  Shan-Ping Mao,  A. V. Marenich,  T. Markovich,  S. Mason,  
 S. A. Maurer,  P. F. McLaughlin,  M. F. S. J. Menger,  J.-M. Mewes,  
 S. A. Mewes,  P. Morgante,  J. W. Mullinax,  T. S. Nguyen-Beck,  
 K. J. Oosterbaan,  G. Paran,  Alexander C. Paul,  Suranjan K. Paul,  
 F. Pavosevic,  Zheng Pei,  S. Prager,  E. I. Proynov,  E. Ramos,  B. Rana,  
 A. E. Rask,  A. Rettig,  R. M. Richard,  F. Rob,  E. Rossomme,  T. Scheele,  
 M. Scheurer,  M. Schneider,  N. Sergueev,  S. M. Sharada,  W. Skomorowski,  
 D. W. Small,  C. J. Stein,  Yu-Chuan Su,  E. J. Sundstrom,  Zhen Tao,  
 J. Thirman,  T. Tsuchimochi,  N. M. Tubman,  S. P. Veccham,  O. Vydrov,  
 J. Wenzel,  J. Witte,  A. Yamada,  Kun Yao,  S. Yeganeh,  S. R. Yost,  
 A. Zech,  Igor Ying Zhang,  Xing Zhang,  Yu Zhang,  D. Zuev,  
 A. Aspuru-Guzik,  A. T. Bell,  N. A. Besley,  K. B. Bravaya,  B. R. Brooks,  
 D. Casanova,  Jeng-Da Chai,  S. Coriani,  C. J. Cramer,  
 A. E. DePrince, III,  R. A. DiStasio Jr.,  A. Dreuw,  B. D. Dunietz,  
 T. R. Furlani,  W. A. Goddard III,  S. Grimme,  S. Hammes-Schiffer,  
 T. Head-Gordon,  W. J. Hehre,  Chao-Ping Hsu,  T.-C. Jagau,  Yousung Jung,  
 A. Klamt,  Jing Kong,  D. S. Lambrecht,  WanZhen Liang,  N. J. Mayhall,  
 C. W. McCurdy,  J. B. Neaton,  C. Ochsenfeld,  J. A. Parkhill,  R. Peverati,  
 V. A. Rassolov,  Yihan Shao,  L. V. Slipchenko,  T. Stauch,  R. P. Steele,  
 J. E. Subotnik,  A. J. W. Thom,  A. Tkatchenko,  D. G. Truhlar,  
 T. Van Voorhis,  T. A. Wesolowski,  K. B. Whaley,  H. L. Woodcock III,  
 P. M. Zimmerman,  S. Faraji,  P. M. W. Gill,  M. Head-Gordon,  
 J. M. Herbert,  A. I. Krylov

 Contributors to earlier versions of Q-Chem not listed above: 
 R. D. Adamson,  B. Austin,  R. Baer,  J. Baker,  G. J. O. Beran,  
 K. Brandhorst,  S. T. Brown,  E. F. C. Byrd,  A. K. Chakraborty,  
 G. K. L. Chan,  Chun-Min Chang,  Yunqing Chen,  C.-L. Cheng,  
 Siu Hung Chien,  D. M. Chipman,  D. L. Crittenden,  H. Dachsel,  
 R. J. Doerksen,  A. D. Dutoi,  R. G. Edgar,  J. Fosso-Tande,  
 L. Fusti-Molnar,  D. Ghosh,  A. Ghysels,  A. Golubeva-Zadorozhnaya,  
 J. Gonthier,  M. S. Gordon,  S. R. Gwaltney,  G. Hawkins,  J. E. Herr,  
 A. Heyden,  S. Hirata,  E. G. Hohenstein,  G. Kedziora,  F. J. Keil,  
 C. Kelley,  Jihan Kim,  R. A. King,  R. Z. Khaliullin,  P. P. Korambath,  
 W. Kurlancheek,  A. Laurent,  A. M. Lee,  M. S. Lee,  S. V. Levchenko,  
 Ching Yeh Lin,  D. Liotard,  E. Livshits,  R. C. Lochan,  I. Lotan,  
 L. A. Martinez-Martinez,  P. E. Maslen,  N. Nair,  D. P. O'Neill,  
 D. Neuhauser,  E. Neuscamman,  C. M. Oana,  R. Olivares-Amaya,  R. Olson,  
 T. M. Perrine,  B. Peters,  P. A. Pieniazek,  A. Prociuk,  Y. M. Rhee,  
 J. Ritchie,  M. A. Rohrdanz,  E. Rosta,  N. J. Russ,  H. F. Schaefer III,  
 M. W. Schmidt,  N. E. Schultz,  S. Sharma,  N. Shenvi,  C. D. Sherrill,  
 A. C. Simmonett,  A. Sodt,  T. Stein,  D. Stuck,  K. S. Thanthiriwatte,  
 V. Vanovschi,  L. Vogt,  Tao Wang,  A. Warshel,  M. A. Watson,  
 C. F. Williams,  Q. Wu,  X. Xu,  Jun Yang,  W. Zhang,  Yan Zhao

 Please cite Q-Chem as follows:
 Y. Shao et al., Mol. Phys. 113, 184-215 (2015)
 DOI: 10.1080/00268976.2014.952696

 Q-Chem 5.4.0 for Intel X86 EM64T Linux

 Parts of Q-Chem use Armadillo 9.800.1 (Horizon Scraper).
 http://arma.sourceforge.net/

 Q-Chem begins on Sun Jul 10 01:12:12 2022  

 Host: 
0

     Scratch files written to ./qchem3934412//
 May1621 |scratch|qcdevops|jenkins|workspace|build_RNUM    
 Processing $rem in /cm/shared/apps/spack/cpu/opt/spack/linux-centos8-zen2/gcc-10.2.0/qchem-5.4-akfmr7b3t57bfs6qan3padb2wnb2i7cl/config/preferences:
 Processing $rem in /home/theleonzhang/.qchemrc:
 Symmetry turned off for PCM/SM12/SMD calculation
 Core orbitals will be frozen

 Checking the input file for inconsistencies... 	...done.

--------------------------------------------------------------
User input:
--------------------------------------------------------------
$molecule
0 1
C	-0.728625	-3.866725	0.264439
C	0.575519	-3.703963	-0.209794
C	1.002336	-2.357056	-0.364749
H	1.224165	-4.561092	-0.446060
C	0.000000	-1.440664	0.000000
S	-1.451336	-2.286957	0.528253
C	2.369885	-1.978743	-0.862253
H	2.976034	-2.878678	-1.082953
H	2.927887	-1.376015	-0.115513
H	2.317620	-1.375728	-1.792797
C	0.000000	0.000000	0.000000
C	0.000033	0.863600	1.099446
C	0.000052	2.247508	0.776721
H	0.000026	0.494801	2.136088
C	0.000074	2.468165	-0.612546
S	0.000024	0.942399	-1.486809
C	0.000075	3.335257	1.814609
H	0.000074	2.909620	2.836676
H	-0.892314	3.989552	1.726239
H	0.892483	3.989525	1.726228
H	0.000094	3.417382	-1.161575
H	-0.745219	-4.392713	1.225465
H	-1.359038	-4.392347	-0.461378
H	-0.369273	-1.440391	-1.014907
$end

$rem
JOBTYPE		SP
EXCHANGE	HF
CORRELATION	pRIMP2
BASIS		cc-pvtz
METHOD		rimp2
AUX_BASIS	rimp2-cc-pvtz
SOLVENT_METHOD	PCM
PURECART	11111
SYMMETRY	false
MEM_TOTAL	110000
SCF_CONVERGENCE = 6
THRESH=10
$end



$solvent
dielectric 4.90
$end
--------------------------------------------------------------
 ----------------------------------------------------------------
             Standard Nuclear Orientation (Angstroms)
    I     Atom           X                Y                Z
 ----------------------------------------------------------------
    1      C      -0.7286250000    -3.8667250000     0.2644390000
    2      C       0.5755190000    -3.7039630000    -0.2097940000
    3      C       1.0023360000    -2.3570560000    -0.3647490000
    4      H       1.2241650000    -4.5610920000    -0.4460600000
    5      C       0.0000000000    -1.4406640000     0.0000000000
    6      S      -1.4513360000    -2.2869570000     0.5282530000
    7      C       2.3698850000    -1.9787430000    -0.8622530000
    8      H       2.9760340000    -2.8786780000    -1.0829530000
    9      H       2.9278870000    -1.3760150000    -0.1155130000
   10      H       2.3176200000    -1.3757280000    -1.7927970000
   11      C       0.0000000000     0.0000000000     0.0000000000
   12      C       0.0000330000     0.8636000000     1.0994460000
   13      C       0.0000520000     2.2475080000     0.7767210000
   14      H       0.0000260000     0.4948010000     2.1360880000
   15      C       0.0000740000     2.4681650000    -0.6125460000
   16      S       0.0000240000     0.9423990000    -1.4868090000
   17      C       0.0000750000     3.3352570000     1.8146090000
   18      H       0.0000740000     2.9096200000     2.8366760000
   19      H      -0.8923140000     3.9895520000     1.7262390000
   20      H       0.8924830000     3.9895250000     1.7262280000
   21      H       0.0000940000     3.4173820000    -1.1615750000
   22      H      -0.7452190000    -4.3927130000     1.2254650000
   23      H      -1.3590380000    -4.3923470000    -0.4613780000
   24      H      -0.3692730000    -1.4403910000    -1.0149070000
 ----------------------------------------------------------------
 Nuclear Repulsion Energy =         872.02810759 hartrees
 There are       52 alpha and       52 beta electrons

 Q-Chem warning in module forms1/BasisType.C, line 2236:

 You are not using the predefined 5D/6D in this basis set.

 Requested basis set is cc-pVTZ
 There are 196 shells and 536 basis functions

 Total QAlloc Memory Limit 110000 MB
 Mega-Array Size       188 MB
 MEM_STATIC part       192 MB
 Discretize the solute cavity surface with Lebedev spheres
	Using 110 Lebedev grid points for each H atom
	Using 194 Lebedev grid points for other atoms
	Atomic van der Waals radii will be scaled by 1.20
 Remove points where switching function is < 1.0e-08
 Keep 1626 surface tesserae and discard 2022 interior tesserae
 Molecular Surface Area = 238.195 Angst**2
 Requested basis set is rimp2-cc-pVTZ
 There are 414 shells and 1414 basis functions
 A cutoff of  1.0D-10 yielded  13865 shell pairs
 There are    100597 function pairs (    129097 Cartesian)
 Smallest overlap matrix eigenvalue = 5.77E-05

 Scale SEOQF with 1.000000e-01/1.000000e-01/1.000000e-01

 Standard Electronic Orientation quadrupole field applied
 Nucleus-field energy     =     0.0000000355 hartrees
 Guess from superposition of atomic densities
 Warning:  Energy on first SCF cycle will be non-variational
 SAD guess density has 104.000000 electrons

 -----------------------------------------------------------------------
  General SCF calculation program by
  Eric Jon Sundstrom, Paul Horn, Yuezhi Mao, Dmitri Zuev, Alec White,
  David Stuck, Shaama M.S., Shane Yost, Joonho Lee, David Small,
  Daniel Levine, Susi Lehtola, Hugh Burton, Evgeny Epifanovsky,
  Bang C. Huynh
 -----------------------------------------------------------------------
 Hartree-Fock
 A restricted SCF calculation will be
 performed using DIIS
 SCF converges when DIIS error is below 1.0e-06
 ---------------------------------------
  Cycle       Energy         DIIS error
 ---------------------------------------
    1   -1186.0193714769      2.39e-02  
    2   -1180.6155554444      1.56e-03  
    3   -1180.7403832474      6.14e-04  
    4   -1180.7548124917      3.34e-04  
    5   -1180.7599164916      6.08e-05  
    6   -1180.7601682871      2.48e-05  
    7   -1180.7602295676      9.24e-06  
    8   -1180.7602436528      4.48e-06  
    9   -1180.7602469176      1.48e-06  
   10   -1180.7602473997      4.97e-07  Convergence criterion met
 ---------------------------------------
 SCF time:   CPU 560.29s  wall 562.00s 

************** Final PCM Free Energy Summary **************
 G_electrostatic  =      -0.00842405 hartree =      -5.28617001 kcal/mol
 G_cavitation     =       0.00000000 hartree =       0.00000000 kcal/mol
 G_dispersion     =       0.00000000 hartree =       0.00000000 kcal/mol
 G_repulsion      =       0.00000000 hartree =       0.00000000 kcal/mol
 --------------------------------------------------
 Non-electrostatic Free Energy =       0.00000000 hartree =       0.00000000 kcal/mol
 Total                         =      -0.00842405 hartree =      -5.28617001 kcal/mol
 --------------------------------------------------
 SCF Energy (H0 + V/2)                       =   -1180.76024740 
 Solute Internal Energy (H0)                 =   -1180.75182335 
 Total Free Energy (H0 + V/2 + non-elec)     =   -1180.76024740 hartree
                                             = -740938.23822362 kcal/mol
***********************************************************

 SCF   energy in the final basis set =    -1180.7602473997
 Total energy in the final basis set =    -1180.7602473997


 --------------------------------------------------------------
  Generalized many-body perturbation theory program
  by Joonho Lee, Fazle Rob, Xintian Feng, Evgeny Epifanovsky

 No regularization used 
 (reg. param. = 0.0000e+00)
  (P|Q)^-1/2 Time:  CPU 1.88 s  wall 1.89 s

 In RI-MP2 calculation: 
 # of frozen core orbitals: 20

 Components of the RIMP2 correlation energy:
        aaaa    correlation energy =        -0.2509341433 a.u.
        abab    correlation energy =        -1.5023386884 a.u.
        bbbb    correlation energy =        -0.2509341433 a.u.
        non-Brillouin singles      =        -0.0000000000 a.u.
        total same-spin energy     =        -0.5018682866 a.u.
        total opposite-spin energy =        -1.5023386884 a.u.

 Total  RIMP2   correlation energy =        -2.0042069750 a.u.
        RIMP2         total energy =     -1182.7644543747 a.u.

 RI-MP2 Energy Time:  CPU 79.05 s  wall 79.30 s
 
 --------------------------------------------------------------
 
                    Orbital Energies (a.u.)
 --------------------------------------------------------------
 
 Alpha MOs
 -- Occupied --
-91.9864 -91.9422 -11.2803 -11.2643 -11.2629 -11.2558 -11.2510 -11.2409
-11.2378 -11.2313 -11.2286 -11.2192  -8.9860  -8.9467  -6.6669  -6.6664
 -6.6658  -6.6281  -6.6271  -6.6258  -1.1985  -1.1536  -1.0590  -1.0257
 -1.0041  -0.9618  -0.9136  -0.9004  -0.8129  -0.7661  -0.7360  -0.7040
 -0.6543  -0.6353  -0.6108  -0.5889  -0.5762  -0.5737  -0.5693  -0.5536
 -0.5424  -0.5306  -0.5135  -0.5054  -0.4903  -0.4829  -0.4634  -0.4477
 -0.3558  -0.3422  -0.3148  -0.2795
 -- Virtual --
  0.0960   0.1295   0.1431   0.1494   0.1600   0.1662   0.1800   0.1834
  0.1866   0.1963   0.2034   0.2125   0.2225   0.2347   0.2409   0.2442
  0.2520   0.2570   0.2692   0.2922   0.3038   0.3377   0.3410   0.3533
  0.3655   0.3740   0.3777   0.3840   0.3952   0.4058   0.4107   0.4269
  0.4418   0.4490   0.4548   0.4604   0.4641   0.4736   0.4859   0.4898
  0.4993   0.5110   0.5222   0.5306   0.5341   0.5447   0.5475   0.5572
  0.5678   0.5760   0.5808   0.5864   0.6038   0.6073   0.6113   0.6194
  0.6211   0.6263   0.6344   0.6354   0.6410   0.6420   0.6501   0.6535
  0.6632   0.6726   0.6843   0.6859   0.6918   0.7077   0.7121   0.7191
  0.7315   0.7451   0.7525   0.7707   0.7847   0.8005   0.8048   0.8256
  0.8293   0.8357   0.8465   0.8567   0.8654   0.8872   0.9013   0.9145
  0.9270   0.9425   0.9512   0.9603   0.9741   0.9891   0.9969   1.0083
  1.0230   1.0275   1.0340   1.0478   1.0564   1.0722   1.0767   1.0843
  1.0909   1.0959   1.1071   1.1185   1.1238   1.1358   1.1607   1.1636
  1.1793   1.1860   1.1948   1.2113   1.2174   1.2215   1.2413   1.2482
  1.2522   1.2601   1.2637   1.2784   1.2870   1.2981   1.3057   1.3187
  1.3324   1.3330   1.3484   1.3539   1.3747   1.3840   1.4053   1.4112
  1.4215   1.4303   1.4450   1.4551   1.4628   1.4803   1.4862   1.4961
  1.4993   1.5120   1.5201   1.5287   1.5358   1.5398   1.5444   1.5539
  1.5679   1.5747   1.5868   1.5949   1.6119   1.6234   1.6308   1.6395
  1.6545   1.6667   1.6762   1.6946   1.6982   1.7131   1.7246   1.7331
  1.7412   1.7493   1.7751   1.7837   1.7975   1.8316   1.8390   1.8548
  1.8856   1.9053   1.9204   1.9403   1.9420   1.9705   1.9962   2.0094
  2.0131   2.0213   2.0265   2.0454   2.0900   2.1185   2.1260   2.1597
  2.1804   2.1913   2.2144   2.2206   2.2337   2.2583   2.2657   2.2845
  2.3070   2.3425   2.3455   2.3708   2.3913   2.4278   2.4474   2.4610
  2.4882   2.5173   2.5326   2.5410   2.5646   2.5880   2.6096   2.6140
  2.6240   2.6446   2.6511   2.6578   2.6781   2.6937   2.7048   2.7119
  2.7399   2.7507   2.7525   2.7566   2.7747   2.7792   2.7906   2.8275
  2.8361   2.8432   2.8546   2.8822   2.8897   2.9053   2.9127   2.9167
  2.9246   2.9634   2.9698   2.9927   3.0081   3.0193   3.0384   3.0455
  3.0543   3.0655   3.0906   3.1055   3.1118   3.1252   3.1304   3.1419
  3.1492   3.1540   3.1617   3.1701   3.1810   3.1970   3.2046   3.2265
  3.2320   3.2428   3.2473   3.2616   3.2763   3.2841   3.2973   3.3015
  3.3036   3.3200   3.3298   3.3341   3.3439   3.3525   3.3604   3.3685
  3.3829   3.3869   3.3893   3.3996   3.4090   3.4155   3.4180   3.4325
  3.4441   3.4490   3.4636   3.4793   3.4831   3.4915   3.4959   3.5123
  3.5134   3.5236   3.5306   3.5375   3.5467   3.5565   3.5653   3.5758
  3.5811   3.5991   3.6064   3.6212   3.6302   3.6370   3.6494   3.6540
  3.6651   3.6854   3.6905   3.6943   3.7078   3.7174   3.7326   3.7424
  3.7447   3.7490   3.7749   3.7754   3.7867   3.7961   3.8021   3.8217
  3.8238   3.8360   3.8483   3.8726   3.8835   3.8958   3.8969   3.9089
  3.9178   3.9334   3.9394   3.9547   3.9755   3.9920   3.9948   4.0123
  4.0192   4.0495   4.0545   4.0559   4.0675   4.0816   4.0912   4.1073
  4.1194   4.1412   4.1493   4.1554   4.1607   4.1734   4.1758   4.2042
  4.2135   4.2214   4.2346   4.2425   4.2505   4.2674   4.2717   4.2771
  4.2828   4.2975   4.3134   4.3283   4.3419   4.3590   4.3611   4.3746
  4.3752   4.3905   4.4006   4.4083   4.4139   4.4186   4.4365   4.4498
  4.4598   4.4692   4.4731   4.4849   4.5002   4.5042   4.5283   4.5712
  4.5762   4.5843   4.6076   4.6234   4.6298   4.6426   4.6576   4.6689
  4.6842   4.7060   4.7372   4.7526   4.7658   4.8047   4.8192   4.8314
  4.8524   4.8749   4.8912   4.9019   4.9430   4.9555   4.9841   4.9942
  5.0222   5.0394   5.0840   5.0986   5.1123   5.1299   5.1505   5.1825
  5.2003   5.2220   5.2320   5.2697   5.2762   5.2831   5.3120   5.3157
  5.3526   5.3733   5.3828   5.3975   5.4140   5.4218   5.4426   5.4575
  5.4721   5.5226   5.5244   5.5469   5.5487   5.5589   5.5765   5.5885
  5.6178   5.6260   5.6418   5.6548   5.6758   5.7003   5.7035   5.7458
  5.7604   5.7864   5.8336   5.9673   5.9894   6.0777   6.1237   6.1487
  6.2092   6.2188   6.2271   6.2359   6.2620   6.2760   6.3087   6.3274
  6.3820   6.5199   9.4809  10.6435  12.0265  12.9441  13.1817  13.9950
 14.0721  14.2249  14.3676  14.7277
 --------------------------------------------------------------
 
          Ground-State Mulliken Net Atomic Charges

     Atom                 Charge (a.u.)
  ----------------------------------------
      1 C                    -0.077667
      2 C                    -0.328537
      3 C                    -0.036078
      4 H                     0.176479
      5 C                     0.120247
      6 S                    -0.175476
      7 C                    -0.266234
      8 H                     0.113374
      9 H                     0.108185
     10 H                     0.100515
     11 C                    -0.118880
     12 C                    -0.226967
     13 C                     0.021707
     14 H                     0.186428
     15 C                    -0.245414
     16 S                     0.015013
     17 C                    -0.272310
     18 H                     0.103090
     19 H                     0.108288
     20 H                     0.107739
     21 H                     0.198322
     22 H                     0.112172
     23 H                     0.111307
     24 H                     0.164696
  ----------------------------------------
  Sum of atomic charges =     0.000000

 -----------------------------------------------------------------
                    Cartesian Multipole Moments
 -----------------------------------------------------------------
    Charge (ESU x 10^10)
                -0.0000
    Dipole Moment (Debye)
         X       2.0153      Y       0.6272      Z      -0.0713
       Tot       2.1118
    Quadrupole Moments (Debye-Ang)
        XX     -91.5245     XY      -2.8514     YY     -73.5672
        XZ       0.1606     YZ       3.5235     ZZ     -86.1031
    Octopole Moments (Debye-Ang^2)
       XXX       4.4226    XXY      39.9358    XYY      -1.7575
       YYY     125.3038    XXZ      -3.7722    XYZ       1.0360
       YYZ      -5.4641    XZZ      -0.4608    YZZ      55.9281
       ZZZ       5.9563
    Hexadecapole Moments (Debye-Ang^3)
      XXXX    -636.2042   XXXY     -28.4056   XXYY    -610.3355
      XYYY       2.0301   YYYY   -2785.7166   XXXZ      87.7355
      XXYZ     -17.8392   XYYZ      22.2762   YYYZ    -107.6116
      XXZZ    -217.4076   XYZZ      -2.9274   YYZZ    -606.8051
      XZZZ      96.1114   YZZZ     -98.6539   ZZZZ    -606.8032
 -----------------------------------------------------------------
 Total job time:  644.18s(wall), 640.23s(cpu) 
 Sun Jul 10 01:22:57 2022

        *************************************************************
        *                                                           *
        *  Thank you very much for using Q-Chem.  Have a nice day.  *
        *                                                           *
        *************************************************************


remove work dirs ./qchem3934412.0 -- ./qchem3934412.-1
rm -rf ./qchem3934412
You are running Q-Chem version: 5.4.0

#
# job setting
#
local host:  exp-4-15
current dir: /expanse/lustre/scratch/theleonzhang/temp_project/Hydrogenated_Rotation_Test
input file:  Methylthiophene_Phi_0_Theta_70_Methylthiophene_Hydrogenated_Alternate.qcin
output file: 
nprocs     : 0
nthreads   : 1
#
# qchem installation setting
#
QC:          /cm/shared/apps/spack/cpu/opt/spack/linux-centos8-zen2/gcc-10.2.0/qchem-5.4-akfmr7b3t57bfs6qan3padb2wnb2i7cl
QCAUX:       /cm/shared/apps/spack/cpu/opt/spack/linux-centos8-zen2/gcc-10.2.0/qchem-5.4-akfmr7b3t57bfs6qan3padb2wnb2i7cl/qcaux
QCPROG:      /cm/shared/apps/spack/cpu/opt/spack/linux-centos8-zen2/gcc-10.2.0/qchem-5.4-akfmr7b3t57bfs6qan3padb2wnb2i7cl/exe/qcprog.exe_s
QCPROG_S:    /cm/shared/apps/spack/cpu/opt/spack/linux-centos8-zen2/gcc-10.2.0/qchem-5.4-akfmr7b3t57bfs6qan3padb2wnb2i7cl/exe/qcprog.exe_s
PARALLEL:    -DSERIAL
QCMPI:       mpich
#
# qchem directory setting
#
qcrun:       qchem187968
QCSCRATCH:   .
QCLOCALSCR:  
QCTMPDIR:    .
QCFILEPREF:  ./qchem187968
QCSAVEDIR:   
workdirs:    ./qchem187968
workdir0:    ./qchem187968
partmpdirs =  
#
# parallel setting
#
QCRSH:           ssh
QCMPI:           mpich
QCMPIRUN:        /cm/shared/apps/spack/cpu/opt/spack/linux-centos8-zen2/gcc-10.2.0/qchem-5.4-akfmr7b3t57bfs6qan3padb2wnb2i7cl/bin/mpi/mpirun_qchem
QCMACHINEFILE:   ./qchem187968/hostfile

#
# env setting
#
exported envs:   QC QCAUX QCSCRATCH QCRUNNAME QCFILEPREF QCPROG QCPROG_S GUIFILE

Running Job 1 of 1 Methylthiophene_Phi_0_Theta_70_Methylthiophene_Hydrogenated_Alternate.qcin
qchem Methylthiophene_Phi_0_Theta_70_Methylthiophene_Hydrogenated_Alternate.qcin_187968.0 ./qchem187968/ 0
/cm/shared/apps/spack/cpu/opt/spack/linux-centos8-zen2/gcc-10.2.0/qchem-5.4-akfmr7b3t57bfs6qan3padb2wnb2i7cl/exe/qcprog.exe_s Methylthiophene_Phi_0_Theta_70_Methylthiophene_Hydrogenated_Alternate.qcin_187968.0 ./qchem187968/
                  Welcome to Q-Chem
     A Quantum Leap Into The Future Of Chemistry


 Q-Chem 5.4, Q-Chem, Inc., Pleasanton, CA (2021)

 License issued to: University of California, San Diego (site)

 E. Epifanovsky,  A. T. B. Gilbert,  Xintian Feng,  Joonho Lee,  Yuezhi Mao,  
 N. Mardirossian,  P. Pokhilko,  A. White,  M. Wormit,  M. P. Coons,  
 A. L. Dempwolff,  Zhengting Gan,  D. Hait,  P. R. Horn,  L. D. Jacobson,  
 I. Kaliman,  J. Kussmann,  A. W. Lange,  Ka Un Lao,  D. S. Levine,  Jie Liu,  
 S. C. McKenzie,  A. F. Morrison,  K. Nanda,  F. Plasser,  D. R. Rehn,  
 M. L. Vidal,  Zhi-Qiang You,  Ying Zhu,  B. Alam,  B. Albrecht,  
 A. Aldossary,  E. Alguire,  J. H. Andersen,  D. Barton,  K. Begam,  A. Behn,  
 Y. A. Bernard,  E. J. Berquist,  H. Burton,  A. Carreras,  K. Carter-Fenk,  
 R. Chakraborty,  A. D. Chien,  K. D. Closser,  V. Cofer-Shabica,  
 S. Dasgupta,  Jia Deng,  M. de Wergifosse,  M. Diedenhofen,  Hainam Do,  
 S. Ehlert,  Po-Tung Fang,  S. Fatehi,  Qingguo Feng,  J. Gayvert,  
 Qinghui Ge,  G. Gidofalvi,  M. Goldey,  J. Gomes,  C. Gonzalez-Espinoza,  
 S. Gulania,  A. Gunina,  M. W. D. Hanson-Heine,  P. H. P. Harbach,  
 A. W. Hauser,  M. F. Herbst,  M. Hernandez Vera,  M. Hodecker,  
 Z. C. Holden,  S. Houck,  Xunkun Huang,  Kerwin Hui,  B. C. Huynh,  
 M. Ivanov,  Hyunjun Ji,  Hanjie Jiang,  B. Kaduk,  S. Kaehler,  
 K. Khistyaev,  Jaehoon Kim,  P. Klunzinger,  Z. Koczor-Benda,  
 Joong Hoon Koh,  D. Kosenkov,  L. Koulias,  T. Kowalczyk,  C. M. Krauter,  
 K. Kue,  A. Kunitsa,  T. Kus,  A. Landau,  K. V. Lawler,  D. Lefrancois,  
 S. Lehtola,  Rain Li,  Yi-Pei Li,  Jiashu Liang,  M. Liebenthal,  
 Hung-Hsuan Lin,  You-Sheng Lin,  Fenglai Liu,  Kuan-Yu Liu,  
 M. Loipersberger,  A. Luenser,  A. Manjanath,  P. Manohar,  E. Mansoor,  
 S. F. Manzer,  Shan-Ping Mao,  A. V. Marenich,  T. Markovich,  S. Mason,  
 S. A. Maurer,  P. F. McLaughlin,  M. F. S. J. Menger,  J.-M. Mewes,  
 S. A. Mewes,  P. Morgante,  J. W. Mullinax,  T. S. Nguyen-Beck,  
 K. J. Oosterbaan,  G. Paran,  Alexander C. Paul,  Suranjan K. Paul,  
 F. Pavosevic,  Zheng Pei,  S. Prager,  E. I. Proynov,  E. Ramos,  B. Rana,  
 A. E. Rask,  A. Rettig,  R. M. Richard,  F. Rob,  E. Rossomme,  T. Scheele,  
 M. Scheurer,  M. Schneider,  N. Sergueev,  S. M. Sharada,  W. Skomorowski,  
 D. W. Small,  C. J. Stein,  Yu-Chuan Su,  E. J. Sundstrom,  Zhen Tao,  
 J. Thirman,  T. Tsuchimochi,  N. M. Tubman,  S. P. Veccham,  O. Vydrov,  
 J. Wenzel,  J. Witte,  A. Yamada,  Kun Yao,  S. Yeganeh,  S. R. Yost,  
 A. Zech,  Igor Ying Zhang,  Xing Zhang,  Yu Zhang,  D. Zuev,  
 A. Aspuru-Guzik,  A. T. Bell,  N. A. Besley,  K. B. Bravaya,  B. R. Brooks,  
 D. Casanova,  Jeng-Da Chai,  S. Coriani,  C. J. Cramer,  
 A. E. DePrince, III,  R. A. DiStasio Jr.,  A. Dreuw,  B. D. Dunietz,  
 T. R. Furlani,  W. A. Goddard III,  S. Grimme,  S. Hammes-Schiffer,  
 T. Head-Gordon,  W. J. Hehre,  Chao-Ping Hsu,  T.-C. Jagau,  Yousung Jung,  
 A. Klamt,  Jing Kong,  D. S. Lambrecht,  WanZhen Liang,  N. J. Mayhall,  
 C. W. McCurdy,  J. B. Neaton,  C. Ochsenfeld,  J. A. Parkhill,  R. Peverati,  
 V. A. Rassolov,  Yihan Shao,  L. V. Slipchenko,  T. Stauch,  R. P. Steele,  
 J. E. Subotnik,  A. J. W. Thom,  A. Tkatchenko,  D. G. Truhlar,  
 T. Van Voorhis,  T. A. Wesolowski,  K. B. Whaley,  H. L. Woodcock III,  
 P. M. Zimmerman,  S. Faraji,  P. M. W. Gill,  M. Head-Gordon,  
 J. M. Herbert,  A. I. Krylov

 Contributors to earlier versions of Q-Chem not listed above: 
 R. D. Adamson,  B. Austin,  R. Baer,  J. Baker,  G. J. O. Beran,  
 K. Brandhorst,  S. T. Brown,  E. F. C. Byrd,  A. K. Chakraborty,  
 G. K. L. Chan,  Chun-Min Chang,  Yunqing Chen,  C.-L. Cheng,  
 Siu Hung Chien,  D. M. Chipman,  D. L. Crittenden,  H. Dachsel,  
 R. J. Doerksen,  A. D. Dutoi,  R. G. Edgar,  J. Fosso-Tande,  
 L. Fusti-Molnar,  D. Ghosh,  A. Ghysels,  A. Golubeva-Zadorozhnaya,  
 J. Gonthier,  M. S. Gordon,  S. R. Gwaltney,  G. Hawkins,  J. E. Herr,  
 A. Heyden,  S. Hirata,  E. G. Hohenstein,  G. Kedziora,  F. J. Keil,  
 C. Kelley,  Jihan Kim,  R. A. King,  R. Z. Khaliullin,  P. P. Korambath,  
 W. Kurlancheek,  A. Laurent,  A. M. Lee,  M. S. Lee,  S. V. Levchenko,  
 Ching Yeh Lin,  D. Liotard,  E. Livshits,  R. C. Lochan,  I. Lotan,  
 L. A. Martinez-Martinez,  P. E. Maslen,  N. Nair,  D. P. O'Neill,  
 D. Neuhauser,  E. Neuscamman,  C. M. Oana,  R. Olivares-Amaya,  R. Olson,  
 T. M. Perrine,  B. Peters,  P. A. Pieniazek,  A. Prociuk,  Y. M. Rhee,  
 J. Ritchie,  M. A. Rohrdanz,  E. Rosta,  N. J. Russ,  H. F. Schaefer III,  
 M. W. Schmidt,  N. E. Schultz,  S. Sharma,  N. Shenvi,  C. D. Sherrill,  
 A. C. Simmonett,  A. Sodt,  T. Stein,  D. Stuck,  K. S. Thanthiriwatte,  
 V. Vanovschi,  L. Vogt,  Tao Wang,  A. Warshel,  M. A. Watson,  
 C. F. Williams,  Q. Wu,  X. Xu,  Jun Yang,  W. Zhang,  Yan Zhao

 Please cite Q-Chem as follows:
 Y. Shao et al., Mol. Phys. 113, 184-215 (2015)
 DOI: 10.1080/00268976.2014.952696

 Q-Chem 5.4.0 for Intel X86 EM64T Linux

 Parts of Q-Chem use Armadillo 9.800.1 (Horizon Scraper).
 http://arma.sourceforge.net/

 Q-Chem begins on Sun Jul 10 01:43:04 2022  

 Host: 
0

     Scratch files written to ./qchem187968//
 May1621 |scratch|qcdevops|jenkins|workspace|build_RNUM    
 Processing $rem in /cm/shared/apps/spack/cpu/opt/spack/linux-centos8-zen2/gcc-10.2.0/qchem-5.4-akfmr7b3t57bfs6qan3padb2wnb2i7cl/config/preferences:
 Processing $rem in /home/theleonzhang/.qchemrc:
 Symmetry turned off for PCM/SM12/SMD calculation
 Core orbitals will be frozen

 Checking the input file for inconsistencies... 	...done.

--------------------------------------------------------------
User input:
--------------------------------------------------------------
$molecule
0 1
C	-0.728625	-3.866725	0.264439
C	0.575519	-3.703963	-0.209794
C	1.002336	-2.357056	-0.364749
H	1.224165	-4.561092	-0.446060
C	0.000000	-1.440664	0.000000
S	-1.451336	-2.286957	0.528253
C	2.369885	-1.978743	-0.862253
H	2.976034	-2.878678	-1.082953
H	2.927887	-1.376015	-0.115513
H	2.317620	-1.375728	-1.792797
C	0.000000	0.000000	0.000000
C	0.000033	0.863600	1.099446
C	0.000052	2.247508	0.776721
H	0.000026	0.494801	2.136088
C	0.000074	2.468165	-0.612546
S	0.000024	0.942399	-1.486809
C	0.000075	3.335257	1.814609
H	0.000074	2.909620	2.836676
H	-0.892314	3.989552	1.726239
H	0.892483	3.989525	1.726228
H	0.000094	3.417382	-1.161575
H	-0.745219	-4.392713	1.225465
H	-1.359038	-4.392347	-0.461378
H	-0.369273	-1.440391	-1.014907
$end

$rem
JOBTYPE		SP
EXCHANGE	HF
CORRELATION	pRIMP2
BASIS		cc-pvtz
METHOD		rimp2
AUX_BASIS	rimp2-cc-pvtz
SOLVENT_METHOD	PCM
PURECART	11111
SYMMETRY	false
MEM_TOTAL	110000
SCF_CONVERGENCE = 6
THRESH=10
$end



$solvent
dielectric 4.90
$end
--------------------------------------------------------------
 ----------------------------------------------------------------
             Standard Nuclear Orientation (Angstroms)
    I     Atom           X                Y                Z
 ----------------------------------------------------------------
    1      C      -0.7286250000    -3.8667250000     0.2644390000
    2      C       0.5755190000    -3.7039630000    -0.2097940000
    3      C       1.0023360000    -2.3570560000    -0.3647490000
    4      H       1.2241650000    -4.5610920000    -0.4460600000
    5      C       0.0000000000    -1.4406640000     0.0000000000
    6      S      -1.4513360000    -2.2869570000     0.5282530000
    7      C       2.3698850000    -1.9787430000    -0.8622530000
    8      H       2.9760340000    -2.8786780000    -1.0829530000
    9      H       2.9278870000    -1.3760150000    -0.1155130000
   10      H       2.3176200000    -1.3757280000    -1.7927970000
   11      C       0.0000000000     0.0000000000     0.0000000000
   12      C       0.0000330000     0.8636000000     1.0994460000
   13      C       0.0000520000     2.2475080000     0.7767210000
   14      H       0.0000260000     0.4948010000     2.1360880000
   15      C       0.0000740000     2.4681650000    -0.6125460000
   16      S       0.0000240000     0.9423990000    -1.4868090000
   17      C       0.0000750000     3.3352570000     1.8146090000
   18      H       0.0000740000     2.9096200000     2.8366760000
   19      H      -0.8923140000     3.9895520000     1.7262390000
   20      H       0.8924830000     3.9895250000     1.7262280000
   21      H       0.0000940000     3.4173820000    -1.1615750000
   22      H      -0.7452190000    -4.3927130000     1.2254650000
   23      H      -1.3590380000    -4.3923470000    -0.4613780000
   24      H      -0.3692730000    -1.4403910000    -1.0149070000
 ----------------------------------------------------------------
 Nuclear Repulsion Energy =         872.02810759 hartrees
 There are       52 alpha and       52 beta electrons

 Q-Chem warning in module forms1/BasisType.C, line 2236:

 You are not using the predefined 5D/6D in this basis set.

 Requested basis set is cc-pVTZ
 There are 196 shells and 536 basis functions

 Total QAlloc Memory Limit 110000 MB
 Mega-Array Size       188 MB
 MEM_STATIC part       192 MB
 Discretize the solute cavity surface with Lebedev spheres
	Using 110 Lebedev grid points for each H atom
	Using 194 Lebedev grid points for other atoms
	Atomic van der Waals radii will be scaled by 1.20
 Remove points where switching function is < 1.0e-08
 Keep 1626 surface tesserae and discard 2022 interior tesserae
 Molecular Surface Area = 238.195 Angst**2
 Requested basis set is rimp2-cc-pVTZ
 There are 414 shells and 1414 basis functions
 A cutoff of  1.0D-10 yielded  13865 shell pairs
 There are    100597 function pairs (    129097 Cartesian)
 Smallest overlap matrix eigenvalue = 5.77E-05

 Scale SEOQF with 1.000000e-01/1.000000e-01/1.000000e-01

 Standard Electronic Orientation quadrupole field applied
 Nucleus-field energy     =     0.0000000355 hartrees
 Guess from superposition of atomic densities
 Warning:  Energy on first SCF cycle will be non-variational
 SAD guess density has 104.000000 electrons

 -----------------------------------------------------------------------
  General SCF calculation program by
  Eric Jon Sundstrom, Paul Horn, Yuezhi Mao, Dmitri Zuev, Alec White,
  David Stuck, Shaama M.S., Shane Yost, Joonho Lee, David Small,
  Daniel Levine, Susi Lehtola, Hugh Burton, Evgeny Epifanovsky,
  Bang C. Huynh
 -----------------------------------------------------------------------
 Hartree-Fock
 A restricted SCF calculation will be
 performed using DIIS
 SCF converges when DIIS error is below 1.0e-06
 ---------------------------------------
  Cycle       Energy         DIIS error
 ---------------------------------------
    1   -1186.0193714769      2.39e-02  
    2   -1180.6155554444      1.56e-03  
    3   -1180.7403832474      6.14e-04  
    4   -1180.7548124917      3.34e-04  
    5   -1180.7599164916      6.08e-05  
    6   -1180.7601682871      2.48e-05  
    7   -1180.7602295676      9.24e-06  
    8   -1180.7602436528      4.48e-06  
    9   -1180.7602469176      1.48e-06  
   10   -1180.7602473997      4.97e-07  Convergence criterion met
 ---------------------------------------
 SCF time:   CPU 571.04s  wall 573.00s 

************** Final PCM Free Energy Summary **************
 G_electrostatic  =      -0.00842405 hartree =      -5.28617001 kcal/mol
 G_cavitation     =       0.00000000 hartree =       0.00000000 kcal/mol
 G_dispersion     =       0.00000000 hartree =       0.00000000 kcal/mol
 G_repulsion      =       0.00000000 hartree =       0.00000000 kcal/mol
 --------------------------------------------------
 Non-electrostatic Free Energy =       0.00000000 hartree =       0.00000000 kcal/mol
 Total                         =      -0.00842405 hartree =      -5.28617001 kcal/mol
 --------------------------------------------------
 SCF Energy (H0 + V/2)                       =   -1180.76024740 
 Solute Internal Energy (H0)                 =   -1180.75182335 
 Total Free Energy (H0 + V/2 + non-elec)     =   -1180.76024740 hartree
                                             = -740938.23822362 kcal/mol
***********************************************************

 SCF   energy in the final basis set =    -1180.7602473997
 Total energy in the final basis set =    -1180.7602473997


 --------------------------------------------------------------
  Generalized many-body perturbation theory program
  by Joonho Lee, Fazle Rob, Xintian Feng, Evgeny Epifanovsky

 No regularization used 
 (reg. param. = 0.0000e+00)
  (P|Q)^-1/2 Time:  CPU 1.93 s  wall 1.93 s

 In RI-MP2 calculation: 
 # of frozen core orbitals: 20

 Components of the RIMP2 correlation energy:
        aaaa    correlation energy =        -0.2509341433 a.u.
        abab    correlation energy =        -1.5023386884 a.u.
        bbbb    correlation energy =        -0.2509341433 a.u.
        non-Brillouin singles      =        -0.0000000000 a.u.
        total same-spin energy     =        -0.5018682866 a.u.
        total opposite-spin energy =        -1.5023386884 a.u.

 Total  RIMP2   correlation energy =        -2.0042069750 a.u.
        RIMP2         total energy =     -1182.7644543747 a.u.

 RI-MP2 Energy Time:  CPU 80.53 s  wall 80.73 s
 
 --------------------------------------------------------------
 
                    Orbital Energies (a.u.)
 --------------------------------------------------------------
 
 Alpha MOs
 -- Occupied --
-91.9864 -91.9422 -11.2803 -11.2643 -11.2629 -11.2558 -11.2510 -11.2409
-11.2378 -11.2313 -11.2286 -11.2192  -8.9860  -8.9467  -6.6669  -6.6664
 -6.6658  -6.6281  -6.6271  -6.6258  -1.1985  -1.1536  -1.0590  -1.0257
 -1.0041  -0.9618  -0.9136  -0.9004  -0.8129  -0.7661  -0.7360  -0.7040
 -0.6543  -0.6353  -0.6108  -0.5889  -0.5762  -0.5737  -0.5693  -0.5536
 -0.5424  -0.5306  -0.5135  -0.5054  -0.4903  -0.4829  -0.4634  -0.4477
 -0.3558  -0.3422  -0.3148  -0.2795
 -- Virtual --
  0.0960   0.1295   0.1431   0.1494   0.1600   0.1662   0.1800   0.1834
  0.1866   0.1963   0.2034   0.2125   0.2225   0.2347   0.2409   0.2442
  0.2520   0.2570   0.2692   0.2922   0.3038   0.3377   0.3410   0.3533
  0.3655   0.3740   0.3777   0.3840   0.3952   0.4058   0.4107   0.4269
  0.4418   0.4490   0.4548   0.4604   0.4641   0.4736   0.4859   0.4898
  0.4993   0.5110   0.5222   0.5306   0.5341   0.5447   0.5475   0.5572
  0.5678   0.5760   0.5808   0.5864   0.6038   0.6073   0.6113   0.6194
  0.6211   0.6263   0.6344   0.6354   0.6410   0.6420   0.6501   0.6535
  0.6632   0.6726   0.6843   0.6859   0.6918   0.7077   0.7121   0.7191
  0.7315   0.7451   0.7525   0.7707   0.7847   0.8005   0.8048   0.8256
  0.8293   0.8357   0.8465   0.8567   0.8654   0.8872   0.9013   0.9145
  0.9270   0.9425   0.9512   0.9603   0.9741   0.9891   0.9969   1.0083
  1.0230   1.0275   1.0340   1.0478   1.0564   1.0722   1.0767   1.0843
  1.0909   1.0959   1.1071   1.1185   1.1238   1.1358   1.1607   1.1636
  1.1793   1.1860   1.1948   1.2113   1.2174   1.2215   1.2413   1.2482
  1.2522   1.2601   1.2637   1.2784   1.2870   1.2981   1.3057   1.3187
  1.3324   1.3330   1.3484   1.3539   1.3747   1.3840   1.4053   1.4112
  1.4215   1.4303   1.4450   1.4551   1.4628   1.4803   1.4862   1.4961
  1.4993   1.5120   1.5201   1.5287   1.5358   1.5398   1.5444   1.5539
  1.5679   1.5747   1.5868   1.5949   1.6119   1.6234   1.6308   1.6395
  1.6545   1.6667   1.6762   1.6946   1.6982   1.7131   1.7246   1.7331
  1.7412   1.7493   1.7751   1.7837   1.7975   1.8316   1.8390   1.8548
  1.8856   1.9053   1.9204   1.9403   1.9420   1.9705   1.9962   2.0094
  2.0131   2.0213   2.0265   2.0454   2.0900   2.1185   2.1260   2.1597
  2.1804   2.1913   2.2144   2.2206   2.2337   2.2583   2.2657   2.2845
  2.3070   2.3425   2.3455   2.3708   2.3913   2.4278   2.4474   2.4610
  2.4882   2.5173   2.5326   2.5410   2.5646   2.5880   2.6096   2.6140
  2.6240   2.6446   2.6511   2.6578   2.6781   2.6937   2.7048   2.7119
  2.7399   2.7507   2.7525   2.7566   2.7747   2.7792   2.7906   2.8275
  2.8361   2.8432   2.8546   2.8822   2.8897   2.9053   2.9127   2.9167
  2.9246   2.9634   2.9698   2.9927   3.0081   3.0193   3.0384   3.0455
  3.0543   3.0655   3.0906   3.1055   3.1118   3.1252   3.1304   3.1419
  3.1492   3.1540   3.1617   3.1701   3.1810   3.1970   3.2046   3.2265
  3.2320   3.2428   3.2473   3.2616   3.2763   3.2841   3.2973   3.3015
  3.3036   3.3200   3.3298   3.3341   3.3439   3.3525   3.3604   3.3685
  3.3829   3.3869   3.3893   3.3996   3.4090   3.4155   3.4180   3.4325
  3.4441   3.4490   3.4636   3.4793   3.4831   3.4915   3.4959   3.5123
  3.5134   3.5236   3.5306   3.5375   3.5467   3.5565   3.5653   3.5758
  3.5811   3.5991   3.6064   3.6212   3.6302   3.6370   3.6494   3.6540
  3.6651   3.6854   3.6905   3.6943   3.7078   3.7174   3.7326   3.7424
  3.7447   3.7490   3.7749   3.7754   3.7867   3.7961   3.8021   3.8217
  3.8238   3.8360   3.8483   3.8726   3.8835   3.8958   3.8969   3.9089
  3.9178   3.9334   3.9394   3.9547   3.9755   3.9920   3.9948   4.0123
  4.0192   4.0495   4.0545   4.0559   4.0675   4.0816   4.0912   4.1073
  4.1194   4.1412   4.1493   4.1554   4.1607   4.1734   4.1758   4.2042
  4.2135   4.2214   4.2346   4.2425   4.2505   4.2674   4.2717   4.2771
  4.2828   4.2975   4.3134   4.3283   4.3419   4.3590   4.3611   4.3746
  4.3752   4.3905   4.4006   4.4083   4.4139   4.4186   4.4365   4.4498
  4.4598   4.4692   4.4731   4.4849   4.5002   4.5042   4.5283   4.5712
  4.5762   4.5843   4.6076   4.6234   4.6298   4.6426   4.6576   4.6689
  4.6842   4.7060   4.7372   4.7526   4.7658   4.8047   4.8192   4.8314
  4.8524   4.8749   4.8912   4.9019   4.9430   4.9555   4.9841   4.9942
  5.0222   5.0394   5.0840   5.0986   5.1123   5.1299   5.1505   5.1825
  5.2003   5.2220   5.2320   5.2697   5.2762   5.2831   5.3120   5.3157
  5.3526   5.3733   5.3828   5.3975   5.4140   5.4218   5.4426   5.4575
  5.4721   5.5226   5.5244   5.5469   5.5487   5.5589   5.5765   5.5885
  5.6178   5.6260   5.6418   5.6548   5.6758   5.7003   5.7035   5.7458
  5.7604   5.7864   5.8336   5.9673   5.9894   6.0777   6.1237   6.1487
  6.2092   6.2188   6.2271   6.2359   6.2620   6.2760   6.3087   6.3274
  6.3820   6.5199   9.4809  10.6435  12.0265  12.9441  13.1817  13.9950
 14.0721  14.2249  14.3676  14.7277
 --------------------------------------------------------------
 
          Ground-State Mulliken Net Atomic Charges

     Atom                 Charge (a.u.)
  ----------------------------------------
      1 C                    -0.077667
      2 C                    -0.328537
      3 C                    -0.036078
      4 H                     0.176479
      5 C                     0.120247
      6 S                    -0.175476
      7 C                    -0.266234
      8 H                     0.113374
      9 H                     0.108185
     10 H                     0.100515
     11 C                    -0.118880
     12 C                    -0.226967
     13 C                     0.021707
     14 H                     0.186428
     15 C                    -0.245414
     16 S                     0.015013
     17 C                    -0.272310
     18 H                     0.103090
     19 H                     0.108288
     20 H                     0.107739
     21 H                     0.198322
     22 H                     0.112172
     23 H                     0.111307
     24 H                     0.164696
  ----------------------------------------
  Sum of atomic charges =     0.000000

 -----------------------------------------------------------------
                    Cartesian Multipole Moments
 -----------------------------------------------------------------
    Charge (ESU x 10^10)
                -0.0000
    Dipole Moment (Debye)
         X       2.0153      Y       0.6272      Z      -0.0713
       Tot       2.1118
    Quadrupole Moments (Debye-Ang)
        XX     -91.5245     XY      -2.8514     YY     -73.5672
        XZ       0.1606     YZ       3.5235     ZZ     -86.1031
    Octopole Moments (Debye-Ang^2)
       XXX       4.4226    XXY      39.9358    XYY      -1.7575
       YYY     125.3038    XXZ      -3.7722    XYZ       1.0360
       YYZ      -5.4641    XZZ      -0.4608    YZZ      55.9281
       ZZZ       5.9563
    Hexadecapole Moments (Debye-Ang^3)
      XXXX    -636.2042   XXXY     -28.4056   XXYY    -610.3355
      XYYY       2.0301   YYYY   -2785.7166   XXXZ      87.7355
      XXYZ     -17.8392   XYYZ      22.2762   YYYZ    -107.6116
      XXZZ    -217.4076   XYZZ      -2.9274   YYZZ    -606.8051
      XZZZ      96.1114   YZZZ     -98.6539   ZZZZ    -606.8032
 -----------------------------------------------------------------
 Total job time:  654.82s(wall), 652.47s(cpu) 
 Sun Jul 10 01:53:59 2022

        *************************************************************
        *                                                           *
        *  Thank you very much for using Q-Chem.  Have a nice day.  *
        *                                                           *
        *************************************************************


remove work dirs ./qchem187968.0 -- ./qchem187968.-1
rm -rf ./qchem187968
