You are running Q-Chem version: 5.4.0

#
# job setting
#
local host:  exp-1-52
current dir: /expanse/lustre/scratch/theleonzhang/temp_project/Hydrogenated_Rotation_Test
input file:  Methylthiophene_Phi_20_Theta_50_Methylthiophene_Hydrogenated_Alternate.qcin
output file: 
nprocs     : 0
nthreads   : 1
#
# qchem installation setting
#
QC:          /cm/shared/apps/spack/cpu/opt/spack/linux-centos8-zen2/gcc-10.2.0/qchem-5.4-akfmr7b3t57bfs6qan3padb2wnb2i7cl
QCAUX:       /cm/shared/apps/spack/cpu/opt/spack/linux-centos8-zen2/gcc-10.2.0/qchem-5.4-akfmr7b3t57bfs6qan3padb2wnb2i7cl/qcaux
QCPROG:      /cm/shared/apps/spack/cpu/opt/spack/linux-centos8-zen2/gcc-10.2.0/qchem-5.4-akfmr7b3t57bfs6qan3padb2wnb2i7cl/exe/qcprog.exe_s
QCPROG_S:    /cm/shared/apps/spack/cpu/opt/spack/linux-centos8-zen2/gcc-10.2.0/qchem-5.4-akfmr7b3t57bfs6qan3padb2wnb2i7cl/exe/qcprog.exe_s
PARALLEL:    -DSERIAL
QCMPI:       mpich
#
# qchem directory setting
#
qcrun:       qchem2924361
QCSCRATCH:   .
QCLOCALSCR:  
QCTMPDIR:    .
QCFILEPREF:  ./qchem2924361
QCSAVEDIR:   
workdirs:    ./qchem2924361
workdir0:    ./qchem2924361
partmpdirs =  
#
# parallel setting
#
QCRSH:           ssh
QCMPI:           mpich
QCMPIRUN:        /cm/shared/apps/spack/cpu/opt/spack/linux-centos8-zen2/gcc-10.2.0/qchem-5.4-akfmr7b3t57bfs6qan3padb2wnb2i7cl/bin/mpi/mpirun_qchem
QCMACHINEFILE:   ./qchem2924361/hostfile

#
# env setting
#
exported envs:   QC QCAUX QCSCRATCH QCRUNNAME QCFILEPREF QCPROG QCPROG_S GUIFILE

Running Job 1 of 1 Methylthiophene_Phi_20_Theta_50_Methylthiophene_Hydrogenated_Alternate.qcin
qchem Methylthiophene_Phi_20_Theta_50_Methylthiophene_Hydrogenated_Alternate.qcin_2924361.0 ./qchem2924361/ 0
/cm/shared/apps/spack/cpu/opt/spack/linux-centos8-zen2/gcc-10.2.0/qchem-5.4-akfmr7b3t57bfs6qan3padb2wnb2i7cl/exe/qcprog.exe_s Methylthiophene_Phi_20_Theta_50_Methylthiophene_Hydrogenated_Alternate.qcin_2924361.0 ./qchem2924361/
                  Welcome to Q-Chem
     A Quantum Leap Into The Future Of Chemistry


 Q-Chem 5.4, Q-Chem, Inc., Pleasanton, CA (2021)

 License issued to: University of California, San Diego (site)

 E. Epifanovsky,  A. T. B. Gilbert,  Xintian Feng,  Joonho Lee,  Yuezhi Mao,  
 N. Mardirossian,  P. Pokhilko,  A. White,  M. Wormit,  M. P. Coons,  
 A. L. Dempwolff,  Zhengting Gan,  D. Hait,  P. R. Horn,  L. D. Jacobson,  
 I. Kaliman,  J. Kussmann,  A. W. Lange,  Ka Un Lao,  D. S. Levine,  Jie Liu,  
 S. C. McKenzie,  A. F. Morrison,  K. Nanda,  F. Plasser,  D. R. Rehn,  
 M. L. Vidal,  Zhi-Qiang You,  Ying Zhu,  B. Alam,  B. Albrecht,  
 A. Aldossary,  E. Alguire,  J. H. Andersen,  D. Barton,  K. Begam,  A. Behn,  
 Y. A. Bernard,  E. J. Berquist,  H. Burton,  A. Carreras,  K. Carter-Fenk,  
 R. Chakraborty,  A. D. Chien,  K. D. Closser,  V. Cofer-Shabica,  
 S. Dasgupta,  Jia Deng,  M. de Wergifosse,  M. Diedenhofen,  Hainam Do,  
 S. Ehlert,  Po-Tung Fang,  S. Fatehi,  Qingguo Feng,  J. Gayvert,  
 Qinghui Ge,  G. Gidofalvi,  M. Goldey,  J. Gomes,  C. Gonzalez-Espinoza,  
 S. Gulania,  A. Gunina,  M. W. D. Hanson-Heine,  P. H. P. Harbach,  
 A. W. Hauser,  M. F. Herbst,  M. Hernandez Vera,  M. Hodecker,  
 Z. C. Holden,  S. Houck,  Xunkun Huang,  Kerwin Hui,  B. C. Huynh,  
 M. Ivanov,  Hyunjun Ji,  Hanjie Jiang,  B. Kaduk,  S. Kaehler,  
 K. Khistyaev,  Jaehoon Kim,  P. Klunzinger,  Z. Koczor-Benda,  
 Joong Hoon Koh,  D. Kosenkov,  L. Koulias,  T. Kowalczyk,  C. M. Krauter,  
 K. Kue,  A. Kunitsa,  T. Kus,  A. Landau,  K. V. Lawler,  D. Lefrancois,  
 S. Lehtola,  Rain Li,  Yi-Pei Li,  Jiashu Liang,  M. Liebenthal,  
 Hung-Hsuan Lin,  You-Sheng Lin,  Fenglai Liu,  Kuan-Yu Liu,  
 M. Loipersberger,  A. Luenser,  A. Manjanath,  P. Manohar,  E. Mansoor,  
 S. F. Manzer,  Shan-Ping Mao,  A. V. Marenich,  T. Markovich,  S. Mason,  
 S. A. Maurer,  P. F. McLaughlin,  M. F. S. J. Menger,  J.-M. Mewes,  
 S. A. Mewes,  P. Morgante,  J. W. Mullinax,  T. S. Nguyen-Beck,  
 K. J. Oosterbaan,  G. Paran,  Alexander C. Paul,  Suranjan K. Paul,  
 F. Pavosevic,  Zheng Pei,  S. Prager,  E. I. Proynov,  E. Ramos,  B. Rana,  
 A. E. Rask,  A. Rettig,  R. M. Richard,  F. Rob,  E. Rossomme,  T. Scheele,  
 M. Scheurer,  M. Schneider,  N. Sergueev,  S. M. Sharada,  W. Skomorowski,  
 D. W. Small,  C. J. Stein,  Yu-Chuan Su,  E. J. Sundstrom,  Zhen Tao,  
 J. Thirman,  T. Tsuchimochi,  N. M. Tubman,  S. P. Veccham,  O. Vydrov,  
 J. Wenzel,  J. Witte,  A. Yamada,  Kun Yao,  S. Yeganeh,  S. R. Yost,  
 A. Zech,  Igor Ying Zhang,  Xing Zhang,  Yu Zhang,  D. Zuev,  
 A. Aspuru-Guzik,  A. T. Bell,  N. A. Besley,  K. B. Bravaya,  B. R. Brooks,  
 D. Casanova,  Jeng-Da Chai,  S. Coriani,  C. J. Cramer,  
 A. E. DePrince, III,  R. A. DiStasio Jr.,  A. Dreuw,  B. D. Dunietz,  
 T. R. Furlani,  W. A. Goddard III,  S. Grimme,  S. Hammes-Schiffer,  
 T. Head-Gordon,  W. J. Hehre,  Chao-Ping Hsu,  T.-C. Jagau,  Yousung Jung,  
 A. Klamt,  Jing Kong,  D. S. Lambrecht,  WanZhen Liang,  N. J. Mayhall,  
 C. W. McCurdy,  J. B. Neaton,  C. Ochsenfeld,  J. A. Parkhill,  R. Peverati,  
 V. A. Rassolov,  Yihan Shao,  L. V. Slipchenko,  T. Stauch,  R. P. Steele,  
 J. E. Subotnik,  A. J. W. Thom,  A. Tkatchenko,  D. G. Truhlar,  
 T. Van Voorhis,  T. A. Wesolowski,  K. B. Whaley,  H. L. Woodcock III,  
 P. M. Zimmerman,  S. Faraji,  P. M. W. Gill,  M. Head-Gordon,  
 J. M. Herbert,  A. I. Krylov

 Contributors to earlier versions of Q-Chem not listed above: 
 R. D. Adamson,  B. Austin,  R. Baer,  J. Baker,  G. J. O. Beran,  
 K. Brandhorst,  S. T. Brown,  E. F. C. Byrd,  A. K. Chakraborty,  
 G. K. L. Chan,  Chun-Min Chang,  Yunqing Chen,  C.-L. Cheng,  
 Siu Hung Chien,  D. M. Chipman,  D. L. Crittenden,  H. Dachsel,  
 R. J. Doerksen,  A. D. Dutoi,  R. G. Edgar,  J. Fosso-Tande,  
 L. Fusti-Molnar,  D. Ghosh,  A. Ghysels,  A. Golubeva-Zadorozhnaya,  
 J. Gonthier,  M. S. Gordon,  S. R. Gwaltney,  G. Hawkins,  J. E. Herr,  
 A. Heyden,  S. Hirata,  E. G. Hohenstein,  G. Kedziora,  F. J. Keil,  
 C. Kelley,  Jihan Kim,  R. A. King,  R. Z. Khaliullin,  P. P. Korambath,  
 W. Kurlancheek,  A. Laurent,  A. M. Lee,  M. S. Lee,  S. V. Levchenko,  
 Ching Yeh Lin,  D. Liotard,  E. Livshits,  R. C. Lochan,  I. Lotan,  
 L. A. Martinez-Martinez,  P. E. Maslen,  N. Nair,  D. P. O'Neill,  
 D. Neuhauser,  E. Neuscamman,  C. M. Oana,  R. Olivares-Amaya,  R. Olson,  
 T. M. Perrine,  B. Peters,  P. A. Pieniazek,  A. Prociuk,  Y. M. Rhee,  
 J. Ritchie,  M. A. Rohrdanz,  E. Rosta,  N. J. Russ,  H. F. Schaefer III,  
 M. W. Schmidt,  N. E. Schultz,  S. Sharma,  N. Shenvi,  C. D. Sherrill,  
 A. C. Simmonett,  A. Sodt,  T. Stein,  D. Stuck,  K. S. Thanthiriwatte,  
 V. Vanovschi,  L. Vogt,  Tao Wang,  A. Warshel,  M. A. Watson,  
 C. F. Williams,  Q. Wu,  X. Xu,  Jun Yang,  W. Zhang,  Yan Zhao

 Please cite Q-Chem as follows:
 Y. Shao et al., Mol. Phys. 113, 184-215 (2015)
 DOI: 10.1080/00268976.2014.952696

 Q-Chem 5.4.0 for Intel X86 EM64T Linux

 Parts of Q-Chem use Armadillo 9.800.1 (Horizon Scraper).
 http://arma.sourceforge.net/

 Q-Chem begins on Sun Jul 10 01:02:03 2022  

 Host: 
0

     Scratch files written to ./qchem2924361//
 May1621 |scratch|qcdevops|jenkins|workspace|build_RNUM    
 Processing $rem in /cm/shared/apps/spack/cpu/opt/spack/linux-centos8-zen2/gcc-10.2.0/qchem-5.4-akfmr7b3t57bfs6qan3padb2wnb2i7cl/config/preferences:
 Processing $rem in /home/theleonzhang/.qchemrc:
 Symmetry turned off for PCM/SM12/SMD calculation
 Core orbitals will be frozen

 Checking the input file for inconsistencies... 	...done.

--------------------------------------------------------------
User input:
--------------------------------------------------------------
$molecule
0 1
C	-0.594240	-3.866725	0.497696
C	0.469057	-3.703963	-0.393981
C	0.817136	-2.357056	-0.685571
H	0.997777	-4.561092	-0.837848
C	0.000000	-1.440664	0.000000
S	-1.183137	-2.286957	0.992782
C	1.932056	-1.978743	-1.620802
H	2.426166	-2.878678	-2.035506
H	2.711806	-1.376015	-1.109943
H	1.564678	-1.375728	-2.477350
C	0.000000	0.000000	0.000000
C	0.295399	0.811508	1.099446
C	0.768742	2.111949	0.776721
H	0.169256	0.464952	2.136088
C	0.844232	2.319291	-0.612546
S	0.322342	0.885558	-1.486809
C	1.140796	3.134091	1.814609
H	0.995218	2.734123	2.836676
H	0.526006	4.054142	1.726239
H	2.203157	3.443680	1.726228
H	1.168902	3.211257	-1.161575
H	-0.281143	-4.392713	1.406441
H	-1.434879	-4.392347	0.031265
H	0.694122	-1.440937	0.827402
$end

$rem
JOBTYPE		SP
EXCHANGE	HF
CORRELATION	pRIMP2
BASIS		cc-pvtz
METHOD		rimp2
AUX_BASIS	rimp2-cc-pvtz
SOLVENT_METHOD	PCM
PURECART	11111
SYMMETRY	false
MEM_TOTAL	110000
SCF_CONVERGENCE = 6
THRESH=10
$end



$solvent
dielectric 4.90
$end
--------------------------------------------------------------
 ----------------------------------------------------------------
             Standard Nuclear Orientation (Angstroms)
    I     Atom           X                Y                Z
 ----------------------------------------------------------------
    1      C      -0.5942400000    -3.8667250000     0.4976960000
    2      C       0.4690570000    -3.7039630000    -0.3939810000
    3      C       0.8171360000    -2.3570560000    -0.6855710000
    4      H       0.9977770000    -4.5610920000    -0.8378480000
    5      C       0.0000000000    -1.4406640000     0.0000000000
    6      S      -1.1831370000    -2.2869570000     0.9927820000
    7      C       1.9320560000    -1.9787430000    -1.6208020000
    8      H       2.4261660000    -2.8786780000    -2.0355060000
    9      H       2.7118060000    -1.3760150000    -1.1099430000
   10      H       1.5646780000    -1.3757280000    -2.4773500000
   11      C       0.0000000000     0.0000000000     0.0000000000
   12      C       0.2953990000     0.8115080000     1.0994460000
   13      C       0.7687420000     2.1119490000     0.7767210000
   14      H       0.1692560000     0.4649520000     2.1360880000
   15      C       0.8442320000     2.3192910000    -0.6125460000
   16      S       0.3223420000     0.8855580000    -1.4868090000
   17      C       1.1407960000     3.1340910000     1.8146090000
   18      H       0.9952180000     2.7341230000     2.8366760000
   19      H       0.5260060000     4.0541420000     1.7262390000
   20      H       2.2031570000     3.4436800000     1.7262280000
   21      H       1.1689020000     3.2112570000    -1.1615750000
   22      H      -0.2811430000    -4.3927130000     1.4064410000
   23      H      -1.4348790000    -4.3923470000     0.0312650000
   24      H       0.6941220000    -1.4409370000     0.8274020000
 ----------------------------------------------------------------
 Nuclear Repulsion Energy =         877.05778573 hartrees
 There are       52 alpha and       52 beta electrons

 Q-Chem warning in module forms1/BasisType.C, line 2236:

 You are not using the predefined 5D/6D in this basis set.

 Requested basis set is cc-pVTZ
 There are 196 shells and 536 basis functions

 Total QAlloc Memory Limit 110000 MB
 Mega-Array Size       188 MB
 MEM_STATIC part       192 MB
 Discretize the solute cavity surface with Lebedev spheres
	Using 110 Lebedev grid points for each H atom
	Using 194 Lebedev grid points for other atoms
	Atomic van der Waals radii will be scaled by 1.20
 Remove points where switching function is < 1.0e-08
 Keep 1593 surface tesserae and discard 2055 interior tesserae
 Molecular Surface Area = 233.515 Angst**2
 Requested basis set is rimp2-cc-pVTZ
 There are 414 shells and 1414 basis functions
 A cutoff of  1.0D-10 yielded  14079 shell pairs
 There are    102061 function pairs (    130877 Cartesian)
 Smallest overlap matrix eigenvalue = 5.91E-05

 Scale SEOQF with 1.000000e-01/1.000000e-01/1.000000e-01

 Standard Electronic Orientation quadrupole field applied
 Nucleus-field energy     =     0.0000000299 hartrees
 Guess from superposition of atomic densities
 Warning:  Energy on first SCF cycle will be non-variational
 SAD guess density has 104.000000 electrons

 -----------------------------------------------------------------------
  General SCF calculation program by
  Eric Jon Sundstrom, Paul Horn, Yuezhi Mao, Dmitri Zuev, Alec White,
  David Stuck, Shaama M.S., Shane Yost, Joonho Lee, David Small,
  Daniel Levine, Susi Lehtola, Hugh Burton, Evgeny Epifanovsky,
  Bang C. Huynh
 -----------------------------------------------------------------------
 Hartree-Fock
 A restricted SCF calculation will be
 performed using DIIS
 SCF converges when DIIS error is below 1.0e-06
 ---------------------------------------
  Cycle       Energy         DIIS error
 ---------------------------------------
    1   -1186.0494966211      2.39e-02  
    2   -1180.6046017440      1.56e-03  
    3   -1180.7293708991      6.15e-04  
    4   -1180.7438229930      3.43e-04  
    5   -1180.7491673154      5.96e-05  
    6   -1180.7494183997      2.46e-05  
    7   -1180.7494782353      9.05e-06  
    8   -1180.7494920338      4.33e-06  
    9   -1180.7494952240      1.55e-06  
   10   -1180.7494957366      5.26e-07  Convergence criterion met
 ---------------------------------------
 SCF time:   CPU 598.85s  wall 602.00s 

************** Final PCM Free Energy Summary **************
 G_electrostatic  =      -0.00847045 hartree =      -5.31528758 kcal/mol
 G_cavitation     =       0.00000000 hartree =       0.00000000 kcal/mol
 G_dispersion     =       0.00000000 hartree =       0.00000000 kcal/mol
 G_repulsion      =       0.00000000 hartree =       0.00000000 kcal/mol
 --------------------------------------------------
 Non-electrostatic Free Energy =       0.00000000 hartree =       0.00000000 kcal/mol
 Total                         =      -0.00847045 hartree =      -5.31528758 kcal/mol
 --------------------------------------------------
 SCF Energy (H0 + V/2)                       =   -1180.74949574 
 Solute Internal Energy (H0)                 =   -1180.74102529 
 Total Free Energy (H0 + V/2 + non-elec)     =   -1180.74949574 hartree
                                             = -740931.49145320 kcal/mol
***********************************************************

 SCF   energy in the final basis set =    -1180.7494957366
 Total energy in the final basis set =    -1180.7494957366


 --------------------------------------------------------------
  Generalized many-body perturbation theory program
  by Joonho Lee, Fazle Rob, Xintian Feng, Evgeny Epifanovsky

 No regularization used 
 (reg. param. = 0.0000e+00)
  (P|Q)^-1/2 Time:  CPU 2.00 s  wall 2.01 s

 In RI-MP2 calculation: 
 # of frozen core orbitals: 20

 Components of the RIMP2 correlation energy:
        aaaa    correlation energy =        -0.2520197784 a.u.
        abab    correlation energy =        -1.5047542367 a.u.
        bbbb    correlation energy =        -0.2520197784 a.u.
        non-Brillouin singles      =        -0.0000000000 a.u.
        total same-spin energy     =        -0.5040395568 a.u.
        total opposite-spin energy =        -1.5047542367 a.u.

 Total  RIMP2   correlation energy =        -2.0087937935 a.u.
        RIMP2         total energy =     -1182.7582895302 a.u.

 RI-MP2 Energy Time:  CPU 85.12 s  wall 85.45 s
 
 --------------------------------------------------------------
 
                    Orbital Energies (a.u.)
 --------------------------------------------------------------
 
 Alpha MOs
 -- Occupied --
-91.9823 -91.9412 -11.2835 -11.2640 -11.2609 -11.2561 -11.2509 -11.2413
-11.2379 -11.2303 -11.2288 -11.2199  -8.9822  -8.9460  -6.6631  -6.6625
 -6.6620  -6.6274  -6.6263  -6.6250  -1.2002  -1.1529  -1.0591  -1.0253
 -1.0077  -0.9575  -0.9125  -0.9017  -0.8127  -0.7675  -0.7289  -0.7002
 -0.6622  -0.6423  -0.6103  -0.5860  -0.5805  -0.5737  -0.5679  -0.5526
 -0.5423  -0.5313  -0.5153  -0.5072  -0.4927  -0.4766  -0.4577  -0.4477
 -0.3552  -0.3437  -0.3189  -0.2689
 -- Virtual --
  0.0938   0.1331   0.1424   0.1528   0.1583   0.1695   0.1781   0.1785
  0.1949   0.1969   0.2014   0.2055   0.2253   0.2352   0.2403   0.2426
  0.2512   0.2630   0.2724   0.2965   0.3239   0.3389   0.3480   0.3558
  0.3613   0.3706   0.3793   0.3865   0.3997   0.4010   0.4128   0.4341
  0.4374   0.4499   0.4571   0.4584   0.4653   0.4798   0.4847   0.4977
  0.5075   0.5146   0.5197   0.5301   0.5347   0.5413   0.5521   0.5555
  0.5594   0.5769   0.5811   0.5851   0.5932   0.6127   0.6173   0.6203
  0.6243   0.6282   0.6331   0.6386   0.6456   0.6477   0.6526   0.6594
  0.6614   0.6762   0.6862   0.6882   0.6889   0.7085   0.7152   0.7221
  0.7317   0.7458   0.7523   0.7704   0.7857   0.7939   0.8019   0.8206
  0.8284   0.8378   0.8551   0.8636   0.8681   0.8902   0.8978   0.9143
  0.9331   0.9480   0.9571   0.9634   0.9796   0.9848   1.0024   1.0061
  1.0069   1.0246   1.0354   1.0464   1.0525   1.0658   1.0730   1.0784
  1.0918   1.0981   1.1201   1.1312   1.1388   1.1487   1.1612   1.1706
  1.1772   1.1915   1.1992   1.2034   1.2179   1.2267   1.2290   1.2443
  1.2592   1.2625   1.2673   1.2726   1.2796   1.2893   1.2994   1.3053
  1.3168   1.3333   1.3373   1.3626   1.3822   1.3996   1.4113   1.4132
  1.4219   1.4439   1.4496   1.4614   1.4737   1.4790   1.4867   1.5023
  1.5058   1.5189   1.5259   1.5310   1.5343   1.5449   1.5512   1.5529
  1.5620   1.5732   1.5830   1.5893   1.6080   1.6202   1.6240   1.6347
  1.6531   1.6593   1.6762   1.6848   1.6951   1.7083   1.7243   1.7335
  1.7441   1.7655   1.7861   1.7954   1.8060   1.8302   1.8413   1.8663
  1.8671   1.9127   1.9340   1.9408   1.9620   1.9743   2.0027   2.0114
  2.0260   2.0399   2.0474   2.0503   2.0799   2.0929   2.1220   2.1609
  2.1897   2.1948   2.2062   2.2172   2.2335   2.2594   2.2779   2.2872
  2.3224   2.3364   2.3516   2.3825   2.3980   2.4150   2.4497   2.4654
  2.4978   2.5091   2.5453   2.5511   2.5714   2.5820   2.6055   2.6129
  2.6402   2.6510   2.6609   2.6659   2.6808   2.7065   2.7180   2.7363
  2.7451   2.7553   2.7600   2.7717   2.7786   2.7875   2.7908   2.8047
  2.8290   2.8489   2.8572   2.8692   2.8806   2.9042   2.9235   2.9288
  2.9397   2.9448   2.9607   2.9746   3.0108   3.0263   3.0306   3.0431
  3.0458   3.0827   3.0865   3.1045   3.1121   3.1171   3.1276   3.1387
  3.1444   3.1602   3.1626   3.1727   3.1860   3.1982   3.1998   3.2112
  3.2242   3.2463   3.2502   3.2656   3.2785   3.2888   3.2939   3.3029
  3.3189   3.3239   3.3321   3.3350   3.3430   3.3524   3.3594   3.3693
  3.3774   3.3872   3.3962   3.4031   3.4044   3.4102   3.4236   3.4315
  3.4427   3.4488   3.4567   3.4632   3.4736   3.4748   3.4985   3.5032
  3.5162   3.5279   3.5288   3.5411   3.5452   3.5497   3.5703   3.5816
  3.5945   3.6006   3.6113   3.6148   3.6332   3.6427   3.6482   3.6553
  3.6612   3.6776   3.6887   3.7066   3.7100   3.7285   3.7336   3.7413
  3.7517   3.7564   3.7681   3.7809   3.7885   3.7905   3.8055   3.8172
  3.8318   3.8365   3.8537   3.8626   3.8803   3.8908   3.9008   3.9197
  3.9270   3.9443   3.9537   3.9722   3.9760   3.9795   4.0076   4.0161
  4.0217   4.0413   4.0496   4.0569   4.0817   4.0855   4.0972   4.1108
  4.1215   4.1409   4.1468   4.1538   4.1643   4.1761   4.1860   4.1888
  4.2151   4.2206   4.2382   4.2447   4.2546   4.2662   4.2779   4.2802
  4.2915   4.3103   4.3206   4.3287   4.3356   4.3487   4.3623   4.3710
  4.3805   4.3921   4.4015   4.4025   4.4210   4.4348   4.4405   4.4511
  4.4642   4.4694   4.4748   4.4861   4.4971   4.5189   4.5415   4.5618
  4.5659   4.5900   4.6006   4.6305   4.6457   4.6486   4.6641   4.6779
  4.7008   4.7127   4.7342   4.7642   4.7726   4.8066   4.8253   4.8570
  4.8587   4.8751   4.8861   4.9050   4.9457   4.9611   4.9858   5.0077
  5.0113   5.0381   5.0926   5.1067   5.1189   5.1285   5.1501   5.1714
  5.1820   5.2090   5.2283   5.2716   5.2793   5.2831   5.3100   5.3171
  5.3383   5.3649   5.3834   5.4024   5.4059   5.4238   5.4426   5.4510
  5.4822   5.5114   5.5212   5.5419   5.5510   5.5645   5.5686   5.5914
  5.6213   5.6275   5.6433   5.6535   5.6702   5.6968   5.6992   5.7321
  5.7771   5.7990   5.8304   5.9729   5.9994   6.1188   6.1339   6.1355
  6.2107   6.2275   6.2324   6.2396   6.2696   6.2903   6.2984   6.3232
  6.3967   6.4716   9.4115  10.4807  12.0781  12.9234  13.1565  13.9493
 14.1079  14.2365  14.2991  14.7344
 --------------------------------------------------------------
 
          Ground-State Mulliken Net Atomic Charges

     Atom                 Charge (a.u.)
  ----------------------------------------
      1 C                    -0.073934
      2 C                    -0.324631
      3 C                    -0.027592
      4 H                     0.177399
      5 C                     0.060773
      6 S                    -0.180794
      7 C                    -0.280767
      8 H                     0.114182
      9 H                     0.110701
     10 H                     0.110190
     11 C                    -0.039927
     12 C                    -0.265356
     13 C                     0.029150
     14 H                     0.183639
     15 C                    -0.251504
     16 S                     0.008976
     17 C                    -0.270710
     18 H                     0.102581
     19 H                     0.108464
     20 H                     0.107371
     21 H                     0.196248
     22 H                     0.109828
     23 H                     0.112256
     24 H                     0.183457
  ----------------------------------------
  Sum of atomic charges =     0.000000

 -----------------------------------------------------------------
                    Cartesian Multipole Moments
 -----------------------------------------------------------------
    Charge (ESU x 10^10)
                -0.0000
    Dipole Moment (Debye)
         X       3.0255      Y       0.2250      Z       0.4277
       Tot       3.0639
    Quadrupole Moments (Debye-Ang)
        XX     -90.8431     XY      -0.3588     YY     -75.3985
        XZ       0.2576     YZ       2.2999     ZZ     -85.4759
    Octopole Moments (Debye-Ang^2)
       XXX     -72.9168    XXY      51.4801    XYY     -12.1103
       YYY     129.8989    XXZ      -4.8796    XYZ       1.6684
       YYZ      -0.7062    XZZ     -19.0115    YZZ      56.3367
       ZZZ       3.1243
    Hexadecapole Moments (Debye-Ang^3)
      XXXX    -598.2758   XXXY    -174.4385   XXYY    -582.9589
      XYYY    -128.5885   YYYY   -2699.4423   XXXZ     106.2959
      XXYZ     -15.8920   XYYZ      15.9363   YYYZ    -103.0570
      XXZZ    -227.5961   XYZZ     -56.2905   YYZZ    -607.1343
      XZZZ     105.7460   YZZZ     -84.5369   ZZZZ    -774.1099
 -----------------------------------------------------------------
 Total job time:  689.30s(wall), 684.92s(cpu) 
 Sun Jul 10 01:13:32 2022

        *************************************************************
        *                                                           *
        *  Thank you very much for using Q-Chem.  Have a nice day.  *
        *                                                           *
        *************************************************************


remove work dirs ./qchem2924361.0 -- ./qchem2924361.-1
rm -rf ./qchem2924361
You are running Q-Chem version: 5.4.0

#
# job setting
#
local host:  exp-5-17
current dir: /expanse/lustre/scratch/theleonzhang/temp_project/Hydrogenated_Rotation_Test
input file:  Methylthiophene_Phi_20_Theta_50_Methylthiophene_Hydrogenated_Alternate.qcin
output file: 
nprocs     : 0
nthreads   : 1
#
# qchem installation setting
#
QC:          /cm/shared/apps/spack/cpu/opt/spack/linux-centos8-zen2/gcc-10.2.0/qchem-5.4-akfmr7b3t57bfs6qan3padb2wnb2i7cl
QCAUX:       /cm/shared/apps/spack/cpu/opt/spack/linux-centos8-zen2/gcc-10.2.0/qchem-5.4-akfmr7b3t57bfs6qan3padb2wnb2i7cl/qcaux
QCPROG:      /cm/shared/apps/spack/cpu/opt/spack/linux-centos8-zen2/gcc-10.2.0/qchem-5.4-akfmr7b3t57bfs6qan3padb2wnb2i7cl/exe/qcprog.exe_s
QCPROG_S:    /cm/shared/apps/spack/cpu/opt/spack/linux-centos8-zen2/gcc-10.2.0/qchem-5.4-akfmr7b3t57bfs6qan3padb2wnb2i7cl/exe/qcprog.exe_s
PARALLEL:    -DSERIAL
QCMPI:       mpich
#
# qchem directory setting
#
qcrun:       qchem575496
QCSCRATCH:   .
QCLOCALSCR:  
QCTMPDIR:    .
QCFILEPREF:  ./qchem575496
QCSAVEDIR:   
workdirs:    ./qchem575496
workdir0:    ./qchem575496
partmpdirs =  
#
# parallel setting
#
QCRSH:           ssh
QCMPI:           mpich
QCMPIRUN:        /cm/shared/apps/spack/cpu/opt/spack/linux-centos8-zen2/gcc-10.2.0/qchem-5.4-akfmr7b3t57bfs6qan3padb2wnb2i7cl/bin/mpi/mpirun_qchem
QCMACHINEFILE:   ./qchem575496/hostfile

#
# env setting
#
exported envs:   QC QCAUX QCSCRATCH QCRUNNAME QCFILEPREF QCPROG QCPROG_S GUIFILE

Running Job 1 of 1 Methylthiophene_Phi_20_Theta_50_Methylthiophene_Hydrogenated_Alternate.qcin
qchem Methylthiophene_Phi_20_Theta_50_Methylthiophene_Hydrogenated_Alternate.qcin_575496.0 ./qchem575496/ 0
/cm/shared/apps/spack/cpu/opt/spack/linux-centos8-zen2/gcc-10.2.0/qchem-5.4-akfmr7b3t57bfs6qan3padb2wnb2i7cl/exe/qcprog.exe_s Methylthiophene_Phi_20_Theta_50_Methylthiophene_Hydrogenated_Alternate.qcin_575496.0 ./qchem575496/
                  Welcome to Q-Chem
     A Quantum Leap Into The Future Of Chemistry


 Q-Chem 5.4, Q-Chem, Inc., Pleasanton, CA (2021)

 License issued to: University of California, San Diego (site)

 E. Epifanovsky,  A. T. B. Gilbert,  Xintian Feng,  Joonho Lee,  Yuezhi Mao,  
 N. Mardirossian,  P. Pokhilko,  A. White,  M. Wormit,  M. P. Coons,  
 A. L. Dempwolff,  Zhengting Gan,  D. Hait,  P. R. Horn,  L. D. Jacobson,  
 I. Kaliman,  J. Kussmann,  A. W. Lange,  Ka Un Lao,  D. S. Levine,  Jie Liu,  
 S. C. McKenzie,  A. F. Morrison,  K. Nanda,  F. Plasser,  D. R. Rehn,  
 M. L. Vidal,  Zhi-Qiang You,  Ying Zhu,  B. Alam,  B. Albrecht,  
 A. Aldossary,  E. Alguire,  J. H. Andersen,  D. Barton,  K. Begam,  A. Behn,  
 Y. A. Bernard,  E. J. Berquist,  H. Burton,  A. Carreras,  K. Carter-Fenk,  
 R. Chakraborty,  A. D. Chien,  K. D. Closser,  V. Cofer-Shabica,  
 S. Dasgupta,  Jia Deng,  M. de Wergifosse,  M. Diedenhofen,  Hainam Do,  
 S. Ehlert,  Po-Tung Fang,  S. Fatehi,  Qingguo Feng,  J. Gayvert,  
 Qinghui Ge,  G. Gidofalvi,  M. Goldey,  J. Gomes,  C. Gonzalez-Espinoza,  
 S. Gulania,  A. Gunina,  M. W. D. Hanson-Heine,  P. H. P. Harbach,  
 A. W. Hauser,  M. F. Herbst,  M. Hernandez Vera,  M. Hodecker,  
 Z. C. Holden,  S. Houck,  Xunkun Huang,  Kerwin Hui,  B. C. Huynh,  
 M. Ivanov,  Hyunjun Ji,  Hanjie Jiang,  B. Kaduk,  S. Kaehler,  
 K. Khistyaev,  Jaehoon Kim,  P. Klunzinger,  Z. Koczor-Benda,  
 Joong Hoon Koh,  D. Kosenkov,  L. Koulias,  T. Kowalczyk,  C. M. Krauter,  
 K. Kue,  A. Kunitsa,  T. Kus,  A. Landau,  K. V. Lawler,  D. Lefrancois,  
 S. Lehtola,  Rain Li,  Yi-Pei Li,  Jiashu Liang,  M. Liebenthal,  
 Hung-Hsuan Lin,  You-Sheng Lin,  Fenglai Liu,  Kuan-Yu Liu,  
 M. Loipersberger,  A. Luenser,  A. Manjanath,  P. Manohar,  E. Mansoor,  
 S. F. Manzer,  Shan-Ping Mao,  A. V. Marenich,  T. Markovich,  S. Mason,  
 S. A. Maurer,  P. F. McLaughlin,  M. F. S. J. Menger,  J.-M. Mewes,  
 S. A. Mewes,  P. Morgante,  J. W. Mullinax,  T. S. Nguyen-Beck,  
 K. J. Oosterbaan,  G. Paran,  Alexander C. Paul,  Suranjan K. Paul,  
 F. Pavosevic,  Zheng Pei,  S. Prager,  E. I. Proynov,  E. Ramos,  B. Rana,  
 A. E. Rask,  A. Rettig,  R. M. Richard,  F. Rob,  E. Rossomme,  T. Scheele,  
 M. Scheurer,  M. Schneider,  N. Sergueev,  S. M. Sharada,  W. Skomorowski,  
 D. W. Small,  C. J. Stein,  Yu-Chuan Su,  E. J. Sundstrom,  Zhen Tao,  
 J. Thirman,  T. Tsuchimochi,  N. M. Tubman,  S. P. Veccham,  O. Vydrov,  
 J. Wenzel,  J. Witte,  A. Yamada,  Kun Yao,  S. Yeganeh,  S. R. Yost,  
 A. Zech,  Igor Ying Zhang,  Xing Zhang,  Yu Zhang,  D. Zuev,  
 A. Aspuru-Guzik,  A. T. Bell,  N. A. Besley,  K. B. Bravaya,  B. R. Brooks,  
 D. Casanova,  Jeng-Da Chai,  S. Coriani,  C. J. Cramer,  
 A. E. DePrince, III,  R. A. DiStasio Jr.,  A. Dreuw,  B. D. Dunietz,  
 T. R. Furlani,  W. A. Goddard III,  S. Grimme,  S. Hammes-Schiffer,  
 T. Head-Gordon,  W. J. Hehre,  Chao-Ping Hsu,  T.-C. Jagau,  Yousung Jung,  
 A. Klamt,  Jing Kong,  D. S. Lambrecht,  WanZhen Liang,  N. J. Mayhall,  
 C. W. McCurdy,  J. B. Neaton,  C. Ochsenfeld,  J. A. Parkhill,  R. Peverati,  
 V. A. Rassolov,  Yihan Shao,  L. V. Slipchenko,  T. Stauch,  R. P. Steele,  
 J. E. Subotnik,  A. J. W. Thom,  A. Tkatchenko,  D. G. Truhlar,  
 T. Van Voorhis,  T. A. Wesolowski,  K. B. Whaley,  H. L. Woodcock III,  
 P. M. Zimmerman,  S. Faraji,  P. M. W. Gill,  M. Head-Gordon,  
 J. M. Herbert,  A. I. Krylov

 Contributors to earlier versions of Q-Chem not listed above: 
 R. D. Adamson,  B. Austin,  R. Baer,  J. Baker,  G. J. O. Beran,  
 K. Brandhorst,  S. T. Brown,  E. F. C. Byrd,  A. K. Chakraborty,  
 G. K. L. Chan,  Chun-Min Chang,  Yunqing Chen,  C.-L. Cheng,  
 Siu Hung Chien,  D. M. Chipman,  D. L. Crittenden,  H. Dachsel,  
 R. J. Doerksen,  A. D. Dutoi,  R. G. Edgar,  J. Fosso-Tande,  
 L. Fusti-Molnar,  D. Ghosh,  A. Ghysels,  A. Golubeva-Zadorozhnaya,  
 J. Gonthier,  M. S. Gordon,  S. R. Gwaltney,  G. Hawkins,  J. E. Herr,  
 A. Heyden,  S. Hirata,  E. G. Hohenstein,  G. Kedziora,  F. J. Keil,  
 C. Kelley,  Jihan Kim,  R. A. King,  R. Z. Khaliullin,  P. P. Korambath,  
 W. Kurlancheek,  A. Laurent,  A. M. Lee,  M. S. Lee,  S. V. Levchenko,  
 Ching Yeh Lin,  D. Liotard,  E. Livshits,  R. C. Lochan,  I. Lotan,  
 L. A. Martinez-Martinez,  P. E. Maslen,  N. Nair,  D. P. O'Neill,  
 D. Neuhauser,  E. Neuscamman,  C. M. Oana,  R. Olivares-Amaya,  R. Olson,  
 T. M. Perrine,  B. Peters,  P. A. Pieniazek,  A. Prociuk,  Y. M. Rhee,  
 J. Ritchie,  M. A. Rohrdanz,  E. Rosta,  N. J. Russ,  H. F. Schaefer III,  
 M. W. Schmidt,  N. E. Schultz,  S. Sharma,  N. Shenvi,  C. D. Sherrill,  
 A. C. Simmonett,  A. Sodt,  T. Stein,  D. Stuck,  K. S. Thanthiriwatte,  
 V. Vanovschi,  L. Vogt,  Tao Wang,  A. Warshel,  M. A. Watson,  
 C. F. Williams,  Q. Wu,  X. Xu,  Jun Yang,  W. Zhang,  Yan Zhao

 Please cite Q-Chem as follows:
 Y. Shao et al., Mol. Phys. 113, 184-215 (2015)
 DOI: 10.1080/00268976.2014.952696

 Q-Chem 5.4.0 for Intel X86 EM64T Linux

 Parts of Q-Chem use Armadillo 9.800.1 (Horizon Scraper).
 http://arma.sourceforge.net/

 Q-Chem begins on Sun Jul 10 01:37:52 2022  

 Host: 
0

     Scratch files written to ./qchem575496//
 May1621 |scratch|qcdevops|jenkins|workspace|build_RNUM    
 Processing $rem in /cm/shared/apps/spack/cpu/opt/spack/linux-centos8-zen2/gcc-10.2.0/qchem-5.4-akfmr7b3t57bfs6qan3padb2wnb2i7cl/config/preferences:
 Processing $rem in /home/theleonzhang/.qchemrc:
 Symmetry turned off for PCM/SM12/SMD calculation
 Core orbitals will be frozen

 Checking the input file for inconsistencies... 	...done.

--------------------------------------------------------------
User input:
--------------------------------------------------------------
$molecule
0 1
C	-0.594240	-3.866725	0.497696
C	0.469057	-3.703963	-0.393981
C	0.817136	-2.357056	-0.685571
H	0.997777	-4.561092	-0.837848
C	0.000000	-1.440664	0.000000
S	-1.183137	-2.286957	0.992782
C	1.932056	-1.978743	-1.620802
H	2.426166	-2.878678	-2.035506
H	2.711806	-1.376015	-1.109943
H	1.564678	-1.375728	-2.477350
C	0.000000	0.000000	0.000000
C	0.295399	0.811508	1.099446
C	0.768742	2.111949	0.776721
H	0.169256	0.464952	2.136088
C	0.844232	2.319291	-0.612546
S	0.322342	0.885558	-1.486809
C	1.140796	3.134091	1.814609
H	0.995218	2.734123	2.836676
H	0.526006	4.054142	1.726239
H	2.203157	3.443680	1.726228
H	1.168902	3.211257	-1.161575
H	-0.281143	-4.392713	1.406441
H	-1.434879	-4.392347	0.031265
H	0.694122	-1.440937	0.827402
$end

$rem
JOBTYPE		SP
EXCHANGE	HF
CORRELATION	pRIMP2
BASIS		cc-pvtz
METHOD		rimp2
AUX_BASIS	rimp2-cc-pvtz
SOLVENT_METHOD	PCM
PURECART	11111
SYMMETRY	false
MEM_TOTAL	110000
SCF_CONVERGENCE = 6
THRESH=10
$end



$solvent
dielectric 4.90
$end
--------------------------------------------------------------
 ----------------------------------------------------------------
             Standard Nuclear Orientation (Angstroms)
    I     Atom           X                Y                Z
 ----------------------------------------------------------------
    1      C      -0.5942400000    -3.8667250000     0.4976960000
    2      C       0.4690570000    -3.7039630000    -0.3939810000
    3      C       0.8171360000    -2.3570560000    -0.6855710000
    4      H       0.9977770000    -4.5610920000    -0.8378480000
    5      C       0.0000000000    -1.4406640000     0.0000000000
    6      S      -1.1831370000    -2.2869570000     0.9927820000
    7      C       1.9320560000    -1.9787430000    -1.6208020000
    8      H       2.4261660000    -2.8786780000    -2.0355060000
    9      H       2.7118060000    -1.3760150000    -1.1099430000
   10      H       1.5646780000    -1.3757280000    -2.4773500000
   11      C       0.0000000000     0.0000000000     0.0000000000
   12      C       0.2953990000     0.8115080000     1.0994460000
   13      C       0.7687420000     2.1119490000     0.7767210000
   14      H       0.1692560000     0.4649520000     2.1360880000
   15      C       0.8442320000     2.3192910000    -0.6125460000
   16      S       0.3223420000     0.8855580000    -1.4868090000
   17      C       1.1407960000     3.1340910000     1.8146090000
   18      H       0.9952180000     2.7341230000     2.8366760000
   19      H       0.5260060000     4.0541420000     1.7262390000
   20      H       2.2031570000     3.4436800000     1.7262280000
   21      H       1.1689020000     3.2112570000    -1.1615750000
   22      H      -0.2811430000    -4.3927130000     1.4064410000
   23      H      -1.4348790000    -4.3923470000     0.0312650000
   24      H       0.6941220000    -1.4409370000     0.8274020000
 ----------------------------------------------------------------
 Nuclear Repulsion Energy =         877.05778573 hartrees
 There are       52 alpha and       52 beta electrons

 Q-Chem warning in module forms1/BasisType.C, line 2236:

 You are not using the predefined 5D/6D in this basis set.

 Requested basis set is cc-pVTZ
 There are 196 shells and 536 basis functions

 Total QAlloc Memory Limit 110000 MB
 Mega-Array Size       188 MB
 MEM_STATIC part       192 MB
 Discretize the solute cavity surface with Lebedev spheres
	Using 110 Lebedev grid points for each H atom
	Using 194 Lebedev grid points for other atoms
	Atomic van der Waals radii will be scaled by 1.20
 Remove points where switching function is < 1.0e-08
 Keep 1593 surface tesserae and discard 2055 interior tesserae
 Molecular Surface Area = 233.515 Angst**2
 Requested basis set is rimp2-cc-pVTZ
 There are 414 shells and 1414 basis functions
 A cutoff of  1.0D-10 yielded  14079 shell pairs
 There are    102061 function pairs (    130877 Cartesian)
 Smallest overlap matrix eigenvalue = 5.91E-05

 Scale SEOQF with 1.000000e-01/1.000000e-01/1.000000e-01

 Standard Electronic Orientation quadrupole field applied
 Nucleus-field energy     =     0.0000000299 hartrees
 Guess from superposition of atomic densities
 Warning:  Energy on first SCF cycle will be non-variational
 SAD guess density has 104.000000 electrons

 -----------------------------------------------------------------------
  General SCF calculation program by
  Eric Jon Sundstrom, Paul Horn, Yuezhi Mao, Dmitri Zuev, Alec White,
  David Stuck, Shaama M.S., Shane Yost, Joonho Lee, David Small,
  Daniel Levine, Susi Lehtola, Hugh Burton, Evgeny Epifanovsky,
  Bang C. Huynh
 -----------------------------------------------------------------------
 Hartree-Fock
 A restricted SCF calculation will be
 performed using DIIS
 SCF converges when DIIS error is below 1.0e-06
 ---------------------------------------
  Cycle       Energy         DIIS error
 ---------------------------------------
    1   -1186.0494966211      2.39e-02  
    2   -1180.6046017440      1.56e-03  
    3   -1180.7293708991      6.15e-04  
    4   -1180.7438229930      3.43e-04  
    5   -1180.7491673154      5.96e-05  
    6   -1180.7494183997      2.46e-05  
    7   -1180.7494782353      9.05e-06  
    8   -1180.7494920338      4.33e-06  
    9   -1180.7494952240      1.55e-06  
   10   -1180.7494957366      5.26e-07  Convergence criterion met
 ---------------------------------------
 SCF time:   CPU 568.57s  wall 570.00s 

************** Final PCM Free Energy Summary **************
 G_electrostatic  =      -0.00847045 hartree =      -5.31528758 kcal/mol
 G_cavitation     =       0.00000000 hartree =       0.00000000 kcal/mol
 G_dispersion     =       0.00000000 hartree =       0.00000000 kcal/mol
 G_repulsion      =       0.00000000 hartree =       0.00000000 kcal/mol
 --------------------------------------------------
 Non-electrostatic Free Energy =       0.00000000 hartree =       0.00000000 kcal/mol
 Total                         =      -0.00847045 hartree =      -5.31528758 kcal/mol
 --------------------------------------------------
 SCF Energy (H0 + V/2)                       =   -1180.74949574 
 Solute Internal Energy (H0)                 =   -1180.74102529 
 Total Free Energy (H0 + V/2 + non-elec)     =   -1180.74949574 hartree
                                             = -740931.49145320 kcal/mol
***********************************************************

 SCF   energy in the final basis set =    -1180.7494957366
 Total energy in the final basis set =    -1180.7494957366


 --------------------------------------------------------------
  Generalized many-body perturbation theory program
  by Joonho Lee, Fazle Rob, Xintian Feng, Evgeny Epifanovsky

 No regularization used 
 (reg. param. = 0.0000e+00)
  (P|Q)^-1/2 Time:  CPU 1.90 s  wall 1.91 s

 In RI-MP2 calculation: 
 # of frozen core orbitals: 20

 Components of the RIMP2 correlation energy:
        aaaa    correlation energy =        -0.2520197784 a.u.
        abab    correlation energy =        -1.5047542367 a.u.
        bbbb    correlation energy =        -0.2520197784 a.u.
        non-Brillouin singles      =        -0.0000000000 a.u.
        total same-spin energy     =        -0.5040395568 a.u.
        total opposite-spin energy =        -1.5047542367 a.u.

 Total  RIMP2   correlation energy =        -2.0087937935 a.u.
        RIMP2         total energy =     -1182.7582895302 a.u.

 RI-MP2 Energy Time:  CPU 79.89 s  wall 80.05 s
 
 --------------------------------------------------------------
 
                    Orbital Energies (a.u.)
 --------------------------------------------------------------
 
 Alpha MOs
 -- Occupied --
-91.9823 -91.9412 -11.2835 -11.2640 -11.2609 -11.2561 -11.2509 -11.2413
-11.2379 -11.2303 -11.2288 -11.2199  -8.9822  -8.9460  -6.6631  -6.6625
 -6.6620  -6.6274  -6.6263  -6.6250  -1.2002  -1.1529  -1.0591  -1.0253
 -1.0077  -0.9575  -0.9125  -0.9017  -0.8127  -0.7675  -0.7289  -0.7002
 -0.6622  -0.6423  -0.6103  -0.5860  -0.5805  -0.5737  -0.5679  -0.5526
 -0.5423  -0.5313  -0.5153  -0.5072  -0.4927  -0.4766  -0.4577  -0.4477
 -0.3552  -0.3437  -0.3189  -0.2689
 -- Virtual --
  0.0938   0.1331   0.1424   0.1528   0.1583   0.1695   0.1781   0.1785
  0.1949   0.1969   0.2014   0.2055   0.2253   0.2352   0.2403   0.2426
  0.2512   0.2630   0.2724   0.2965   0.3239   0.3389   0.3480   0.3558
  0.3613   0.3706   0.3793   0.3865   0.3997   0.4010   0.4128   0.4341
  0.4374   0.4499   0.4571   0.4584   0.4653   0.4798   0.4847   0.4977
  0.5075   0.5146   0.5197   0.5301   0.5347   0.5413   0.5521   0.5555
  0.5594   0.5769   0.5811   0.5851   0.5932   0.6127   0.6173   0.6203
  0.6243   0.6282   0.6331   0.6386   0.6456   0.6477   0.6526   0.6594
  0.6614   0.6762   0.6862   0.6882   0.6889   0.7085   0.7152   0.7221
  0.7317   0.7458   0.7523   0.7704   0.7857   0.7939   0.8019   0.8206
  0.8284   0.8378   0.8551   0.8636   0.8681   0.8902   0.8978   0.9143
  0.9331   0.9480   0.9571   0.9634   0.9796   0.9848   1.0024   1.0061
  1.0069   1.0246   1.0354   1.0464   1.0525   1.0658   1.0730   1.0784
  1.0918   1.0981   1.1201   1.1312   1.1388   1.1487   1.1612   1.1706
  1.1772   1.1915   1.1992   1.2034   1.2179   1.2267   1.2290   1.2443
  1.2592   1.2625   1.2673   1.2726   1.2796   1.2893   1.2994   1.3053
  1.3168   1.3333   1.3373   1.3626   1.3822   1.3996   1.4113   1.4132
  1.4219   1.4439   1.4496   1.4614   1.4737   1.4790   1.4867   1.5023
  1.5058   1.5189   1.5259   1.5310   1.5343   1.5449   1.5512   1.5529
  1.5620   1.5732   1.5830   1.5893   1.6080   1.6202   1.6240   1.6347
  1.6531   1.6593   1.6762   1.6848   1.6951   1.7083   1.7243   1.7335
  1.7441   1.7655   1.7861   1.7954   1.8060   1.8302   1.8413   1.8663
  1.8671   1.9127   1.9340   1.9408   1.9620   1.9743   2.0027   2.0114
  2.0260   2.0399   2.0474   2.0503   2.0799   2.0929   2.1220   2.1609
  2.1897   2.1948   2.2062   2.2172   2.2335   2.2594   2.2779   2.2872
  2.3224   2.3364   2.3516   2.3825   2.3980   2.4150   2.4497   2.4654
  2.4978   2.5091   2.5453   2.5511   2.5714   2.5820   2.6055   2.6129
  2.6402   2.6510   2.6609   2.6659   2.6808   2.7065   2.7180   2.7363
  2.7451   2.7553   2.7600   2.7717   2.7786   2.7875   2.7908   2.8047
  2.8290   2.8489   2.8572   2.8692   2.8806   2.9042   2.9235   2.9288
  2.9397   2.9448   2.9607   2.9746   3.0108   3.0263   3.0306   3.0431
  3.0458   3.0827   3.0865   3.1045   3.1121   3.1171   3.1276   3.1387
  3.1444   3.1602   3.1626   3.1727   3.1860   3.1982   3.1998   3.2112
  3.2242   3.2463   3.2502   3.2656   3.2785   3.2888   3.2939   3.3029
  3.3189   3.3239   3.3321   3.3350   3.3430   3.3524   3.3594   3.3693
  3.3774   3.3872   3.3962   3.4031   3.4044   3.4102   3.4236   3.4315
  3.4427   3.4488   3.4567   3.4632   3.4736   3.4748   3.4985   3.5032
  3.5162   3.5279   3.5288   3.5411   3.5452   3.5497   3.5703   3.5816
  3.5945   3.6006   3.6113   3.6148   3.6332   3.6427   3.6482   3.6553
  3.6612   3.6776   3.6887   3.7066   3.7100   3.7285   3.7336   3.7413
  3.7517   3.7564   3.7681   3.7809   3.7885   3.7905   3.8055   3.8172
  3.8318   3.8365   3.8537   3.8626   3.8803   3.8908   3.9008   3.9197
  3.9270   3.9443   3.9537   3.9722   3.9760   3.9795   4.0076   4.0161
  4.0217   4.0413   4.0496   4.0569   4.0817   4.0855   4.0972   4.1108
  4.1215   4.1409   4.1468   4.1538   4.1643   4.1761   4.1860   4.1888
  4.2151   4.2206   4.2382   4.2447   4.2546   4.2662   4.2779   4.2802
  4.2915   4.3103   4.3206   4.3287   4.3356   4.3487   4.3623   4.3710
  4.3805   4.3921   4.4015   4.4025   4.4210   4.4348   4.4405   4.4511
  4.4642   4.4694   4.4748   4.4861   4.4971   4.5189   4.5415   4.5618
  4.5659   4.5900   4.6006   4.6305   4.6457   4.6486   4.6641   4.6779
  4.7008   4.7127   4.7342   4.7642   4.7726   4.8066   4.8253   4.8570
  4.8587   4.8751   4.8861   4.9050   4.9457   4.9611   4.9858   5.0077
  5.0113   5.0381   5.0926   5.1067   5.1189   5.1285   5.1501   5.1714
  5.1820   5.2090   5.2283   5.2716   5.2793   5.2831   5.3100   5.3171
  5.3383   5.3649   5.3834   5.4024   5.4059   5.4238   5.4426   5.4510
  5.4822   5.5114   5.5212   5.5419   5.5510   5.5645   5.5686   5.5914
  5.6213   5.6275   5.6433   5.6535   5.6702   5.6968   5.6992   5.7321
  5.7771   5.7990   5.8304   5.9729   5.9994   6.1188   6.1339   6.1355
  6.2107   6.2275   6.2324   6.2396   6.2696   6.2903   6.2984   6.3232
  6.3967   6.4716   9.4115  10.4807  12.0781  12.9234  13.1565  13.9493
 14.1079  14.2365  14.2991  14.7344
 --------------------------------------------------------------
 
          Ground-State Mulliken Net Atomic Charges

     Atom                 Charge (a.u.)
  ----------------------------------------
      1 C                    -0.073934
      2 C                    -0.324631
      3 C                    -0.027592
      4 H                     0.177399
      5 C                     0.060773
      6 S                    -0.180794
      7 C                    -0.280767
      8 H                     0.114182
      9 H                     0.110701
     10 H                     0.110190
     11 C                    -0.039927
     12 C                    -0.265356
     13 C                     0.029150
     14 H                     0.183639
     15 C                    -0.251504
     16 S                     0.008976
     17 C                    -0.270710
     18 H                     0.102581
     19 H                     0.108464
     20 H                     0.107371
     21 H                     0.196248
     22 H                     0.109828
     23 H                     0.112256
     24 H                     0.183457
  ----------------------------------------
  Sum of atomic charges =     0.000000

 -----------------------------------------------------------------
                    Cartesian Multipole Moments
 -----------------------------------------------------------------
    Charge (ESU x 10^10)
                -0.0000
    Dipole Moment (Debye)
         X       3.0255      Y       0.2250      Z       0.4277
       Tot       3.0639
    Quadrupole Moments (Debye-Ang)
        XX     -90.8431     XY      -0.3588     YY     -75.3985
        XZ       0.2576     YZ       2.2999     ZZ     -85.4759
    Octopole Moments (Debye-Ang^2)
       XXX     -72.9168    XXY      51.4801    XYY     -12.1103
       YYY     129.8989    XXZ      -4.8796    XYZ       1.6684
       YYZ      -0.7062    XZZ     -19.0115    YZZ      56.3367
       ZZZ       3.1243
    Hexadecapole Moments (Debye-Ang^3)
      XXXX    -598.2758   XXXY    -174.4385   XXYY    -582.9589
      XYYY    -128.5885   YYYY   -2699.4423   XXXZ     106.2959
      XXYZ     -15.8920   XYYZ      15.9363   YYYZ    -103.0570
      XXZZ    -227.5961   XYZZ     -56.2905   YYZZ    -607.1343
      XZZZ     105.7460   YZZZ     -84.5369   ZZZZ    -774.1099
 -----------------------------------------------------------------
 Total job time:  651.52s(wall), 649.34s(cpu) 
 Sun Jul 10 01:48:44 2022

        *************************************************************
        *                                                           *
        *  Thank you very much for using Q-Chem.  Have a nice day.  *
        *                                                           *
        *************************************************************


remove work dirs ./qchem575496.0 -- ./qchem575496.-1
rm -rf ./qchem575496
