You are running Q-Chem version: 5.4.0

#
# job setting
#
local host:  exp-1-44
current dir: /expanse/lustre/scratch/theleonzhang/temp_project/Hydrogenated_Rotation_Test
input file:  Methylthiophene_Phi_20_Theta_110_Methylthiophene_Hydrogenated.qcin
output file: 
nprocs     : 0
nthreads   : 1
#
# qchem installation setting
#
QC:          /cm/shared/apps/spack/cpu/opt/spack/linux-centos8-zen2/gcc-10.2.0/qchem-5.4-akfmr7b3t57bfs6qan3padb2wnb2i7cl
QCAUX:       /cm/shared/apps/spack/cpu/opt/spack/linux-centos8-zen2/gcc-10.2.0/qchem-5.4-akfmr7b3t57bfs6qan3padb2wnb2i7cl/qcaux
QCPROG:      /cm/shared/apps/spack/cpu/opt/spack/linux-centos8-zen2/gcc-10.2.0/qchem-5.4-akfmr7b3t57bfs6qan3padb2wnb2i7cl/exe/qcprog.exe_s
QCPROG_S:    /cm/shared/apps/spack/cpu/opt/spack/linux-centos8-zen2/gcc-10.2.0/qchem-5.4-akfmr7b3t57bfs6qan3padb2wnb2i7cl/exe/qcprog.exe_s
PARALLEL:    -DSERIAL
QCMPI:       mpich
#
# qchem directory setting
#
qcrun:       qchem1550412
QCSCRATCH:   .
QCLOCALSCR:  
QCTMPDIR:    .
QCFILEPREF:  ./qchem1550412
QCSAVEDIR:   
workdirs:    ./qchem1550412
workdir0:    ./qchem1550412
partmpdirs =  
#
# parallel setting
#
QCRSH:           ssh
QCMPI:           mpich
QCMPIRUN:        /cm/shared/apps/spack/cpu/opt/spack/linux-centos8-zen2/gcc-10.2.0/qchem-5.4-akfmr7b3t57bfs6qan3padb2wnb2i7cl/bin/mpi/mpirun_qchem
QCMACHINEFILE:   ./qchem1550412/hostfile

#
# env setting
#
exported envs:   QC QCAUX QCSCRATCH QCRUNNAME QCFILEPREF QCPROG QCPROG_S GUIFILE

Running Job 1 of 1 Methylthiophene_Phi_20_Theta_110_Methylthiophene_Hydrogenated.qcin
qchem Methylthiophene_Phi_20_Theta_110_Methylthiophene_Hydrogenated.qcin_1550412.0 ./qchem1550412/ 0
/cm/shared/apps/spack/cpu/opt/spack/linux-centos8-zen2/gcc-10.2.0/qchem-5.4-akfmr7b3t57bfs6qan3padb2wnb2i7cl/exe/qcprog.exe_s Methylthiophene_Phi_20_Theta_110_Methylthiophene_Hydrogenated.qcin_1550412.0 ./qchem1550412/
                  Welcome to Q-Chem
     A Quantum Leap Into The Future Of Chemistry


 Q-Chem 5.4, Q-Chem, Inc., Pleasanton, CA (2021)

 License issued to: University of California, San Diego (site)

 E. Epifanovsky,  A. T. B. Gilbert,  Xintian Feng,  Joonho Lee,  Yuezhi Mao,  
 N. Mardirossian,  P. Pokhilko,  A. White,  M. Wormit,  M. P. Coons,  
 A. L. Dempwolff,  Zhengting Gan,  D. Hait,  P. R. Horn,  L. D. Jacobson,  
 I. Kaliman,  J. Kussmann,  A. W. Lange,  Ka Un Lao,  D. S. Levine,  Jie Liu,  
 S. C. McKenzie,  A. F. Morrison,  K. Nanda,  F. Plasser,  D. R. Rehn,  
 M. L. Vidal,  Zhi-Qiang You,  Ying Zhu,  B. Alam,  B. Albrecht,  
 A. Aldossary,  E. Alguire,  J. H. Andersen,  D. Barton,  K. Begam,  A. Behn,  
 Y. A. Bernard,  E. J. Berquist,  H. Burton,  A. Carreras,  K. Carter-Fenk,  
 R. Chakraborty,  A. D. Chien,  K. D. Closser,  V. Cofer-Shabica,  
 S. Dasgupta,  Jia Deng,  M. de Wergifosse,  M. Diedenhofen,  Hainam Do,  
 S. Ehlert,  Po-Tung Fang,  S. Fatehi,  Qingguo Feng,  J. Gayvert,  
 Qinghui Ge,  G. Gidofalvi,  M. Goldey,  J. Gomes,  C. Gonzalez-Espinoza,  
 S. Gulania,  A. Gunina,  M. W. D. Hanson-Heine,  P. H. P. Harbach,  
 A. W. Hauser,  M. F. Herbst,  M. Hernandez Vera,  M. Hodecker,  
 Z. C. Holden,  S. Houck,  Xunkun Huang,  Kerwin Hui,  B. C. Huynh,  
 M. Ivanov,  Hyunjun Ji,  Hanjie Jiang,  B. Kaduk,  S. Kaehler,  
 K. Khistyaev,  Jaehoon Kim,  P. Klunzinger,  Z. Koczor-Benda,  
 Joong Hoon Koh,  D. Kosenkov,  L. Koulias,  T. Kowalczyk,  C. M. Krauter,  
 K. Kue,  A. Kunitsa,  T. Kus,  A. Landau,  K. V. Lawler,  D. Lefrancois,  
 S. Lehtola,  Rain Li,  Yi-Pei Li,  Jiashu Liang,  M. Liebenthal,  
 Hung-Hsuan Lin,  You-Sheng Lin,  Fenglai Liu,  Kuan-Yu Liu,  
 M. Loipersberger,  A. Luenser,  A. Manjanath,  P. Manohar,  E. Mansoor,  
 S. F. Manzer,  Shan-Ping Mao,  A. V. Marenich,  T. Markovich,  S. Mason,  
 S. A. Maurer,  P. F. McLaughlin,  M. F. S. J. Menger,  J.-M. Mewes,  
 S. A. Mewes,  P. Morgante,  J. W. Mullinax,  T. S. Nguyen-Beck,  
 K. J. Oosterbaan,  G. Paran,  Alexander C. Paul,  Suranjan K. Paul,  
 F. Pavosevic,  Zheng Pei,  S. Prager,  E. I. Proynov,  E. Ramos,  B. Rana,  
 A. E. Rask,  A. Rettig,  R. M. Richard,  F. Rob,  E. Rossomme,  T. Scheele,  
 M. Scheurer,  M. Schneider,  N. Sergueev,  S. M. Sharada,  W. Skomorowski,  
 D. W. Small,  C. J. Stein,  Yu-Chuan Su,  E. J. Sundstrom,  Zhen Tao,  
 J. Thirman,  T. Tsuchimochi,  N. M. Tubman,  S. P. Veccham,  O. Vydrov,  
 J. Wenzel,  J. Witte,  A. Yamada,  Kun Yao,  S. Yeganeh,  S. R. Yost,  
 A. Zech,  Igor Ying Zhang,  Xing Zhang,  Yu Zhang,  D. Zuev,  
 A. Aspuru-Guzik,  A. T. Bell,  N. A. Besley,  K. B. Bravaya,  B. R. Brooks,  
 D. Casanova,  Jeng-Da Chai,  S. Coriani,  C. J. Cramer,  
 A. E. DePrince, III,  R. A. DiStasio Jr.,  A. Dreuw,  B. D. Dunietz,  
 T. R. Furlani,  W. A. Goddard III,  S. Grimme,  S. Hammes-Schiffer,  
 T. Head-Gordon,  W. J. Hehre,  Chao-Ping Hsu,  T.-C. Jagau,  Yousung Jung,  
 A. Klamt,  Jing Kong,  D. S. Lambrecht,  WanZhen Liang,  N. J. Mayhall,  
 C. W. McCurdy,  J. B. Neaton,  C. Ochsenfeld,  J. A. Parkhill,  R. Peverati,  
 V. A. Rassolov,  Yihan Shao,  L. V. Slipchenko,  T. Stauch,  R. P. Steele,  
 J. E. Subotnik,  A. J. W. Thom,  A. Tkatchenko,  D. G. Truhlar,  
 T. Van Voorhis,  T. A. Wesolowski,  K. B. Whaley,  H. L. Woodcock III,  
 P. M. Zimmerman,  S. Faraji,  P. M. W. Gill,  M. Head-Gordon,  
 J. M. Herbert,  A. I. Krylov

 Contributors to earlier versions of Q-Chem not listed above: 
 R. D. Adamson,  B. Austin,  R. Baer,  J. Baker,  G. J. O. Beran,  
 K. Brandhorst,  S. T. Brown,  E. F. C. Byrd,  A. K. Chakraborty,  
 G. K. L. Chan,  Chun-Min Chang,  Yunqing Chen,  C.-L. Cheng,  
 Siu Hung Chien,  D. M. Chipman,  D. L. Crittenden,  H. Dachsel,  
 R. J. Doerksen,  A. D. Dutoi,  R. G. Edgar,  J. Fosso-Tande,  
 L. Fusti-Molnar,  D. Ghosh,  A. Ghysels,  A. Golubeva-Zadorozhnaya,  
 J. Gonthier,  M. S. Gordon,  S. R. Gwaltney,  G. Hawkins,  J. E. Herr,  
 A. Heyden,  S. Hirata,  E. G. Hohenstein,  G. Kedziora,  F. J. Keil,  
 C. Kelley,  Jihan Kim,  R. A. King,  R. Z. Khaliullin,  P. P. Korambath,  
 W. Kurlancheek,  A. Laurent,  A. M. Lee,  M. S. Lee,  S. V. Levchenko,  
 Ching Yeh Lin,  D. Liotard,  E. Livshits,  R. C. Lochan,  I. Lotan,  
 L. A. Martinez-Martinez,  P. E. Maslen,  N. Nair,  D. P. O'Neill,  
 D. Neuhauser,  E. Neuscamman,  C. M. Oana,  R. Olivares-Amaya,  R. Olson,  
 T. M. Perrine,  B. Peters,  P. A. Pieniazek,  A. Prociuk,  Y. M. Rhee,  
 J. Ritchie,  M. A. Rohrdanz,  E. Rosta,  N. J. Russ,  H. F. Schaefer III,  
 M. W. Schmidt,  N. E. Schultz,  S. Sharma,  N. Shenvi,  C. D. Sherrill,  
 A. C. Simmonett,  A. Sodt,  T. Stein,  D. Stuck,  K. S. Thanthiriwatte,  
 V. Vanovschi,  L. Vogt,  Tao Wang,  A. Warshel,  M. A. Watson,  
 C. F. Williams,  Q. Wu,  X. Xu,  Jun Yang,  W. Zhang,  Yan Zhao

 Please cite Q-Chem as follows:
 Y. Shao et al., Mol. Phys. 113, 184-215 (2015)
 DOI: 10.1080/00268976.2014.952696

 Q-Chem 5.4.0 for Intel X86 EM64T Linux

 Parts of Q-Chem use Armadillo 9.800.1 (Horizon Scraper).
 http://arma.sourceforge.net/

 Q-Chem begins on Sat Jul  9 20:53:04 2022  

 Host: 
0

     Scratch files written to ./qchem1550412//
 May1621 |scratch|qcdevops|jenkins|workspace|build_RNUM    
 Processing $rem in /cm/shared/apps/spack/cpu/opt/spack/linux-centos8-zen2/gcc-10.2.0/qchem-5.4-akfmr7b3t57bfs6qan3padb2wnb2i7cl/config/preferences:
 Processing $rem in /home/theleonzhang/.qchemrc:
 Symmetry turned off for PCM/SM12/SMD calculation
 Core orbitals will be frozen

 Checking the input file for inconsistencies... 	...done.

--------------------------------------------------------------
User input:
--------------------------------------------------------------
$molecule
0 1
C	-0.728138	-3.866725	-0.265779
C	0.575726	-3.703963	0.209225
C	1.002290	-2.357056	0.364875
H	1.224486	-4.561092	0.445176
C	0.000000	-1.440664	0.000000
S	-1.451343	-2.286957	-0.528236
C	2.369683	-1.978743	0.862808
H	2.975883	-2.878678	1.083368
H	2.317142	-1.376015	1.793522
H	2.927787	-1.375728	0.116375
C	0.000000	0.000000	0.000000
C	0.295399	0.811508	1.099446
C	0.768742	2.111949	0.776721
H	0.169256	0.464952	2.136088
C	0.844232	2.319291	-0.612546
S	0.322342	0.885558	-1.486809
C	1.140796	3.134091	1.814609
H	0.995218	2.734123	2.836676
H	0.526006	4.054142	1.726239
H	2.203157	3.443680	1.726228
H	1.168902	3.211257	-1.161575
H	-1.358585	-4.392713	0.459743
H	-0.744515	-4.392347	-1.227009
H	-0.369490	-1.440937	1.014829
$end

$rem
JOBTYPE		SP
EXCHANGE	HF
CORRELATION	pRIMP2
BASIS		cc-pvtz
METHOD		rimp2
AUX_BASIS	rimp2-cc-pvtz
SOLVENT_METHOD	PCM
PURECART	11111
SYMMETRY	false
MEM_TOTAL	110000
SCF_CONVERGENCE = 6
THRESH=10
$end



$solvent
dielectric 4.90
$end
--------------------------------------------------------------
 ----------------------------------------------------------------
             Standard Nuclear Orientation (Angstroms)
    I     Atom           X                Y                Z
 ----------------------------------------------------------------
    1      C      -0.7281380000    -3.8667250000    -0.2657790000
    2      C       0.5757260000    -3.7039630000     0.2092250000
    3      C       1.0022900000    -2.3570560000     0.3648750000
    4      H       1.2244860000    -4.5610920000     0.4451760000
    5      C       0.0000000000    -1.4406640000     0.0000000000
    6      S      -1.4513430000    -2.2869570000    -0.5282360000
    7      C       2.3696830000    -1.9787430000     0.8628080000
    8      H       2.9758830000    -2.8786780000     1.0833680000
    9      H       2.3171420000    -1.3760150000     1.7935220000
   10      H       2.9277870000    -1.3757280000     0.1163750000
   11      C       0.0000000000     0.0000000000     0.0000000000
   12      C       0.2953990000     0.8115080000     1.0994460000
   13      C       0.7687420000     2.1119490000     0.7767210000
   14      H       0.1692560000     0.4649520000     2.1360880000
   15      C       0.8442320000     2.3192910000    -0.6125460000
   16      S       0.3223420000     0.8855580000    -1.4868090000
   17      C       1.1407960000     3.1340910000     1.8146090000
   18      H       0.9952180000     2.7341230000     2.8366760000
   19      H       0.5260060000     4.0541420000     1.7262390000
   20      H       2.2031570000     3.4436800000     1.7262280000
   21      H       1.1689020000     3.2112570000    -1.1615750000
   22      H      -1.3585850000    -4.3927130000     0.4597430000
   23      H      -0.7445150000    -4.3923470000    -1.2270090000
   24      H      -0.3694900000    -1.4409370000     1.0148290000
 ----------------------------------------------------------------
 Nuclear Repulsion Energy =         875.05921011 hartrees
 There are       52 alpha and       52 beta electrons

 Q-Chem warning in module forms1/BasisType.C, line 2236:

 You are not using the predefined 5D/6D in this basis set.

 Requested basis set is cc-pVTZ
 There are 196 shells and 536 basis functions

 Total QAlloc Memory Limit 110000 MB
 Mega-Array Size       188 MB
 MEM_STATIC part       192 MB
 Discretize the solute cavity surface with Lebedev spheres
	Using 110 Lebedev grid points for each H atom
	Using 194 Lebedev grid points for other atoms
	Atomic van der Waals radii will be scaled by 1.20
 Remove points where switching function is < 1.0e-08
 Keep 1630 surface tesserae and discard 2018 interior tesserae
 Molecular Surface Area = 236.817 Angst**2
 Requested basis set is rimp2-cc-pVTZ
 There are 414 shells and 1414 basis functions
 A cutoff of  1.0D-10 yielded  14163 shell pairs
 There are    102701 function pairs (    131736 Cartesian)
 Smallest overlap matrix eigenvalue = 5.90E-05

 Scale SEOQF with 1.000000e-01/1.000000e-01/1.000000e-01

 Standard Electronic Orientation quadrupole field applied
 Nucleus-field energy     =     0.0000000347 hartrees
 Guess from superposition of atomic densities
 Warning:  Energy on first SCF cycle will be non-variational
 SAD guess density has 104.000000 electrons

 -----------------------------------------------------------------------
  General SCF calculation program by
  Eric Jon Sundstrom, Paul Horn, Yuezhi Mao, Dmitri Zuev, Alec White,
  David Stuck, Shaama M.S., Shane Yost, Joonho Lee, David Small,
  Daniel Levine, Susi Lehtola, Hugh Burton, Evgeny Epifanovsky,
  Bang C. Huynh
 -----------------------------------------------------------------------
 Hartree-Fock
 A restricted SCF calculation will be
 performed using DIIS
 SCF converges when DIIS error is below 1.0e-06
 ---------------------------------------
  Cycle       Energy         DIIS error
 ---------------------------------------
    1   -1186.0263494206      2.39e-02  
    2   -1180.6147043628      1.54e-03  
    3   -1180.7384341445      5.75e-04  
    4   -1180.7517008911      3.22e-04  
    5   -1180.7563734436      5.88e-05  
    6   -1180.7566100971      2.38e-05  
    7   -1180.7566662596      8.99e-06  
    8   -1180.7566796016      4.24e-06  
    9   -1180.7566826892      1.54e-06  
   10   -1180.7566831968      5.32e-07  Convergence criterion met
 ---------------------------------------
 SCF time:   CPU 575.75s  wall 579.00s 

************** Final PCM Free Energy Summary **************
 G_electrostatic  =      -0.00945263 hartree =      -5.93161688 kcal/mol
 G_cavitation     =       0.00000000 hartree =       0.00000000 kcal/mol
 G_dispersion     =       0.00000000 hartree =       0.00000000 kcal/mol
 G_repulsion      =       0.00000000 hartree =       0.00000000 kcal/mol
 --------------------------------------------------
 Non-electrostatic Free Energy =       0.00000000 hartree =       0.00000000 kcal/mol
 Total                         =      -0.00945263 hartree =      -5.93161688 kcal/mol
 --------------------------------------------------
 SCF Energy (H0 + V/2)                       =   -1180.75668320 
 Solute Internal Energy (H0)                 =   -1180.74723056 
 Total Free Energy (H0 + V/2 + non-elec)     =   -1180.75668320 hartree
                                             = -740936.00165256 kcal/mol
***********************************************************

 SCF   energy in the final basis set =    -1180.7566831968
 Total energy in the final basis set =    -1180.7566831968


 --------------------------------------------------------------
  Generalized many-body perturbation theory program
  by Joonho Lee, Fazle Rob, Xintian Feng, Evgeny Epifanovsky

 No regularization used 
 (reg. param. = 0.0000e+00)
  (P|Q)^-1/2 Time:  CPU 1.91 s  wall 1.91 s

 In RI-MP2 calculation: 
 # of frozen core orbitals: 20

 Components of the RIMP2 correlation energy:
        aaaa    correlation energy =        -0.2515744504 a.u.
        abab    correlation energy =        -1.5040004155 a.u.
        bbbb    correlation energy =        -0.2515744504 a.u.
        non-Brillouin singles      =        -0.0000000000 a.u.
        total same-spin energy     =        -0.5031489008 a.u.
        total opposite-spin energy =        -1.5040004155 a.u.

 Total  RIMP2   correlation energy =        -2.0071493163 a.u.
        RIMP2         total energy =     -1182.7638325131 a.u.

 RI-MP2 Energy Time:  CPU 81.68 s  wall 81.95 s
 
 --------------------------------------------------------------
 
                    Orbital Energies (a.u.)
 --------------------------------------------------------------
 
 Alpha MOs
 -- Occupied --
-91.9800 -91.9399 -11.2785 -11.2673 -11.2630 -11.2553 -11.2515 -11.2457
-11.2403 -11.2313 -11.2299 -11.2194  -8.9800  -8.9446  -6.6609  -6.6604
 -6.6598  -6.6260  -6.6250  -6.6237  -1.1985  -1.1540  -1.0582  -1.0260
 -1.0051  -0.9614  -0.9116  -0.9014  -0.8146  -0.7604  -0.7357  -0.7046
 -0.6594  -0.6413  -0.6108  -0.5901  -0.5816  -0.5719  -0.5641  -0.5522
 -0.5416  -0.5294  -0.5175  -0.5064  -0.4891  -0.4768  -0.4606  -0.4470
 -0.3548  -0.3419  -0.3150  -0.2795
 -- Virtual --
  0.0910   0.1320   0.1409   0.1499   0.1585   0.1714   0.1766   0.1843
  0.1872   0.1921   0.2037   0.2152   0.2278   0.2314   0.2359   0.2443
  0.2507   0.2582   0.2704   0.3008   0.3038   0.3388   0.3450   0.3565
  0.3625   0.3721   0.3837   0.3966   0.3993   0.4027   0.4099   0.4148
  0.4305   0.4391   0.4491   0.4548   0.4678   0.4772   0.4826   0.4883
  0.4944   0.5072   0.5155   0.5293   0.5338   0.5441   0.5516   0.5605
  0.5646   0.5811   0.5846   0.5938   0.5994   0.6053   0.6097   0.6158
  0.6238   0.6244   0.6298   0.6406   0.6417   0.6484   0.6527   0.6554
  0.6593   0.6713   0.6733   0.6865   0.6896   0.7011   0.7256   0.7300
  0.7402   0.7450   0.7564   0.7640   0.7782   0.7883   0.7985   0.8214
  0.8239   0.8461   0.8465   0.8680   0.8764   0.8866   0.8918   0.9082
  0.9301   0.9381   0.9512   0.9642   0.9785   0.9912   1.0027   1.0127
  1.0182   1.0294   1.0350   1.0412   1.0511   1.0690   1.0755   1.0799
  1.0888   1.0934   1.1118   1.1225   1.1358   1.1524   1.1672   1.1815
  1.1834   1.1909   1.1950   1.2007   1.2076   1.2233   1.2337   1.2404
  1.2515   1.2633   1.2669   1.2711   1.2764   1.2851   1.2979   1.3203
  1.3290   1.3335   1.3398   1.3648   1.3680   1.3907   1.4050   1.4087
  1.4185   1.4300   1.4445   1.4622   1.4756   1.4789   1.4853   1.5040
  1.5120   1.5198   1.5299   1.5332   1.5378   1.5427   1.5500   1.5531
  1.5652   1.5792   1.5832   1.5886   1.6149   1.6192   1.6224   1.6326
  1.6500   1.6620   1.6735   1.6885   1.6974   1.7164   1.7225   1.7405
  1.7444   1.7475   1.7681   1.7902   1.8096   1.8185   1.8514   1.8853
  1.8876   1.9057   1.9249   1.9411   1.9534   1.9604   1.9973   2.0055
  2.0271   2.0313   2.0434   2.0508   2.0879   2.1138   2.1395   2.1589
  2.1813   2.1946   2.2097   2.2169   2.2359   2.2475   2.2540   2.2706
  2.2978   2.2984   2.3363   2.3500   2.4020   2.4237   2.4615   2.4715
  2.4859   2.5141   2.5351   2.5533   2.5823   2.5951   2.6001   2.6242
  2.6384   2.6511   2.6621   2.6689   2.6799   2.6840   2.7010   2.7222
  2.7408   2.7545   2.7632   2.7711   2.7774   2.7785   2.7968   2.8198
  2.8449   2.8527   2.8616   2.8809   2.8879   2.8997   2.9100   2.9239
  2.9406   2.9529   2.9602   2.9773   2.9993   3.0147   3.0334   3.0438
  3.0472   3.0748   3.0784   3.1009   3.1110   3.1166   3.1268   3.1405
  3.1467   3.1608   3.1682   3.1728   3.1881   3.1973   3.2044   3.2127
  3.2259   3.2493   3.2568   3.2611   3.2789   3.2922   3.2978   3.3050
  3.3147   3.3213   3.3361   3.3381   3.3454   3.3559   3.3567   3.3617
  3.3697   3.3793   3.3886   3.3977   3.4122   3.4210   3.4271   3.4385
  3.4467   3.4550   3.4558   3.4758   3.4788   3.4887   3.4927   3.5002
  3.5179   3.5255   3.5371   3.5422   3.5506   3.5626   3.5659   3.5778
  3.5845   3.6132   3.6187   3.6253   3.6387   3.6461   3.6539   3.6627
  3.6702   3.6807   3.6940   3.7003   3.7061   3.7237   3.7351   3.7421
  3.7446   3.7553   3.7630   3.7760   3.7927   3.7935   3.8062   3.8184
  3.8327   3.8436   3.8535   3.8673   3.8742   3.8812   3.8949   3.9198
  3.9353   3.9478   3.9531   3.9603   3.9717   3.9932   4.0011   4.0103
  4.0256   4.0354   4.0498   4.0563   4.0642   4.0780   4.0908   4.1014
  4.1205   4.1245   4.1417   4.1511   4.1684   4.1761   4.1949   4.1972
  4.2081   4.2188   4.2288   4.2507   4.2510   4.2602   4.2631   4.2832
  4.2891   4.3070   4.3089   4.3278   4.3322   4.3513   4.3599   4.3651
  4.3788   4.3897   4.4001   4.4109   4.4146   4.4301   4.4403   4.4485
  4.4575   4.4703   4.4728   4.4848   4.5062   4.5162   4.5216   4.5478
  4.5580   4.6055   4.6135   4.6238   4.6335   4.6497   4.6631   4.6729
  4.6863   4.7208   4.7413   4.7557   4.7734   4.7894   4.8230   4.8464
  4.8612   4.8772   4.9025   4.9188   4.9478   4.9595   4.9625   4.9878
  5.0079   5.0491   5.0898   5.1077   5.1232   5.1310   5.1524   5.1679
  5.1901   5.2025   5.2341   5.2625   5.2795   5.2897   5.3054   5.3290
  5.3343   5.3616   5.3813   5.3944   5.4122   5.4322   5.4350   5.4512
  5.4607   5.5173   5.5235   5.5367   5.5477   5.5601   5.5764   5.5994
  5.6175   5.6209   5.6270   5.6541   5.6694   5.6966   5.7129   5.7402
  5.7755   5.7986   5.8315   5.9690   6.0027   6.0657   6.1338   6.1427
  6.2030   6.2242   6.2324   6.2351   6.2521   6.2847   6.2904   6.3156
  6.3829   6.5182   9.4210  10.4562  12.1005  12.9044  13.1610  13.9114
 14.1025  14.2050  14.3693  14.9244
 --------------------------------------------------------------
 
          Ground-State Mulliken Net Atomic Charges

     Atom                 Charge (a.u.)
  ----------------------------------------
      1 C                    -0.076195
      2 C                    -0.326045
      3 C                    -0.022879
      4 H                     0.176483
      5 C                     0.071387
      6 S                    -0.178626
      7 C                    -0.268279
      8 H                     0.115372
      9 H                     0.099050
     10 H                     0.111850
     11 C                    -0.060127
     12 C                    -0.267326
     13 C                     0.031886
     14 H                     0.187147
     15 C                    -0.235947
     16 S                     0.003819
     17 C                    -0.270866
     18 H                     0.101994
     19 H                     0.108700
     20 H                     0.108040
     21 H                     0.197704
     22 H                     0.110177
     23 H                     0.110814
     24 H                     0.171867
  ----------------------------------------
  Sum of atomic charges =     0.000000

 -----------------------------------------------------------------
                    Cartesian Multipole Moments
 -----------------------------------------------------------------
    Charge (ESU x 10^10)
                -0.0000
    Dipole Moment (Debye)
         X       2.7249      Y       0.6219      Z       3.1354
       Tot       4.2003
    Quadrupole Moments (Debye-Ang)
        XX     -90.3171     XY       0.5883     YY     -74.8549
        XZ       0.1594     YZ      -1.5223     ZZ     -86.2661
    Octopole Moments (Debye-Ang^2)
       XXX     -68.5889    XXY      49.5457    XYY     -13.2723
       YYY     132.6204    XXZ       1.3187    XYZ      -1.7725
       YYZ      -1.5140    XZZ     -21.9689    YZZ      59.3522
       ZZZ       2.1241
    Hexadecapole Moments (Debye-Ang^3)
      XXXX    -755.1697   XXXY    -188.0141   XXYY    -596.4795
      XYYY    -124.9472   YYYY   -2696.6402   XXXZ    -120.3174
      XXYZ     -43.3210   XYYZ     -38.8418   YYYZ    -104.5204
      XXZZ    -233.9265   XYZZ     -47.3125   YYZZ    -591.6084
      XZZZ    -129.6324   YZZZ     -89.5080   ZZZZ    -608.4485
 -----------------------------------------------------------------
 Total job time:  664.47s(wall), 658.35s(cpu) 
 Sat Jul  9 21:04:08 2022

        *************************************************************
        *                                                           *
        *  Thank you very much for using Q-Chem.  Have a nice day.  *
        *                                                           *
        *************************************************************


remove work dirs ./qchem1550412.0 -- ./qchem1550412.-1
rm -rf ./qchem1550412
