You are running Q-Chem version: 5.4.0

#
# job setting
#
local host:  exp-4-52
current dir: /expanse/lustre/scratch/theleonzhang/temp_project/Hydrogenated_Rotation_Test
input file:  Methylthiophene_Phi_5_Theta_100_Methylthiophene_Hydrogenated_Alternate.qcin
output file: 
nprocs     : 0
nthreads   : 1
#
# qchem installation setting
#
QC:          /cm/shared/apps/spack/cpu/opt/spack/linux-centos8-zen2/gcc-10.2.0/qchem-5.4-akfmr7b3t57bfs6qan3padb2wnb2i7cl
QCAUX:       /cm/shared/apps/spack/cpu/opt/spack/linux-centos8-zen2/gcc-10.2.0/qchem-5.4-akfmr7b3t57bfs6qan3padb2wnb2i7cl/qcaux
QCPROG:      /cm/shared/apps/spack/cpu/opt/spack/linux-centos8-zen2/gcc-10.2.0/qchem-5.4-akfmr7b3t57bfs6qan3padb2wnb2i7cl/exe/qcprog.exe_s
QCPROG_S:    /cm/shared/apps/spack/cpu/opt/spack/linux-centos8-zen2/gcc-10.2.0/qchem-5.4-akfmr7b3t57bfs6qan3padb2wnb2i7cl/exe/qcprog.exe_s
PARALLEL:    -DSERIAL
QCMPI:       mpich
#
# qchem directory setting
#
qcrun:       qchem2011981
QCSCRATCH:   .
QCLOCALSCR:  
QCTMPDIR:    .
QCFILEPREF:  ./qchem2011981
QCSAVEDIR:   
workdirs:    ./qchem2011981
workdir0:    ./qchem2011981
partmpdirs =  
#
# parallel setting
#
QCRSH:           ssh
QCMPI:           mpich
QCMPIRUN:        /cm/shared/apps/spack/cpu/opt/spack/linux-centos8-zen2/gcc-10.2.0/qchem-5.4-akfmr7b3t57bfs6qan3padb2wnb2i7cl/bin/mpi/mpirun_qchem
QCMACHINEFILE:   ./qchem2011981/hostfile

#
# env setting
#
exported envs:   QC QCAUX QCSCRATCH QCRUNNAME QCFILEPREF QCPROG QCPROG_S GUIFILE

Running Job 1 of 1 Methylthiophene_Phi_5_Theta_100_Methylthiophene_Hydrogenated_Alternate.qcin
qchem Methylthiophene_Phi_5_Theta_100_Methylthiophene_Hydrogenated_Alternate.qcin_2011981.0 ./qchem2011981/ 0
/cm/shared/apps/spack/cpu/opt/spack/linux-centos8-zen2/gcc-10.2.0/qchem-5.4-akfmr7b3t57bfs6qan3padb2wnb2i7cl/exe/qcprog.exe_s Methylthiophene_Phi_5_Theta_100_Methylthiophene_Hydrogenated_Alternate.qcin_2011981.0 ./qchem2011981/
                  Welcome to Q-Chem
     A Quantum Leap Into The Future Of Chemistry


 Q-Chem 5.4, Q-Chem, Inc., Pleasanton, CA (2021)

 License issued to: University of California, San Diego (site)

 E. Epifanovsky,  A. T. B. Gilbert,  Xintian Feng,  Joonho Lee,  Yuezhi Mao,  
 N. Mardirossian,  P. Pokhilko,  A. White,  M. Wormit,  M. P. Coons,  
 A. L. Dempwolff,  Zhengting Gan,  D. Hait,  P. R. Horn,  L. D. Jacobson,  
 I. Kaliman,  J. Kussmann,  A. W. Lange,  Ka Un Lao,  D. S. Levine,  Jie Liu,  
 S. C. McKenzie,  A. F. Morrison,  K. Nanda,  F. Plasser,  D. R. Rehn,  
 M. L. Vidal,  Zhi-Qiang You,  Ying Zhu,  B. Alam,  B. Albrecht,  
 A. Aldossary,  E. Alguire,  J. H. Andersen,  D. Barton,  K. Begam,  A. Behn,  
 Y. A. Bernard,  E. J. Berquist,  H. Burton,  A. Carreras,  K. Carter-Fenk,  
 R. Chakraborty,  A. D. Chien,  K. D. Closser,  V. Cofer-Shabica,  
 S. Dasgupta,  Jia Deng,  M. de Wergifosse,  M. Diedenhofen,  Hainam Do,  
 S. Ehlert,  Po-Tung Fang,  S. Fatehi,  Qingguo Feng,  J. Gayvert,  
 Qinghui Ge,  G. Gidofalvi,  M. Goldey,  J. Gomes,  C. Gonzalez-Espinoza,  
 S. Gulania,  A. Gunina,  M. W. D. Hanson-Heine,  P. H. P. Harbach,  
 A. W. Hauser,  M. F. Herbst,  M. Hernandez Vera,  M. Hodecker,  
 Z. C. Holden,  S. Houck,  Xunkun Huang,  Kerwin Hui,  B. C. Huynh,  
 M. Ivanov,  Hyunjun Ji,  Hanjie Jiang,  B. Kaduk,  S. Kaehler,  
 K. Khistyaev,  Jaehoon Kim,  P. Klunzinger,  Z. Koczor-Benda,  
 Joong Hoon Koh,  D. Kosenkov,  L. Koulias,  T. Kowalczyk,  C. M. Krauter,  
 K. Kue,  A. Kunitsa,  T. Kus,  A. Landau,  K. V. Lawler,  D. Lefrancois,  
 S. Lehtola,  Rain Li,  Yi-Pei Li,  Jiashu Liang,  M. Liebenthal,  
 Hung-Hsuan Lin,  You-Sheng Lin,  Fenglai Liu,  Kuan-Yu Liu,  
 M. Loipersberger,  A. Luenser,  A. Manjanath,  P. Manohar,  E. Mansoor,  
 S. F. Manzer,  Shan-Ping Mao,  A. V. Marenich,  T. Markovich,  S. Mason,  
 S. A. Maurer,  P. F. McLaughlin,  M. F. S. J. Menger,  J.-M. Mewes,  
 S. A. Mewes,  P. Morgante,  J. W. Mullinax,  T. S. Nguyen-Beck,  
 K. J. Oosterbaan,  G. Paran,  Alexander C. Paul,  Suranjan K. Paul,  
 F. Pavosevic,  Zheng Pei,  S. Prager,  E. I. Proynov,  E. Ramos,  B. Rana,  
 A. E. Rask,  A. Rettig,  R. M. Richard,  F. Rob,  E. Rossomme,  T. Scheele,  
 M. Scheurer,  M. Schneider,  N. Sergueev,  S. M. Sharada,  W. Skomorowski,  
 D. W. Small,  C. J. Stein,  Yu-Chuan Su,  E. J. Sundstrom,  Zhen Tao,  
 J. Thirman,  T. Tsuchimochi,  N. M. Tubman,  S. P. Veccham,  O. Vydrov,  
 J. Wenzel,  J. Witte,  A. Yamada,  Kun Yao,  S. Yeganeh,  S. R. Yost,  
 A. Zech,  Igor Ying Zhang,  Xing Zhang,  Yu Zhang,  D. Zuev,  
 A. Aspuru-Guzik,  A. T. Bell,  N. A. Besley,  K. B. Bravaya,  B. R. Brooks,  
 D. Casanova,  Jeng-Da Chai,  S. Coriani,  C. J. Cramer,  
 A. E. DePrince, III,  R. A. DiStasio Jr.,  A. Dreuw,  B. D. Dunietz,  
 T. R. Furlani,  W. A. Goddard III,  S. Grimme,  S. Hammes-Schiffer,  
 T. Head-Gordon,  W. J. Hehre,  Chao-Ping Hsu,  T.-C. Jagau,  Yousung Jung,  
 A. Klamt,  Jing Kong,  D. S. Lambrecht,  WanZhen Liang,  N. J. Mayhall,  
 C. W. McCurdy,  J. B. Neaton,  C. Ochsenfeld,  J. A. Parkhill,  R. Peverati,  
 V. A. Rassolov,  Yihan Shao,  L. V. Slipchenko,  T. Stauch,  R. P. Steele,  
 J. E. Subotnik,  A. J. W. Thom,  A. Tkatchenko,  D. G. Truhlar,  
 T. Van Voorhis,  T. A. Wesolowski,  K. B. Whaley,  H. L. Woodcock III,  
 P. M. Zimmerman,  S. Faraji,  P. M. W. Gill,  M. Head-Gordon,  
 J. M. Herbert,  A. I. Krylov

 Contributors to earlier versions of Q-Chem not listed above: 
 R. D. Adamson,  B. Austin,  R. Baer,  J. Baker,  G. J. O. Beran,  
 K. Brandhorst,  S. T. Brown,  E. F. C. Byrd,  A. K. Chakraborty,  
 G. K. L. Chan,  Chun-Min Chang,  Yunqing Chen,  C.-L. Cheng,  
 Siu Hung Chien,  D. M. Chipman,  D. L. Crittenden,  H. Dachsel,  
 R. J. Doerksen,  A. D. Dutoi,  R. G. Edgar,  J. Fosso-Tande,  
 L. Fusti-Molnar,  D. Ghosh,  A. Ghysels,  A. Golubeva-Zadorozhnaya,  
 J. Gonthier,  M. S. Gordon,  S. R. Gwaltney,  G. Hawkins,  J. E. Herr,  
 A. Heyden,  S. Hirata,  E. G. Hohenstein,  G. Kedziora,  F. J. Keil,  
 C. Kelley,  Jihan Kim,  R. A. King,  R. Z. Khaliullin,  P. P. Korambath,  
 W. Kurlancheek,  A. Laurent,  A. M. Lee,  M. S. Lee,  S. V. Levchenko,  
 Ching Yeh Lin,  D. Liotard,  E. Livshits,  R. C. Lochan,  I. Lotan,  
 L. A. Martinez-Martinez,  P. E. Maslen,  N. Nair,  D. P. O'Neill,  
 D. Neuhauser,  E. Neuscamman,  C. M. Oana,  R. Olivares-Amaya,  R. Olson,  
 T. M. Perrine,  B. Peters,  P. A. Pieniazek,  A. Prociuk,  Y. M. Rhee,  
 J. Ritchie,  M. A. Rohrdanz,  E. Rosta,  N. J. Russ,  H. F. Schaefer III,  
 M. W. Schmidt,  N. E. Schultz,  S. Sharma,  N. Shenvi,  C. D. Sherrill,  
 A. C. Simmonett,  A. Sodt,  T. Stein,  D. Stuck,  K. S. Thanthiriwatte,  
 V. Vanovschi,  L. Vogt,  Tao Wang,  A. Warshel,  M. A. Watson,  
 C. F. Williams,  Q. Wu,  X. Xu,  Jun Yang,  W. Zhang,  Yan Zhao

 Please cite Q-Chem as follows:
 Y. Shao et al., Mol. Phys. 113, 184-215 (2015)
 DOI: 10.1080/00268976.2014.952696

 Q-Chem 5.4.0 for Intel X86 EM64T Linux

 Parts of Q-Chem use Armadillo 9.800.1 (Horizon Scraper).
 http://arma.sourceforge.net/

 Q-Chem begins on Sun Jul 10 02:19:19 2022  

 Host: 
0

     Scratch files written to ./qchem2011981//
 May1621 |scratch|qcdevops|jenkins|workspace|build_RNUM    
 Processing $rem in /cm/shared/apps/spack/cpu/opt/spack/linux-centos8-zen2/gcc-10.2.0/qchem-5.4-akfmr7b3t57bfs6qan3padb2wnb2i7cl/config/preferences:
 Processing $rem in /home/theleonzhang/.qchemrc:
 Symmetry turned off for PCM/SM12/SMD calculation
 Core orbitals will be frozen

 Checking the input file for inconsistencies... 	...done.

--------------------------------------------------------------
User input:
--------------------------------------------------------------
$molecule
0 1
C	-0.763228	-3.866725	-0.135301
C	0.603311	-3.703963	0.106073
C	1.050423	-2.357056	0.185286
H	1.283188	-4.561092	0.225783
C	-0.000000	-1.440664	-0.000000
S	-1.521021	-2.286957	-0.268187
C	2.483507	-1.978743	0.438209
H	3.118798	-2.878678	0.550153
H	2.593381	-1.376015	1.363906
H	2.903516	-1.375728	-0.393798
C	0.000000	0.000000	0.000000
C	0.075300	0.860311	1.099446
C	0.195935	2.238951	0.776721
H	0.043151	0.492916	2.136088
C	0.215188	2.458766	-0.612546
S	0.082160	0.938811	-1.486809
C	0.290762	3.322559	1.814609
H	0.253664	2.898542	2.836676
H	-0.541206	4.052140	1.726239
H	1.236797	3.896558	1.726228
H	0.297938	3.404370	-1.161575
H	-1.258111	-4.392713	0.688674
H	-0.946272	-4.392347	-1.079084
H	0.187654	-1.440391	-1.063572
$end

$rem
JOBTYPE		SP
EXCHANGE	HF
CORRELATION	pRIMP2
BASIS		cc-pvtz
METHOD		rimp2
AUX_BASIS	rimp2-cc-pvtz
SOLVENT_METHOD	PCM
PURECART	11111
SYMMETRY	false
MEM_TOTAL	110000
SCF_CONVERGENCE = 6
THRESH=10
$end



$solvent
dielectric 4.90
$end
--------------------------------------------------------------
 ----------------------------------------------------------------
             Standard Nuclear Orientation (Angstroms)
    I     Atom           X                Y                Z
 ----------------------------------------------------------------
    1      C      -0.7632280000    -3.8667250000    -0.1353010000
    2      C       0.6033110000    -3.7039630000     0.1060730000
    3      C       1.0504230000    -2.3570560000     0.1852860000
    4      H       1.2831880000    -4.5610920000     0.2257830000
    5      C       0.0000000000    -1.4406640000     0.0000000000
    6      S      -1.5210210000    -2.2869570000    -0.2681870000
    7      C       2.4835070000    -1.9787430000     0.4382090000
    8      H       3.1187980000    -2.8786780000     0.5501530000
    9      H       2.5933810000    -1.3760150000     1.3639060000
   10      H       2.9035160000    -1.3757280000    -0.3937980000
   11      C       0.0000000000     0.0000000000     0.0000000000
   12      C       0.0753000000     0.8603110000     1.0994460000
   13      C       0.1959350000     2.2389510000     0.7767210000
   14      H       0.0431510000     0.4929160000     2.1360880000
   15      C       0.2151880000     2.4587660000    -0.6125460000
   16      S       0.0821600000     0.9388110000    -1.4868090000
   17      C       0.2907620000     3.3225590000     1.8146090000
   18      H       0.2536640000     2.8985420000     2.8366760000
   19      H      -0.5412060000     4.0521400000     1.7262390000
   20      H       1.2367970000     3.8965580000     1.7262280000
   21      H       0.2979380000     3.4043700000    -1.1615750000
   22      H      -1.2581110000    -4.3927130000     0.6886740000
   23      H      -0.9462720000    -4.3923470000    -1.0790840000
   24      H       0.1876540000    -1.4403910000    -1.0635720000
 ----------------------------------------------------------------
 Nuclear Repulsion Energy =         871.95311263 hartrees
 There are       52 alpha and       52 beta electrons

 Q-Chem warning in module forms1/BasisType.C, line 2236:

 You are not using the predefined 5D/6D in this basis set.

 Requested basis set is cc-pVTZ
 There are 196 shells and 536 basis functions

 Total QAlloc Memory Limit 110000 MB
 Mega-Array Size       188 MB
 MEM_STATIC part       192 MB
 Discretize the solute cavity surface with Lebedev spheres
	Using 110 Lebedev grid points for each H atom
	Using 194 Lebedev grid points for other atoms
	Atomic van der Waals radii will be scaled by 1.20
 Remove points where switching function is < 1.0e-08
 Keep 1633 surface tesserae and discard 2015 interior tesserae
 Molecular Surface Area = 239.113 Angst**2
 Requested basis set is rimp2-cc-pVTZ
 There are 414 shells and 1414 basis functions
 A cutoff of  1.0D-10 yielded  13928 shell pairs
 There are    100946 function pairs (    129572 Cartesian)
 Smallest overlap matrix eigenvalue = 5.81E-05

 Scale SEOQF with 1.000000e-01/1.000000e-01/1.000000e-01

 Standard Electronic Orientation quadrupole field applied
 Nucleus-field energy     =     0.0000000369 hartrees
 Guess from superposition of atomic densities
 Warning:  Energy on first SCF cycle will be non-variational
 SAD guess density has 104.000000 electrons

 -----------------------------------------------------------------------
  General SCF calculation program by
  Eric Jon Sundstrom, Paul Horn, Yuezhi Mao, Dmitri Zuev, Alec White,
  David Stuck, Shaama M.S., Shane Yost, Joonho Lee, David Small,
  Daniel Levine, Susi Lehtola, Hugh Burton, Evgeny Epifanovsky,
  Bang C. Huynh
 -----------------------------------------------------------------------
 Hartree-Fock
 A restricted SCF calculation will be
 performed using DIIS
 SCF converges when DIIS error is below 1.0e-06
 ---------------------------------------
  Cycle       Energy         DIIS error
 ---------------------------------------
    1   -1186.0196200217      2.39e-02  
    2   -1180.6152353407      1.56e-03  
    3   -1180.7400182758      6.02e-04  
    4   -1180.7541541285      3.27e-04  
    5   -1180.7590427980      6.02e-05  
    6   -1180.7592900082      2.46e-05  
    7   -1180.7593499456      9.19e-06  
    8   -1180.7593637951      4.47e-06  
    9   -1180.7593669971      1.47e-06  
   10   -1180.7593674652      5.04e-07  Convergence criterion met
 ---------------------------------------
 SCF time:   CPU 567.51s  wall 569.00s 

************** Final PCM Free Energy Summary **************
 G_electrostatic  =      -0.00887608 hartree =      -5.56982680 kcal/mol
 G_cavitation     =       0.00000000 hartree =       0.00000000 kcal/mol
 G_dispersion     =       0.00000000 hartree =       0.00000000 kcal/mol
 G_repulsion      =       0.00000000 hartree =       0.00000000 kcal/mol
 --------------------------------------------------
 Non-electrostatic Free Energy =       0.00000000 hartree =       0.00000000 kcal/mol
 Total                         =      -0.00887608 hartree =      -5.56982680 kcal/mol
 --------------------------------------------------
 SCF Energy (H0 + V/2)                       =   -1180.75936747 
 Solute Internal Energy (H0)                 =   -1180.75049138 
 Total Free Energy (H0 + V/2 + non-elec)     =   -1180.75936747 hartree
                                             = -740937.68605636 kcal/mol
***********************************************************

 SCF   energy in the final basis set =    -1180.7593674652
 Total energy in the final basis set =    -1180.7593674652


 --------------------------------------------------------------
  Generalized many-body perturbation theory program
  by Joonho Lee, Fazle Rob, Xintian Feng, Evgeny Epifanovsky

 No regularization used 
 (reg. param. = 0.0000e+00)
  (P|Q)^-1/2 Time:  CPU 1.90 s  wall 1.90 s

 In RI-MP2 calculation: 
 # of frozen core orbitals: 20

 Components of the RIMP2 correlation energy:
        aaaa    correlation energy =        -0.2509283808 a.u.
        abab    correlation energy =        -1.5024461431 a.u.
        bbbb    correlation energy =        -0.2509283808 a.u.
        non-Brillouin singles      =        -0.0000000000 a.u.
        total same-spin energy     =        -0.5018567616 a.u.
        total opposite-spin energy =        -1.5024461431 a.u.

 Total  RIMP2   correlation energy =        -2.0043029047 a.u.
        RIMP2         total energy =     -1182.7636703699 a.u.

 RI-MP2 Energy Time:  CPU 79.40 s  wall 79.68 s
 
 --------------------------------------------------------------
 
                    Orbital Energies (a.u.)
 --------------------------------------------------------------
 
 Alpha MOs
 -- Occupied --
-91.9865 -91.9406 -11.2789 -11.2654 -11.2629 -11.2551 -11.2510 -11.2405
-11.2387 -11.2314 -11.2289 -11.2191  -8.9861  -8.9454  -6.6670  -6.6665
 -6.6659  -6.6267  -6.6257  -6.6244  -1.1981  -1.1536  -1.0587  -1.0263
 -1.0025  -0.9632  -0.9128  -0.9004  -0.8129  -0.7618  -0.7426  -0.7035
 -0.6537  -0.6341  -0.6110  -0.5876  -0.5769  -0.5722  -0.5688  -0.5542
 -0.5430  -0.5296  -0.5141  -0.5055  -0.4911  -0.4809  -0.4640  -0.4483
 -0.3561  -0.3415  -0.3129  -0.2811
 -- Virtual --
  0.0953   0.1279   0.1400   0.1519   0.1593   0.1670   0.1775   0.1838
  0.1872   0.1927   0.2045   0.2124   0.2299   0.2340   0.2393   0.2444
  0.2474   0.2618   0.2687   0.2919   0.3036   0.3395   0.3475   0.3516
  0.3676   0.3738   0.3750   0.3865   0.3916   0.3973   0.4117   0.4195
  0.4353   0.4445   0.4553   0.4592   0.4697   0.4770   0.4836   0.4898
  0.5014   0.5077   0.5229   0.5286   0.5333   0.5398   0.5489   0.5551
  0.5682   0.5781   0.5826   0.5941   0.5980   0.6087   0.6120   0.6174
  0.6211   0.6269   0.6286   0.6400   0.6435   0.6447   0.6500   0.6524
  0.6585   0.6704   0.6717   0.6845   0.6939   0.7014   0.7117   0.7316
  0.7393   0.7456   0.7561   0.7684   0.7717   0.7999   0.8125   0.8239
  0.8273   0.8400   0.8520   0.8637   0.8710   0.8982   0.9014   0.9138
  0.9186   0.9381   0.9495   0.9524   0.9722   0.9924   0.9956   1.0096
  1.0181   1.0207   1.0312   1.0418   1.0513   1.0610   1.0721   1.0803
  1.0840   1.0977   1.1051   1.1217   1.1319   1.1577   1.1621   1.1695
  1.1785   1.1922   1.1964   1.2054   1.2141   1.2235   1.2354   1.2455
  1.2519   1.2586   1.2633   1.2721   1.2757   1.2887   1.3041   1.3180
  1.3265   1.3360   1.3555   1.3620   1.3683   1.3819   1.4073   1.4105
  1.4232   1.4266   1.4552   1.4578   1.4625   1.4782   1.4909   1.4955
  1.5005   1.5088   1.5224   1.5326   1.5354   1.5445   1.5454   1.5570
  1.5659   1.5788   1.5811   1.5955   1.6103   1.6227   1.6340   1.6373
  1.6581   1.6785   1.6865   1.6941   1.7086   1.7124   1.7221   1.7223
  1.7384   1.7509   1.7617   1.7851   1.8113   1.8169   1.8599   1.8615
  1.8859   1.8975   1.9153   1.9278   1.9550   1.9730   1.9869   2.0052
  2.0132   2.0293   2.0354   2.0524   2.0810   2.1247   2.1342   2.1493
  2.1837   2.1977   2.2031   2.2172   2.2189   2.2366   2.2666   2.2854
  2.3172   2.3267   2.3413   2.3783   2.4066   2.4291   2.4568   2.4651
  2.5018   2.5041   2.5213   2.5404   2.5615   2.6015   2.6083   2.6191
  2.6246   2.6364   2.6507   2.6544   2.6773   2.6817   2.7057   2.7189
  2.7352   2.7450   2.7607   2.7662   2.7728   2.7779   2.7965   2.8319
  2.8374   2.8542   2.8598   2.8700   2.8874   2.9075   2.9172   2.9219
  2.9297   2.9504   2.9640   2.9795   3.0071   3.0265   3.0337   3.0423
  3.0594   3.0775   3.0996   3.1107   3.1125   3.1214   3.1344   3.1399
  3.1510   3.1556   3.1616   3.1713   3.1813   3.1945   3.2035   3.2131
  3.2372   3.2389   3.2451   3.2680   3.2730   3.2784   3.2992   3.3048
  3.3184   3.3258   3.3296   3.3339   3.3442   3.3538   3.3583   3.3603
  3.3791   3.3849   3.3945   3.3976   3.4074   3.4154   3.4161   3.4332
  3.4338   3.4461   3.4555   3.4664   3.4825   3.4886   3.5077   3.5124
  3.5201   3.5280   3.5361   3.5365   3.5536   3.5547   3.5709   3.5772
  3.5803   3.6030   3.6148   3.6175   3.6318   3.6374   3.6513   3.6565
  3.6640   3.6792   3.6840   3.6942   3.7023   3.7156   3.7292   3.7348
  3.7450   3.7504   3.7619   3.7813   3.7818   3.7862   3.8101   3.8172
  3.8311   3.8373   3.8608   3.8696   3.8770   3.8816   3.9060   3.9172
  3.9210   3.9368   3.9595   3.9640   3.9744   3.9883   3.9935   4.0085
  4.0319   4.0493   4.0517   4.0584   4.0759   4.0834   4.0942   4.0988
  4.1255   4.1361   4.1489   4.1595   4.1666   4.1685   4.1726   4.2032
  4.2094   4.2195   4.2325   4.2407   4.2513   4.2610   4.2752   4.2844
  4.2894   4.2938   4.3202   4.3240   4.3411   4.3490   4.3616   4.3747
  4.3825   4.3962   4.3994   4.4032   4.4169   4.4226   4.4341   4.4506
  4.4661   4.4747   4.4800   4.4811   4.4891   4.5154   4.5372   4.5586
  4.5733   4.5800   4.6118   4.6181   4.6270   4.6431   4.6488   4.6644
  4.6868   4.7009   4.7435   4.7557   4.7687   4.8009   4.8182   4.8411
  4.8533   4.8776   4.8948   4.8987   4.9267   4.9577   4.9740   4.9995
  5.0210   5.0491   5.0880   5.1040   5.1133   5.1273   5.1474   5.1877
  5.2040   5.2226   5.2294   5.2613   5.2768   5.2870   5.3072   5.3228
  5.3555   5.3659   5.3778   5.4023   5.4070   5.4211   5.4430   5.4552
  5.4664   5.5220   5.5325   5.5386   5.5491   5.5562   5.5756   5.5977
  5.6186   5.6251   5.6324   5.6675   5.6878   5.6921   5.7052   5.7365
  5.7655   5.7857   5.8332   5.9606   5.9938   6.0683   6.1265   6.1446
  6.2054   6.2162   6.2248   6.2305   6.2558   6.2792   6.3099   6.3252
  6.3847   6.5242   9.3952  10.6152  12.0920  12.9373  13.1713  14.0096
 14.0706  14.2083  14.3321  14.7564
 --------------------------------------------------------------
 
          Ground-State Mulliken Net Atomic Charges

     Atom                 Charge (a.u.)
  ----------------------------------------
      1 C                    -0.078734
      2 C                    -0.330373
      3 C                    -0.014071
      4 H                     0.176377
      5 C                     0.105679
      6 S                    -0.178391
      7 C                    -0.265862
      8 H                     0.113666
      9 H                     0.104799
     10 H                     0.103162
     11 C                    -0.116727
     12 C                    -0.224410
     13 C                     0.018143
     14 H                     0.186627
     15 C                    -0.244700
     16 S                     0.015402
     17 C                    -0.272506
     18 H                     0.102777
     19 H                     0.108542
     20 H                     0.107471
     21 H                     0.198920
     22 H                     0.113658
     23 H                     0.110738
     24 H                     0.159812
  ----------------------------------------
  Sum of atomic charges =     0.000000

 -----------------------------------------------------------------
                    Cartesian Multipole Moments
 -----------------------------------------------------------------
    Charge (ESU x 10^10)
                -0.0000
    Dipole Moment (Debye)
         X       2.7046      Y       0.7181      Z       1.1485
       Tot       3.0248
    Quadrupole Moments (Debye-Ang)
        XX     -91.8204     XY      -2.9031     YY     -73.6912
        XZ       0.3745     YZ       1.6596     ZZ     -85.7952
    Octopole Moments (Debye-Ang^2)
       XXX     -13.7255    XXY      41.1780    XYY      -3.0564
       YYY     126.5747    XXZ       0.7049    XYZ      -1.8286
       YYZ      -6.0802    XZZ      -7.1533    YZZ      55.9020
       ZZZ       3.3880
    Hexadecapole Moments (Debye-Ang^3)
      XXXX    -695.6029   XXXY     -79.0412   XXYY    -617.8052
      XYYY     -33.1480   YYYY   -2781.3305   XXXZ     -51.8952
      XXYZ     -36.9225   XYYZ     -13.3577   YYYZ    -107.3023
      XXZZ    -220.0214   XYZZ     -10.6830   YYZZ    -598.0485
      XZZZ     -59.0926   YZZZ     -96.8459   ZZZZ    -553.3828
 -----------------------------------------------------------------
 Total job time:  652.33s(wall), 647.78s(cpu) 
 Sun Jul 10 02:30:11 2022

        *************************************************************
        *                                                           *
        *  Thank you very much for using Q-Chem.  Have a nice day.  *
        *                                                           *
        *************************************************************


remove work dirs ./qchem2011981.0 -- ./qchem2011981.-1
rm -rf ./qchem2011981
