You are running Q-Chem version: 5.4.0

#
# job setting
#
local host:  exp-4-15
current dir: /expanse/lustre/scratch/theleonzhang/temp_project/Hydrogenated_Rotation_Test
input file:  Methylthiophene_Phi_60_Theta_250_Methylthiophene_Hydrogenated_Alternate.qcin
output file: 
nprocs     : 0
nthreads   : 1
#
# qchem installation setting
#
QC:          /cm/shared/apps/spack/cpu/opt/spack/linux-centos8-zen2/gcc-10.2.0/qchem-5.4-akfmr7b3t57bfs6qan3padb2wnb2i7cl
QCAUX:       /cm/shared/apps/spack/cpu/opt/spack/linux-centos8-zen2/gcc-10.2.0/qchem-5.4-akfmr7b3t57bfs6qan3padb2wnb2i7cl/qcaux
QCPROG:      /cm/shared/apps/spack/cpu/opt/spack/linux-centos8-zen2/gcc-10.2.0/qchem-5.4-akfmr7b3t57bfs6qan3padb2wnb2i7cl/exe/qcprog.exe_s
QCPROG_S:    /cm/shared/apps/spack/cpu/opt/spack/linux-centos8-zen2/gcc-10.2.0/qchem-5.4-akfmr7b3t57bfs6qan3padb2wnb2i7cl/exe/qcprog.exe_s
PARALLEL:    -DSERIAL
QCMPI:       mpich
#
# qchem directory setting
#
qcrun:       qchem287473
QCSCRATCH:   .
QCLOCALSCR:  
QCTMPDIR:    .
QCFILEPREF:  ./qchem287473
QCSAVEDIR:   
workdirs:    ./qchem287473
workdir0:    ./qchem287473
partmpdirs =  
#
# parallel setting
#
QCRSH:           ssh
QCMPI:           mpich
QCMPIRUN:        /cm/shared/apps/spack/cpu/opt/spack/linux-centos8-zen2/gcc-10.2.0/qchem-5.4-akfmr7b3t57bfs6qan3padb2wnb2i7cl/bin/mpi/mpirun_qchem
QCMACHINEFILE:   ./qchem287473/hostfile

#
# env setting
#
exported envs:   QC QCAUX QCSCRATCH QCRUNNAME QCFILEPREF QCPROG QCPROG_S GUIFILE

Running Job 1 of 1 Methylthiophene_Phi_60_Theta_250_Methylthiophene_Hydrogenated_Alternate.qcin
qchem Methylthiophene_Phi_60_Theta_250_Methylthiophene_Hydrogenated_Alternate.qcin_287473.0 ./qchem287473/ 0
/cm/shared/apps/spack/cpu/opt/spack/linux-centos8-zen2/gcc-10.2.0/qchem-5.4-akfmr7b3t57bfs6qan3padb2wnb2i7cl/exe/qcprog.exe_s Methylthiophene_Phi_60_Theta_250_Methylthiophene_Hydrogenated_Alternate.qcin_287473.0 ./qchem287473/
                  Welcome to Q-Chem
     A Quantum Leap Into The Future Of Chemistry


 Q-Chem 5.4, Q-Chem, Inc., Pleasanton, CA (2021)

 License issued to: University of California, San Diego (site)

 E. Epifanovsky,  A. T. B. Gilbert,  Xintian Feng,  Joonho Lee,  Yuezhi Mao,  
 N. Mardirossian,  P. Pokhilko,  A. White,  M. Wormit,  M. P. Coons,  
 A. L. Dempwolff,  Zhengting Gan,  D. Hait,  P. R. Horn,  L. D. Jacobson,  
 I. Kaliman,  J. Kussmann,  A. W. Lange,  Ka Un Lao,  D. S. Levine,  Jie Liu,  
 S. C. McKenzie,  A. F. Morrison,  K. Nanda,  F. Plasser,  D. R. Rehn,  
 M. L. Vidal,  Zhi-Qiang You,  Ying Zhu,  B. Alam,  B. Albrecht,  
 A. Aldossary,  E. Alguire,  J. H. Andersen,  D. Barton,  K. Begam,  A. Behn,  
 Y. A. Bernard,  E. J. Berquist,  H. Burton,  A. Carreras,  K. Carter-Fenk,  
 R. Chakraborty,  A. D. Chien,  K. D. Closser,  V. Cofer-Shabica,  
 S. Dasgupta,  Jia Deng,  M. de Wergifosse,  M. Diedenhofen,  Hainam Do,  
 S. Ehlert,  Po-Tung Fang,  S. Fatehi,  Qingguo Feng,  J. Gayvert,  
 Qinghui Ge,  G. Gidofalvi,  M. Goldey,  J. Gomes,  C. Gonzalez-Espinoza,  
 S. Gulania,  A. Gunina,  M. W. D. Hanson-Heine,  P. H. P. Harbach,  
 A. W. Hauser,  M. F. Herbst,  M. Hernandez Vera,  M. Hodecker,  
 Z. C. Holden,  S. Houck,  Xunkun Huang,  Kerwin Hui,  B. C. Huynh,  
 M. Ivanov,  Hyunjun Ji,  Hanjie Jiang,  B. Kaduk,  S. Kaehler,  
 K. Khistyaev,  Jaehoon Kim,  P. Klunzinger,  Z. Koczor-Benda,  
 Joong Hoon Koh,  D. Kosenkov,  L. Koulias,  T. Kowalczyk,  C. M. Krauter,  
 K. Kue,  A. Kunitsa,  T. Kus,  A. Landau,  K. V. Lawler,  D. Lefrancois,  
 S. Lehtola,  Rain Li,  Yi-Pei Li,  Jiashu Liang,  M. Liebenthal,  
 Hung-Hsuan Lin,  You-Sheng Lin,  Fenglai Liu,  Kuan-Yu Liu,  
 M. Loipersberger,  A. Luenser,  A. Manjanath,  P. Manohar,  E. Mansoor,  
 S. F. Manzer,  Shan-Ping Mao,  A. V. Marenich,  T. Markovich,  S. Mason,  
 S. A. Maurer,  P. F. McLaughlin,  M. F. S. J. Menger,  J.-M. Mewes,  
 S. A. Mewes,  P. Morgante,  J. W. Mullinax,  T. S. Nguyen-Beck,  
 K. J. Oosterbaan,  G. Paran,  Alexander C. Paul,  Suranjan K. Paul,  
 F. Pavosevic,  Zheng Pei,  S. Prager,  E. I. Proynov,  E. Ramos,  B. Rana,  
 A. E. Rask,  A. Rettig,  R. M. Richard,  F. Rob,  E. Rossomme,  T. Scheele,  
 M. Scheurer,  M. Schneider,  N. Sergueev,  S. M. Sharada,  W. Skomorowski,  
 D. W. Small,  C. J. Stein,  Yu-Chuan Su,  E. J. Sundstrom,  Zhen Tao,  
 J. Thirman,  T. Tsuchimochi,  N. M. Tubman,  S. P. Veccham,  O. Vydrov,  
 J. Wenzel,  J. Witte,  A. Yamada,  Kun Yao,  S. Yeganeh,  S. R. Yost,  
 A. Zech,  Igor Ying Zhang,  Xing Zhang,  Yu Zhang,  D. Zuev,  
 A. Aspuru-Guzik,  A. T. Bell,  N. A. Besley,  K. B. Bravaya,  B. R. Brooks,  
 D. Casanova,  Jeng-Da Chai,  S. Coriani,  C. J. Cramer,  
 A. E. DePrince, III,  R. A. DiStasio Jr.,  A. Dreuw,  B. D. Dunietz,  
 T. R. Furlani,  W. A. Goddard III,  S. Grimme,  S. Hammes-Schiffer,  
 T. Head-Gordon,  W. J. Hehre,  Chao-Ping Hsu,  T.-C. Jagau,  Yousung Jung,  
 A. Klamt,  Jing Kong,  D. S. Lambrecht,  WanZhen Liang,  N. J. Mayhall,  
 C. W. McCurdy,  J. B. Neaton,  C. Ochsenfeld,  J. A. Parkhill,  R. Peverati,  
 V. A. Rassolov,  Yihan Shao,  L. V. Slipchenko,  T. Stauch,  R. P. Steele,  
 J. E. Subotnik,  A. J. W. Thom,  A. Tkatchenko,  D. G. Truhlar,  
 T. Van Voorhis,  T. A. Wesolowski,  K. B. Whaley,  H. L. Woodcock III,  
 P. M. Zimmerman,  S. Faraji,  P. M. W. Gill,  M. Head-Gordon,  
 J. M. Herbert,  A. I. Krylov

 Contributors to earlier versions of Q-Chem not listed above: 
 R. D. Adamson,  B. Austin,  R. Baer,  J. Baker,  G. J. O. Beran,  
 K. Brandhorst,  S. T. Brown,  E. F. C. Byrd,  A. K. Chakraborty,  
 G. K. L. Chan,  Chun-Min Chang,  Yunqing Chen,  C.-L. Cheng,  
 Siu Hung Chien,  D. M. Chipman,  D. L. Crittenden,  H. Dachsel,  
 R. J. Doerksen,  A. D. Dutoi,  R. G. Edgar,  J. Fosso-Tande,  
 L. Fusti-Molnar,  D. Ghosh,  A. Ghysels,  A. Golubeva-Zadorozhnaya,  
 J. Gonthier,  M. S. Gordon,  S. R. Gwaltney,  G. Hawkins,  J. E. Herr,  
 A. Heyden,  S. Hirata,  E. G. Hohenstein,  G. Kedziora,  F. J. Keil,  
 C. Kelley,  Jihan Kim,  R. A. King,  R. Z. Khaliullin,  P. P. Korambath,  
 W. Kurlancheek,  A. Laurent,  A. M. Lee,  M. S. Lee,  S. V. Levchenko,  
 Ching Yeh Lin,  D. Liotard,  E. Livshits,  R. C. Lochan,  I. Lotan,  
 L. A. Martinez-Martinez,  P. E. Maslen,  N. Nair,  D. P. O'Neill,  
 D. Neuhauser,  E. Neuscamman,  C. M. Oana,  R. Olivares-Amaya,  R. Olson,  
 T. M. Perrine,  B. Peters,  P. A. Pieniazek,  A. Prociuk,  Y. M. Rhee,  
 J. Ritchie,  M. A. Rohrdanz,  E. Rosta,  N. J. Russ,  H. F. Schaefer III,  
 M. W. Schmidt,  N. E. Schultz,  S. Sharma,  N. Shenvi,  C. D. Sherrill,  
 A. C. Simmonett,  A. Sodt,  T. Stein,  D. Stuck,  K. S. Thanthiriwatte,  
 V. Vanovschi,  L. Vogt,  Tao Wang,  A. Warshel,  M. A. Watson,  
 C. F. Williams,  Q. Wu,  X. Xu,  Jun Yang,  W. Zhang,  Yan Zhao

 Please cite Q-Chem as follows:
 Y. Shao et al., Mol. Phys. 113, 184-215 (2015)
 DOI: 10.1080/00268976.2014.952696

 Q-Chem 5.4.0 for Intel X86 EM64T Linux

 Parts of Q-Chem use Armadillo 9.800.1 (Horizon Scraper).
 http://arma.sourceforge.net/

 Q-Chem begins on Sun Jul 10 05:42:03 2022  

 Host: 
0

     Scratch files written to ./qchem287473//
 May1621 |scratch|qcdevops|jenkins|workspace|build_RNUM    
 Processing $rem in /cm/shared/apps/spack/cpu/opt/spack/linux-centos8-zen2/gcc-10.2.0/qchem-5.4-akfmr7b3t57bfs6qan3padb2wnb2i7cl/config/preferences:
 Processing $rem in /home/theleonzhang/.qchemrc:
 Symmetry turned off for PCM/SM12/SMD calculation
 Core orbitals will be frozen

 Checking the input file for inconsistencies... 	...done.

--------------------------------------------------------------
User input:
--------------------------------------------------------------
$molecule
0 1
C	0.728625	-3.866725	-0.264439
C	-0.575519	-3.703963	0.209794
C	-1.002336	-2.357056	0.364749
H	-1.224165	-4.561092	0.446060
C	0.000000	-1.440664	0.000000
S	1.451336	-2.286957	-0.528253
C	-2.369885	-1.978743	0.862253
H	-2.976034	-2.878678	1.082953
H	-2.927887	-1.376015	0.115513
H	-2.317620	-1.375728	1.792797
C	0.000000	0.000000	0.000000
C	0.747916	0.431772	1.099446
C	1.946425	1.123709	0.776721
H	0.428523	0.247378	2.136088
C	2.137531	1.234018	-0.612546
S	0.816154	0.471179	-1.486809
C	2.888455	1.667564	1.814609
H	2.519842	1.454746	2.836676
H	3.008896	2.767543	1.726239
H	3.901271	1.221850	1.726228
H	2.959587	1.708609	-1.161575
H	0.745219	-4.392713	-1.225465
H	1.359038	-4.392347	0.461378
H	0.369273	-1.440391	1.014907
$end

$rem
JOBTYPE		SP
EXCHANGE	HF
CORRELATION	pRIMP2
BASIS		cc-pvtz
METHOD		rimp2
AUX_BASIS	rimp2-cc-pvtz
SOLVENT_METHOD	PCM
PURECART	11111
SYMMETRY	false
MEM_TOTAL	110000
SCF_CONVERGENCE = 6
THRESH=10
$end



$solvent
dielectric 4.90
$end
--------------------------------------------------------------
 ----------------------------------------------------------------
             Standard Nuclear Orientation (Angstroms)
    I     Atom           X                Y                Z
 ----------------------------------------------------------------
    1      C       0.7286250000    -3.8667250000    -0.2644390000
    2      C      -0.5755190000    -3.7039630000     0.2097940000
    3      C      -1.0023360000    -2.3570560000     0.3647490000
    4      H      -1.2241650000    -4.5610920000     0.4460600000
    5      C       0.0000000000    -1.4406640000     0.0000000000
    6      S       1.4513360000    -2.2869570000    -0.5282530000
    7      C      -2.3698850000    -1.9787430000     0.8622530000
    8      H      -2.9760340000    -2.8786780000     1.0829530000
    9      H      -2.9278870000    -1.3760150000     0.1155130000
   10      H      -2.3176200000    -1.3757280000     1.7927970000
   11      C       0.0000000000     0.0000000000     0.0000000000
   12      C       0.7479160000     0.4317720000     1.0994460000
   13      C       1.9464250000     1.1237090000     0.7767210000
   14      H       0.4285230000     0.2473780000     2.1360880000
   15      C       2.1375310000     1.2340180000    -0.6125460000
   16      S       0.8161540000     0.4711790000    -1.4868090000
   17      C       2.8884550000     1.6675640000     1.8146090000
   18      H       2.5198420000     1.4547460000     2.8366760000
   19      H       3.0088960000     2.7675430000     1.7262390000
   20      H       3.9012710000     1.2218500000     1.7262280000
   21      H       2.9595870000     1.7086090000    -1.1615750000
   22      H       0.7452190000    -4.3927130000    -1.2254650000
   23      H       1.3590380000    -4.3923470000     0.4613780000
   24      H       0.3692730000    -1.4403910000     1.0149070000
 ----------------------------------------------------------------
 Nuclear Repulsion Energy =         904.02794765 hartrees
 There are       52 alpha and       52 beta electrons

 Q-Chem warning in module forms1/BasisType.C, line 2236:

 You are not using the predefined 5D/6D in this basis set.

 Requested basis set is cc-pVTZ
 There are 196 shells and 536 basis functions

 Total QAlloc Memory Limit 110000 MB
 Mega-Array Size       188 MB
 MEM_STATIC part       192 MB
 Discretize the solute cavity surface with Lebedev spheres
	Using 110 Lebedev grid points for each H atom
	Using 194 Lebedev grid points for other atoms
	Atomic van der Waals radii will be scaled by 1.20
 Remove points where switching function is < 1.0e-08
 Keep 1580 surface tesserae and discard 2068 interior tesserae
 Molecular Surface Area = 230.966 Angst**2
 Requested basis set is rimp2-cc-pVTZ
 There are 414 shells and 1414 basis functions
 A cutoff of  1.0D-10 yielded  14469 shell pairs
 There are    104905 function pairs (    134482 Cartesian)
 Smallest overlap matrix eigenvalue = 6.07E-05

 Scale SEOQF with 1.000000e-01/1.000000e-01/1.000000e-01

 Standard Electronic Orientation quadrupole field applied
 Nucleus-field energy     =     0.0000000301 hartrees
 Guess from superposition of atomic densities
 Warning:  Energy on first SCF cycle will be non-variational
 SAD guess density has 104.000000 electrons

 -----------------------------------------------------------------------
  General SCF calculation program by
  Eric Jon Sundstrom, Paul Horn, Yuezhi Mao, Dmitri Zuev, Alec White,
  David Stuck, Shaama M.S., Shane Yost, Joonho Lee, David Small,
  Daniel Levine, Susi Lehtola, Hugh Burton, Evgeny Epifanovsky,
  Bang C. Huynh
 -----------------------------------------------------------------------
 Hartree-Fock
 A restricted SCF calculation will be
 performed using DIIS
 SCF converges when DIIS error is below 1.0e-06
 ---------------------------------------
  Cycle       Energy         DIIS error
 ---------------------------------------
    1   -1186.2043532955      2.42e-02  
    2   -1180.5308271467      1.54e-03  
    3   -1180.6580352595      5.23e-04  
    4   -1180.6713224639      2.62e-04  
    5   -1180.6746204023      5.33e-05  
    6   -1180.6748758181      2.32e-05  
    7   -1180.6749510942      1.23e-05  
    8   -1180.6749771813      5.88e-06  
    9   -1180.6749856215      2.84e-06  
   10   -1180.6749873023      9.49e-07  Convergence criterion met
 ---------------------------------------
 SCF time:   CPU 607.07s  wall 609.00s 

************** Final PCM Free Energy Summary **************
 G_electrostatic  =      -0.01066279 hartree =      -6.69100062 kcal/mol
 G_cavitation     =       0.00000000 hartree =       0.00000000 kcal/mol
 G_dispersion     =       0.00000000 hartree =       0.00000000 kcal/mol
 G_repulsion      =       0.00000000 hartree =       0.00000000 kcal/mol
 --------------------------------------------------
 Non-electrostatic Free Energy =       0.00000000 hartree =       0.00000000 kcal/mol
 Total                         =      -0.01066279 hartree =      -6.69100062 kcal/mol
 --------------------------------------------------
 SCF Energy (H0 + V/2)                       =   -1180.67498730 
 Solute Internal Energy (H0)                 =   -1180.66432451 
 Total Free Energy (H0 + V/2 + non-elec)     =   -1180.67498730 hartree
                                             = -740884.73670498 kcal/mol
***********************************************************

 SCF   energy in the final basis set =    -1180.6749873023
 Total energy in the final basis set =    -1180.6749873023


 --------------------------------------------------------------
  Generalized many-body perturbation theory program
  by Joonho Lee, Fazle Rob, Xintian Feng, Evgeny Epifanovsky

 No regularization used 
 (reg. param. = 0.0000e+00)
  (P|Q)^-1/2 Time:  CPU 1.88 s  wall 1.89 s

 In RI-MP2 calculation: 
 # of frozen core orbitals: 20

 Components of the RIMP2 correlation energy:
        aaaa    correlation energy =        -0.2550168760 a.u.
        abab    correlation energy =        -1.5139156326 a.u.
        bbbb    correlation energy =        -0.2550168760 a.u.
        non-Brillouin singles      =        -0.0000000000 a.u.
        total same-spin energy     =        -0.5100337520 a.u.
        total opposite-spin energy =        -1.5139156326 a.u.

 Total  RIMP2   correlation energy =        -2.0239493846 a.u.
        RIMP2         total energy =     -1182.6989366869 a.u.

 RI-MP2 Energy Time:  CPU 80.21 s  wall 80.40 s
 
 --------------------------------------------------------------
 
                    Orbital Energies (a.u.)
 --------------------------------------------------------------
 
 Alpha MOs
 -- Occupied --
-91.9796 -91.9338 -11.2884 -11.2616 -11.2527 -11.2522 -11.2503 -11.2452
-11.2344 -11.2308 -11.2285 -11.2077  -8.9803  -8.9388  -6.6610  -6.6602
 -6.6600  -6.6202  -6.6191  -6.6179  -1.2077  -1.1519  -1.0583  -1.0255
 -1.0050  -0.9586  -0.9064  -0.9034  -0.8113  -0.7547  -0.7460  -0.6969
 -0.6592  -0.6370  -0.6111  -0.5914  -0.5807  -0.5719  -0.5631  -0.5506
 -0.5378  -0.5335  -0.5068  -0.5041  -0.4931  -0.4706  -0.4510  -0.4379
 -0.3606  -0.3281  -0.3162  -0.2657
 -- Virtual --
  0.0539   0.1368   0.1400   0.1561   0.1609   0.1698   0.1746   0.1828
  0.1899   0.1980   0.2067   0.2182   0.2211   0.2274   0.2376   0.2423
  0.2482   0.2550   0.2719   0.2937   0.3080   0.3218   0.3437   0.3506
  0.3680   0.3750   0.3788   0.3821   0.3846   0.3919   0.4151   0.4184
  0.4217   0.4348   0.4474   0.4528   0.4728   0.4793   0.4952   0.4982
  0.5024   0.5096   0.5200   0.5203   0.5366   0.5455   0.5496   0.5593
  0.5682   0.5749   0.5865   0.5979   0.6066   0.6099   0.6170   0.6205
  0.6257   0.6326   0.6342   0.6404   0.6448   0.6514   0.6550   0.6611
  0.6641   0.6792   0.6803   0.6948   0.6979   0.7041   0.7194   0.7348
  0.7419   0.7459   0.7554   0.7707   0.8006   0.8047   0.8142   0.8186
  0.8336   0.8377   0.8542   0.8651   0.8682   0.8840   0.9011   0.9081
  0.9371   0.9468   0.9571   0.9734   0.9821   0.9905   0.9988   1.0184
  1.0237   1.0328   1.0444   1.0466   1.0596   1.0669   1.0840   1.0906
  1.1044   1.1082   1.1216   1.1337   1.1450   1.1591   1.1718   1.1749
  1.1830   1.1890   1.2050   1.2085   1.2177   1.2326   1.2369   1.2503
  1.2609   1.2627   1.2670   1.2740   1.2790   1.2875   1.3004   1.3212
  1.3306   1.3471   1.3618   1.3732   1.3844   1.3962   1.4033   1.4119
  1.4301   1.4397   1.4490   1.4700   1.4717   1.4739   1.4821   1.5013
  1.5033   1.5234   1.5310   1.5372   1.5389   1.5479   1.5526   1.5617
  1.5656   1.5740   1.5802   1.5975   1.6095   1.6196   1.6340   1.6535
  1.6561   1.6647   1.6713   1.6940   1.7104   1.7169   1.7298   1.7326
  1.7450   1.7543   1.7666   1.7832   1.8073   1.8107   1.8315   1.8617
  1.8708   1.8994   1.9114   1.9370   1.9609   1.9719   1.9950   2.0120
  2.0275   2.0325   2.0517   2.0609   2.0921   2.1000   2.1289   2.1569
  2.1772   2.2009   2.2102   2.2286   2.2327   2.2501   2.2669   2.2751
  2.3219   2.3287   2.3647   2.3838   2.4198   2.4521   2.4567   2.4772
  2.4906   2.5045   2.5210   2.5396   2.5680   2.6032   2.6075   2.6268
  2.6428   2.6537   2.6707   2.6802   2.6817   2.7036   2.7235   2.7269
  2.7522   2.7663   2.7723   2.7843   2.7972   2.8118   2.8188   2.8228
  2.8442   2.8560   2.8657   2.8881   2.8987   2.9024   2.9143   2.9313
  2.9472   2.9653   2.9841   2.9988   3.0057   3.0205   3.0369   3.0535
  3.0693   3.0717   3.0887   3.1117   3.1124   3.1280   3.1411   3.1550
  3.1625   3.1735   3.1744   3.1765   3.1906   3.1941   3.2021   3.2189
  3.2294   3.2466   3.2497   3.2562   3.2692   3.2839   3.2918   3.3143
  3.3187   3.3268   3.3401   3.3435   3.3520   3.3620   3.3630   3.3688
  3.3815   3.3844   3.3981   3.4059   3.4114   3.4142   3.4208   3.4376
  3.4402   3.4513   3.4555   3.4729   3.4875   3.4990   3.5146   3.5210
  3.5252   3.5286   3.5504   3.5562   3.5666   3.5745   3.5778   3.5901
  3.6137   3.6242   3.6308   3.6337   3.6449   3.6590   3.6638   3.6738
  3.6777   3.6903   3.7028   3.7123   3.7271   3.7297   3.7452   3.7496
  3.7623   3.7674   3.7701   3.7816   3.7934   3.8083   3.8185   3.8327
  3.8459   3.8541   3.8663   3.8837   3.8848   3.9003   3.9128   3.9238
  3.9405   3.9450   3.9683   3.9769   3.9873   4.0057   4.0151   4.0219
  4.0280   4.0455   4.0580   4.0607   4.0831   4.1009   4.1071   4.1159
  4.1285   4.1416   4.1532   4.1702   4.1763   4.1791   4.2040   4.2094
  4.2126   4.2313   4.2463   4.2585   4.2666   4.2687   4.2769   4.2957
  4.3005   4.3146   4.3293   4.3384   4.3425   4.3565   4.3625   4.3712
  4.3907   4.3979   4.4061   4.4079   4.4118   4.4227   4.4436   4.4506
  4.4666   4.4709   4.4849   4.4943   4.5108   4.5367   4.5455   4.5746
  4.5976   4.6130   4.6192   4.6256   4.6315   4.6588   4.6670   4.6818
  4.6860   4.7254   4.7415   4.7803   4.8161   4.8344   4.8433   4.8499
  4.8743   4.9039   4.9169   4.9256   4.9510   4.9830   4.9926   5.0132
  5.0438   5.0478   5.0910   5.1095   5.1243   5.1346   5.1369   5.1732
  5.1854   5.2106   5.2349   5.2769   5.2858   5.2915   5.3070   5.3233
  5.3377   5.3699   5.3860   5.3988   5.4119   5.4389   5.4468   5.4581
  5.4674   5.5050   5.5145   5.5461   5.5496   5.5555   5.5692   5.5975
  5.6220   5.6274   5.6404   5.6559   5.6947   5.7042   5.7192   5.7320
  5.7738   5.8006   5.8125   5.9866   6.0138   6.0754   6.0935   6.1580
  6.2117   6.2251   6.2270   6.2290   6.2452   6.2658   6.2980   6.3281
  6.3831   6.3915   9.4163  10.5128  12.6848  12.8682  13.1853  13.9161
 14.1457  14.2511  14.3174  14.6403
 --------------------------------------------------------------
 
          Ground-State Mulliken Net Atomic Charges

     Atom                 Charge (a.u.)
  ----------------------------------------
      1 C                    -0.091437
      2 C                    -0.341578
      3 C                    -0.063184
      4 H                     0.171547
      5 C                     0.069370
      6 S                    -0.178789
      7 C                    -0.273240
      8 H                     0.112241
      9 H                     0.106375
     10 H                     0.097921
     11 C                    -0.163533
     12 C                    -0.111553
     13 C                    -0.015747
     14 H                     0.187862
     15 C                    -0.172536
     16 S                     0.029352
     17 C                    -0.268299
     18 H                     0.102203
     19 H                     0.107892
     20 H                     0.106651
     21 H                     0.201244
     22 H                     0.109290
     23 H                     0.106448
     24 H                     0.171500
  ----------------------------------------
  Sum of atomic charges =     0.000000

 -----------------------------------------------------------------
                    Cartesian Multipole Moments
 -----------------------------------------------------------------
    Charge (ESU x 10^10)
                -0.0000
    Dipole Moment (Debye)
         X       0.8768      Y       1.0168      Z       3.0117
       Tot       3.2974
    Quadrupole Moments (Debye-Ang)
        XX     -82.1344     XY       8.2110     YY     -85.2377
        XZ       0.6804     YZ      -1.6681     ZZ     -85.0804
    Octopole Moments (Debye-Ang^2)
       XXX    -159.1702    XXY      96.5670    XYY     -50.0001
       YYY     218.9897    XXZ      -2.7256    XYZ      -1.1150
       YYZ      -1.2385    XZZ     -52.5155    YZZ      87.5634
       ZZZ       2.1158
    Hexadecapole Moments (Debye-Ang^3)
      XXXX   -1314.5678   XXXY    -144.3195   XXYY    -590.5525
      XYYY    -209.0377   YYYY   -2223.2586   XXXZ      -8.7807
      XXYZ     -36.3103   XYYZ      -8.7615   YYYZ     -47.8683
      XXZZ    -319.8245   XYZZ     -58.0921   YYZZ    -507.1239
      XZZZ      12.2197   YZZZ     -44.0703   ZZZZ    -601.6699
 -----------------------------------------------------------------
 Total job time:  690.53s(wall), 688.17s(cpu) 
 Sun Jul 10 05:53:34 2022

        *************************************************************
        *                                                           *
        *  Thank you very much for using Q-Chem.  Have a nice day.  *
        *                                                           *
        *************************************************************


remove work dirs ./qchem287473.0 -- ./qchem287473.-1
rm -rf ./qchem287473
