You are running Q-Chem version: 5.4.0

#
# job setting
#
local host:  exp-2-29
current dir: /expanse/lustre/scratch/theleonzhang/temp_project/Hydrogenated_Rotation_Test
input file:  Methylthiophene_Phi_5_Theta_160_Methylthiophene_Hydrogenated.qcin
output file: 
nprocs     : 0
nthreads   : 1
#
# qchem installation setting
#
QC:          /cm/shared/apps/spack/cpu/opt/spack/linux-centos8-zen2/gcc-10.2.0/qchem-5.4-akfmr7b3t57bfs6qan3padb2wnb2i7cl
QCAUX:       /cm/shared/apps/spack/cpu/opt/spack/linux-centos8-zen2/gcc-10.2.0/qchem-5.4-akfmr7b3t57bfs6qan3padb2wnb2i7cl/qcaux
QCPROG:      /cm/shared/apps/spack/cpu/opt/spack/linux-centos8-zen2/gcc-10.2.0/qchem-5.4-akfmr7b3t57bfs6qan3padb2wnb2i7cl/exe/qcprog.exe_s
QCPROG_S:    /cm/shared/apps/spack/cpu/opt/spack/linux-centos8-zen2/gcc-10.2.0/qchem-5.4-akfmr7b3t57bfs6qan3padb2wnb2i7cl/exe/qcprog.exe_s
PARALLEL:    -DSERIAL
QCMPI:       mpich
#
# qchem directory setting
#
qcrun:       qchem346848
QCSCRATCH:   .
QCLOCALSCR:  
QCTMPDIR:    .
QCFILEPREF:  ./qchem346848
QCSAVEDIR:   
workdirs:    ./qchem346848
workdir0:    ./qchem346848
partmpdirs =  
#
# parallel setting
#
QCRSH:           ssh
QCMPI:           mpich
QCMPIRUN:        /cm/shared/apps/spack/cpu/opt/spack/linux-centos8-zen2/gcc-10.2.0/qchem-5.4-akfmr7b3t57bfs6qan3padb2wnb2i7cl/bin/mpi/mpirun_qchem
QCMACHINEFILE:   ./qchem346848/hostfile

#
# env setting
#
exported envs:   QC QCAUX QCSCRATCH QCRUNNAME QCFILEPREF QCPROG QCPROG_S GUIFILE

Running Job 1 of 1 Methylthiophene_Phi_5_Theta_160_Methylthiophene_Hydrogenated.qcin
qchem Methylthiophene_Phi_5_Theta_160_Methylthiophene_Hydrogenated.qcin_346848.0 ./qchem346848/ 0
/cm/shared/apps/spack/cpu/opt/spack/linux-centos8-zen2/gcc-10.2.0/qchem-5.4-akfmr7b3t57bfs6qan3padb2wnb2i7cl/exe/qcprog.exe_s Methylthiophene_Phi_5_Theta_160_Methylthiophene_Hydrogenated.qcin_346848.0 ./qchem346848/
                  Welcome to Q-Chem
     A Quantum Leap Into The Future Of Chemistry


 Q-Chem 5.4, Q-Chem, Inc., Pleasanton, CA (2021)

 License issued to: University of California, San Diego (site)

 E. Epifanovsky,  A. T. B. Gilbert,  Xintian Feng,  Joonho Lee,  Yuezhi Mao,  
 N. Mardirossian,  P. Pokhilko,  A. White,  M. Wormit,  M. P. Coons,  
 A. L. Dempwolff,  Zhengting Gan,  D. Hait,  P. R. Horn,  L. D. Jacobson,  
 I. Kaliman,  J. Kussmann,  A. W. Lange,  Ka Un Lao,  D. S. Levine,  Jie Liu,  
 S. C. McKenzie,  A. F. Morrison,  K. Nanda,  F. Plasser,  D. R. Rehn,  
 M. L. Vidal,  Zhi-Qiang You,  Ying Zhu,  B. Alam,  B. Albrecht,  
 A. Aldossary,  E. Alguire,  J. H. Andersen,  D. Barton,  K. Begam,  A. Behn,  
 Y. A. Bernard,  E. J. Berquist,  H. Burton,  A. Carreras,  K. Carter-Fenk,  
 R. Chakraborty,  A. D. Chien,  K. D. Closser,  V. Cofer-Shabica,  
 S. Dasgupta,  Jia Deng,  M. de Wergifosse,  M. Diedenhofen,  Hainam Do,  
 S. Ehlert,  Po-Tung Fang,  S. Fatehi,  Qingguo Feng,  J. Gayvert,  
 Qinghui Ge,  G. Gidofalvi,  M. Goldey,  J. Gomes,  C. Gonzalez-Espinoza,  
 S. Gulania,  A. Gunina,  M. W. D. Hanson-Heine,  P. H. P. Harbach,  
 A. W. Hauser,  M. F. Herbst,  M. Hernandez Vera,  M. Hodecker,  
 Z. C. Holden,  S. Houck,  Xunkun Huang,  Kerwin Hui,  B. C. Huynh,  
 M. Ivanov,  Hyunjun Ji,  Hanjie Jiang,  B. Kaduk,  S. Kaehler,  
 K. Khistyaev,  Jaehoon Kim,  P. Klunzinger,  Z. Koczor-Benda,  
 Joong Hoon Koh,  D. Kosenkov,  L. Koulias,  T. Kowalczyk,  C. M. Krauter,  
 K. Kue,  A. Kunitsa,  T. Kus,  A. Landau,  K. V. Lawler,  D. Lefrancois,  
 S. Lehtola,  Rain Li,  Yi-Pei Li,  Jiashu Liang,  M. Liebenthal,  
 Hung-Hsuan Lin,  You-Sheng Lin,  Fenglai Liu,  Kuan-Yu Liu,  
 M. Loipersberger,  A. Luenser,  A. Manjanath,  P. Manohar,  E. Mansoor,  
 S. F. Manzer,  Shan-Ping Mao,  A. V. Marenich,  T. Markovich,  S. Mason,  
 S. A. Maurer,  P. F. McLaughlin,  M. F. S. J. Menger,  J.-M. Mewes,  
 S. A. Mewes,  P. Morgante,  J. W. Mullinax,  T. S. Nguyen-Beck,  
 K. J. Oosterbaan,  G. Paran,  Alexander C. Paul,  Suranjan K. Paul,  
 F. Pavosevic,  Zheng Pei,  S. Prager,  E. I. Proynov,  E. Ramos,  B. Rana,  
 A. E. Rask,  A. Rettig,  R. M. Richard,  F. Rob,  E. Rossomme,  T. Scheele,  
 M. Scheurer,  M. Schneider,  N. Sergueev,  S. M. Sharada,  W. Skomorowski,  
 D. W. Small,  C. J. Stein,  Yu-Chuan Su,  E. J. Sundstrom,  Zhen Tao,  
 J. Thirman,  T. Tsuchimochi,  N. M. Tubman,  S. P. Veccham,  O. Vydrov,  
 J. Wenzel,  J. Witte,  A. Yamada,  Kun Yao,  S. Yeganeh,  S. R. Yost,  
 A. Zech,  Igor Ying Zhang,  Xing Zhang,  Yu Zhang,  D. Zuev,  
 A. Aspuru-Guzik,  A. T. Bell,  N. A. Besley,  K. B. Bravaya,  B. R. Brooks,  
 D. Casanova,  Jeng-Da Chai,  S. Coriani,  C. J. Cramer,  
 A. E. DePrince, III,  R. A. DiStasio Jr.,  A. Dreuw,  B. D. Dunietz,  
 T. R. Furlani,  W. A. Goddard III,  S. Grimme,  S. Hammes-Schiffer,  
 T. Head-Gordon,  W. J. Hehre,  Chao-Ping Hsu,  T.-C. Jagau,  Yousung Jung,  
 A. Klamt,  Jing Kong,  D. S. Lambrecht,  WanZhen Liang,  N. J. Mayhall,  
 C. W. McCurdy,  J. B. Neaton,  C. Ochsenfeld,  J. A. Parkhill,  R. Peverati,  
 V. A. Rassolov,  Yihan Shao,  L. V. Slipchenko,  T. Stauch,  R. P. Steele,  
 J. E. Subotnik,  A. J. W. Thom,  A. Tkatchenko,  D. G. Truhlar,  
 T. Van Voorhis,  T. A. Wesolowski,  K. B. Whaley,  H. L. Woodcock III,  
 P. M. Zimmerman,  S. Faraji,  P. M. W. Gill,  M. Head-Gordon,  
 J. M. Herbert,  A. I. Krylov

 Contributors to earlier versions of Q-Chem not listed above: 
 R. D. Adamson,  B. Austin,  R. Baer,  J. Baker,  G. J. O. Beran,  
 K. Brandhorst,  S. T. Brown,  E. F. C. Byrd,  A. K. Chakraborty,  
 G. K. L. Chan,  Chun-Min Chang,  Yunqing Chen,  C.-L. Cheng,  
 Siu Hung Chien,  D. M. Chipman,  D. L. Crittenden,  H. Dachsel,  
 R. J. Doerksen,  A. D. Dutoi,  R. G. Edgar,  J. Fosso-Tande,  
 L. Fusti-Molnar,  D. Ghosh,  A. Ghysels,  A. Golubeva-Zadorozhnaya,  
 J. Gonthier,  M. S. Gordon,  S. R. Gwaltney,  G. Hawkins,  J. E. Herr,  
 A. Heyden,  S. Hirata,  E. G. Hohenstein,  G. Kedziora,  F. J. Keil,  
 C. Kelley,  Jihan Kim,  R. A. King,  R. Z. Khaliullin,  P. P. Korambath,  
 W. Kurlancheek,  A. Laurent,  A. M. Lee,  M. S. Lee,  S. V. Levchenko,  
 Ching Yeh Lin,  D. Liotard,  E. Livshits,  R. C. Lochan,  I. Lotan,  
 L. A. Martinez-Martinez,  P. E. Maslen,  N. Nair,  D. P. O'Neill,  
 D. Neuhauser,  E. Neuscamman,  C. M. Oana,  R. Olivares-Amaya,  R. Olson,  
 T. M. Perrine,  B. Peters,  P. A. Pieniazek,  A. Prociuk,  Y. M. Rhee,  
 J. Ritchie,  M. A. Rohrdanz,  E. Rosta,  N. J. Russ,  H. F. Schaefer III,  
 M. W. Schmidt,  N. E. Schultz,  S. Sharma,  N. Shenvi,  C. D. Sherrill,  
 A. C. Simmonett,  A. Sodt,  T. Stein,  D. Stuck,  K. S. Thanthiriwatte,  
 V. Vanovschi,  L. Vogt,  Tao Wang,  A. Warshel,  M. A. Watson,  
 C. F. Williams,  Q. Wu,  X. Xu,  Jun Yang,  W. Zhang,  Yan Zhao

 Please cite Q-Chem as follows:
 Y. Shao et al., Mol. Phys. 113, 184-215 (2015)
 DOI: 10.1080/00268976.2014.952696

 Q-Chem 5.4.0 for Intel X86 EM64T Linux

 Parts of Q-Chem use Armadillo 9.800.1 (Horizon Scraper).
 http://arma.sourceforge.net/

 Q-Chem begins on Sun Jul 10 02:24:51 2022  

 Host: 
0

     Scratch files written to ./qchem346848//
 May1621 |scratch|qcdevops|jenkins|workspace|build_RNUM    
 Processing $rem in /cm/shared/apps/spack/cpu/opt/spack/linux-centos8-zen2/gcc-10.2.0/qchem-5.4-akfmr7b3t57bfs6qan3padb2wnb2i7cl/config/preferences:
 Processing $rem in /home/theleonzhang/.qchemrc:
 Symmetry turned off for PCM/SM12/SMD calculation
 Core orbitals will be frozen

 Checking the input file for inconsistencies... 	...done.

--------------------------------------------------------------
User input:
--------------------------------------------------------------
$molecule
0 1
C	-0.264439	-3.866725	-0.728625
C	0.209794	-3.703963	0.575519
C	0.364749	-2.357056	1.002336
H	0.446060	-4.561092	1.224165
C	-0.000000	-1.440664	-0.000000
S	-0.528253	-2.286957	-1.451336
C	0.862253	-1.978743	2.369885
H	1.082953	-2.878678	2.976034
H	0.115513	-1.376015	2.927887
H	1.792797	-1.375728	2.317620
C	0.000000	0.000000	0.000000
C	0.075300	0.860311	1.099446
C	0.195935	2.238951	0.776721
H	0.043151	0.492916	2.136088
C	0.215188	2.458766	-0.612546
S	0.082160	0.938811	-1.486809
C	0.290762	3.322559	1.814609
H	0.253664	2.898542	2.836676
H	-0.541206	4.052140	1.726239
H	1.236797	3.896558	1.726228
H	0.297938	3.404370	-1.161575
H	-1.225465	-4.392713	-0.745219
H	0.461378	-4.392347	-1.359038
H	-1.014907	-1.440937	0.369273
$end

$rem
JOBTYPE		SP
EXCHANGE	HF
CORRELATION	pRIMP2
BASIS		cc-pvtz
METHOD		rimp2
AUX_BASIS	rimp2-cc-pvtz
SOLVENT_METHOD	PCM
PURECART	11111
SYMMETRY	false
MEM_TOTAL	110000
SCF_CONVERGENCE = 6
THRESH=10
$end



$solvent
dielectric 4.90
$end
--------------------------------------------------------------
 ----------------------------------------------------------------
             Standard Nuclear Orientation (Angstroms)
    I     Atom           X                Y                Z
 ----------------------------------------------------------------
    1      C      -0.2644390000    -3.8667250000    -0.7286250000
    2      C       0.2097940000    -3.7039630000     0.5755190000
    3      C       0.3647490000    -2.3570560000     1.0023360000
    4      H       0.4460600000    -4.5610920000     1.2241650000
    5      C       0.0000000000    -1.4406640000     0.0000000000
    6      S      -0.5282530000    -2.2869570000    -1.4513360000
    7      C       0.8622530000    -1.9787430000     2.3698850000
    8      H       1.0829530000    -2.8786780000     2.9760340000
    9      H       0.1155130000    -1.3760150000     2.9278870000
   10      H       1.7927970000    -1.3757280000     2.3176200000
   11      C       0.0000000000     0.0000000000     0.0000000000
   12      C       0.0753000000     0.8603110000     1.0994460000
   13      C       0.1959350000     2.2389510000     0.7767210000
   14      H       0.0431510000     0.4929160000     2.1360880000
   15      C       0.2151880000     2.4587660000    -0.6125460000
   16      S       0.0821600000     0.9388110000    -1.4868090000
   17      C       0.2907620000     3.3225590000     1.8146090000
   18      H       0.2536640000     2.8985420000     2.8366760000
   19      H      -0.5412060000     4.0521400000     1.7262390000
   20      H       1.2367970000     3.8965580000     1.7262280000
   21      H       0.2979380000     3.4043700000    -1.1615750000
   22      H      -1.2254650000    -4.3927130000    -0.7452190000
   23      H       0.4613780000    -4.3923470000    -1.3590380000
   24      H      -1.0149070000    -1.4409370000     0.3692730000
 ----------------------------------------------------------------
 Nuclear Repulsion Energy =         875.47926402 hartrees
 There are       52 alpha and       52 beta electrons

 Q-Chem warning in module forms1/BasisType.C, line 2236:

 You are not using the predefined 5D/6D in this basis set.

 Requested basis set is cc-pVTZ
 There are 196 shells and 536 basis functions

 Total QAlloc Memory Limit 110000 MB
 Mega-Array Size       188 MB
 MEM_STATIC part       192 MB
 Discretize the solute cavity surface with Lebedev spheres
	Using 110 Lebedev grid points for each H atom
	Using 194 Lebedev grid points for other atoms
	Atomic van der Waals radii will be scaled by 1.20
 Remove points where switching function is < 1.0e-08
 Keep 1590 surface tesserae and discard 2058 interior tesserae
 Molecular Surface Area = 232.543 Angst**2
 Requested basis set is rimp2-cc-pVTZ
 There are 414 shells and 1414 basis functions
 A cutoff of  1.0D-10 yielded  14045 shell pairs
 There are    101653 function pairs (    130244 Cartesian)
 Smallest overlap matrix eigenvalue = 4.10E-05

 Scale SEOQF with 1.000000e-01/1.000000e-01/1.000000e-01

 Standard Electronic Orientation quadrupole field applied
 Nucleus-field energy     =     0.0000000230 hartrees
 Guess from superposition of atomic densities
 Warning:  Energy on first SCF cycle will be non-variational
 SAD guess density has 104.000000 electrons

 -----------------------------------------------------------------------
  General SCF calculation program by
  Eric Jon Sundstrom, Paul Horn, Yuezhi Mao, Dmitri Zuev, Alec White,
  David Stuck, Shaama M.S., Shane Yost, Joonho Lee, David Small,
  Daniel Levine, Susi Lehtola, Hugh Burton, Evgeny Epifanovsky,
  Bang C. Huynh
 -----------------------------------------------------------------------
 Hartree-Fock
 A restricted SCF calculation will be
 performed using DIIS
 SCF converges when DIIS error is below 1.0e-06
 ---------------------------------------
  Cycle       Energy         DIIS error
 ---------------------------------------
    1   -1186.0492059596      2.39e-02  
    2   -1180.6081388729      1.59e-03  
    3   -1180.7344892157      6.61e-04  
    4   -1180.7506997734      3.49e-04  
    5   -1180.7563639645      5.92e-05  
    6   -1180.7566089275      2.46e-05  
    7   -1180.7566656984      8.55e-06  
    8   -1180.7566775006      4.11e-06  
    9   -1180.7566800908      1.39e-06  
   10   -1180.7566804999      5.06e-07  Convergence criterion met
 ---------------------------------------
 SCF time:   CPU 575.49s  wall 577.00s 

************** Final PCM Free Energy Summary **************
 G_electrostatic  =      -0.00961944 hartree =      -6.03628809 kcal/mol
 G_cavitation     =       0.00000000 hartree =       0.00000000 kcal/mol
 G_dispersion     =       0.00000000 hartree =       0.00000000 kcal/mol
 G_repulsion      =       0.00000000 hartree =       0.00000000 kcal/mol
 --------------------------------------------------
 Non-electrostatic Free Energy =       0.00000000 hartree =       0.00000000 kcal/mol
 Total                         =      -0.00961944 hartree =      -6.03628809 kcal/mol
 --------------------------------------------------
 SCF Energy (H0 + V/2)                       =   -1180.75668050 
 Solute Internal Energy (H0)                 =   -1180.74706106 
 Total Free Energy (H0 + V/2 + non-elec)     =   -1180.75668050 hartree
                                             = -740935.99996023 kcal/mol
***********************************************************

 SCF   energy in the final basis set =    -1180.7566804999
 Total energy in the final basis set =    -1180.7566804999


 --------------------------------------------------------------
  Generalized many-body perturbation theory program
  by Joonho Lee, Fazle Rob, Xintian Feng, Evgeny Epifanovsky

 No regularization used 
 (reg. param. = 0.0000e+00)
  (P|Q)^-1/2 Time:  CPU 1.90 s  wall 1.91 s

 In RI-MP2 calculation: 
 # of frozen core orbitals: 20

 Components of the RIMP2 correlation energy:
        aaaa    correlation energy =        -0.2515823340 a.u.
        abab    correlation energy =        -1.5031017553 a.u.
        bbbb    correlation energy =        -0.2515823340 a.u.
        non-Brillouin singles      =        -0.0000000000 a.u.
        total same-spin energy     =        -0.5031646679 a.u.
        total opposite-spin energy =        -1.5031017553 a.u.

 Total  RIMP2   correlation energy =        -2.0062664232 a.u.
        RIMP2         total energy =     -1182.7629469231 a.u.

 RI-MP2 Energy Time:  CPU 80.47 s  wall 80.69 s
 
 --------------------------------------------------------------
 
                    Orbital Energies (a.u.)
 --------------------------------------------------------------
 
 Alpha MOs
 -- Occupied --
-91.9837 -91.9460 -11.2897 -11.2665 -11.2611 -11.2537 -11.2501 -11.2444
-11.2340 -11.2298 -11.2282 -11.2235  -8.9833  -8.9507  -6.6642  -6.6637
 -6.6631  -6.6321  -6.6311  -6.6298  -1.2022  -1.1523  -1.0603  -1.0316
 -1.0019  -0.9614  -0.9158  -0.8997  -0.8185  -0.7632  -0.7262  -0.7070
 -0.6591  -0.6484  -0.6107  -0.5935  -0.5865  -0.5693  -0.5597  -0.5531
 -0.5435  -0.5352  -0.5224  -0.5027  -0.4854  -0.4824  -0.4686  -0.4441
 -0.3602  -0.3437  -0.3234  -0.2651
 -- Virtual --
  0.1061   0.1298   0.1418   0.1494   0.1562   0.1700   0.1716   0.1868
  0.1924   0.2042   0.2063   0.2121   0.2184   0.2350   0.2370   0.2422
  0.2594   0.2760   0.2863   0.3044   0.3163   0.3261   0.3529   0.3548
  0.3708   0.3787   0.3881   0.3918   0.4000   0.4118   0.4163   0.4243
  0.4373   0.4543   0.4649   0.4719   0.4754   0.4775   0.4866   0.4935
  0.5067   0.5195   0.5249   0.5319   0.5404   0.5432   0.5496   0.5563
  0.5621   0.5804   0.5861   0.5960   0.6006   0.6039   0.6131   0.6222
  0.6259   0.6266   0.6339   0.6361   0.6425   0.6469   0.6522   0.6629
  0.6696   0.6806   0.6807   0.6912   0.6969   0.7236   0.7256   0.7317
  0.7417   0.7474   0.7623   0.7736   0.7826   0.8001   0.8115   0.8219
  0.8364   0.8392   0.8569   0.8658   0.8877   0.8985   0.9051   0.9185
  0.9285   0.9500   0.9521   0.9630   0.9793   0.9925   1.0060   1.0134
  1.0291   1.0350   1.0406   1.0458   1.0540   1.0649   1.0726   1.0845
  1.0916   1.1010   1.1051   1.1257   1.1432   1.1478   1.1616   1.1733
  1.1776   1.1894   1.2045   1.2116   1.2146   1.2225   1.2284   1.2427
  1.2472   1.2550   1.2593   1.2793   1.2856   1.3030   1.3072   1.3136
  1.3260   1.3313   1.3526   1.3570   1.3698   1.3770   1.4071   1.4171
  1.4289   1.4372   1.4436   1.4617   1.4699   1.4837   1.4857   1.4968
  1.5106   1.5151   1.5305   1.5320   1.5407   1.5440   1.5492   1.5557
  1.5820   1.5893   1.5945   1.6049   1.6156   1.6271   1.6400   1.6427
  1.6503   1.6645   1.6804   1.6947   1.7093   1.7271   1.7302   1.7459
  1.7644   1.7652   1.7827   1.7944   1.8107   1.8281   1.8489   1.8683
  1.8837   1.8971   1.9243   1.9299   1.9451   1.9772   1.9887   1.9986
  2.0219   2.0454   2.0564   2.0592   2.0911   2.1136   2.1434   2.1694
  2.1805   2.2046   2.2065   2.2236   2.2282   2.2446   2.2669   2.2830
  2.2937   2.3044   2.3243   2.3804   2.4105   2.4420   2.4623   2.4781
  2.4980   2.5205   2.5363   2.5450   2.5639   2.5948   2.5997   2.6136
  2.6372   2.6499   2.6566   2.6738   2.6783   2.6926   2.7190   2.7366
  2.7412   2.7598   2.7662   2.7727   2.7794   2.7812   2.8009   2.8100
  2.8326   2.8537   2.8579   2.8771   2.8910   2.9024   2.9121   2.9259
  2.9389   2.9541   2.9791   2.9937   3.0121   3.0186   3.0386   3.0413
  3.0493   3.0773   3.1007   3.1073   3.1122   3.1202   3.1286   3.1403
  3.1511   3.1583   3.1623   3.1796   3.1906   3.1953   3.2030   3.2162
  3.2317   3.2404   3.2499   3.2616   3.2657   3.2871   3.2885   3.3029
  3.3108   3.3299   3.3322   3.3402   3.3459   3.3626   3.3658   3.3710
  3.3747   3.3909   3.3916   3.3965   3.4065   3.4101   3.4272   3.4327
  3.4443   3.4494   3.4564   3.4596   3.4788   3.4884   3.4973   3.5061
  3.5125   3.5159   3.5222   3.5367   3.5529   3.5572   3.5640   3.5710
  3.5915   3.5961   3.6099   3.6229   3.6304   3.6356   3.6475   3.6568
  3.6716   3.6803   3.6922   3.7012   3.7200   3.7294   3.7348   3.7420
  3.7477   3.7540   3.7580   3.7780   3.7935   3.7964   3.8086   3.8218
  3.8237   3.8401   3.8554   3.8669   3.8826   3.8917   3.8960   3.9064
  3.9272   3.9372   3.9606   3.9693   3.9920   3.9982   4.0102   4.0210
  4.0384   4.0462   4.0558   4.0571   4.0648   4.0823   4.0923   4.1118
  4.1166   4.1384   4.1459   4.1524   4.1631   4.1698   4.1824   4.1916
  4.2109   4.2230   4.2304   4.2415   4.2576   4.2650   4.2724   4.2993
  4.3061   4.3097   4.3305   4.3402   4.3479   4.3549   4.3676   4.3725
  4.3896   4.3973   4.4020   4.4197   4.4301   4.4395   4.4444   4.4566
  4.4670   4.4723   4.4914   4.4977   4.5096   4.5286   4.5593   4.5674
  4.5900   4.5986   4.6036   4.6296   4.6394   4.6467   4.6624   4.6886
  4.7006   4.7218   4.7434   4.7726   4.7835   4.8131   4.8406   4.8446
  4.8577   4.8785   4.8926   4.9153   4.9477   4.9771   4.9816   4.9972
  5.0535   5.0736   5.0931   5.1141   5.1190   5.1325   5.1694   5.1950
  5.2166   5.2314   5.2568   5.2658   5.2856   5.3008   5.3132   5.3257
  5.3544   5.3604   5.3869   5.3954   5.4140   5.4246   5.4381   5.4396
  5.4697   5.5209   5.5264   5.5448   5.5500   5.5740   5.5777   5.5990
  5.6211   5.6237   5.6298   5.6659   5.6701   5.7059   5.7128   5.7406
  5.7727   5.8059   5.8390   5.9665   6.0408   6.0853   6.1416   6.1819
  6.2151   6.2280   6.2331   6.2657   6.2761   6.2922   6.3092   6.4074
  6.4161   6.6010   9.5351  10.9569  12.0989  12.9859  13.1833  13.9050
 14.1020  14.2115  14.4119  15.2673
 --------------------------------------------------------------
 
          Ground-State Mulliken Net Atomic Charges

     Atom                 Charge (a.u.)
  ----------------------------------------
      1 C                    -0.074075
      2 C                    -0.314542
      3 C                    -0.066261
      4 H                     0.178734
      5 C                     0.144459
      6 S                    -0.179870
      7 C                    -0.296783
      8 H                     0.121439
      9 H                     0.100071
     10 H                     0.118301
     11 C                    -0.062834
     12 C                    -0.278991
     13 C                     0.037285
     14 H                     0.188881
     15 C                    -0.280366
     16 S                     0.012158
     17 C                    -0.273445
     18 H                     0.100649
     19 H                     0.108515
     20 H                     0.108560
     21 H                     0.195584
     22 H                     0.112769
     23 H                     0.113010
     24 H                     0.186754
  ----------------------------------------
  Sum of atomic charges =     0.000000

 -----------------------------------------------------------------
                    Cartesian Multipole Moments
 -----------------------------------------------------------------
    Charge (ESU x 10^10)
                -0.0000
    Dipole Moment (Debye)
         X       0.1250      Y      -0.4493      Z       3.9202
       Tot       3.9479
    Quadrupole Moments (Debye-Ang)
        XX     -91.4557     XY       1.1149     YY     -73.0215
        XZ       0.4419     YZ      -2.6193     ZZ     -85.9605
    Octopole Moments (Debye-Ang^2)
       XXX     -20.3592    XXY      43.1284    XYY      -5.2252
       YYY     114.0244    XXZ      -1.6790    XYZ      -2.5844
       YYZ      -3.5018    XZZ      -2.3865    YZZ      50.1111
       ZZZ       6.5010
    Hexadecapole Moments (Debye-Ang^3)
      XXXX    -211.5929   XXXY     -43.7020   XXYY    -559.7594
      XYYY     -29.2158   YYYY   -2757.3998   XXXZ    -101.6020
      XXYZ     -32.3766   XYYZ     -22.0027   YYYZ    -104.8487
      XXZZ    -216.5211   XYZZ     -23.9491   YYZZ    -651.6167
      XZZZ     -93.4406   YZZZ    -126.3207   ZZZZ   -1038.8272
 -----------------------------------------------------------------
 Total job time:  660.78s(wall), 656.85s(cpu) 
 Sun Jul 10 02:35:51 2022

        *************************************************************
        *                                                           *
        *  Thank you very much for using Q-Chem.  Have a nice day.  *
        *                                                           *
        *************************************************************


remove work dirs ./qchem346848.0 -- ./qchem346848.-1
rm -rf ./qchem346848
