You are running Q-Chem version: 5.4.0

#
# job setting
#
local host:  exp-1-44
current dir: /expanse/lustre/scratch/theleonzhang/temp_project/Hydrogenated_Rotation_Test
input file:  Methylthiophene_Phi_10_Theta_230_Methylthiophene_Hydrogenated.qcin
output file: 
nprocs     : 0
nthreads   : 1
#
# qchem installation setting
#
QC:          /cm/shared/apps/spack/cpu/opt/spack/linux-centos8-zen2/gcc-10.2.0/qchem-5.4-akfmr7b3t57bfs6qan3padb2wnb2i7cl
QCAUX:       /cm/shared/apps/spack/cpu/opt/spack/linux-centos8-zen2/gcc-10.2.0/qchem-5.4-akfmr7b3t57bfs6qan3padb2wnb2i7cl/qcaux
QCPROG:      /cm/shared/apps/spack/cpu/opt/spack/linux-centos8-zen2/gcc-10.2.0/qchem-5.4-akfmr7b3t57bfs6qan3padb2wnb2i7cl/exe/qcprog.exe_s
QCPROG_S:    /cm/shared/apps/spack/cpu/opt/spack/linux-centos8-zen2/gcc-10.2.0/qchem-5.4-akfmr7b3t57bfs6qan3padb2wnb2i7cl/exe/qcprog.exe_s
PARALLEL:    -DSERIAL
QCMPI:       mpich
#
# qchem directory setting
#
qcrun:       qchem1711768
QCSCRATCH:   .
QCLOCALSCR:  
QCTMPDIR:    .
QCFILEPREF:  ./qchem1711768
QCSAVEDIR:   
workdirs:    ./qchem1711768
workdir0:    ./qchem1711768
partmpdirs =  
#
# parallel setting
#
QCRSH:           ssh
QCMPI:           mpich
QCMPIRUN:        /cm/shared/apps/spack/cpu/opt/spack/linux-centos8-zen2/gcc-10.2.0/qchem-5.4-akfmr7b3t57bfs6qan3padb2wnb2i7cl/bin/mpi/mpirun_qchem
QCMACHINEFILE:   ./qchem1711768/hostfile

#
# env setting
#
exported envs:   QC QCAUX QCSCRATCH QCRUNNAME QCFILEPREF QCPROG QCPROG_S GUIFILE

Running Job 1 of 1 Methylthiophene_Phi_10_Theta_230_Methylthiophene_Hydrogenated.qcin
qchem Methylthiophene_Phi_10_Theta_230_Methylthiophene_Hydrogenated.qcin_1711768.0 ./qchem1711768/ 0
/cm/shared/apps/spack/cpu/opt/spack/linux-centos8-zen2/gcc-10.2.0/qchem-5.4-akfmr7b3t57bfs6qan3padb2wnb2i7cl/exe/qcprog.exe_s Methylthiophene_Phi_10_Theta_230_Methylthiophene_Hydrogenated.qcin_1711768.0 ./qchem1711768/
                  Welcome to Q-Chem
     A Quantum Leap Into The Future Of Chemistry


 Q-Chem 5.4, Q-Chem, Inc., Pleasanton, CA (2021)

 License issued to: University of California, San Diego (site)

 E. Epifanovsky,  A. T. B. Gilbert,  Xintian Feng,  Joonho Lee,  Yuezhi Mao,  
 N. Mardirossian,  P. Pokhilko,  A. White,  M. Wormit,  M. P. Coons,  
 A. L. Dempwolff,  Zhengting Gan,  D. Hait,  P. R. Horn,  L. D. Jacobson,  
 I. Kaliman,  J. Kussmann,  A. W. Lange,  Ka Un Lao,  D. S. Levine,  Jie Liu,  
 S. C. McKenzie,  A. F. Morrison,  K. Nanda,  F. Plasser,  D. R. Rehn,  
 M. L. Vidal,  Zhi-Qiang You,  Ying Zhu,  B. Alam,  B. Albrecht,  
 A. Aldossary,  E. Alguire,  J. H. Andersen,  D. Barton,  K. Begam,  A. Behn,  
 Y. A. Bernard,  E. J. Berquist,  H. Burton,  A. Carreras,  K. Carter-Fenk,  
 R. Chakraborty,  A. D. Chien,  K. D. Closser,  V. Cofer-Shabica,  
 S. Dasgupta,  Jia Deng,  M. de Wergifosse,  M. Diedenhofen,  Hainam Do,  
 S. Ehlert,  Po-Tung Fang,  S. Fatehi,  Qingguo Feng,  J. Gayvert,  
 Qinghui Ge,  G. Gidofalvi,  M. Goldey,  J. Gomes,  C. Gonzalez-Espinoza,  
 S. Gulania,  A. Gunina,  M. W. D. Hanson-Heine,  P. H. P. Harbach,  
 A. W. Hauser,  M. F. Herbst,  M. Hernandez Vera,  M. Hodecker,  
 Z. C. Holden,  S. Houck,  Xunkun Huang,  Kerwin Hui,  B. C. Huynh,  
 M. Ivanov,  Hyunjun Ji,  Hanjie Jiang,  B. Kaduk,  S. Kaehler,  
 K. Khistyaev,  Jaehoon Kim,  P. Klunzinger,  Z. Koczor-Benda,  
 Joong Hoon Koh,  D. Kosenkov,  L. Koulias,  T. Kowalczyk,  C. M. Krauter,  
 K. Kue,  A. Kunitsa,  T. Kus,  A. Landau,  K. V. Lawler,  D. Lefrancois,  
 S. Lehtola,  Rain Li,  Yi-Pei Li,  Jiashu Liang,  M. Liebenthal,  
 Hung-Hsuan Lin,  You-Sheng Lin,  Fenglai Liu,  Kuan-Yu Liu,  
 M. Loipersberger,  A. Luenser,  A. Manjanath,  P. Manohar,  E. Mansoor,  
 S. F. Manzer,  Shan-Ping Mao,  A. V. Marenich,  T. Markovich,  S. Mason,  
 S. A. Maurer,  P. F. McLaughlin,  M. F. S. J. Menger,  J.-M. Mewes,  
 S. A. Mewes,  P. Morgante,  J. W. Mullinax,  T. S. Nguyen-Beck,  
 K. J. Oosterbaan,  G. Paran,  Alexander C. Paul,  Suranjan K. Paul,  
 F. Pavosevic,  Zheng Pei,  S. Prager,  E. I. Proynov,  E. Ramos,  B. Rana,  
 A. E. Rask,  A. Rettig,  R. M. Richard,  F. Rob,  E. Rossomme,  T. Scheele,  
 M. Scheurer,  M. Schneider,  N. Sergueev,  S. M. Sharada,  W. Skomorowski,  
 D. W. Small,  C. J. Stein,  Yu-Chuan Su,  E. J. Sundstrom,  Zhen Tao,  
 J. Thirman,  T. Tsuchimochi,  N. M. Tubman,  S. P. Veccham,  O. Vydrov,  
 J. Wenzel,  J. Witte,  A. Yamada,  Kun Yao,  S. Yeganeh,  S. R. Yost,  
 A. Zech,  Igor Ying Zhang,  Xing Zhang,  Yu Zhang,  D. Zuev,  
 A. Aspuru-Guzik,  A. T. Bell,  N. A. Besley,  K. B. Bravaya,  B. R. Brooks,  
 D. Casanova,  Jeng-Da Chai,  S. Coriani,  C. J. Cramer,  
 A. E. DePrince, III,  R. A. DiStasio Jr.,  A. Dreuw,  B. D. Dunietz,  
 T. R. Furlani,  W. A. Goddard III,  S. Grimme,  S. Hammes-Schiffer,  
 T. Head-Gordon,  W. J. Hehre,  Chao-Ping Hsu,  T.-C. Jagau,  Yousung Jung,  
 A. Klamt,  Jing Kong,  D. S. Lambrecht,  WanZhen Liang,  N. J. Mayhall,  
 C. W. McCurdy,  J. B. Neaton,  C. Ochsenfeld,  J. A. Parkhill,  R. Peverati,  
 V. A. Rassolov,  Yihan Shao,  L. V. Slipchenko,  T. Stauch,  R. P. Steele,  
 J. E. Subotnik,  A. J. W. Thom,  A. Tkatchenko,  D. G. Truhlar,  
 T. Van Voorhis,  T. A. Wesolowski,  K. B. Whaley,  H. L. Woodcock III,  
 P. M. Zimmerman,  S. Faraji,  P. M. W. Gill,  M. Head-Gordon,  
 J. M. Herbert,  A. I. Krylov

 Contributors to earlier versions of Q-Chem not listed above: 
 R. D. Adamson,  B. Austin,  R. Baer,  J. Baker,  G. J. O. Beran,  
 K. Brandhorst,  S. T. Brown,  E. F. C. Byrd,  A. K. Chakraborty,  
 G. K. L. Chan,  Chun-Min Chang,  Yunqing Chen,  C.-L. Cheng,  
 Siu Hung Chien,  D. M. Chipman,  D. L. Crittenden,  H. Dachsel,  
 R. J. Doerksen,  A. D. Dutoi,  R. G. Edgar,  J. Fosso-Tande,  
 L. Fusti-Molnar,  D. Ghosh,  A. Ghysels,  A. Golubeva-Zadorozhnaya,  
 J. Gonthier,  M. S. Gordon,  S. R. Gwaltney,  G. Hawkins,  J. E. Herr,  
 A. Heyden,  S. Hirata,  E. G. Hohenstein,  G. Kedziora,  F. J. Keil,  
 C. Kelley,  Jihan Kim,  R. A. King,  R. Z. Khaliullin,  P. P. Korambath,  
 W. Kurlancheek,  A. Laurent,  A. M. Lee,  M. S. Lee,  S. V. Levchenko,  
 Ching Yeh Lin,  D. Liotard,  E. Livshits,  R. C. Lochan,  I. Lotan,  
 L. A. Martinez-Martinez,  P. E. Maslen,  N. Nair,  D. P. O'Neill,  
 D. Neuhauser,  E. Neuscamman,  C. M. Oana,  R. Olivares-Amaya,  R. Olson,  
 T. M. Perrine,  B. Peters,  P. A. Pieniazek,  A. Prociuk,  Y. M. Rhee,  
 J. Ritchie,  M. A. Rohrdanz,  E. Rosta,  N. J. Russ,  H. F. Schaefer III,  
 M. W. Schmidt,  N. E. Schultz,  S. Sharma,  N. Shenvi,  C. D. Sherrill,  
 A. C. Simmonett,  A. Sodt,  T. Stein,  D. Stuck,  K. S. Thanthiriwatte,  
 V. Vanovschi,  L. Vogt,  Tao Wang,  A. Warshel,  M. A. Watson,  
 C. F. Williams,  Q. Wu,  X. Xu,  Jun Yang,  W. Zhang,  Yan Zhao

 Please cite Q-Chem as follows:
 Y. Shao et al., Mol. Phys. 113, 184-215 (2015)
 DOI: 10.1080/00268976.2014.952696

 Q-Chem 5.4.0 for Intel X86 EM64T Linux

 Parts of Q-Chem use Armadillo 9.800.1 (Horizon Scraper).
 http://arma.sourceforge.net/

 Q-Chem begins on Sun Jul 10 03:11:50 2022  

 Host: 
0

     Scratch files written to ./qchem1711768//
 May1621 |scratch|qcdevops|jenkins|workspace|build_RNUM    
 Processing $rem in /cm/shared/apps/spack/cpu/opt/spack/linux-centos8-zen2/gcc-10.2.0/qchem-5.4-akfmr7b3t57bfs6qan3padb2wnb2i7cl/config/preferences:
 Processing $rem in /home/theleonzhang/.qchemrc:
 Symmetry turned off for PCM/SM12/SMD calculation
 Core orbitals will be frozen

 Checking the input file for inconsistencies... 	...done.

--------------------------------------------------------------
User input:
--------------------------------------------------------------
$molecule
0 1
C	0.594240	-3.866725	-0.497696
C	-0.469057	-3.703963	0.393981
C	-0.817136	-2.357056	0.685571
H	-0.997777	-4.561092	0.837848
C	-0.000000	-1.440664	-0.000000
S	1.183137	-2.286957	-0.992782
C	-1.932056	-1.978743	1.620802
H	-2.426166	-2.878678	2.035506
H	-2.711806	-1.376015	1.109943
H	-1.564678	-1.375728	2.477350
C	0.000000	0.000000	0.000000
C	0.149995	0.850475	1.099446
C	0.390327	2.213354	0.776721
H	0.085947	0.487279	2.136088
C	0.428665	2.430655	-0.612546
S	0.163670	0.928078	-1.486809
C	0.579235	3.284574	1.814609
H	0.505323	2.865404	2.836676
H	-0.185980	4.083890	1.726239
H	1.571698	3.773937	1.726228
H	0.593515	3.365448	-1.161575
H	0.281143	-4.392713	-1.406441
H	1.434879	-4.392347	-0.031265
H	0.694122	-1.440391	0.827402
$end

$rem
JOBTYPE		SP
EXCHANGE	HF
CORRELATION	pRIMP2
BASIS		cc-pvtz
METHOD		rimp2
AUX_BASIS	rimp2-cc-pvtz
SOLVENT_METHOD	PCM
PURECART	11111
SYMMETRY	false
MEM_TOTAL	110000
SCF_CONVERGENCE = 6
THRESH=10
$end



$solvent
dielectric 4.90
$end
--------------------------------------------------------------
 ----------------------------------------------------------------
             Standard Nuclear Orientation (Angstroms)
    I     Atom           X                Y                Z
 ----------------------------------------------------------------
    1      C       0.5942400000    -3.8667250000    -0.4976960000
    2      C      -0.4690570000    -3.7039630000     0.3939810000
    3      C      -0.8171360000    -2.3570560000     0.6855710000
    4      H      -0.9977770000    -4.5610920000     0.8378480000
    5      C       0.0000000000    -1.4406640000     0.0000000000
    6      S       1.1831370000    -2.2869570000    -0.9927820000
    7      C      -1.9320560000    -1.9787430000     1.6208020000
    8      H      -2.4261660000    -2.8786780000     2.0355060000
    9      H      -2.7118060000    -1.3760150000     1.1099430000
   10      H      -1.5646780000    -1.3757280000     2.4773500000
   11      C       0.0000000000     0.0000000000     0.0000000000
   12      C       0.1499950000     0.8504750000     1.0994460000
   13      C       0.3903270000     2.2133540000     0.7767210000
   14      H       0.0859470000     0.4872790000     2.1360880000
   15      C       0.4286650000     2.4306550000    -0.6125460000
   16      S       0.1636700000     0.9280780000    -1.4868090000
   17      C       0.5792350000     3.2845740000     1.8146090000
   18      H       0.5053230000     2.8654040000     2.8366760000
   19      H      -0.1859800000     4.0838900000     1.7262390000
   20      H       1.5716980000     3.7739370000     1.7262280000
   21      H       0.5935150000     3.3654480000    -1.1615750000
   22      H       0.2811430000    -4.3927130000    -1.4064410000
   23      H       1.4348790000    -4.3923470000    -0.0312650000
   24      H       0.6941220000    -1.4403910000     0.8274020000
 ----------------------------------------------------------------
 Nuclear Repulsion Energy =         873.86461096 hartrees
 There are       52 alpha and       52 beta electrons

 Q-Chem warning in module forms1/BasisType.C, line 2236:

 You are not using the predefined 5D/6D in this basis set.

 Requested basis set is cc-pVTZ
 There are 196 shells and 536 basis functions

 Total QAlloc Memory Limit 110000 MB
 Mega-Array Size       188 MB
 MEM_STATIC part       192 MB
 Discretize the solute cavity surface with Lebedev spheres
	Using 110 Lebedev grid points for each H atom
	Using 194 Lebedev grid points for other atoms
	Atomic van der Waals radii will be scaled by 1.20
 Remove points where switching function is < 1.0e-08
 Keep 1602 surface tesserae and discard 2046 interior tesserae
 Molecular Surface Area = 236.175 Angst**2
 Requested basis set is rimp2-cc-pVTZ
 There are 414 shells and 1414 basis functions
 A cutoff of  1.0D-10 yielded  13983 shell pairs
 There are    101323 function pairs (    129936 Cartesian)
 Smallest overlap matrix eigenvalue = 6.94E-05

 Scale SEOQF with 1.000000e-01/1.000000e-01/1.000000e-01

 Standard Electronic Orientation quadrupole field applied
 Nucleus-field energy     =     0.0000000305 hartrees
 Guess from superposition of atomic densities
 Warning:  Energy on first SCF cycle will be non-variational
 SAD guess density has 104.000000 electrons

 -----------------------------------------------------------------------
  General SCF calculation program by
  Eric Jon Sundstrom, Paul Horn, Yuezhi Mao, Dmitri Zuev, Alec White,
  David Stuck, Shaama M.S., Shane Yost, Joonho Lee, David Small,
  Daniel Levine, Susi Lehtola, Hugh Burton, Evgeny Epifanovsky,
  Bang C. Huynh
 -----------------------------------------------------------------------
 Hartree-Fock
 A restricted SCF calculation will be
 performed using DIIS
 SCF converges when DIIS error is below 1.0e-06
 ---------------------------------------
  Cycle       Energy         DIIS error
 ---------------------------------------
    1   -1186.0278242006      2.39e-02  
    2   -1180.6146423356      1.56e-03  
    3   -1180.7392122250      6.18e-04  
    4   -1180.7537338731      3.41e-04  
    5   -1180.7590351052      5.86e-05  
    6   -1180.7592741612      2.40e-05  
    7   -1180.7593294786      8.55e-06  
    8   -1180.7593415781      4.14e-06  
    9   -1180.7593442789      1.42e-06  
   10   -1180.7593447209      5.00e-07  Convergence criterion met
 ---------------------------------------
 SCF time:   CPU 565.92s  wall 569.00s 

************** Final PCM Free Energy Summary **************
 G_electrostatic  =      -0.00955634 hartree =      -5.99669288 kcal/mol
 G_cavitation     =       0.00000000 hartree =       0.00000000 kcal/mol
 G_dispersion     =       0.00000000 hartree =       0.00000000 kcal/mol
 G_repulsion      =       0.00000000 hartree =       0.00000000 kcal/mol
 --------------------------------------------------
 Non-electrostatic Free Energy =       0.00000000 hartree =       0.00000000 kcal/mol
 Total                         =      -0.00955634 hartree =      -5.99669288 kcal/mol
 --------------------------------------------------
 SCF Energy (H0 + V/2)                       =   -1180.75934472 
 Solute Internal Energy (H0)                 =   -1180.74978838 
 Total Free Energy (H0 + V/2 + non-elec)     =   -1180.75934472 hartree
                                             = -740937.67178411 kcal/mol
***********************************************************

 SCF   energy in the final basis set =    -1180.7593447209
 Total energy in the final basis set =    -1180.7593447209


 --------------------------------------------------------------
  Generalized many-body perturbation theory program
  by Joonho Lee, Fazle Rob, Xintian Feng, Evgeny Epifanovsky

 No regularization used 
 (reg. param. = 0.0000e+00)
  (P|Q)^-1/2 Time:  CPU 1.90 s  wall 1.91 s

 In RI-MP2 calculation: 
 # of frozen core orbitals: 20

 Components of the RIMP2 correlation energy:
        aaaa    correlation energy =        -0.2513092605 a.u.
        abab    correlation energy =        -1.5027987548 a.u.
        bbbb    correlation energy =        -0.2513092605 a.u.
        non-Brillouin singles      =        -0.0000000000 a.u.
        total same-spin energy     =        -0.5026185211 a.u.
        total opposite-spin energy =        -1.5027987548 a.u.

 Total  RIMP2   correlation energy =        -2.0054172759 a.u.
        RIMP2         total energy =     -1182.7647619968 a.u.

 RI-MP2 Energy Time:  CPU 80.26 s  wall 80.55 s
 
 --------------------------------------------------------------
 
                    Orbital Energies (a.u.)
 --------------------------------------------------------------
 
 Alpha MOs
 -- Occupied --
-91.9825 -91.9439 -11.2855 -11.2637 -11.2592 -11.2572 -11.2507 -11.2419
-11.2372 -11.2326 -11.2289 -11.2201  -8.9822  -8.9485  -6.6631  -6.6626
 -6.6620  -6.6299  -6.6288  -6.6276  -1.1999  -1.1529  -1.0589  -1.0287
 -1.0032  -0.9608  -0.9127  -0.9005  -0.8171  -0.7605  -0.7308  -0.7041
 -0.6614  -0.6441  -0.6103  -0.5900  -0.5834  -0.5701  -0.5621  -0.5531
 -0.5423  -0.5318  -0.5154  -0.5056  -0.4896  -0.4817  -0.4644  -0.4465
 -0.3564  -0.3426  -0.3195  -0.2715
 -- Virtual --
  0.0973   0.1323   0.1439   0.1523   0.1577   0.1697   0.1716   0.1862
  0.1969   0.1996   0.2029   0.2154   0.2203   0.2335   0.2355   0.2418
  0.2524   0.2623   0.2788   0.2962   0.3178   0.3383   0.3463   0.3611
  0.3698   0.3758   0.3810   0.3855   0.3958   0.4055   0.4123   0.4185
  0.4342   0.4435   0.4457   0.4691   0.4712   0.4804   0.4843   0.4935
  0.4994   0.5074   0.5235   0.5293   0.5300   0.5356   0.5493   0.5565
  0.5674   0.5752   0.5858   0.5906   0.5956   0.6108   0.6146   0.6183
  0.6251   0.6279   0.6326   0.6400   0.6418   0.6473   0.6484   0.6553
  0.6675   0.6754   0.6839   0.6851   0.7014   0.7034   0.7086   0.7140
  0.7306   0.7432   0.7642   0.7749   0.7841   0.7886   0.8117   0.8240
  0.8284   0.8436   0.8588   0.8601   0.8864   0.8928   0.8949   0.9099
  0.9323   0.9447   0.9474   0.9632   0.9767   0.9822   1.0049   1.0108
  1.0146   1.0258   1.0297   1.0444   1.0587   1.0665   1.0781   1.0808
  1.0864   1.1002   1.1166   1.1209   1.1263   1.1450   1.1562   1.1734
  1.1796   1.1893   1.1974   1.2055   1.2202   1.2245   1.2276   1.2439
  1.2462   1.2633   1.2659   1.2721   1.2777   1.2810   1.3116   1.3236
  1.3300   1.3426   1.3498   1.3664   1.3816   1.3894   1.4025   1.4190
  1.4210   1.4353   1.4514   1.4619   1.4665   1.4759   1.4815   1.4948
  1.5025   1.5154   1.5205   1.5235   1.5375   1.5409   1.5493   1.5506
  1.5701   1.5803   1.5923   1.6002   1.6160   1.6215   1.6287   1.6434
  1.6519   1.6592   1.6845   1.6932   1.7033   1.7120   1.7259   1.7370
  1.7527   1.7580   1.7695   1.7804   1.8045   1.8260   1.8311   1.8667
  1.8765   1.9168   1.9207   1.9398   1.9512   1.9709   1.9860   2.0070
  2.0199   2.0308   2.0440   2.0506   2.0872   2.1262   2.1358   2.1479
  2.1864   2.2050   2.2092   2.2202   2.2355   2.2558   2.2728   2.2834
  2.2888   2.3103   2.3286   2.3712   2.4076   2.4463   2.4711   2.4781
  2.5011   2.5103   2.5136   2.5435   2.5724   2.5898   2.6045   2.6103
  2.6139   2.6342   2.6593   2.6632   2.6766   2.6809   2.7055   2.7326
  2.7413   2.7555   2.7638   2.7711   2.7795   2.7929   2.8023   2.8200
  2.8411   2.8476   2.8554   2.8694   2.8975   2.9031   2.9110   2.9152
  2.9343   2.9549   2.9647   2.9691   3.0049   3.0086   3.0244   3.0384
  3.0456   3.0675   3.0930   3.1060   3.1123   3.1177   3.1370   3.1433
  3.1466   3.1505   3.1727   3.1764   3.1849   3.1898   3.1912   3.2174
  3.2270   3.2394   3.2492   3.2590   3.2745   3.2831   3.3043   3.3130
  3.3182   3.3263   3.3305   3.3401   3.3466   3.3517   3.3581   3.3674
  3.3756   3.3865   3.3973   3.4020   3.4042   3.4181   3.4259   3.4288
  3.4327   3.4489   3.4562   3.4656   3.4748   3.4774   3.4930   3.5036
  3.5151   3.5245   3.5330   3.5405   3.5415   3.5608   3.5714   3.5835
  3.5907   3.5952   3.6173   3.6208   3.6293   3.6347   3.6465   3.6492
  3.6610   3.6745   3.6863   3.7033   3.7190   3.7278   3.7326   3.7365
  3.7453   3.7572   3.7649   3.7838   3.7900   3.7987   3.8081   3.8142
  3.8319   3.8400   3.8605   3.8638   3.8804   3.8946   3.9040   3.9148
  3.9182   3.9359   3.9476   3.9620   3.9724   3.9936   4.0115   4.0152
  4.0252   4.0310   4.0426   4.0545   4.0765   4.0853   4.0941   4.1022
  4.1308   4.1361   4.1434   4.1528   4.1567   4.1697   4.1771   4.1897
  4.2071   4.2151   4.2306   4.2340   4.2389   4.2617   4.2799   4.2919
  4.2981   4.3047   4.3088   4.3231   4.3401   4.3558   4.3688   4.3741
  4.3825   4.3902   4.3929   4.4010   4.4040   4.4288   4.4340   4.4516
  4.4596   4.4721   4.4781   4.4890   4.5082   4.5203   4.5212   4.5458
  4.5731   4.5933   4.6105   4.6189   4.6414   4.6429   4.6564   4.6772
  4.6835   4.7279   4.7376   4.7431   4.7805   4.8219   4.8377   4.8390
  4.8633   4.8784   4.8944   4.9204   4.9297   4.9742   4.9794   4.9927
  5.0318   5.0622   5.0941   5.1049   5.1136   5.1261   5.1418   5.1860
  5.1923   5.2203   5.2390   5.2645   5.2804   5.2873   5.3063   5.3308
  5.3406   5.3597   5.3775   5.3872   5.4104   5.4275   5.4387   5.4428
  5.4786   5.5186   5.5320   5.5421   5.5487   5.5624   5.5689   5.5914
  5.6233   5.6288   5.6327   5.6551   5.6709   5.6972   5.7042   5.7354
  5.7753   5.8031   5.8313   5.9551   6.0326   6.1110   6.1294   6.1685
  6.2157   6.2249   6.2267   6.2353   6.2519   6.2809   6.3117   6.3197
  6.3805   6.5246   9.3340  10.7523  12.0545  12.9637  13.2191  13.9036
 14.0898  14.1971  14.3862  14.8047
 --------------------------------------------------------------
 
          Ground-State Mulliken Net Atomic Charges

     Atom                 Charge (a.u.)
  ----------------------------------------
      1 C                    -0.075838
      2 C                    -0.324572
      3 C                    -0.043589
      4 H                     0.176621
      5 C                     0.089415
      6 S                    -0.174134
      7 C                    -0.271114
      8 H                     0.115235
      9 H                     0.110651
     10 H                     0.099121
     11 C                    -0.059428
     12 C                    -0.258238
     13 C                     0.023558
     14 H                     0.187216
     15 C                    -0.252218
     16 S                     0.008188
     17 C                    -0.273083
     18 H                     0.101249
     19 H                     0.108206
     20 H                     0.108740
     21 H                     0.196047
     22 H                     0.111132
     23 H                     0.112025
     24 H                     0.184810
  ----------------------------------------
  Sum of atomic charges =     0.000000

 -----------------------------------------------------------------
                    Cartesian Multipole Moments
 -----------------------------------------------------------------
    Charge (ESU x 10^10)
                -0.0000
    Dipole Moment (Debye)
         X      -1.0304      Y       0.1362      Z       3.5770
       Tot       3.7249
    Quadrupole Moments (Debye-Ang)
        XX     -91.0415     XY       3.4017     YY     -73.9890
        XZ       0.1642     YZ      -2.2148     ZZ     -86.2259
    Octopole Moments (Debye-Ang^2)
       XXX     -38.9984    XXY      42.7713    XYY      -3.3175
       YYY     123.0821    XXZ       1.7738    XYZ       2.1577
       YYZ      -2.3270    XZZ     -13.0810    YZZ      54.6056
       ZZZ       1.8172
    Hexadecapole Moments (Debye-Ang^3)
      XXXX    -503.0053   XXXY     -74.5975   XXYY    -586.0657
      XYYY     -70.1196   YYYY   -2759.7644   XXXZ     121.0878
      XXYZ     -44.8562   XYYZ      23.0876   YYYZ    -106.9442
      XXZZ    -216.0610   XYZZ     -12.0325   YYZZ    -622.4170
      XZZZ     124.4376   YZZZ    -102.4708   ZZZZ    -780.9426
 -----------------------------------------------------------------
 Total job time:  653.44s(wall), 647.08s(cpu) 
 Sun Jul 10 03:22:43 2022

        *************************************************************
        *                                                           *
        *  Thank you very much for using Q-Chem.  Have a nice day.  *
        *                                                           *
        *************************************************************


remove work dirs ./qchem1711768.0 -- ./qchem1711768.-1
rm -rf ./qchem1711768
You are running Q-Chem version: 5.4.0

#
# job setting
#
local host:  exp-1-04
current dir: /expanse/lustre/scratch/theleonzhang/temp_project/Hydrogenated_Rotation_Test
input file:  Methylthiophene_Phi_10_Theta_230_Methylthiophene_Hydrogenated.qcin
output file: 
nprocs     : 0
nthreads   : 1
#
# qchem installation setting
#
QC:          /cm/shared/apps/spack/cpu/opt/spack/linux-centos8-zen2/gcc-10.2.0/qchem-5.4-akfmr7b3t57bfs6qan3padb2wnb2i7cl
QCAUX:       /cm/shared/apps/spack/cpu/opt/spack/linux-centos8-zen2/gcc-10.2.0/qchem-5.4-akfmr7b3t57bfs6qan3padb2wnb2i7cl/qcaux
QCPROG:      /cm/shared/apps/spack/cpu/opt/spack/linux-centos8-zen2/gcc-10.2.0/qchem-5.4-akfmr7b3t57bfs6qan3padb2wnb2i7cl/exe/qcprog.exe_s
QCPROG_S:    /cm/shared/apps/spack/cpu/opt/spack/linux-centos8-zen2/gcc-10.2.0/qchem-5.4-akfmr7b3t57bfs6qan3padb2wnb2i7cl/exe/qcprog.exe_s
PARALLEL:    -DSERIAL
QCMPI:       mpich
#
# qchem directory setting
#
qcrun:       qchem1286439
QCSCRATCH:   .
QCLOCALSCR:  
QCTMPDIR:    .
QCFILEPREF:  ./qchem1286439
QCSAVEDIR:   
workdirs:    ./qchem1286439
workdir0:    ./qchem1286439
partmpdirs =  
#
# parallel setting
#
QCRSH:           ssh
QCMPI:           mpich
QCMPIRUN:        /cm/shared/apps/spack/cpu/opt/spack/linux-centos8-zen2/gcc-10.2.0/qchem-5.4-akfmr7b3t57bfs6qan3padb2wnb2i7cl/bin/mpi/mpirun_qchem
QCMACHINEFILE:   ./qchem1286439/hostfile

#
# env setting
#
exported envs:   QC QCAUX QCSCRATCH QCRUNNAME QCFILEPREF QCPROG QCPROG_S GUIFILE

Running Job 1 of 1 Methylthiophene_Phi_10_Theta_230_Methylthiophene_Hydrogenated.qcin
qchem Methylthiophene_Phi_10_Theta_230_Methylthiophene_Hydrogenated.qcin_1286439.0 ./qchem1286439/ 0
/cm/shared/apps/spack/cpu/opt/spack/linux-centos8-zen2/gcc-10.2.0/qchem-5.4-akfmr7b3t57bfs6qan3padb2wnb2i7cl/exe/qcprog.exe_s Methylthiophene_Phi_10_Theta_230_Methylthiophene_Hydrogenated.qcin_1286439.0 ./qchem1286439/
                  Welcome to Q-Chem
     A Quantum Leap Into The Future Of Chemistry


 Q-Chem 5.4, Q-Chem, Inc., Pleasanton, CA (2021)

 License issued to: University of California, San Diego (site)

 E. Epifanovsky,  A. T. B. Gilbert,  Xintian Feng,  Joonho Lee,  Yuezhi Mao,  
 N. Mardirossian,  P. Pokhilko,  A. White,  M. Wormit,  M. P. Coons,  
 A. L. Dempwolff,  Zhengting Gan,  D. Hait,  P. R. Horn,  L. D. Jacobson,  
 I. Kaliman,  J. Kussmann,  A. W. Lange,  Ka Un Lao,  D. S. Levine,  Jie Liu,  
 S. C. McKenzie,  A. F. Morrison,  K. Nanda,  F. Plasser,  D. R. Rehn,  
 M. L. Vidal,  Zhi-Qiang You,  Ying Zhu,  B. Alam,  B. Albrecht,  
 A. Aldossary,  E. Alguire,  J. H. Andersen,  D. Barton,  K. Begam,  A. Behn,  
 Y. A. Bernard,  E. J. Berquist,  H. Burton,  A. Carreras,  K. Carter-Fenk,  
 R. Chakraborty,  A. D. Chien,  K. D. Closser,  V. Cofer-Shabica,  
 S. Dasgupta,  Jia Deng,  M. de Wergifosse,  M. Diedenhofen,  Hainam Do,  
 S. Ehlert,  Po-Tung Fang,  S. Fatehi,  Qingguo Feng,  J. Gayvert,  
 Qinghui Ge,  G. Gidofalvi,  M. Goldey,  J. Gomes,  C. Gonzalez-Espinoza,  
 S. Gulania,  A. Gunina,  M. W. D. Hanson-Heine,  P. H. P. Harbach,  
 A. W. Hauser,  M. F. Herbst,  M. Hernandez Vera,  M. Hodecker,  
 Z. C. Holden,  S. Houck,  Xunkun Huang,  Kerwin Hui,  B. C. Huynh,  
 M. Ivanov,  Hyunjun Ji,  Hanjie Jiang,  B. Kaduk,  S. Kaehler,  
 K. Khistyaev,  Jaehoon Kim,  P. Klunzinger,  Z. Koczor-Benda,  
 Joong Hoon Koh,  D. Kosenkov,  L. Koulias,  T. Kowalczyk,  C. M. Krauter,  
 K. Kue,  A. Kunitsa,  T. Kus,  A. Landau,  K. V. Lawler,  D. Lefrancois,  
 S. Lehtola,  Rain Li,  Yi-Pei Li,  Jiashu Liang,  M. Liebenthal,  
 Hung-Hsuan Lin,  You-Sheng Lin,  Fenglai Liu,  Kuan-Yu Liu,  
 M. Loipersberger,  A. Luenser,  A. Manjanath,  P. Manohar,  E. Mansoor,  
 S. F. Manzer,  Shan-Ping Mao,  A. V. Marenich,  T. Markovich,  S. Mason,  
 S. A. Maurer,  P. F. McLaughlin,  M. F. S. J. Menger,  J.-M. Mewes,  
 S. A. Mewes,  P. Morgante,  J. W. Mullinax,  T. S. Nguyen-Beck,  
 K. J. Oosterbaan,  G. Paran,  Alexander C. Paul,  Suranjan K. Paul,  
 F. Pavosevic,  Zheng Pei,  S. Prager,  E. I. Proynov,  E. Ramos,  B. Rana,  
 A. E. Rask,  A. Rettig,  R. M. Richard,  F. Rob,  E. Rossomme,  T. Scheele,  
 M. Scheurer,  M. Schneider,  N. Sergueev,  S. M. Sharada,  W. Skomorowski,  
 D. W. Small,  C. J. Stein,  Yu-Chuan Su,  E. J. Sundstrom,  Zhen Tao,  
 J. Thirman,  T. Tsuchimochi,  N. M. Tubman,  S. P. Veccham,  O. Vydrov,  
 J. Wenzel,  J. Witte,  A. Yamada,  Kun Yao,  S. Yeganeh,  S. R. Yost,  
 A. Zech,  Igor Ying Zhang,  Xing Zhang,  Yu Zhang,  D. Zuev,  
 A. Aspuru-Guzik,  A. T. Bell,  N. A. Besley,  K. B. Bravaya,  B. R. Brooks,  
 D. Casanova,  Jeng-Da Chai,  S. Coriani,  C. J. Cramer,  
 A. E. DePrince, III,  R. A. DiStasio Jr.,  A. Dreuw,  B. D. Dunietz,  
 T. R. Furlani,  W. A. Goddard III,  S. Grimme,  S. Hammes-Schiffer,  
 T. Head-Gordon,  W. J. Hehre,  Chao-Ping Hsu,  T.-C. Jagau,  Yousung Jung,  
 A. Klamt,  Jing Kong,  D. S. Lambrecht,  WanZhen Liang,  N. J. Mayhall,  
 C. W. McCurdy,  J. B. Neaton,  C. Ochsenfeld,  J. A. Parkhill,  R. Peverati,  
 V. A. Rassolov,  Yihan Shao,  L. V. Slipchenko,  T. Stauch,  R. P. Steele,  
 J. E. Subotnik,  A. J. W. Thom,  A. Tkatchenko,  D. G. Truhlar,  
 T. Van Voorhis,  T. A. Wesolowski,  K. B. Whaley,  H. L. Woodcock III,  
 P. M. Zimmerman,  S. Faraji,  P. M. W. Gill,  M. Head-Gordon,  
 J. M. Herbert,  A. I. Krylov

 Contributors to earlier versions of Q-Chem not listed above: 
 R. D. Adamson,  B. Austin,  R. Baer,  J. Baker,  G. J. O. Beran,  
 K. Brandhorst,  S. T. Brown,  E. F. C. Byrd,  A. K. Chakraborty,  
 G. K. L. Chan,  Chun-Min Chang,  Yunqing Chen,  C.-L. Cheng,  
 Siu Hung Chien,  D. M. Chipman,  D. L. Crittenden,  H. Dachsel,  
 R. J. Doerksen,  A. D. Dutoi,  R. G. Edgar,  J. Fosso-Tande,  
 L. Fusti-Molnar,  D. Ghosh,  A. Ghysels,  A. Golubeva-Zadorozhnaya,  
 J. Gonthier,  M. S. Gordon,  S. R. Gwaltney,  G. Hawkins,  J. E. Herr,  
 A. Heyden,  S. Hirata,  E. G. Hohenstein,  G. Kedziora,  F. J. Keil,  
 C. Kelley,  Jihan Kim,  R. A. King,  R. Z. Khaliullin,  P. P. Korambath,  
 W. Kurlancheek,  A. Laurent,  A. M. Lee,  M. S. Lee,  S. V. Levchenko,  
 Ching Yeh Lin,  D. Liotard,  E. Livshits,  R. C. Lochan,  I. Lotan,  
 L. A. Martinez-Martinez,  P. E. Maslen,  N. Nair,  D. P. O'Neill,  
 D. Neuhauser,  E. Neuscamman,  C. M. Oana,  R. Olivares-Amaya,  R. Olson,  
 T. M. Perrine,  B. Peters,  P. A. Pieniazek,  A. Prociuk,  Y. M. Rhee,  
 J. Ritchie,  M. A. Rohrdanz,  E. Rosta,  N. J. Russ,  H. F. Schaefer III,  
 M. W. Schmidt,  N. E. Schultz,  S. Sharma,  N. Shenvi,  C. D. Sherrill,  
 A. C. Simmonett,  A. Sodt,  T. Stein,  D. Stuck,  K. S. Thanthiriwatte,  
 V. Vanovschi,  L. Vogt,  Tao Wang,  A. Warshel,  M. A. Watson,  
 C. F. Williams,  Q. Wu,  X. Xu,  Jun Yang,  W. Zhang,  Yan Zhao

 Please cite Q-Chem as follows:
 Y. Shao et al., Mol. Phys. 113, 184-215 (2015)
 DOI: 10.1080/00268976.2014.952696

 Q-Chem 5.4.0 for Intel X86 EM64T Linux

 Parts of Q-Chem use Armadillo 9.800.1 (Horizon Scraper).
 http://arma.sourceforge.net/

 Q-Chem begins on Sun Jul 10 03:46:32 2022  

 Host: 
0

     Scratch files written to ./qchem1286439//
 May1621 |scratch|qcdevops|jenkins|workspace|build_RNUM    
 Processing $rem in /cm/shared/apps/spack/cpu/opt/spack/linux-centos8-zen2/gcc-10.2.0/qchem-5.4-akfmr7b3t57bfs6qan3padb2wnb2i7cl/config/preferences:
 Processing $rem in /home/theleonzhang/.qchemrc:
 Symmetry turned off for PCM/SM12/SMD calculation
 Core orbitals will be frozen

 Checking the input file for inconsistencies... 	...done.

--------------------------------------------------------------
User input:
--------------------------------------------------------------
$molecule
0 1
C	0.594240	-3.866725	-0.497696
C	-0.469057	-3.703963	0.393981
C	-0.817136	-2.357056	0.685571
H	-0.997777	-4.561092	0.837848
C	-0.000000	-1.440664	-0.000000
S	1.183137	-2.286957	-0.992782
C	-1.932056	-1.978743	1.620802
H	-2.426166	-2.878678	2.035506
H	-2.711806	-1.376015	1.109943
H	-1.564678	-1.375728	2.477350
C	0.000000	0.000000	0.000000
C	0.149995	0.850475	1.099446
C	0.390327	2.213354	0.776721
H	0.085947	0.487279	2.136088
C	0.428665	2.430655	-0.612546
S	0.163670	0.928078	-1.486809
C	0.579235	3.284574	1.814609
H	0.505323	2.865404	2.836676
H	-0.185980	4.083890	1.726239
H	1.571698	3.773937	1.726228
H	0.593515	3.365448	-1.161575
H	0.281143	-4.392713	-1.406441
H	1.434879	-4.392347	-0.031265
H	0.694122	-1.440391	0.827402
$end

$rem
JOBTYPE		SP
EXCHANGE	HF
CORRELATION	pRIMP2
BASIS		cc-pvtz
METHOD		rimp2
AUX_BASIS	rimp2-cc-pvtz
SOLVENT_METHOD	PCM
PURECART	11111
SYMMETRY	false
MEM_TOTAL	110000
SCF_CONVERGENCE = 6
THRESH=10
$end



$solvent
dielectric 4.90
$end
--------------------------------------------------------------
 ----------------------------------------------------------------
             Standard Nuclear Orientation (Angstroms)
    I     Atom           X                Y                Z
 ----------------------------------------------------------------
    1      C       0.5942400000    -3.8667250000    -0.4976960000
    2      C      -0.4690570000    -3.7039630000     0.3939810000
    3      C      -0.8171360000    -2.3570560000     0.6855710000
    4      H      -0.9977770000    -4.5610920000     0.8378480000
    5      C       0.0000000000    -1.4406640000     0.0000000000
    6      S       1.1831370000    -2.2869570000    -0.9927820000
    7      C      -1.9320560000    -1.9787430000     1.6208020000
    8      H      -2.4261660000    -2.8786780000     2.0355060000
    9      H      -2.7118060000    -1.3760150000     1.1099430000
   10      H      -1.5646780000    -1.3757280000     2.4773500000
   11      C       0.0000000000     0.0000000000     0.0000000000
   12      C       0.1499950000     0.8504750000     1.0994460000
   13      C       0.3903270000     2.2133540000     0.7767210000
   14      H       0.0859470000     0.4872790000     2.1360880000
   15      C       0.4286650000     2.4306550000    -0.6125460000
   16      S       0.1636700000     0.9280780000    -1.4868090000
   17      C       0.5792350000     3.2845740000     1.8146090000
   18      H       0.5053230000     2.8654040000     2.8366760000
   19      H      -0.1859800000     4.0838900000     1.7262390000
   20      H       1.5716980000     3.7739370000     1.7262280000
   21      H       0.5935150000     3.3654480000    -1.1615750000
   22      H       0.2811430000    -4.3927130000    -1.4064410000
   23      H       1.4348790000    -4.3923470000    -0.0312650000
   24      H       0.6941220000    -1.4403910000     0.8274020000
 ----------------------------------------------------------------
 Nuclear Repulsion Energy =         873.86461096 hartrees
 There are       52 alpha and       52 beta electrons

 Q-Chem warning in module forms1/BasisType.C, line 2236:

 You are not using the predefined 5D/6D in this basis set.

 Requested basis set is cc-pVTZ
 There are 196 shells and 536 basis functions

 Total QAlloc Memory Limit 110000 MB
 Mega-Array Size       188 MB
 MEM_STATIC part       192 MB
 Discretize the solute cavity surface with Lebedev spheres
	Using 110 Lebedev grid points for each H atom
	Using 194 Lebedev grid points for other atoms
	Atomic van der Waals radii will be scaled by 1.20
 Remove points where switching function is < 1.0e-08
 Keep 1602 surface tesserae and discard 2046 interior tesserae
 Molecular Surface Area = 236.175 Angst**2
 Requested basis set is rimp2-cc-pVTZ
 There are 414 shells and 1414 basis functions
 A cutoff of  1.0D-10 yielded  13983 shell pairs
 There are    101323 function pairs (    129936 Cartesian)
 Smallest overlap matrix eigenvalue = 6.94E-05

 Scale SEOQF with 1.000000e-01/1.000000e-01/1.000000e-01

 Standard Electronic Orientation quadrupole field applied
 Nucleus-field energy     =     0.0000000305 hartrees
 Guess from superposition of atomic densities
 Warning:  Energy on first SCF cycle will be non-variational
 SAD guess density has 104.000000 electrons

 -----------------------------------------------------------------------
  General SCF calculation program by
  Eric Jon Sundstrom, Paul Horn, Yuezhi Mao, Dmitri Zuev, Alec White,
  David Stuck, Shaama M.S., Shane Yost, Joonho Lee, David Small,
  Daniel Levine, Susi Lehtola, Hugh Burton, Evgeny Epifanovsky,
  Bang C. Huynh
 -----------------------------------------------------------------------
 Hartree-Fock
 A restricted SCF calculation will be
 performed using DIIS
 SCF converges when DIIS error is below 1.0e-06
 ---------------------------------------
  Cycle       Energy         DIIS error
 ---------------------------------------
    1   -1186.0278242006      2.39e-02  
    2   -1180.6146423356      1.56e-03  
    3   -1180.7392122250      6.18e-04  
    4   -1180.7537338731      3.41e-04  
    5   -1180.7590351052      5.86e-05  
    6   -1180.7592741612      2.40e-05  
    7   -1180.7593294786      8.55e-06  
    8   -1180.7593415781      4.14e-06  
    9   -1180.7593442789      1.42e-06  
   10   -1180.7593447209      5.00e-07  Convergence criterion met
 ---------------------------------------
 SCF time:   CPU 562.22s  wall 565.00s 

************** Final PCM Free Energy Summary **************
 G_electrostatic  =      -0.00955634 hartree =      -5.99669288 kcal/mol
 G_cavitation     =       0.00000000 hartree =       0.00000000 kcal/mol
 G_dispersion     =       0.00000000 hartree =       0.00000000 kcal/mol
 G_repulsion      =       0.00000000 hartree =       0.00000000 kcal/mol
 --------------------------------------------------
 Non-electrostatic Free Energy =       0.00000000 hartree =       0.00000000 kcal/mol
 Total                         =      -0.00955634 hartree =      -5.99669288 kcal/mol
 --------------------------------------------------
 SCF Energy (H0 + V/2)                       =   -1180.75934472 
 Solute Internal Energy (H0)                 =   -1180.74978838 
 Total Free Energy (H0 + V/2 + non-elec)     =   -1180.75934472 hartree
                                             = -740937.67178411 kcal/mol
***********************************************************

 SCF   energy in the final basis set =    -1180.7593447209
 Total energy in the final basis set =    -1180.7593447209


 --------------------------------------------------------------
  Generalized many-body perturbation theory program
  by Joonho Lee, Fazle Rob, Xintian Feng, Evgeny Epifanovsky

 No regularization used 
 (reg. param. = 0.0000e+00)
  (P|Q)^-1/2 Time:  CPU 1.91 s  wall 1.92 s

 In RI-MP2 calculation: 
 # of frozen core orbitals: 20

 Components of the RIMP2 correlation energy:
        aaaa    correlation energy =        -0.2513092605 a.u.
        abab    correlation energy =        -1.5027987548 a.u.
        bbbb    correlation energy =        -0.2513092605 a.u.
        non-Brillouin singles      =        -0.0000000000 a.u.
        total same-spin energy     =        -0.5026185211 a.u.
        total opposite-spin energy =        -1.5027987548 a.u.

 Total  RIMP2   correlation energy =        -2.0054172759 a.u.
        RIMP2         total energy =     -1182.7647619968 a.u.

 RI-MP2 Energy Time:  CPU 79.65 s  wall 80.02 s
 
 --------------------------------------------------------------
 
                    Orbital Energies (a.u.)
 --------------------------------------------------------------
 
 Alpha MOs
 -- Occupied --
-91.9825 -91.9439 -11.2855 -11.2637 -11.2592 -11.2572 -11.2507 -11.2419
-11.2372 -11.2326 -11.2289 -11.2201  -8.9822  -8.9485  -6.6631  -6.6626
 -6.6620  -6.6299  -6.6288  -6.6276  -1.1999  -1.1529  -1.0589  -1.0287
 -1.0032  -0.9608  -0.9127  -0.9005  -0.8171  -0.7605  -0.7308  -0.7041
 -0.6614  -0.6441  -0.6103  -0.5900  -0.5834  -0.5701  -0.5621  -0.5531
 -0.5423  -0.5318  -0.5154  -0.5056  -0.4896  -0.4817  -0.4644  -0.4465
 -0.3564  -0.3426  -0.3195  -0.2715
 -- Virtual --
  0.0973   0.1323   0.1439   0.1523   0.1577   0.1697   0.1716   0.1862
  0.1969   0.1996   0.2029   0.2154   0.2203   0.2335   0.2355   0.2418
  0.2524   0.2623   0.2788   0.2962   0.3178   0.3383   0.3463   0.3611
  0.3698   0.3758   0.3810   0.3855   0.3958   0.4055   0.4123   0.4185
  0.4342   0.4435   0.4457   0.4691   0.4712   0.4804   0.4843   0.4935
  0.4994   0.5074   0.5235   0.5293   0.5300   0.5356   0.5493   0.5565
  0.5674   0.5752   0.5858   0.5906   0.5956   0.6108   0.6146   0.6183
  0.6251   0.6279   0.6326   0.6400   0.6418   0.6473   0.6484   0.6553
  0.6675   0.6754   0.6839   0.6851   0.7014   0.7034   0.7086   0.7140
  0.7306   0.7432   0.7642   0.7749   0.7841   0.7886   0.8117   0.8240
  0.8284   0.8436   0.8588   0.8601   0.8864   0.8928   0.8949   0.9099
  0.9323   0.9447   0.9474   0.9632   0.9767   0.9822   1.0049   1.0108
  1.0146   1.0258   1.0297   1.0444   1.0587   1.0665   1.0781   1.0808
  1.0864   1.1002   1.1166   1.1209   1.1263   1.1450   1.1562   1.1734
  1.1796   1.1893   1.1974   1.2055   1.2202   1.2245   1.2276   1.2439
  1.2462   1.2633   1.2659   1.2721   1.2777   1.2810   1.3116   1.3236
  1.3300   1.3426   1.3498   1.3664   1.3816   1.3894   1.4025   1.4190
  1.4210   1.4353   1.4514   1.4619   1.4665   1.4759   1.4815   1.4948
  1.5025   1.5154   1.5205   1.5235   1.5375   1.5409   1.5493   1.5506
  1.5701   1.5803   1.5923   1.6002   1.6160   1.6215   1.6287   1.6434
  1.6519   1.6592   1.6845   1.6932   1.7033   1.7120   1.7259   1.7370
  1.7527   1.7580   1.7695   1.7804   1.8045   1.8260   1.8311   1.8667
  1.8765   1.9168   1.9207   1.9398   1.9512   1.9709   1.9860   2.0070
  2.0199   2.0308   2.0440   2.0506   2.0872   2.1262   2.1358   2.1479
  2.1864   2.2050   2.2092   2.2202   2.2355   2.2558   2.2728   2.2834
  2.2888   2.3103   2.3286   2.3712   2.4076   2.4463   2.4711   2.4781
  2.5011   2.5103   2.5136   2.5435   2.5724   2.5898   2.6045   2.6103
  2.6139   2.6342   2.6593   2.6632   2.6766   2.6809   2.7055   2.7326
  2.7413   2.7555   2.7638   2.7711   2.7795   2.7929   2.8023   2.8200
  2.8411   2.8476   2.8554   2.8694   2.8975   2.9031   2.9110   2.9152
  2.9343   2.9549   2.9647   2.9691   3.0049   3.0086   3.0244   3.0384
  3.0456   3.0675   3.0930   3.1060   3.1123   3.1177   3.1370   3.1433
  3.1466   3.1505   3.1727   3.1764   3.1849   3.1898   3.1912   3.2174
  3.2270   3.2394   3.2492   3.2590   3.2745   3.2831   3.3043   3.3130
  3.3182   3.3263   3.3305   3.3401   3.3466   3.3517   3.3581   3.3674
  3.3756   3.3865   3.3973   3.4020   3.4042   3.4181   3.4259   3.4288
  3.4327   3.4489   3.4562   3.4656   3.4748   3.4774   3.4930   3.5036
  3.5151   3.5245   3.5330   3.5405   3.5415   3.5608   3.5714   3.5835
  3.5907   3.5952   3.6173   3.6208   3.6293   3.6347   3.6465   3.6492
  3.6610   3.6745   3.6863   3.7033   3.7190   3.7278   3.7326   3.7365
  3.7453   3.7572   3.7649   3.7838   3.7900   3.7987   3.8081   3.8142
  3.8319   3.8400   3.8605   3.8638   3.8804   3.8946   3.9040   3.9148
  3.9182   3.9359   3.9476   3.9620   3.9724   3.9936   4.0115   4.0152
  4.0252   4.0310   4.0426   4.0545   4.0765   4.0853   4.0941   4.1022
  4.1308   4.1361   4.1434   4.1528   4.1567   4.1697   4.1771   4.1897
  4.2071   4.2151   4.2306   4.2340   4.2389   4.2617   4.2799   4.2919
  4.2981   4.3047   4.3088   4.3231   4.3401   4.3558   4.3688   4.3741
  4.3825   4.3902   4.3929   4.4010   4.4040   4.4288   4.4340   4.4516
  4.4596   4.4721   4.4781   4.4890   4.5082   4.5203   4.5212   4.5458
  4.5731   4.5933   4.6105   4.6189   4.6414   4.6429   4.6564   4.6772
  4.6835   4.7279   4.7376   4.7431   4.7805   4.8219   4.8377   4.8390
  4.8633   4.8784   4.8944   4.9204   4.9297   4.9742   4.9794   4.9927
  5.0318   5.0622   5.0941   5.1049   5.1136   5.1261   5.1418   5.1860
  5.1923   5.2203   5.2390   5.2645   5.2804   5.2873   5.3063   5.3308
  5.3406   5.3597   5.3775   5.3872   5.4104   5.4275   5.4387   5.4428
  5.4786   5.5186   5.5320   5.5421   5.5487   5.5624   5.5689   5.5914
  5.6233   5.6288   5.6327   5.6551   5.6709   5.6972   5.7042   5.7354
  5.7753   5.8031   5.8313   5.9551   6.0326   6.1110   6.1294   6.1685
  6.2157   6.2249   6.2267   6.2353   6.2519   6.2809   6.3117   6.3197
  6.3805   6.5246   9.3340  10.7523  12.0545  12.9637  13.2191  13.9036
 14.0898  14.1971  14.3862  14.8047
 --------------------------------------------------------------
 
          Ground-State Mulliken Net Atomic Charges

     Atom                 Charge (a.u.)
  ----------------------------------------
      1 C                    -0.075838
      2 C                    -0.324572
      3 C                    -0.043589
      4 H                     0.176621
      5 C                     0.089415
      6 S                    -0.174134
      7 C                    -0.271114
      8 H                     0.115235
      9 H                     0.110651
     10 H                     0.099121
     11 C                    -0.059428
     12 C                    -0.258238
     13 C                     0.023558
     14 H                     0.187216
     15 C                    -0.252218
     16 S                     0.008188
     17 C                    -0.273083
     18 H                     0.101249
     19 H                     0.108206
     20 H                     0.108740
     21 H                     0.196047
     22 H                     0.111132
     23 H                     0.112025
     24 H                     0.184810
  ----------------------------------------
  Sum of atomic charges =     0.000000

 -----------------------------------------------------------------
                    Cartesian Multipole Moments
 -----------------------------------------------------------------
    Charge (ESU x 10^10)
                -0.0000
    Dipole Moment (Debye)
         X      -1.0304      Y       0.1362      Z       3.5770
       Tot       3.7249
    Quadrupole Moments (Debye-Ang)
        XX     -91.0415     XY       3.4017     YY     -73.9890
        XZ       0.1642     YZ      -2.2148     ZZ     -86.2259
    Octopole Moments (Debye-Ang^2)
       XXX     -38.9984    XXY      42.7713    XYY      -3.3175
       YYY     123.0821    XXZ       1.7738    XYZ       2.1577
       YYZ      -2.3270    XZZ     -13.0810    YZZ      54.6056
       ZZZ       1.8172
    Hexadecapole Moments (Debye-Ang^3)
      XXXX    -503.0053   XXXY     -74.5975   XXYY    -586.0657
      XYYY     -70.1196   YYYY   -2759.7644   XXXZ     121.0878
      XXYZ     -44.8562   XYYZ      23.0876   YYYZ    -106.9442
      XXZZ    -216.0610   XYZZ     -12.0325   YYZZ    -622.4170
      XZZZ     124.4376   YZZZ    -102.4708   ZZZZ    -780.9426
 -----------------------------------------------------------------
 Total job time:  648.36s(wall), 642.81s(cpu) 
 Sun Jul 10 03:57:21 2022

        *************************************************************
        *                                                           *
        *  Thank you very much for using Q-Chem.  Have a nice day.  *
        *                                                           *
        *************************************************************


remove work dirs ./qchem1286439.0 -- ./qchem1286439.-1
rm -rf ./qchem1286439
