You are running Q-Chem version: 5.4.0

#
# job setting
#
local host:  exp-2-06
current dir: /expanse/lustre/scratch/theleonzhang/temp_project/Hydrogenated_Rotation_Test
input file:  Methylthiophene_Phi_50_Theta_260_Methylthiophene_Hydrogenated.qcin
output file: 
nprocs     : 0
nthreads   : 1
#
# qchem installation setting
#
QC:          /cm/shared/apps/spack/cpu/opt/spack/linux-centos8-zen2/gcc-10.2.0/qchem-5.4-akfmr7b3t57bfs6qan3padb2wnb2i7cl
QCAUX:       /cm/shared/apps/spack/cpu/opt/spack/linux-centos8-zen2/gcc-10.2.0/qchem-5.4-akfmr7b3t57bfs6qan3padb2wnb2i7cl/qcaux
QCPROG:      /cm/shared/apps/spack/cpu/opt/spack/linux-centos8-zen2/gcc-10.2.0/qchem-5.4-akfmr7b3t57bfs6qan3padb2wnb2i7cl/exe/qcprog.exe_s
QCPROG_S:    /cm/shared/apps/spack/cpu/opt/spack/linux-centos8-zen2/gcc-10.2.0/qchem-5.4-akfmr7b3t57bfs6qan3padb2wnb2i7cl/exe/qcprog.exe_s
PARALLEL:    -DSERIAL
QCMPI:       mpich
#
# qchem directory setting
#
qcrun:       qchem1891802
QCSCRATCH:   .
QCLOCALSCR:  
QCTMPDIR:    .
QCFILEPREF:  ./qchem1891802
QCSAVEDIR:   
workdirs:    ./qchem1891802
workdir0:    ./qchem1891802
partmpdirs =  
#
# parallel setting
#
QCRSH:           ssh
QCMPI:           mpich
QCMPIRUN:        /cm/shared/apps/spack/cpu/opt/spack/linux-centos8-zen2/gcc-10.2.0/qchem-5.4-akfmr7b3t57bfs6qan3padb2wnb2i7cl/bin/mpi/mpirun_qchem
QCMACHINEFILE:   ./qchem1891802/hostfile

#
# env setting
#
exported envs:   QC QCAUX QCSCRATCH QCRUNNAME QCFILEPREF QCPROG QCPROG_S GUIFILE

Running Job 1 of 1 Methylthiophene_Phi_50_Theta_260_Methylthiophene_Hydrogenated.qcin
qchem Methylthiophene_Phi_50_Theta_260_Methylthiophene_Hydrogenated.qcin_1891802.0 ./qchem1891802/ 0
/cm/shared/apps/spack/cpu/opt/spack/linux-centos8-zen2/gcc-10.2.0/qchem-5.4-akfmr7b3t57bfs6qan3padb2wnb2i7cl/exe/qcprog.exe_s Methylthiophene_Phi_50_Theta_260_Methylthiophene_Hydrogenated.qcin_1891802.0 ./qchem1891802/
                  Welcome to Q-Chem
     A Quantum Leap Into The Future Of Chemistry


 Q-Chem 5.4, Q-Chem, Inc., Pleasanton, CA (2021)

 License issued to: University of California, San Diego (site)

 E. Epifanovsky,  A. T. B. Gilbert,  Xintian Feng,  Joonho Lee,  Yuezhi Mao,  
 N. Mardirossian,  P. Pokhilko,  A. White,  M. Wormit,  M. P. Coons,  
 A. L. Dempwolff,  Zhengting Gan,  D. Hait,  P. R. Horn,  L. D. Jacobson,  
 I. Kaliman,  J. Kussmann,  A. W. Lange,  Ka Un Lao,  D. S. Levine,  Jie Liu,  
 S. C. McKenzie,  A. F. Morrison,  K. Nanda,  F. Plasser,  D. R. Rehn,  
 M. L. Vidal,  Zhi-Qiang You,  Ying Zhu,  B. Alam,  B. Albrecht,  
 A. Aldossary,  E. Alguire,  J. H. Andersen,  D. Barton,  K. Begam,  A. Behn,  
 Y. A. Bernard,  E. J. Berquist,  H. Burton,  A. Carreras,  K. Carter-Fenk,  
 R. Chakraborty,  A. D. Chien,  K. D. Closser,  V. Cofer-Shabica,  
 S. Dasgupta,  Jia Deng,  M. de Wergifosse,  M. Diedenhofen,  Hainam Do,  
 S. Ehlert,  Po-Tung Fang,  S. Fatehi,  Qingguo Feng,  J. Gayvert,  
 Qinghui Ge,  G. Gidofalvi,  M. Goldey,  J. Gomes,  C. Gonzalez-Espinoza,  
 S. Gulania,  A. Gunina,  M. W. D. Hanson-Heine,  P. H. P. Harbach,  
 A. W. Hauser,  M. F. Herbst,  M. Hernandez Vera,  M. Hodecker,  
 Z. C. Holden,  S. Houck,  Xunkun Huang,  Kerwin Hui,  B. C. Huynh,  
 M. Ivanov,  Hyunjun Ji,  Hanjie Jiang,  B. Kaduk,  S. Kaehler,  
 K. Khistyaev,  Jaehoon Kim,  P. Klunzinger,  Z. Koczor-Benda,  
 Joong Hoon Koh,  D. Kosenkov,  L. Koulias,  T. Kowalczyk,  C. M. Krauter,  
 K. Kue,  A. Kunitsa,  T. Kus,  A. Landau,  K. V. Lawler,  D. Lefrancois,  
 S. Lehtola,  Rain Li,  Yi-Pei Li,  Jiashu Liang,  M. Liebenthal,  
 Hung-Hsuan Lin,  You-Sheng Lin,  Fenglai Liu,  Kuan-Yu Liu,  
 M. Loipersberger,  A. Luenser,  A. Manjanath,  P. Manohar,  E. Mansoor,  
 S. F. Manzer,  Shan-Ping Mao,  A. V. Marenich,  T. Markovich,  S. Mason,  
 S. A. Maurer,  P. F. McLaughlin,  M. F. S. J. Menger,  J.-M. Mewes,  
 S. A. Mewes,  P. Morgante,  J. W. Mullinax,  T. S. Nguyen-Beck,  
 K. J. Oosterbaan,  G. Paran,  Alexander C. Paul,  Suranjan K. Paul,  
 F. Pavosevic,  Zheng Pei,  S. Prager,  E. I. Proynov,  E. Ramos,  B. Rana,  
 A. E. Rask,  A. Rettig,  R. M. Richard,  F. Rob,  E. Rossomme,  T. Scheele,  
 M. Scheurer,  M. Schneider,  N. Sergueev,  S. M. Sharada,  W. Skomorowski,  
 D. W. Small,  C. J. Stein,  Yu-Chuan Su,  E. J. Sundstrom,  Zhen Tao,  
 J. Thirman,  T. Tsuchimochi,  N. M. Tubman,  S. P. Veccham,  O. Vydrov,  
 J. Wenzel,  J. Witte,  A. Yamada,  Kun Yao,  S. Yeganeh,  S. R. Yost,  
 A. Zech,  Igor Ying Zhang,  Xing Zhang,  Yu Zhang,  D. Zuev,  
 A. Aspuru-Guzik,  A. T. Bell,  N. A. Besley,  K. B. Bravaya,  B. R. Brooks,  
 D. Casanova,  Jeng-Da Chai,  S. Coriani,  C. J. Cramer,  
 A. E. DePrince, III,  R. A. DiStasio Jr.,  A. Dreuw,  B. D. Dunietz,  
 T. R. Furlani,  W. A. Goddard III,  S. Grimme,  S. Hammes-Schiffer,  
 T. Head-Gordon,  W. J. Hehre,  Chao-Ping Hsu,  T.-C. Jagau,  Yousung Jung,  
 A. Klamt,  Jing Kong,  D. S. Lambrecht,  WanZhen Liang,  N. J. Mayhall,  
 C. W. McCurdy,  J. B. Neaton,  C. Ochsenfeld,  J. A. Parkhill,  R. Peverati,  
 V. A. Rassolov,  Yihan Shao,  L. V. Slipchenko,  T. Stauch,  R. P. Steele,  
 J. E. Subotnik,  A. J. W. Thom,  A. Tkatchenko,  D. G. Truhlar,  
 T. Van Voorhis,  T. A. Wesolowski,  K. B. Whaley,  H. L. Woodcock III,  
 P. M. Zimmerman,  S. Faraji,  P. M. W. Gill,  M. Head-Gordon,  
 J. M. Herbert,  A. I. Krylov

 Contributors to earlier versions of Q-Chem not listed above: 
 R. D. Adamson,  B. Austin,  R. Baer,  J. Baker,  G. J. O. Beran,  
 K. Brandhorst,  S. T. Brown,  E. F. C. Byrd,  A. K. Chakraborty,  
 G. K. L. Chan,  Chun-Min Chang,  Yunqing Chen,  C.-L. Cheng,  
 Siu Hung Chien,  D. M. Chipman,  D. L. Crittenden,  H. Dachsel,  
 R. J. Doerksen,  A. D. Dutoi,  R. G. Edgar,  J. Fosso-Tande,  
 L. Fusti-Molnar,  D. Ghosh,  A. Ghysels,  A. Golubeva-Zadorozhnaya,  
 J. Gonthier,  M. S. Gordon,  S. R. Gwaltney,  G. Hawkins,  J. E. Herr,  
 A. Heyden,  S. Hirata,  E. G. Hohenstein,  G. Kedziora,  F. J. Keil,  
 C. Kelley,  Jihan Kim,  R. A. King,  R. Z. Khaliullin,  P. P. Korambath,  
 W. Kurlancheek,  A. Laurent,  A. M. Lee,  M. S. Lee,  S. V. Levchenko,  
 Ching Yeh Lin,  D. Liotard,  E. Livshits,  R. C. Lochan,  I. Lotan,  
 L. A. Martinez-Martinez,  P. E. Maslen,  N. Nair,  D. P. O'Neill,  
 D. Neuhauser,  E. Neuscamman,  C. M. Oana,  R. Olivares-Amaya,  R. Olson,  
 T. M. Perrine,  B. Peters,  P. A. Pieniazek,  A. Prociuk,  Y. M. Rhee,  
 J. Ritchie,  M. A. Rohrdanz,  E. Rosta,  N. J. Russ,  H. F. Schaefer III,  
 M. W. Schmidt,  N. E. Schultz,  S. Sharma,  N. Shenvi,  C. D. Sherrill,  
 A. C. Simmonett,  A. Sodt,  T. Stein,  D. Stuck,  K. S. Thanthiriwatte,  
 V. Vanovschi,  L. Vogt,  Tao Wang,  A. Warshel,  M. A. Watson,  
 C. F. Williams,  Q. Wu,  X. Xu,  Jun Yang,  W. Zhang,  Yan Zhao

 Please cite Q-Chem as follows:
 Y. Shao et al., Mol. Phys. 113, 184-215 (2015)
 DOI: 10.1080/00268976.2014.952696

 Q-Chem 5.4.0 for Intel X86 EM64T Linux

 Parts of Q-Chem use Armadillo 9.800.1 (Horizon Scraper).
 http://arma.sourceforge.net/

 Q-Chem begins on Sun Jul 10 04:25:08 2022  

 Host: 
0

     Scratch files written to ./qchem1891802//
 May1621 |scratch|qcdevops|jenkins|workspace|build_RNUM    
 Processing $rem in /cm/shared/apps/spack/cpu/opt/spack/linux-centos8-zen2/gcc-10.2.0/qchem-5.4-akfmr7b3t57bfs6qan3padb2wnb2i7cl/config/preferences:
 Processing $rem in /home/theleonzhang/.qchemrc:
 Symmetry turned off for PCM/SM12/SMD calculation
 Core orbitals will be frozen

 Checking the input file for inconsistencies... 	...done.

--------------------------------------------------------------
User input:
--------------------------------------------------------------
$molecule
0 1
C	0.763475	-3.866725	-0.133897
C	-0.603206	-3.703963	0.106669
C	-1.050446	-2.357056	0.185154
H	-1.283024	-4.561092	0.226709
C	0.000000	-1.440664	0.000000
S	1.521018	-2.286957	-0.268206
C	-2.483610	-1.978743	0.437628
H	-3.118875	-2.878678	0.549717
H	-2.903464	-1.376015	-0.394664
H	-2.593726	-1.375728	1.363110
C	0.000000	0.000000	0.000000
C	0.661577	0.555087	1.099446
C	1.721724	1.444630	0.776721
H	0.379056	0.318032	2.136088
C	1.890772	1.586449	-0.612546
S	0.721935	0.605744	-1.486809
C	2.555004	2.143805	1.814609
H	2.228946	1.870211	2.836676
H	2.482605	3.247987	1.726239
H	3.629830	1.880735	1.726228
H	2.617927	2.196579	-1.161575
H	0.946698	-4.392713	-1.077442
H	1.258274	-4.392347	0.690363
H	0.187427	-1.440391	1.063612
$end

$rem
JOBTYPE		SP
EXCHANGE	HF
CORRELATION	pRIMP2
BASIS		cc-pvtz
METHOD		rimp2
AUX_BASIS	rimp2-cc-pvtz
SOLVENT_METHOD	PCM
PURECART	11111
SYMMETRY	false
MEM_TOTAL	110000
SCF_CONVERGENCE = 6
THRESH=10
$end



$solvent
dielectric 4.90
$end
--------------------------------------------------------------
 ----------------------------------------------------------------
             Standard Nuclear Orientation (Angstroms)
    I     Atom           X                Y                Z
 ----------------------------------------------------------------
    1      C       0.7634750000    -3.8667250000    -0.1338970000
    2      C      -0.6032060000    -3.7039630000     0.1066690000
    3      C      -1.0504460000    -2.3570560000     0.1851540000
    4      H      -1.2830240000    -4.5610920000     0.2267090000
    5      C       0.0000000000    -1.4406640000     0.0000000000
    6      S       1.5210180000    -2.2869570000    -0.2682060000
    7      C      -2.4836100000    -1.9787430000     0.4376280000
    8      H      -3.1188750000    -2.8786780000     0.5497170000
    9      H      -2.9034640000    -1.3760150000    -0.3946640000
   10      H      -2.5937260000    -1.3757280000     1.3631100000
   11      C       0.0000000000     0.0000000000     0.0000000000
   12      C       0.6615770000     0.5550870000     1.0994460000
   13      C       1.7217240000     1.4446300000     0.7767210000
   14      H       0.3790560000     0.3180320000     2.1360880000
   15      C       1.8907720000     1.5864490000    -0.6125460000
   16      S       0.7219350000     0.6057440000    -1.4868090000
   17      C       2.5550040000     2.1438050000     1.8146090000
   18      H       2.2289460000     1.8702110000     2.8366760000
   19      H       2.4826050000     3.2479870000     1.7262390000
   20      H       3.6298300000     1.8807350000     1.7262280000
   21      H       2.6179270000     2.1965790000    -1.1615750000
   22      H       0.9466980000    -4.3927130000    -1.0774420000
   23      H       1.2582740000    -4.3923470000     0.6903630000
   24      H       0.1874270000    -1.4403910000     1.0636120000
 ----------------------------------------------------------------
 Nuclear Repulsion Energy =         893.00845575 hartrees
 There are       52 alpha and       52 beta electrons

 Q-Chem warning in module forms1/BasisType.C, line 2236:

 You are not using the predefined 5D/6D in this basis set.

 Requested basis set is cc-pVTZ
 There are 196 shells and 536 basis functions

 Total QAlloc Memory Limit 110000 MB
 Mega-Array Size       188 MB
 MEM_STATIC part       192 MB
 Discretize the solute cavity surface with Lebedev spheres
	Using 110 Lebedev grid points for each H atom
	Using 194 Lebedev grid points for other atoms
	Atomic van der Waals radii will be scaled by 1.20
 Remove points where switching function is < 1.0e-08
 Keep 1600 surface tesserae and discard 2048 interior tesserae
 Molecular Surface Area = 233.453 Angst**2
 Requested basis set is rimp2-cc-pVTZ
 There are 414 shells and 1414 basis functions
 A cutoff of  1.0D-10 yielded  14281 shell pairs
 There are    103465 function pairs (    132678 Cartesian)
 Smallest overlap matrix eigenvalue = 6.53E-05

 Scale SEOQF with 1.000000e-01/1.000000e-01/1.000000e-01

 Standard Electronic Orientation quadrupole field applied
 Nucleus-field energy     =     0.0000000327 hartrees
 Guess from superposition of atomic densities
 Warning:  Energy on first SCF cycle will be non-variational
 SAD guess density has 104.000000 electrons

 -----------------------------------------------------------------------
  General SCF calculation program by
  Eric Jon Sundstrom, Paul Horn, Yuezhi Mao, Dmitri Zuev, Alec White,
  David Stuck, Shaama M.S., Shane Yost, Joonho Lee, David Small,
  Daniel Levine, Susi Lehtola, Hugh Burton, Evgeny Epifanovsky,
  Bang C. Huynh
 -----------------------------------------------------------------------
 Hartree-Fock
 A restricted SCF calculation will be
 performed using DIIS
 SCF converges when DIIS error is below 1.0e-06
 ---------------------------------------
  Cycle       Energy         DIIS error
 ---------------------------------------
    1   -1186.1214564191      2.40e-02  
    2   -1180.5678951287      1.53e-03  
    3   -1180.6931588416      5.23e-04  
    4   -1180.7059858609      2.72e-04  
    5   -1180.7094149146      5.72e-05  
    6   -1180.7096580198      2.43e-05  
    7   -1180.7097263780      1.12e-05  
    8   -1180.7097474087      5.28e-06  
    9   -1180.7097534493      2.21e-06  
   10   -1180.7097545251      7.48e-07  Convergence criterion met
 ---------------------------------------
 SCF time:   CPU 587.18s  wall 589.00s 

************** Final PCM Free Energy Summary **************
 G_electrostatic  =      -0.01009252 hartree =      -6.33315495 kcal/mol
 G_cavitation     =       0.00000000 hartree =       0.00000000 kcal/mol
 G_dispersion     =       0.00000000 hartree =       0.00000000 kcal/mol
 G_repulsion      =       0.00000000 hartree =       0.00000000 kcal/mol
 --------------------------------------------------
 Non-electrostatic Free Energy =       0.00000000 hartree =       0.00000000 kcal/mol
 Total                         =      -0.01009252 hartree =      -6.33315495 kcal/mol
 --------------------------------------------------
 SCF Energy (H0 + V/2)                       =   -1180.70975453 
 Solute Internal Energy (H0)                 =   -1180.69966200 
 Total Free Energy (H0 + V/2 + non-elec)     =   -1180.70975453 hartree
                                             = -740906.55346660 kcal/mol
***********************************************************

 SCF   energy in the final basis set =    -1180.7097545251
 Total energy in the final basis set =    -1180.7097545251


 --------------------------------------------------------------
  Generalized many-body perturbation theory program
  by Joonho Lee, Fazle Rob, Xintian Feng, Evgeny Epifanovsky

 No regularization used 
 (reg. param. = 0.0000e+00)
  (P|Q)^-1/2 Time:  CPU 1.89 s  wall 1.90 s

 In RI-MP2 calculation: 
 # of frozen core orbitals: 20

 Components of the RIMP2 correlation energy:
        aaaa    correlation energy =        -0.2535116337 a.u.
        abab    correlation energy =        -1.5099456461 a.u.
        bbbb    correlation energy =        -0.2535116337 a.u.
        non-Brillouin singles      =        -0.0000000000 a.u.
        total same-spin energy     =        -0.5070232675 a.u.
        total opposite-spin energy =        -1.5099456461 a.u.

 Total  RIMP2   correlation energy =        -2.0169689136 a.u.
        RIMP2         total energy =     -1182.7267234387 a.u.

 RI-MP2 Energy Time:  CPU 80.15 s  wall 80.43 s
 
 --------------------------------------------------------------
 
                    Orbital Energies (a.u.)
 --------------------------------------------------------------
 
 Alpha MOs
 -- Occupied --
-91.9785 -91.9366 -11.2807 -11.2608 -11.2555 -11.2552 -11.2516 -11.2483
-11.2371 -11.2301 -11.2294 -11.2112  -8.9790  -8.9415  -6.6599  -6.6591
 -6.6588  -6.6228  -6.6218  -6.6205  -1.2024  -1.1531  -1.0576  -1.0252
 -1.0049  -0.9585  -0.9083  -0.9023  -0.8119  -0.7564  -0.7432  -0.6973
 -0.6584  -0.6377  -0.6109  -0.5900  -0.5808  -0.5718  -0.5640  -0.5498
 -0.5390  -0.5325  -0.5066  -0.5057  -0.4931  -0.4681  -0.4557  -0.4443
 -0.3600  -0.3312  -0.3145  -0.2743
 -- Virtual --
  0.0635   0.1357   0.1397   0.1566   0.1600   0.1694   0.1755   0.1810
  0.1888   0.1977   0.2069   0.2178   0.2230   0.2270   0.2346   0.2433
  0.2487   0.2554   0.2685   0.2958   0.3108   0.3194   0.3430   0.3498
  0.3664   0.3754   0.3790   0.3852   0.3893   0.3927   0.4127   0.4213
  0.4262   0.4340   0.4461   0.4539   0.4709   0.4771   0.4906   0.4951
  0.5033   0.5073   0.5092   0.5241   0.5307   0.5415   0.5520   0.5556
  0.5684   0.5735   0.5876   0.5990   0.6060   0.6113   0.6167   0.6232
  0.6261   0.6304   0.6313   0.6407   0.6435   0.6460   0.6543   0.6604
  0.6654   0.6697   0.6783   0.6898   0.6964   0.7090   0.7113   0.7359
  0.7392   0.7437   0.7504   0.7732   0.7891   0.7992   0.8104   0.8167
  0.8311   0.8404   0.8489   0.8597   0.8702   0.8881   0.9055   0.9082
  0.9222   0.9487   0.9520   0.9632   0.9707   0.9878   0.9928   1.0199
  1.0290   1.0316   1.0363   1.0441   1.0594   1.0621   1.0842   1.0884
  1.0937   1.1042   1.1130   1.1368   1.1483   1.1556   1.1620   1.1688
  1.1800   1.1841   1.1953   1.2083   1.2135   1.2274   1.2348   1.2511
  1.2557   1.2613   1.2635   1.2750   1.2757   1.2877   1.2987   1.3186
  1.3273   1.3454   1.3630   1.3677   1.3820   1.3877   1.4046   1.4115
  1.4292   1.4385   1.4426   1.4571   1.4656   1.4717   1.4825   1.4996
  1.5035   1.5145   1.5244   1.5343   1.5389   1.5475   1.5491   1.5616
  1.5661   1.5744   1.5793   1.5936   1.6003   1.6187   1.6228   1.6425
  1.6512   1.6607   1.6673   1.6892   1.7071   1.7194   1.7261   1.7356
  1.7439   1.7549   1.7746   1.7817   1.8068   1.8153   1.8363   1.8611
  1.8709   1.9061   1.9273   1.9447   1.9549   1.9770   1.9850   2.0069
  2.0158   2.0306   2.0354   2.0682   2.0885   2.1120   2.1207   2.1706
  2.1810   2.1999   2.2094   2.2208   2.2372   2.2388   2.2519   2.2739
  2.2858   2.3228   2.3618   2.3701   2.3865   2.4463   2.4686   2.4747
  2.4829   2.5116   2.5308   2.5388   2.5737   2.5931   2.6132   2.6210
  2.6422   2.6486   2.6608   2.6766   2.6858   2.6969   2.7100   2.7210
  2.7474   2.7601   2.7719   2.7836   2.7887   2.7959   2.8084   2.8218
  2.8383   2.8550   2.8696   2.8862   2.8910   2.8993   2.9104   2.9359
  2.9539   2.9654   2.9713   2.9912   3.0042   3.0187   3.0324   3.0474
  3.0618   3.0689   3.0899   3.1100   3.1121   3.1253   3.1331   3.1548
  3.1631   3.1665   3.1681   3.1736   3.1897   3.1919   3.2054   3.2215
  3.2337   3.2364   3.2485   3.2528   3.2742   3.2798   3.2899   3.3157
  3.3176   3.3288   3.3331   3.3401   3.3489   3.3564   3.3610   3.3641
  3.3769   3.3785   3.3865   3.4001   3.4107   3.4145   3.4242   3.4314
  3.4369   3.4521   3.4568   3.4683   3.4871   3.4967   3.5109   3.5192
  3.5241   3.5314   3.5363   3.5542   3.5636   3.5690   3.5761   3.5827
  3.5919   3.6088   3.6248   3.6325   3.6392   3.6593   3.6648   3.6717
  3.6776   3.6936   3.7011   3.7103   3.7193   3.7293   3.7369   3.7445
  3.7526   3.7593   3.7611   3.7795   3.7945   3.8038   3.8135   3.8249
  3.8312   3.8466   3.8563   3.8675   3.8834   3.8915   3.9126   3.9190
  3.9351   3.9492   3.9625   3.9689   3.9778   3.9922   4.0032   4.0157
  4.0287   4.0337   4.0558   4.0589   4.0774   4.0916   4.1056   4.1107
  4.1232   4.1320   4.1468   4.1567   4.1769   4.1805   4.2034   4.2097
  4.2166   4.2199   4.2229   4.2570   4.2603   4.2644   4.2786   4.2864
  4.2999   4.3057   4.3277   4.3366   4.3386   4.3485   4.3588   4.3697
  4.3826   4.3894   4.4004   4.4031   4.4144   4.4215   4.4386   4.4448
  4.4600   4.4677   4.4822   4.4955   4.5019   4.5308   4.5404   4.5574
  4.5849   4.5916   4.6156   4.6210   4.6336   4.6601   4.6696   4.6791
  4.6842   4.7252   4.7401   4.7675   4.8011   4.8307   4.8365   4.8580
  4.8719   4.8842   4.9096   4.9182   4.9405   4.9714   4.9718   5.0084
  5.0285   5.0468   5.0812   5.1136   5.1183   5.1331   5.1378   5.1613
  5.1801   5.2119   5.2249   5.2672   5.2826   5.2919   5.3087   5.3189
  5.3333   5.3683   5.3865   5.3974   5.4085   5.4298   5.4445   5.4585
  5.4785   5.5063   5.5160   5.5435   5.5498   5.5558   5.5651   5.5888
  5.6281   5.6298   5.6444   5.6608   5.6893   5.7064   5.7180   5.7320
  5.7686   5.7960   5.8133   5.9721   6.0072   6.0322   6.0995   6.1411
  6.2047   6.2182   6.2241   6.2294   6.2454   6.2728   6.2880   6.3257
  6.3863   6.3963   9.4525  10.4838  12.5495  12.8432  13.1636  13.8790
 14.1326  14.2361  14.2951  14.6127
 --------------------------------------------------------------
 
          Ground-State Mulliken Net Atomic Charges

     Atom                 Charge (a.u.)
  ----------------------------------------
      1 C                    -0.080564
      2 C                    -0.336082
      3 C                    -0.052381
      4 H                     0.172840
      5 C                     0.055777
      6 S                    -0.177607
      7 C                    -0.272063
      8 H                     0.112570
      9 H                     0.106682
     10 H                     0.098727
     11 C                    -0.113453
     12 C                    -0.170948
     13 C                     0.009409
     14 H                     0.181254
     15 C                    -0.192563
     16 S                     0.019434
     17 C                    -0.267970
     18 H                     0.102008
     19 H                     0.107625
     20 H                     0.107563
     21 H                     0.199233
     22 H                     0.110229
     23 H                     0.107464
     24 H                     0.172818
  ----------------------------------------
  Sum of atomic charges =     0.000000

 -----------------------------------------------------------------
                    Cartesian Multipole Moments
 -----------------------------------------------------------------
    Charge (ESU x 10^10)
                -0.0000
    Dipole Moment (Debye)
         X      -0.0641      Y       0.9515      Z       2.7109
       Tot       2.8737
    Quadrupole Moments (Debye-Ang)
        XX     -84.6583     XY       9.0537     YY     -81.9451
        XZ       0.8504     YZ      -1.1391     ZZ     -85.5025
    Octopole Moments (Debye-Ang^2)
       XXX    -149.9810    XXY      84.9454    XYY     -39.1068
       YYY     186.8316    XXZ      -2.3583    XYZ      -1.7962
       YYZ      -1.0607    XZZ     -45.7958    YZZ      78.6324
       ZZZ       3.0075
    Hexadecapole Moments (Debye-Ang^3)
      XXXX   -1232.9277   XXXY    -175.7120   XXYY    -586.8813
      XYYY    -227.1806   YYYY   -2345.2791   XXXZ     -33.3959
      XXYZ     -35.1180   XYYZ     -17.4758   YYYZ     -66.1911
      XXZZ    -300.1888   XYZZ     -69.5470   YYZZ    -522.1356
      XZZZ     -22.2756   YZZZ     -58.5443   ZZZZ    -552.3469
 -----------------------------------------------------------------
 Total job time:  670.87s(wall), 668.24s(cpu) 
 Sun Jul 10 04:36:19 2022

        *************************************************************
        *                                                           *
        *  Thank you very much for using Q-Chem.  Have a nice day.  *
        *                                                           *
        *************************************************************


remove work dirs ./qchem1891802.0 -- ./qchem1891802.-1
rm -rf ./qchem1891802
