You are running Q-Chem version: 5.4.0

#
# job setting
#
local host:  exp-1-18
current dir: /expanse/lustre/scratch/theleonzhang/temp_project/Hydrogenated_Rotation_Test
input file:  Methylthiophene_Phi_60_Theta_20_Methylthiophene_Hydrogenated.qcin
output file: 
nprocs     : 0
nthreads   : 1
#
# qchem installation setting
#
QC:          /cm/shared/apps/spack/cpu/opt/spack/linux-centos8-zen2/gcc-10.2.0/qchem-5.4-akfmr7b3t57bfs6qan3padb2wnb2i7cl
QCAUX:       /cm/shared/apps/spack/cpu/opt/spack/linux-centos8-zen2/gcc-10.2.0/qchem-5.4-akfmr7b3t57bfs6qan3padb2wnb2i7cl/qcaux
QCPROG:      /cm/shared/apps/spack/cpu/opt/spack/linux-centos8-zen2/gcc-10.2.0/qchem-5.4-akfmr7b3t57bfs6qan3padb2wnb2i7cl/exe/qcprog.exe_s
QCPROG_S:    /cm/shared/apps/spack/cpu/opt/spack/linux-centos8-zen2/gcc-10.2.0/qchem-5.4-akfmr7b3t57bfs6qan3padb2wnb2i7cl/exe/qcprog.exe_s
PARALLEL:    -DSERIAL
QCMPI:       mpich
#
# qchem directory setting
#
qcrun:       qchem2074182
QCSCRATCH:   .
QCLOCALSCR:  
QCTMPDIR:    .
QCFILEPREF:  ./qchem2074182
QCSAVEDIR:   
workdirs:    ./qchem2074182
workdir0:    ./qchem2074182
partmpdirs =  
#
# parallel setting
#
QCRSH:           ssh
QCMPI:           mpich
QCMPIRUN:        /cm/shared/apps/spack/cpu/opt/spack/linux-centos8-zen2/gcc-10.2.0/qchem-5.4-akfmr7b3t57bfs6qan3padb2wnb2i7cl/bin/mpi/mpirun_qchem
QCMACHINEFILE:   ./qchem2074182/hostfile

#
# env setting
#
exported envs:   QC QCAUX QCSCRATCH QCRUNNAME QCFILEPREF QCPROG QCPROG_S GUIFILE

Running Job 1 of 1 Methylthiophene_Phi_60_Theta_20_Methylthiophene_Hydrogenated.qcin
qchem Methylthiophene_Phi_60_Theta_20_Methylthiophene_Hydrogenated.qcin_2074182.0 ./qchem2074182/ 0
/cm/shared/apps/spack/cpu/opt/spack/linux-centos8-zen2/gcc-10.2.0/qchem-5.4-akfmr7b3t57bfs6qan3padb2wnb2i7cl/exe/qcprog.exe_s Methylthiophene_Phi_60_Theta_20_Methylthiophene_Hydrogenated.qcin_2074182.0 ./qchem2074182/
                  Welcome to Q-Chem
     A Quantum Leap Into The Future Of Chemistry


 Q-Chem 5.4, Q-Chem, Inc., Pleasanton, CA (2021)

 License issued to: University of California, San Diego (site)

 E. Epifanovsky,  A. T. B. Gilbert,  Xintian Feng,  Joonho Lee,  Yuezhi Mao,  
 N. Mardirossian,  P. Pokhilko,  A. White,  M. Wormit,  M. P. Coons,  
 A. L. Dempwolff,  Zhengting Gan,  D. Hait,  P. R. Horn,  L. D. Jacobson,  
 I. Kaliman,  J. Kussmann,  A. W. Lange,  Ka Un Lao,  D. S. Levine,  Jie Liu,  
 S. C. McKenzie,  A. F. Morrison,  K. Nanda,  F. Plasser,  D. R. Rehn,  
 M. L. Vidal,  Zhi-Qiang You,  Ying Zhu,  B. Alam,  B. Albrecht,  
 A. Aldossary,  E. Alguire,  J. H. Andersen,  D. Barton,  K. Begam,  A. Behn,  
 Y. A. Bernard,  E. J. Berquist,  H. Burton,  A. Carreras,  K. Carter-Fenk,  
 R. Chakraborty,  A. D. Chien,  K. D. Closser,  V. Cofer-Shabica,  
 S. Dasgupta,  Jia Deng,  M. de Wergifosse,  M. Diedenhofen,  Hainam Do,  
 S. Ehlert,  Po-Tung Fang,  S. Fatehi,  Qingguo Feng,  J. Gayvert,  
 Qinghui Ge,  G. Gidofalvi,  M. Goldey,  J. Gomes,  C. Gonzalez-Espinoza,  
 S. Gulania,  A. Gunina,  M. W. D. Hanson-Heine,  P. H. P. Harbach,  
 A. W. Hauser,  M. F. Herbst,  M. Hernandez Vera,  M. Hodecker,  
 Z. C. Holden,  S. Houck,  Xunkun Huang,  Kerwin Hui,  B. C. Huynh,  
 M. Ivanov,  Hyunjun Ji,  Hanjie Jiang,  B. Kaduk,  S. Kaehler,  
 K. Khistyaev,  Jaehoon Kim,  P. Klunzinger,  Z. Koczor-Benda,  
 Joong Hoon Koh,  D. Kosenkov,  L. Koulias,  T. Kowalczyk,  C. M. Krauter,  
 K. Kue,  A. Kunitsa,  T. Kus,  A. Landau,  K. V. Lawler,  D. Lefrancois,  
 S. Lehtola,  Rain Li,  Yi-Pei Li,  Jiashu Liang,  M. Liebenthal,  
 Hung-Hsuan Lin,  You-Sheng Lin,  Fenglai Liu,  Kuan-Yu Liu,  
 M. Loipersberger,  A. Luenser,  A. Manjanath,  P. Manohar,  E. Mansoor,  
 S. F. Manzer,  Shan-Ping Mao,  A. V. Marenich,  T. Markovich,  S. Mason,  
 S. A. Maurer,  P. F. McLaughlin,  M. F. S. J. Menger,  J.-M. Mewes,  
 S. A. Mewes,  P. Morgante,  J. W. Mullinax,  T. S. Nguyen-Beck,  
 K. J. Oosterbaan,  G. Paran,  Alexander C. Paul,  Suranjan K. Paul,  
 F. Pavosevic,  Zheng Pei,  S. Prager,  E. I. Proynov,  E. Ramos,  B. Rana,  
 A. E. Rask,  A. Rettig,  R. M. Richard,  F. Rob,  E. Rossomme,  T. Scheele,  
 M. Scheurer,  M. Schneider,  N. Sergueev,  S. M. Sharada,  W. Skomorowski,  
 D. W. Small,  C. J. Stein,  Yu-Chuan Su,  E. J. Sundstrom,  Zhen Tao,  
 J. Thirman,  T. Tsuchimochi,  N. M. Tubman,  S. P. Veccham,  O. Vydrov,  
 J. Wenzel,  J. Witte,  A. Yamada,  Kun Yao,  S. Yeganeh,  S. R. Yost,  
 A. Zech,  Igor Ying Zhang,  Xing Zhang,  Yu Zhang,  D. Zuev,  
 A. Aspuru-Guzik,  A. T. Bell,  N. A. Besley,  K. B. Bravaya,  B. R. Brooks,  
 D. Casanova,  Jeng-Da Chai,  S. Coriani,  C. J. Cramer,  
 A. E. DePrince, III,  R. A. DiStasio Jr.,  A. Dreuw,  B. D. Dunietz,  
 T. R. Furlani,  W. A. Goddard III,  S. Grimme,  S. Hammes-Schiffer,  
 T. Head-Gordon,  W. J. Hehre,  Chao-Ping Hsu,  T.-C. Jagau,  Yousung Jung,  
 A. Klamt,  Jing Kong,  D. S. Lambrecht,  WanZhen Liang,  N. J. Mayhall,  
 C. W. McCurdy,  J. B. Neaton,  C. Ochsenfeld,  J. A. Parkhill,  R. Peverati,  
 V. A. Rassolov,  Yihan Shao,  L. V. Slipchenko,  T. Stauch,  R. P. Steele,  
 J. E. Subotnik,  A. J. W. Thom,  A. Tkatchenko,  D. G. Truhlar,  
 T. Van Voorhis,  T. A. Wesolowski,  K. B. Whaley,  H. L. Woodcock III,  
 P. M. Zimmerman,  S. Faraji,  P. M. W. Gill,  M. Head-Gordon,  
 J. M. Herbert,  A. I. Krylov

 Contributors to earlier versions of Q-Chem not listed above: 
 R. D. Adamson,  B. Austin,  R. Baer,  J. Baker,  G. J. O. Beran,  
 K. Brandhorst,  S. T. Brown,  E. F. C. Byrd,  A. K. Chakraborty,  
 G. K. L. Chan,  Chun-Min Chang,  Yunqing Chen,  C.-L. Cheng,  
 Siu Hung Chien,  D. M. Chipman,  D. L. Crittenden,  H. Dachsel,  
 R. J. Doerksen,  A. D. Dutoi,  R. G. Edgar,  J. Fosso-Tande,  
 L. Fusti-Molnar,  D. Ghosh,  A. Ghysels,  A. Golubeva-Zadorozhnaya,  
 J. Gonthier,  M. S. Gordon,  S. R. Gwaltney,  G. Hawkins,  J. E. Herr,  
 A. Heyden,  S. Hirata,  E. G. Hohenstein,  G. Kedziora,  F. J. Keil,  
 C. Kelley,  Jihan Kim,  R. A. King,  R. Z. Khaliullin,  P. P. Korambath,  
 W. Kurlancheek,  A. Laurent,  A. M. Lee,  M. S. Lee,  S. V. Levchenko,  
 Ching Yeh Lin,  D. Liotard,  E. Livshits,  R. C. Lochan,  I. Lotan,  
 L. A. Martinez-Martinez,  P. E. Maslen,  N. Nair,  D. P. O'Neill,  
 D. Neuhauser,  E. Neuscamman,  C. M. Oana,  R. Olivares-Amaya,  R. Olson,  
 T. M. Perrine,  B. Peters,  P. A. Pieniazek,  A. Prociuk,  Y. M. Rhee,  
 J. Ritchie,  M. A. Rohrdanz,  E. Rosta,  N. J. Russ,  H. F. Schaefer III,  
 M. W. Schmidt,  N. E. Schultz,  S. Sharma,  N. Shenvi,  C. D. Sherrill,  
 A. C. Simmonett,  A. Sodt,  T. Stein,  D. Stuck,  K. S. Thanthiriwatte,  
 V. Vanovschi,  L. Vogt,  Tao Wang,  A. Warshel,  M. A. Watson,  
 C. F. Williams,  Q. Wu,  X. Xu,  Jun Yang,  W. Zhang,  Yan Zhao

 Please cite Q-Chem as follows:
 Y. Shao et al., Mol. Phys. 113, 184-215 (2015)
 DOI: 10.1080/00268976.2014.952696

 Q-Chem 5.4.0 for Intel X86 EM64T Linux

 Parts of Q-Chem use Armadillo 9.800.1 (Horizon Scraper).
 http://arma.sourceforge.net/

 Q-Chem begins on Sat Jul  9 19:37:16 2022  

 Host: 
0

     Scratch files written to ./qchem2074182//
 May1621 |scratch|qcdevops|jenkins|workspace|build_RNUM    
 Processing $rem in /cm/shared/apps/spack/cpu/opt/spack/linux-centos8-zen2/gcc-10.2.0/qchem-5.4-akfmr7b3t57bfs6qan3padb2wnb2i7cl/config/preferences:
 Processing $rem in /home/theleonzhang/.qchemrc:
 Symmetry turned off for PCM/SM12/SMD calculation
 Core orbitals will be frozen

 Checking the input file for inconsistencies... 	...done.

--------------------------------------------------------------
User input:
--------------------------------------------------------------
$molecule
0 1
C	-0.265779	-3.866725	0.728138
C	0.209225	-3.703963	-0.575726
C	0.364875	-2.357056	-1.002290
H	0.445176	-4.561092	-1.224486
C	0.000000	-1.440664	0.000000
S	-0.528236	-2.286957	1.451343
C	0.862808	-1.978743	-2.369683
H	1.083368	-2.878678	-2.975883
H	1.793522	-1.376015	-2.317142
H	0.116375	-1.375728	-2.927787
C	0.000000	0.000000	0.000000
C	0.747916	0.431772	1.099446
C	1.946425	1.123709	0.776721
H	0.428523	0.247378	2.136088
C	2.137531	1.234018	-0.612546
S	0.816154	0.471179	-1.486809
C	2.888455	1.667564	1.814609
H	2.519842	1.454746	2.836676
H	3.008896	2.767543	1.726239
H	3.901271	1.221850	1.726228
H	2.959587	1.708609	-1.161575
H	0.459743	-4.392713	1.358585
H	-1.227009	-4.392347	0.744515
H	-1.014829	-1.440391	-0.369490
$end

$rem
JOBTYPE		SP
EXCHANGE	HF
CORRELATION	pRIMP2
BASIS		cc-pvtz
METHOD		rimp2
AUX_BASIS	rimp2-cc-pvtz
SOLVENT_METHOD	PCM
PURECART	11111
SYMMETRY	false
MEM_TOTAL	110000
SCF_CONVERGENCE = 6
THRESH=10
$end



$solvent
dielectric 4.90
$end
--------------------------------------------------------------
 ----------------------------------------------------------------
             Standard Nuclear Orientation (Angstroms)
    I     Atom           X                Y                Z
 ----------------------------------------------------------------
    1      C      -0.2657790000    -3.8667250000     0.7281380000
    2      C       0.2092250000    -3.7039630000    -0.5757260000
    3      C       0.3648750000    -2.3570560000    -1.0022900000
    4      H       0.4451760000    -4.5610920000    -1.2244860000
    5      C       0.0000000000    -1.4406640000     0.0000000000
    6      S      -0.5282360000    -2.2869570000     1.4513430000
    7      C       0.8628080000    -1.9787430000    -2.3696830000
    8      H       1.0833680000    -2.8786780000    -2.9758830000
    9      H       1.7935220000    -1.3760150000    -2.3171420000
   10      H       0.1163750000    -1.3757280000    -2.9277870000
   11      C       0.0000000000     0.0000000000     0.0000000000
   12      C       0.7479160000     0.4317720000     1.0994460000
   13      C       1.9464250000     1.1237090000     0.7767210000
   14      H       0.4285230000     0.2473780000     2.1360880000
   15      C       2.1375310000     1.2340180000    -0.6125460000
   16      S       0.8161540000     0.4711790000    -1.4868090000
   17      C       2.8884550000     1.6675640000     1.8146090000
   18      H       2.5198420000     1.4547460000     2.8366760000
   19      H       3.0088960000     2.7675430000     1.7262390000
   20      H       3.9012710000     1.2218500000     1.7262280000
   21      H       2.9595870000     1.7086090000    -1.1615750000
   22      H       0.4597430000    -4.3927130000     1.3585850000
   23      H      -1.2270090000    -4.3923470000     0.7445150000
   24      H      -1.0148290000    -1.4403910000    -0.3694900000
 ----------------------------------------------------------------
 Nuclear Repulsion Energy =         905.70924222 hartrees
 There are       52 alpha and       52 beta electrons

 Q-Chem warning in module forms1/BasisType.C, line 2236:

 You are not using the predefined 5D/6D in this basis set.

 Requested basis set is cc-pVTZ
 There are 196 shells and 536 basis functions

 Total QAlloc Memory Limit 110000 MB
 Mega-Array Size       188 MB
 MEM_STATIC part       192 MB
 Discretize the solute cavity surface with Lebedev spheres
	Using 110 Lebedev grid points for each H atom
	Using 194 Lebedev grid points for other atoms
	Atomic van der Waals radii will be scaled by 1.20
 Remove points where switching function is < 1.0e-08
 Keep 1536 surface tesserae and discard 2112 interior tesserae
 Molecular Surface Area = 224.432 Angst**2
 Requested basis set is rimp2-cc-pVTZ
 There are 414 shells and 1414 basis functions
 A cutoff of  1.0D-10 yielded  14628 shell pairs
 There are    106070 function pairs (    136015 Cartesian)
 Smallest overlap matrix eigenvalue = 6.41E-05

 Scale SEOQF with 1.000000e-01/1.000000e-01/1.000000e-01

 Standard Electronic Orientation quadrupole field applied
 Nucleus-field energy     =     0.0000000176 hartrees
 Guess from superposition of atomic densities
 Warning:  Energy on first SCF cycle will be non-variational
 SAD guess density has 104.000000 electrons

 -----------------------------------------------------------------------
  General SCF calculation program by
  Eric Jon Sundstrom, Paul Horn, Yuezhi Mao, Dmitri Zuev, Alec White,
  David Stuck, Shaama M.S., Shane Yost, Joonho Lee, David Small,
  Daniel Levine, Susi Lehtola, Hugh Burton, Evgeny Epifanovsky,
  Bang C. Huynh
 -----------------------------------------------------------------------
 Hartree-Fock
 A restricted SCF calculation will be
 performed using DIIS
 SCF converges when DIIS error is below 1.0e-06
 ---------------------------------------
  Cycle       Energy         DIIS error
 ---------------------------------------
    1   -1186.2756991132      2.42e-02  
    2   -1180.4951336116      1.55e-03  
    3   -1180.6231926322      5.71e-04  
    4   -1180.6374352218      3.02e-04  
    5   -1180.6418073161      6.45e-05  
    6   -1180.6421200822      2.74e-05  
    7   -1180.6422187114      1.42e-05  
    8   -1180.6422514690      6.81e-06  
    9   -1180.6422627535      3.30e-06  
   10   -1180.6422650998      1.24e-06  
   11   -1180.6422654481      5.98e-07  Convergence criterion met
 ---------------------------------------
 SCF time:   CPU 727.58s  wall 730.00s 

************** Final PCM Free Energy Summary **************
 G_electrostatic  =      -0.00915840 hartree =      -5.74698455 kcal/mol
 G_cavitation     =       0.00000000 hartree =       0.00000000 kcal/mol
 G_dispersion     =       0.00000000 hartree =       0.00000000 kcal/mol
 G_repulsion      =       0.00000000 hartree =       0.00000000 kcal/mol
 --------------------------------------------------
 Non-electrostatic Free Energy =       0.00000000 hartree =       0.00000000 kcal/mol
 Total                         =      -0.00915840 hartree =      -5.74698455 kcal/mol
 --------------------------------------------------
 SCF Energy (H0 + V/2)                       =   -1180.64226545 
 Solute Internal Energy (H0)                 =   -1180.63310705 
 Total Free Energy (H0 + V/2 + non-elec)     =   -1180.64226545 hartree
                                             = -740864.20343158 kcal/mol
***********************************************************

 SCF   energy in the final basis set =    -1180.6422654481
 Total energy in the final basis set =    -1180.6422654481


 --------------------------------------------------------------
  Generalized many-body perturbation theory program
  by Joonho Lee, Fazle Rob, Xintian Feng, Evgeny Epifanovsky

 No regularization used 
 (reg. param. = 0.0000e+00)
  (P|Q)^-1/2 Time:  CPU 1.97 s  wall 1.98 s

 In RI-MP2 calculation: 
 # of frozen core orbitals: 20

 Components of the RIMP2 correlation energy:
        aaaa    correlation energy =        -0.2570339790 a.u.
        abab    correlation energy =        -1.5195745589 a.u.
        bbbb    correlation energy =        -0.2570339790 a.u.
        non-Brillouin singles      =        -0.0000000000 a.u.
        total same-spin energy     =        -0.5140679580 a.u.
        total opposite-spin energy =        -1.5195745589 a.u.

 Total  RIMP2   correlation energy =        -2.0336425169 a.u.
        RIMP2         total energy =     -1182.6759079650 a.u.

 RI-MP2 Energy Time:  CPU 85.35 s  wall 85.69 s
 
 --------------------------------------------------------------
 
                    Orbital Energies (a.u.)
 --------------------------------------------------------------
 
 Alpha MOs
 -- Occupied --
-91.9741 -91.9377 -11.2837 -11.2617 -11.2536 -11.2499 -11.2487 -11.2474
-11.2379 -11.2288 -11.2264 -11.2109  -8.9767  -8.9424  -6.6571  -6.6564
 -6.6560  -6.6238  -6.6228  -6.6216  -1.2051  -1.1523  -1.0594  -1.0288
 -1.0052  -0.9574  -0.9126  -0.9052  -0.8032  -0.7741  -0.7249  -0.7085
 -0.6496  -0.6406  -0.6144  -0.5959  -0.5851  -0.5735  -0.5679  -0.5465
 -0.5399  -0.5327  -0.5209  -0.5184  -0.4871  -0.4524  -0.4408  -0.4340
 -0.3525  -0.3290  -0.3256  -0.2550
 -- Virtual --
  0.0636   0.1344   0.1399   0.1547   0.1614   0.1684   0.1726   0.1837
  0.1896   0.1955   0.2051   0.2085   0.2144   0.2337   0.2386   0.2452
  0.2584   0.2665   0.2766   0.3039   0.3158   0.3255   0.3422   0.3593
  0.3657   0.3668   0.3855   0.3894   0.3992   0.4071   0.4238   0.4251
  0.4380   0.4527   0.4625   0.4656   0.4755   0.4795   0.4850   0.4933
  0.5039   0.5152   0.5277   0.5296   0.5338   0.5442   0.5502   0.5697
  0.5790   0.5827   0.5878   0.5965   0.6048   0.6104   0.6166   0.6220
  0.6229   0.6248   0.6347   0.6413   0.6420   0.6479   0.6546   0.6577
  0.6678   0.6764   0.6807   0.6914   0.7015   0.7089   0.7217   0.7314
  0.7396   0.7603   0.7711   0.7791   0.7874   0.7942   0.8170   0.8263
  0.8449   0.8522   0.8533   0.8666   0.8726   0.8999   0.9087   0.9194
  0.9279   0.9506   0.9587   0.9634   0.9676   0.9825   1.0030   1.0153
  1.0277   1.0349   1.0449   1.0548   1.0646   1.0744   1.0815   1.0911
  1.1040   1.1109   1.1298   1.1411   1.1531   1.1568   1.1710   1.1836
  1.1937   1.1986   1.2070   1.2158   1.2218   1.2338   1.2437   1.2547
  1.2599   1.2702   1.2743   1.2780   1.2934   1.3031   1.3089   1.3199
  1.3302   1.3428   1.3523   1.3791   1.3949   1.4072   1.4109   1.4188
  1.4265   1.4362   1.4495   1.4586   1.4644   1.4741   1.4799   1.5051
  1.5137   1.5201   1.5227   1.5238   1.5365   1.5436   1.5557   1.5586
  1.5692   1.5801   1.5971   1.6008   1.6128   1.6321   1.6390   1.6515
  1.6523   1.6629   1.6748   1.6880   1.6998   1.7092   1.7209   1.7385
  1.7403   1.7578   1.7769   1.7891   1.8253   1.8456   1.8604   1.8644
  1.8908   1.9185   1.9411   1.9662   1.9898   2.0055   2.0179   2.0362
  2.0441   2.0487   2.0546   2.0913   2.1136   2.1237   2.1330   2.1530
  2.1777   2.1878   2.2126   2.2253   2.2344   2.2378   2.2644   2.2908
  2.3122   2.3328   2.3418   2.3808   2.4399   2.4516   2.4667   2.4842
  2.5135   2.5312   2.5391   2.5729   2.6015   2.6099   2.6265   2.6266
  2.6376   2.6517   2.6728   2.6855   2.6941   2.7127   2.7296   2.7335
  2.7514   2.7630   2.7789   2.7806   2.7899   2.8127   2.8216   2.8365
  2.8470   2.8532   2.8663   2.8918   2.9018   2.9122   2.9348   2.9456
  2.9587   2.9781   2.9863   3.0110   3.0167   3.0208   3.0347   3.0413
  3.0744   3.0936   3.1010   3.1125   3.1154   3.1344   3.1478   3.1493
  3.1609   3.1624   3.1804   3.1888   3.1921   3.2030   3.2126   3.2225
  3.2370   3.2512   3.2621   3.2680   3.2713   3.2772   3.2877   3.3021
  3.3143   3.3229   3.3371   3.3499   3.3535   3.3636   3.3665   3.3847
  3.3939   3.3970   3.4003   3.4168   3.4227   3.4297   3.4361   3.4426
  3.4509   3.4581   3.4678   3.4850   3.4896   3.4991   3.5042   3.5156
  3.5207   3.5291   3.5413   3.5568   3.5618   3.5736   3.5797   3.5950
  3.6060   3.6103   3.6203   3.6306   3.6438   3.6627   3.6778   3.6884
  3.6961   3.7013   3.7107   3.7206   3.7347   3.7400   3.7451   3.7672
  3.7751   3.7878   3.7931   3.8076   3.8221   3.8257   3.8356   3.8415
  3.8485   3.8667   3.8762   3.8817   3.8914   3.9031   3.9312   3.9362
  3.9437   3.9521   3.9711   3.9849   3.9959   4.0084   4.0253   4.0277
  4.0402   4.0501   4.0577   4.0601   4.0718   4.1006   4.1048   4.1252
  4.1475   4.1503   4.1598   4.1789   4.1909   4.1963   4.2082   4.2122
  4.2252   4.2321   4.2405   4.2467   4.2611   4.2695   4.2870   4.2946
  4.3076   4.3118   4.3227   4.3390   4.3504   4.3732   4.3752   4.3865
  4.3904   4.3988   4.4036   4.4206   4.4300   4.4381   4.4560   4.4610
  4.4785   4.4888   4.5117   4.5246   4.5312   4.5373   4.5738   4.5881
  4.5933   4.5987   4.6065   4.6431   4.6484   4.6661   4.6798   4.6933
  4.7032   4.7322   4.7541   4.7740   4.7922   4.8129   4.8371   4.8488
  4.8870   4.8963   4.9032   4.9263   4.9363   4.9440   4.9634   5.0108
  5.0305   5.0476   5.0614   5.0985   5.1190   5.1348   5.1382   5.1588
  5.1849   5.1921   5.2327   5.2763   5.2823   5.2967   5.3023   5.3177
  5.3553   5.3701   5.3855   5.3982   5.4074   5.4178   5.4458   5.4504
  5.4713   5.4972   5.5277   5.5449   5.5553   5.5653   5.5754   5.5873
  5.6242   5.6373   5.6517   5.6653   5.7011   5.7036   5.7290   5.7460
  5.7728   5.7985   5.8173   5.9985   6.0400   6.0985   6.1391   6.1890
  6.2036   6.2302   6.2558   6.2653   6.2742   6.3068   6.3193   6.3543
  6.3816   6.4434   9.3857  10.5368  12.5351  12.8563  13.1756  13.9342
 14.1485  14.2470  14.3364  14.8128
 --------------------------------------------------------------
 
          Ground-State Mulliken Net Atomic Charges

     Atom                 Charge (a.u.)
  ----------------------------------------
      1 C                    -0.068149
      2 C                    -0.352375
      3 C                    -0.051266
      4 H                     0.175417
      5 C                     0.056429
      6 S                    -0.214349
      7 C                    -0.257956
      8 H                     0.105617
      9 H                     0.112954
     10 H                     0.104105
     11 C                    -0.163521
     12 C                    -0.110783
     13 C                    -0.022924
     14 H                     0.191821
     15 C                    -0.190800
     16 S                     0.030735
     17 C                    -0.268587
     18 H                     0.103294
     19 H                     0.106507
     20 H                     0.104240
     21 H                     0.201221
     22 H                     0.109010
     23 H                     0.107297
     24 H                     0.192064
  ----------------------------------------
  Sum of atomic charges =     0.000000

 -----------------------------------------------------------------
                    Cartesian Multipole Moments
 -----------------------------------------------------------------
    Charge (ESU x 10^10)
                -0.0000
    Dipole Moment (Debye)
         X       2.8271      Y       0.5936      Z      -1.3470
       Tot       3.1873
    Quadrupole Moments (Debye-Ang)
        XX     -82.4083     XY       5.1838     YY     -84.7171
        XZ      -0.2166     YZ       4.1132     ZZ     -84.9595
    Octopole Moments (Debye-Ang^2)
       XXX    -158.2315    XXY      98.0396    XYY     -55.6296
       YYY     213.3198    XXZ      -5.2323    XYZ      -0.0351
       YYZ       0.1780    XZZ     -49.7268    YZZ      85.1982
       ZZZ      -2.1384
    Hexadecapole Moments (Debye-Ang^3)
      XXXX    -886.4454   XXXY    -175.7326   XXYY    -539.9481
      XYYY    -200.7661   YYYY   -2200.6766   XXXZ      -5.4344
      XXYZ     -22.8015   XYYZ     -11.1127   YYYZ     -58.2761
      XXZZ    -318.0925   XYZZ     -72.1988   YYZZ    -563.5227
      XZZZ      -1.0398   YZZZ     -20.1190   ZZZZ   -1034.7120
 -----------------------------------------------------------------
 Total job time:  818.25s(wall), 813.87s(cpu) 
 Sat Jul  9 19:50:54 2022

        *************************************************************
        *                                                           *
        *  Thank you very much for using Q-Chem.  Have a nice day.  *
        *                                                           *
        *************************************************************


remove work dirs ./qchem2074182.0 -- ./qchem2074182.-1
rm -rf ./qchem2074182
