You are running Q-Chem version: 5.4.0

#
# job setting
#
local host:  exp-1-29
current dir: /expanse/lustre/scratch/theleonzhang/temp_project/Hydrogenated_Rotation_Test
input file:  Methylthiophene_Phi_50_Theta_10_Methylthiophene_Hydrogenated.qcin
output file: 
nprocs     : 0
nthreads   : 1
#
# qchem installation setting
#
QC:          /cm/shared/apps/spack/cpu/opt/spack/linux-centos8-zen2/gcc-10.2.0/qchem-5.4-akfmr7b3t57bfs6qan3padb2wnb2i7cl
QCAUX:       /cm/shared/apps/spack/cpu/opt/spack/linux-centos8-zen2/gcc-10.2.0/qchem-5.4-akfmr7b3t57bfs6qan3padb2wnb2i7cl/qcaux
QCPROG:      /cm/shared/apps/spack/cpu/opt/spack/linux-centos8-zen2/gcc-10.2.0/qchem-5.4-akfmr7b3t57bfs6qan3padb2wnb2i7cl/exe/qcprog.exe_s
QCPROG_S:    /cm/shared/apps/spack/cpu/opt/spack/linux-centos8-zen2/gcc-10.2.0/qchem-5.4-akfmr7b3t57bfs6qan3padb2wnb2i7cl/exe/qcprog.exe_s
PARALLEL:    -DSERIAL
QCMPI:       mpich
#
# qchem directory setting
#
qcrun:       qchem1577867
QCSCRATCH:   .
QCLOCALSCR:  
QCTMPDIR:    .
QCFILEPREF:  ./qchem1577867
QCSAVEDIR:   
workdirs:    ./qchem1577867
workdir0:    ./qchem1577867
partmpdirs =  
#
# parallel setting
#
QCRSH:           ssh
QCMPI:           mpich
QCMPIRUN:        /cm/shared/apps/spack/cpu/opt/spack/linux-centos8-zen2/gcc-10.2.0/qchem-5.4-akfmr7b3t57bfs6qan3padb2wnb2i7cl/bin/mpi/mpirun_qchem
QCMACHINEFILE:   ./qchem1577867/hostfile

#
# env setting
#
exported envs:   QC QCAUX QCSCRATCH QCRUNNAME QCFILEPREF QCPROG QCPROG_S GUIFILE

Running Job 1 of 1 Methylthiophene_Phi_50_Theta_10_Methylthiophene_Hydrogenated.qcin
qchem Methylthiophene_Phi_50_Theta_10_Methylthiophene_Hydrogenated.qcin_1577867.0 ./qchem1577867/ 0
/cm/shared/apps/spack/cpu/opt/spack/linux-centos8-zen2/gcc-10.2.0/qchem-5.4-akfmr7b3t57bfs6qan3padb2wnb2i7cl/exe/qcprog.exe_s Methylthiophene_Phi_50_Theta_10_Methylthiophene_Hydrogenated.qcin_1577867.0 ./qchem1577867/
                  Welcome to Q-Chem
     A Quantum Leap Into The Future Of Chemistry


 Q-Chem 5.4, Q-Chem, Inc., Pleasanton, CA (2021)

 License issued to: University of California, San Diego (site)

 E. Epifanovsky,  A. T. B. Gilbert,  Xintian Feng,  Joonho Lee,  Yuezhi Mao,  
 N. Mardirossian,  P. Pokhilko,  A. White,  M. Wormit,  M. P. Coons,  
 A. L. Dempwolff,  Zhengting Gan,  D. Hait,  P. R. Horn,  L. D. Jacobson,  
 I. Kaliman,  J. Kussmann,  A. W. Lange,  Ka Un Lao,  D. S. Levine,  Jie Liu,  
 S. C. McKenzie,  A. F. Morrison,  K. Nanda,  F. Plasser,  D. R. Rehn,  
 M. L. Vidal,  Zhi-Qiang You,  Ying Zhu,  B. Alam,  B. Albrecht,  
 A. Aldossary,  E. Alguire,  J. H. Andersen,  D. Barton,  K. Begam,  A. Behn,  
 Y. A. Bernard,  E. J. Berquist,  H. Burton,  A. Carreras,  K. Carter-Fenk,  
 R. Chakraborty,  A. D. Chien,  K. D. Closser,  V. Cofer-Shabica,  
 S. Dasgupta,  Jia Deng,  M. de Wergifosse,  M. Diedenhofen,  Hainam Do,  
 S. Ehlert,  Po-Tung Fang,  S. Fatehi,  Qingguo Feng,  J. Gayvert,  
 Qinghui Ge,  G. Gidofalvi,  M. Goldey,  J. Gomes,  C. Gonzalez-Espinoza,  
 S. Gulania,  A. Gunina,  M. W. D. Hanson-Heine,  P. H. P. Harbach,  
 A. W. Hauser,  M. F. Herbst,  M. Hernandez Vera,  M. Hodecker,  
 Z. C. Holden,  S. Houck,  Xunkun Huang,  Kerwin Hui,  B. C. Huynh,  
 M. Ivanov,  Hyunjun Ji,  Hanjie Jiang,  B. Kaduk,  S. Kaehler,  
 K. Khistyaev,  Jaehoon Kim,  P. Klunzinger,  Z. Koczor-Benda,  
 Joong Hoon Koh,  D. Kosenkov,  L. Koulias,  T. Kowalczyk,  C. M. Krauter,  
 K. Kue,  A. Kunitsa,  T. Kus,  A. Landau,  K. V. Lawler,  D. Lefrancois,  
 S. Lehtola,  Rain Li,  Yi-Pei Li,  Jiashu Liang,  M. Liebenthal,  
 Hung-Hsuan Lin,  You-Sheng Lin,  Fenglai Liu,  Kuan-Yu Liu,  
 M. Loipersberger,  A. Luenser,  A. Manjanath,  P. Manohar,  E. Mansoor,  
 S. F. Manzer,  Shan-Ping Mao,  A. V. Marenich,  T. Markovich,  S. Mason,  
 S. A. Maurer,  P. F. McLaughlin,  M. F. S. J. Menger,  J.-M. Mewes,  
 S. A. Mewes,  P. Morgante,  J. W. Mullinax,  T. S. Nguyen-Beck,  
 K. J. Oosterbaan,  G. Paran,  Alexander C. Paul,  Suranjan K. Paul,  
 F. Pavosevic,  Zheng Pei,  S. Prager,  E. I. Proynov,  E. Ramos,  B. Rana,  
 A. E. Rask,  A. Rettig,  R. M. Richard,  F. Rob,  E. Rossomme,  T. Scheele,  
 M. Scheurer,  M. Schneider,  N. Sergueev,  S. M. Sharada,  W. Skomorowski,  
 D. W. Small,  C. J. Stein,  Yu-Chuan Su,  E. J. Sundstrom,  Zhen Tao,  
 J. Thirman,  T. Tsuchimochi,  N. M. Tubman,  S. P. Veccham,  O. Vydrov,  
 J. Wenzel,  J. Witte,  A. Yamada,  Kun Yao,  S. Yeganeh,  S. R. Yost,  
 A. Zech,  Igor Ying Zhang,  Xing Zhang,  Yu Zhang,  D. Zuev,  
 A. Aspuru-Guzik,  A. T. Bell,  N. A. Besley,  K. B. Bravaya,  B. R. Brooks,  
 D. Casanova,  Jeng-Da Chai,  S. Coriani,  C. J. Cramer,  
 A. E. DePrince, III,  R. A. DiStasio Jr.,  A. Dreuw,  B. D. Dunietz,  
 T. R. Furlani,  W. A. Goddard III,  S. Grimme,  S. Hammes-Schiffer,  
 T. Head-Gordon,  W. J. Hehre,  Chao-Ping Hsu,  T.-C. Jagau,  Yousung Jung,  
 A. Klamt,  Jing Kong,  D. S. Lambrecht,  WanZhen Liang,  N. J. Mayhall,  
 C. W. McCurdy,  J. B. Neaton,  C. Ochsenfeld,  J. A. Parkhill,  R. Peverati,  
 V. A. Rassolov,  Yihan Shao,  L. V. Slipchenko,  T. Stauch,  R. P. Steele,  
 J. E. Subotnik,  A. J. W. Thom,  A. Tkatchenko,  D. G. Truhlar,  
 T. Van Voorhis,  T. A. Wesolowski,  K. B. Whaley,  H. L. Woodcock III,  
 P. M. Zimmerman,  S. Faraji,  P. M. W. Gill,  M. Head-Gordon,  
 J. M. Herbert,  A. I. Krylov

 Contributors to earlier versions of Q-Chem not listed above: 
 R. D. Adamson,  B. Austin,  R. Baer,  J. Baker,  G. J. O. Beran,  
 K. Brandhorst,  S. T. Brown,  E. F. C. Byrd,  A. K. Chakraborty,  
 G. K. L. Chan,  Chun-Min Chang,  Yunqing Chen,  C.-L. Cheng,  
 Siu Hung Chien,  D. M. Chipman,  D. L. Crittenden,  H. Dachsel,  
 R. J. Doerksen,  A. D. Dutoi,  R. G. Edgar,  J. Fosso-Tande,  
 L. Fusti-Molnar,  D. Ghosh,  A. Ghysels,  A. Golubeva-Zadorozhnaya,  
 J. Gonthier,  M. S. Gordon,  S. R. Gwaltney,  G. Hawkins,  J. E. Herr,  
 A. Heyden,  S. Hirata,  E. G. Hohenstein,  G. Kedziora,  F. J. Keil,  
 C. Kelley,  Jihan Kim,  R. A. King,  R. Z. Khaliullin,  P. P. Korambath,  
 W. Kurlancheek,  A. Laurent,  A. M. Lee,  M. S. Lee,  S. V. Levchenko,  
 Ching Yeh Lin,  D. Liotard,  E. Livshits,  R. C. Lochan,  I. Lotan,  
 L. A. Martinez-Martinez,  P. E. Maslen,  N. Nair,  D. P. O'Neill,  
 D. Neuhauser,  E. Neuscamman,  C. M. Oana,  R. Olivares-Amaya,  R. Olson,  
 T. M. Perrine,  B. Peters,  P. A. Pieniazek,  A. Prociuk,  Y. M. Rhee,  
 J. Ritchie,  M. A. Rohrdanz,  E. Rosta,  N. J. Russ,  H. F. Schaefer III,  
 M. W. Schmidt,  N. E. Schultz,  S. Sharma,  N. Shenvi,  C. D. Sherrill,  
 A. C. Simmonett,  A. Sodt,  T. Stein,  D. Stuck,  K. S. Thanthiriwatte,  
 V. Vanovschi,  L. Vogt,  Tao Wang,  A. Warshel,  M. A. Watson,  
 C. F. Williams,  Q. Wu,  X. Xu,  Jun Yang,  W. Zhang,  Yan Zhao

 Please cite Q-Chem as follows:
 Y. Shao et al., Mol. Phys. 113, 184-215 (2015)
 DOI: 10.1080/00268976.2014.952696

 Q-Chem 5.4.0 for Intel X86 EM64T Linux

 Parts of Q-Chem use Armadillo 9.800.1 (Horizon Scraper).
 http://arma.sourceforge.net/

 Q-Chem begins on Sat Jul  9 19:18:48 2022  

 Host: 
0

     Scratch files written to ./qchem1577867//
 May1621 |scratch|qcdevops|jenkins|workspace|build_RNUM    
 Processing $rem in /cm/shared/apps/spack/cpu/opt/spack/linux-centos8-zen2/gcc-10.2.0/qchem-5.4-akfmr7b3t57bfs6qan3padb2wnb2i7cl/config/preferences:
 Processing $rem in /home/theleonzhang/.qchemrc:
 Symmetry turned off for PCM/SM12/SMD calculation
 Core orbitals will be frozen

 Checking the input file for inconsistencies... 	...done.

--------------------------------------------------------------
User input:
--------------------------------------------------------------
$molecule
0 1
C	-0.135301	-3.866725	0.763228
C	0.106073	-3.703963	-0.603311
C	0.185286	-2.357056	-1.050423
H	0.225783	-4.561092	-1.283188
C	-0.000000	-1.440664	-0.000000
S	-0.268187	-2.286957	1.521021
C	0.438209	-1.978743	-2.483507
H	0.550153	-2.878678	-3.118798
H	1.363906	-1.376015	-2.593381
H	-0.393798	-1.375728	-2.903516
C	0.000000	0.000000	0.000000
C	0.661577	0.555087	1.099446
C	1.721724	1.444630	0.776721
H	0.379056	0.318032	2.136088
C	1.890772	1.586449	-0.612546
S	0.721935	0.605744	-1.486809
C	2.555004	2.143805	1.814609
H	2.228946	1.870211	2.836676
H	2.482605	3.247987	1.726239
H	3.629830	1.880735	1.726228
H	2.617927	2.196579	-1.161575
H	0.688674	-4.392713	1.258111
H	-1.079084	-4.392347	0.946272
H	-1.063572	-1.440391	-0.187654
$end

$rem
JOBTYPE		SP
EXCHANGE	HF
CORRELATION	pRIMP2
BASIS		cc-pvtz
METHOD		rimp2
AUX_BASIS	rimp2-cc-pvtz
SOLVENT_METHOD	PCM
PURECART	11111
SYMMETRY	false
MEM_TOTAL	110000
SCF_CONVERGENCE = 6
THRESH=10
$end



$solvent
dielectric 4.90
$end
--------------------------------------------------------------
 ----------------------------------------------------------------
             Standard Nuclear Orientation (Angstroms)
    I     Atom           X                Y                Z
 ----------------------------------------------------------------
    1      C      -0.1353010000    -3.8667250000     0.7632280000
    2      C       0.1060730000    -3.7039630000    -0.6033110000
    3      C       0.1852860000    -2.3570560000    -1.0504230000
    4      H       0.2257830000    -4.5610920000    -1.2831880000
    5      C       0.0000000000    -1.4406640000     0.0000000000
    6      S      -0.2681870000    -2.2869570000     1.5210210000
    7      C       0.4382090000    -1.9787430000    -2.4835070000
    8      H       0.5501530000    -2.8786780000    -3.1187980000
    9      H       1.3639060000    -1.3760150000    -2.5933810000
   10      H      -0.3937980000    -1.3757280000    -2.9035160000
   11      C       0.0000000000     0.0000000000     0.0000000000
   12      C       0.6615770000     0.5550870000     1.0994460000
   13      C       1.7217240000     1.4446300000     0.7767210000
   14      H       0.3790560000     0.3180320000     2.1360880000
   15      C       1.8907720000     1.5864490000    -0.6125460000
   16      S       0.7219350000     0.6057440000    -1.4868090000
   17      C       2.5550040000     2.1438050000     1.8146090000
   18      H       2.2289460000     1.8702110000     2.8366760000
   19      H       2.4826050000     3.2479870000     1.7262390000
   20      H       3.6298300000     1.8807350000     1.7262280000
   21      H       2.6179270000     2.1965790000    -1.1615750000
   22      H       0.6886740000    -4.3927130000     1.2581110000
   23      H      -1.0790840000    -4.3923470000     0.9462720000
   24      H      -1.0635720000    -1.4403910000    -0.1876540000
 ----------------------------------------------------------------
 Nuclear Repulsion Energy =         895.84877666 hartrees
 There are       52 alpha and       52 beta electrons

 Q-Chem warning in module forms1/BasisType.C, line 2236:

 You are not using the predefined 5D/6D in this basis set.

 Requested basis set is cc-pVTZ
 There are 196 shells and 536 basis functions

 Total QAlloc Memory Limit 110000 MB
 Mega-Array Size       188 MB
 MEM_STATIC part       192 MB
 Discretize the solute cavity surface with Lebedev spheres
	Using 110 Lebedev grid points for each H atom
	Using 194 Lebedev grid points for other atoms
	Atomic van der Waals radii will be scaled by 1.20
 Remove points where switching function is < 1.0e-08
 Keep 1553 surface tesserae and discard 2095 interior tesserae
 Molecular Surface Area = 225.528 Angst**2
 Requested basis set is rimp2-cc-pVTZ
 There are 414 shells and 1414 basis functions
 A cutoff of  1.0D-10 yielded  14392 shell pairs
 There are    104290 function pairs (    133724 Cartesian)
 Smallest overlap matrix eigenvalue = 6.17E-05

 Scale SEOQF with 1.000000e-01/1.000000e-01/1.000000e-01

 Standard Electronic Orientation quadrupole field applied
 Nucleus-field energy     =     0.0000000173 hartrees
 Guess from superposition of atomic densities
 Warning:  Energy on first SCF cycle will be non-variational
 SAD guess density has 104.000000 electrons

 -----------------------------------------------------------------------
  General SCF calculation program by
  Eric Jon Sundstrom, Paul Horn, Yuezhi Mao, Dmitri Zuev, Alec White,
  David Stuck, Shaama M.S., Shane Yost, Joonho Lee, David Small,
  Daniel Levine, Susi Lehtola, Hugh Burton, Evgeny Epifanovsky,
  Bang C. Huynh
 -----------------------------------------------------------------------
 Hartree-Fock
 A restricted SCF calculation will be
 performed using DIIS
 SCF converges when DIIS error is below 1.0e-06
 ---------------------------------------
  Cycle       Energy         DIIS error
 ---------------------------------------
    1   -1186.1797039815      2.41e-02  
    2   -1180.5347374600      1.55e-03  
    3   -1180.6617924041      5.94e-04  
    4   -1180.6761876587      3.23e-04  
    5   -1180.6811027416      6.66e-05  
    6   -1180.6814074772      2.68e-05  
    7   -1180.6814905845      1.21e-05  
    8   -1180.6815133057      5.75e-06  
    9   -1180.6815202752      2.66e-06  
   10   -1180.6815217462      1.06e-06  
   11   -1180.6815220038      5.02e-07  Convergence criterion met
 ---------------------------------------
 SCF time:   CPU 652.90s  wall 656.00s 

************** Final PCM Free Energy Summary **************
 G_electrostatic  =      -0.00818660 hartree =      -5.13717081 kcal/mol
 G_cavitation     =       0.00000000 hartree =       0.00000000 kcal/mol
 G_dispersion     =       0.00000000 hartree =       0.00000000 kcal/mol
 G_repulsion      =       0.00000000 hartree =       0.00000000 kcal/mol
 --------------------------------------------------
 Non-electrostatic Free Energy =       0.00000000 hartree =       0.00000000 kcal/mol
 Total                         =      -0.00818660 hartree =      -5.13717081 kcal/mol
 --------------------------------------------------
 SCF Energy (H0 + V/2)                       =   -1180.68152200 
 Solute Internal Energy (H0)                 =   -1180.67333540 
 Total Free Energy (H0 + V/2 + non-elec)     =   -1180.68152200 hartree
                                             = -740888.83729211 kcal/mol
***********************************************************

 SCF   energy in the final basis set =    -1180.6815220038
 Total energy in the final basis set =    -1180.6815220038


 --------------------------------------------------------------
  Generalized many-body perturbation theory program
  by Joonho Lee, Fazle Rob, Xintian Feng, Evgeny Epifanovsky

 No regularization used 
 (reg. param. = 0.0000e+00)
  (P|Q)^-1/2 Time:  CPU 1.90 s  wall 1.90 s

 In RI-MP2 calculation: 
 # of frozen core orbitals: 20

 Components of the RIMP2 correlation energy:
        aaaa    correlation energy =        -0.2553349318 a.u.
        abab    correlation energy =        -1.5151198068 a.u.
        bbbb    correlation energy =        -0.2553349318 a.u.
        non-Brillouin singles      =        -0.0000000000 a.u.
        total same-spin energy     =        -0.5106698637 a.u.
        total opposite-spin energy =        -1.5151198068 a.u.

 Total  RIMP2   correlation energy =        -2.0257896704 a.u.
        RIMP2         total energy =     -1182.7073116743 a.u.

 RI-MP2 Energy Time:  CPU 80.25 s  wall 80.50 s
 
 --------------------------------------------------------------
 
                    Orbital Energies (a.u.)
 --------------------------------------------------------------
 
 Alpha MOs
 -- Occupied --
-91.9755 -91.9405 -11.2734 -11.2632 -11.2631 -11.2502 -11.2499 -11.2469
-11.2395 -11.2282 -11.2273 -11.2135  -8.9772  -8.9452  -6.6579  -6.6571
 -6.6566  -6.6266  -6.6256  -6.6243  -1.2024  -1.1525  -1.0588  -1.0269
 -1.0059  -0.9571  -0.9127  -0.9039  -0.8074  -0.7727  -0.7216  -0.7064
 -0.6508  -0.6436  -0.6121  -0.5936  -0.5836  -0.5736  -0.5673  -0.5489
 -0.5394  -0.5331  -0.5184  -0.5170  -0.4866  -0.4571  -0.4514  -0.4376
 -0.3547  -0.3353  -0.3263  -0.2557
 -- Virtual --
  0.0732   0.1348   0.1417   0.1544   0.1610   0.1682   0.1774   0.1841
  0.1880   0.1945   0.2038   0.2109   0.2141   0.2338   0.2390   0.2456
  0.2534   0.2708   0.2786   0.3030   0.3180   0.3302   0.3411   0.3633
  0.3657   0.3710   0.3775   0.3995   0.4038   0.4078   0.4239   0.4265
  0.4465   0.4497   0.4607   0.4659   0.4751   0.4789   0.4825   0.4949
  0.5022   0.5160   0.5291   0.5350   0.5403   0.5414   0.5527   0.5710
  0.5782   0.5839   0.5857   0.5892   0.6017   0.6116   0.6182   0.6205
  0.6232   0.6262   0.6316   0.6352   0.6394   0.6491   0.6537   0.6599
  0.6661   0.6799   0.6829   0.6923   0.6978   0.7045   0.7180   0.7324
  0.7504   0.7603   0.7646   0.7655   0.7811   0.7851   0.8145   0.8232
  0.8400   0.8444   0.8584   0.8625   0.8722   0.9036   0.9043   0.9231
  0.9275   0.9443   0.9528   0.9605   0.9699   0.9822   0.9922   1.0078
  1.0238   1.0342   1.0417   1.0465   1.0579   1.0722   1.0822   1.0877
  1.1021   1.1058   1.1244   1.1366   1.1468   1.1570   1.1620   1.1764
  1.1825   1.1977   1.1983   1.2129   1.2143   1.2252   1.2377   1.2499
  1.2572   1.2647   1.2709   1.2789   1.2929   1.3017   1.3064   1.3195
  1.3267   1.3462   1.3555   1.3708   1.3881   1.3949   1.4025   1.4136
  1.4166   1.4274   1.4481   1.4600   1.4664   1.4712   1.4825   1.4921
  1.5130   1.5150   1.5243   1.5285   1.5372   1.5397   1.5549   1.5580
  1.5693   1.5724   1.5930   1.5967   1.6167   1.6318   1.6405   1.6489
  1.6504   1.6608   1.6732   1.6821   1.7000   1.7092   1.7206   1.7256
  1.7420   1.7539   1.7764   1.7959   1.8297   1.8334   1.8443   1.8555
  1.8921   1.9212   1.9385   1.9647   1.9786   1.9903   2.0108   2.0243
  2.0353   2.0525   2.0727   2.0997   2.1042   2.1203   2.1258   2.1447
  2.1845   2.1891   2.2049   2.2130   2.2211   2.2381   2.2627   2.2975
  2.3072   2.3223   2.3366   2.3771   2.4317   2.4353   2.4477   2.4800
  2.5043   2.5299   2.5384   2.5514   2.5880   2.5982   2.6129   2.6191
  2.6345   2.6421   2.6659   2.6779   2.6880   2.7128   2.7190   2.7299
  2.7431   2.7565   2.7661   2.7798   2.7954   2.8053   2.8266   2.8304
  2.8381   2.8502   2.8534   2.8862   2.8989   2.9127   2.9251   2.9311
  2.9570   2.9752   2.9840   3.0038   3.0116   3.0243   3.0275   3.0398
  3.0710   3.0790   3.0891   3.1099   3.1131   3.1334   3.1434   3.1487
  3.1627   3.1681   3.1728   3.1906   3.1937   3.2036   3.2125   3.2169
  3.2304   3.2501   3.2555   3.2683   3.2692   3.2739   3.2820   3.2961
  3.3109   3.3225   3.3372   3.3405   3.3477   3.3591   3.3648   3.3704
  3.3840   3.3879   3.4030   3.4036   3.4154   3.4192   3.4262   3.4359
  3.4434   3.4512   3.4658   3.4734   3.4910   3.4940   3.5014   3.5144
  3.5189   3.5270   3.5387   3.5525   3.5539   3.5647   3.5740   3.5920
  3.6032   3.6120   3.6171   3.6326   3.6341   3.6531   3.6680   3.6828
  3.6850   3.6955   3.7021   3.7124   3.7259   3.7387   3.7440   3.7572
  3.7659   3.7733   3.7793   3.8036   3.8084   3.8160   3.8222   3.8376
  3.8441   3.8504   3.8593   3.8761   3.8802   3.8985   3.9182   3.9371
  3.9403   3.9570   3.9620   3.9692   3.9765   4.0085   4.0172   4.0206
  4.0401   4.0468   4.0497   4.0547   4.0701   4.0819   4.0981   4.1192
  4.1384   4.1399   4.1488   4.1718   4.1822   4.1891   4.2011   4.2076
  4.2120   4.2251   4.2342   4.2438   4.2500   4.2685   4.2789   4.2911
  4.2992   4.3119   4.3202   4.3377   4.3502   4.3613   4.3655   4.3830
  4.3869   4.3967   4.4034   4.4146   4.4198   4.4410   4.4520   4.4530
  4.4711   4.4852   4.5018   4.5071   4.5207   4.5492   4.5534   4.5835
  4.5889   4.6025   4.6055   4.6231   4.6489   4.6628   4.6755   4.6928
  4.6955   4.7417   4.7618   4.7690   4.7948   4.8110   4.8304   4.8394
  4.8819   4.8914   4.8963   4.9179   4.9382   4.9525   4.9636   4.9992
  5.0189   5.0479   5.0575   5.1030   5.1188   5.1334   5.1412   5.1605
  5.1947   5.1966   5.2292   5.2718   5.2857   5.2899   5.3067   5.3150
  5.3525   5.3739   5.3762   5.3946   5.4110   5.4155   5.4435   5.4516
  5.4780   5.5018   5.5251   5.5452   5.5561   5.5611   5.5798   5.5822
  5.6175   5.6333   5.6365   5.6556   5.6981   5.7007   5.7191   5.7459
  5.7695   5.7993   5.8199   5.9917   6.0352   6.1053   6.1299   6.1405
  6.2081   6.2302   6.2376   6.2541   6.2723   6.2770   6.2991   6.3212
  6.3895   6.4227   9.3635  10.5382  12.3742  12.8465  13.1801  13.8674
 14.1226  14.2356  14.3282  14.7359
 --------------------------------------------------------------
 
          Ground-State Mulliken Net Atomic Charges

     Atom                 Charge (a.u.)
  ----------------------------------------
      1 C                    -0.071048
      2 C                    -0.346707
      3 C                    -0.039031
      4 H                     0.176520
      5 C                     0.074120
      6 S                    -0.205377
      7 C                    -0.287223
      8 H                     0.112308
      9 H                     0.118890
     10 H                     0.107143
     11 C                    -0.100908
     12 C                    -0.188829
     13 C                     0.009910
     14 H                     0.188242
     15 C                    -0.221831
     16 S                     0.021377
     17 C                    -0.269025
     18 H                     0.102840
     19 H                     0.107397
     20 H                     0.105538
     21 H                     0.198483
     22 H                     0.110269
     23 H                     0.109405
     24 H                     0.187537
  ----------------------------------------
  Sum of atomic charges =     0.000000

 -----------------------------------------------------------------
                    Cartesian Multipole Moments
 -----------------------------------------------------------------
    Charge (ESU x 10^10)
                -0.0000
    Dipole Moment (Debye)
         X       1.5714      Y       0.4541      Z      -1.2099
       Tot       2.0346
    Quadrupole Moments (Debye-Ang)
        XX     -84.9459     XY       6.1502     YY     -81.7939
        XZ      -0.0495     YZ       4.2133     ZZ     -85.2196
    Octopole Moments (Debye-Ang^2)
       XXX    -147.0619    XXY      87.2785    XYY     -44.2991
       YYY     181.3840    XXZ      -2.4188    XYZ      -0.0742
       YYZ      -0.5066    XZZ     -45.0838    YZZ      74.3085
       ZZZ      -3.1198
    Hexadecapole Moments (Debye-Ang^3)
      XXXX    -704.2012   XXXY    -212.1239   XXYY    -526.3917
      XYYY    -222.1304   YYYY   -2330.4385   XXXZ     -32.0916
      XXYZ     -29.2472   XYYZ     -21.4169   YYYZ     -72.0383
      XXZZ    -298.5447   XYZZ     -75.8382   YYZZ    -586.2975
      XZZZ     -33.7452   YZZZ     -28.3077   ZZZZ   -1081.1025
 -----------------------------------------------------------------
 Total job time:  738.37s(wall), 734.06s(cpu) 
 Sat Jul  9 19:31:07 2022

        *************************************************************
        *                                                           *
        *  Thank you very much for using Q-Chem.  Have a nice day.  *
        *                                                           *
        *************************************************************


remove work dirs ./qchem1577867.0 -- ./qchem1577867.-1
rm -rf ./qchem1577867
