You are running Q-Chem version: 5.4.0

#
# job setting
#
local host:  exp-2-27
current dir: /expanse/lustre/scratch/theleonzhang/temp_project/Hydrogenated_Rotation_Test
input file:  Methylthiophene_Phi_15_Theta_40_Methylthiophene_Hydrogenated.qcin
output file: 
nprocs     : 0
nthreads   : 1
#
# qchem installation setting
#
QC:          /cm/shared/apps/spack/cpu/opt/spack/linux-centos8-zen2/gcc-10.2.0/qchem-5.4-akfmr7b3t57bfs6qan3padb2wnb2i7cl
QCAUX:       /cm/shared/apps/spack/cpu/opt/spack/linux-centos8-zen2/gcc-10.2.0/qchem-5.4-akfmr7b3t57bfs6qan3padb2wnb2i7cl/qcaux
QCPROG:      /cm/shared/apps/spack/cpu/opt/spack/linux-centos8-zen2/gcc-10.2.0/qchem-5.4-akfmr7b3t57bfs6qan3padb2wnb2i7cl/exe/qcprog.exe_s
QCPROG_S:    /cm/shared/apps/spack/cpu/opt/spack/linux-centos8-zen2/gcc-10.2.0/qchem-5.4-akfmr7b3t57bfs6qan3padb2wnb2i7cl/exe/qcprog.exe_s
PARALLEL:    -DSERIAL
QCMPI:       mpich
#
# qchem directory setting
#
qcrun:       qchem1564777
QCSCRATCH:   .
QCLOCALSCR:  
QCTMPDIR:    .
QCFILEPREF:  ./qchem1564777
QCSAVEDIR:   
workdirs:    ./qchem1564777
workdir0:    ./qchem1564777
partmpdirs =  
#
# parallel setting
#
QCRSH:           ssh
QCMPI:           mpich
QCMPIRUN:        /cm/shared/apps/spack/cpu/opt/spack/linux-centos8-zen2/gcc-10.2.0/qchem-5.4-akfmr7b3t57bfs6qan3padb2wnb2i7cl/bin/mpi/mpirun_qchem
QCMACHINEFILE:   ./qchem1564777/hostfile

#
# env setting
#
exported envs:   QC QCAUX QCSCRATCH QCRUNNAME QCFILEPREF QCPROG QCPROG_S GUIFILE

Running Job 1 of 1 Methylthiophene_Phi_15_Theta_40_Methylthiophene_Hydrogenated.qcin
qchem Methylthiophene_Phi_15_Theta_40_Methylthiophene_Hydrogenated.qcin_1564777.0 ./qchem1564777/ 0
/cm/shared/apps/spack/cpu/opt/spack/linux-centos8-zen2/gcc-10.2.0/qchem-5.4-akfmr7b3t57bfs6qan3padb2wnb2i7cl/exe/qcprog.exe_s Methylthiophene_Phi_15_Theta_40_Methylthiophene_Hydrogenated.qcin_1564777.0 ./qchem1564777/
                  Welcome to Q-Chem
     A Quantum Leap Into The Future Of Chemistry


 Q-Chem 5.4, Q-Chem, Inc., Pleasanton, CA (2021)

 License issued to: University of California, San Diego (site)

 E. Epifanovsky,  A. T. B. Gilbert,  Xintian Feng,  Joonho Lee,  Yuezhi Mao,  
 N. Mardirossian,  P. Pokhilko,  A. White,  M. Wormit,  M. P. Coons,  
 A. L. Dempwolff,  Zhengting Gan,  D. Hait,  P. R. Horn,  L. D. Jacobson,  
 I. Kaliman,  J. Kussmann,  A. W. Lange,  Ka Un Lao,  D. S. Levine,  Jie Liu,  
 S. C. McKenzie,  A. F. Morrison,  K. Nanda,  F. Plasser,  D. R. Rehn,  
 M. L. Vidal,  Zhi-Qiang You,  Ying Zhu,  B. Alam,  B. Albrecht,  
 A. Aldossary,  E. Alguire,  J. H. Andersen,  D. Barton,  K. Begam,  A. Behn,  
 Y. A. Bernard,  E. J. Berquist,  H. Burton,  A. Carreras,  K. Carter-Fenk,  
 R. Chakraborty,  A. D. Chien,  K. D. Closser,  V. Cofer-Shabica,  
 S. Dasgupta,  Jia Deng,  M. de Wergifosse,  M. Diedenhofen,  Hainam Do,  
 S. Ehlert,  Po-Tung Fang,  S. Fatehi,  Qingguo Feng,  J. Gayvert,  
 Qinghui Ge,  G. Gidofalvi,  M. Goldey,  J. Gomes,  C. Gonzalez-Espinoza,  
 S. Gulania,  A. Gunina,  M. W. D. Hanson-Heine,  P. H. P. Harbach,  
 A. W. Hauser,  M. F. Herbst,  M. Hernandez Vera,  M. Hodecker,  
 Z. C. Holden,  S. Houck,  Xunkun Huang,  Kerwin Hui,  B. C. Huynh,  
 M. Ivanov,  Hyunjun Ji,  Hanjie Jiang,  B. Kaduk,  S. Kaehler,  
 K. Khistyaev,  Jaehoon Kim,  P. Klunzinger,  Z. Koczor-Benda,  
 Joong Hoon Koh,  D. Kosenkov,  L. Koulias,  T. Kowalczyk,  C. M. Krauter,  
 K. Kue,  A. Kunitsa,  T. Kus,  A. Landau,  K. V. Lawler,  D. Lefrancois,  
 S. Lehtola,  Rain Li,  Yi-Pei Li,  Jiashu Liang,  M. Liebenthal,  
 Hung-Hsuan Lin,  You-Sheng Lin,  Fenglai Liu,  Kuan-Yu Liu,  
 M. Loipersberger,  A. Luenser,  A. Manjanath,  P. Manohar,  E. Mansoor,  
 S. F. Manzer,  Shan-Ping Mao,  A. V. Marenich,  T. Markovich,  S. Mason,  
 S. A. Maurer,  P. F. McLaughlin,  M. F. S. J. Menger,  J.-M. Mewes,  
 S. A. Mewes,  P. Morgante,  J. W. Mullinax,  T. S. Nguyen-Beck,  
 K. J. Oosterbaan,  G. Paran,  Alexander C. Paul,  Suranjan K. Paul,  
 F. Pavosevic,  Zheng Pei,  S. Prager,  E. I. Proynov,  E. Ramos,  B. Rana,  
 A. E. Rask,  A. Rettig,  R. M. Richard,  F. Rob,  E. Rossomme,  T. Scheele,  
 M. Scheurer,  M. Schneider,  N. Sergueev,  S. M. Sharada,  W. Skomorowski,  
 D. W. Small,  C. J. Stein,  Yu-Chuan Su,  E. J. Sundstrom,  Zhen Tao,  
 J. Thirman,  T. Tsuchimochi,  N. M. Tubman,  S. P. Veccham,  O. Vydrov,  
 J. Wenzel,  J. Witte,  A. Yamada,  Kun Yao,  S. Yeganeh,  S. R. Yost,  
 A. Zech,  Igor Ying Zhang,  Xing Zhang,  Yu Zhang,  D. Zuev,  
 A. Aspuru-Guzik,  A. T. Bell,  N. A. Besley,  K. B. Bravaya,  B. R. Brooks,  
 D. Casanova,  Jeng-Da Chai,  S. Coriani,  C. J. Cramer,  
 A. E. DePrince, III,  R. A. DiStasio Jr.,  A. Dreuw,  B. D. Dunietz,  
 T. R. Furlani,  W. A. Goddard III,  S. Grimme,  S. Hammes-Schiffer,  
 T. Head-Gordon,  W. J. Hehre,  Chao-Ping Hsu,  T.-C. Jagau,  Yousung Jung,  
 A. Klamt,  Jing Kong,  D. S. Lambrecht,  WanZhen Liang,  N. J. Mayhall,  
 C. W. McCurdy,  J. B. Neaton,  C. Ochsenfeld,  J. A. Parkhill,  R. Peverati,  
 V. A. Rassolov,  Yihan Shao,  L. V. Slipchenko,  T. Stauch,  R. P. Steele,  
 J. E. Subotnik,  A. J. W. Thom,  A. Tkatchenko,  D. G. Truhlar,  
 T. Van Voorhis,  T. A. Wesolowski,  K. B. Whaley,  H. L. Woodcock III,  
 P. M. Zimmerman,  S. Faraji,  P. M. W. Gill,  M. Head-Gordon,  
 J. M. Herbert,  A. I. Krylov

 Contributors to earlier versions of Q-Chem not listed above: 
 R. D. Adamson,  B. Austin,  R. Baer,  J. Baker,  G. J. O. Beran,  
 K. Brandhorst,  S. T. Brown,  E. F. C. Byrd,  A. K. Chakraborty,  
 G. K. L. Chan,  Chun-Min Chang,  Yunqing Chen,  C.-L. Cheng,  
 Siu Hung Chien,  D. M. Chipman,  D. L. Crittenden,  H. Dachsel,  
 R. J. Doerksen,  A. D. Dutoi,  R. G. Edgar,  J. Fosso-Tande,  
 L. Fusti-Molnar,  D. Ghosh,  A. Ghysels,  A. Golubeva-Zadorozhnaya,  
 J. Gonthier,  M. S. Gordon,  S. R. Gwaltney,  G. Hawkins,  J. E. Herr,  
 A. Heyden,  S. Hirata,  E. G. Hohenstein,  G. Kedziora,  F. J. Keil,  
 C. Kelley,  Jihan Kim,  R. A. King,  R. Z. Khaliullin,  P. P. Korambath,  
 W. Kurlancheek,  A. Laurent,  A. M. Lee,  M. S. Lee,  S. V. Levchenko,  
 Ching Yeh Lin,  D. Liotard,  E. Livshits,  R. C. Lochan,  I. Lotan,  
 L. A. Martinez-Martinez,  P. E. Maslen,  N. Nair,  D. P. O'Neill,  
 D. Neuhauser,  E. Neuscamman,  C. M. Oana,  R. Olivares-Amaya,  R. Olson,  
 T. M. Perrine,  B. Peters,  P. A. Pieniazek,  A. Prociuk,  Y. M. Rhee,  
 J. Ritchie,  M. A. Rohrdanz,  E. Rosta,  N. J. Russ,  H. F. Schaefer III,  
 M. W. Schmidt,  N. E. Schultz,  S. Sharma,  N. Shenvi,  C. D. Sherrill,  
 A. C. Simmonett,  A. Sodt,  T. Stein,  D. Stuck,  K. S. Thanthiriwatte,  
 V. Vanovschi,  L. Vogt,  Tao Wang,  A. Warshel,  M. A. Watson,  
 C. F. Williams,  Q. Wu,  X. Xu,  Jun Yang,  W. Zhang,  Yan Zhao

 Please cite Q-Chem as follows:
 Y. Shao et al., Mol. Phys. 113, 184-215 (2015)
 DOI: 10.1080/00268976.2014.952696

 Q-Chem 5.4.0 for Intel X86 EM64T Linux

 Parts of Q-Chem use Armadillo 9.800.1 (Horizon Scraper).
 http://arma.sourceforge.net/

 Q-Chem begins on Sun Jul 10 00:23:06 2022  

 Host: 
0

     Scratch files written to ./qchem1564777//
 May1621 |scratch|qcdevops|jenkins|workspace|build_RNUM    
 Processing $rem in /cm/shared/apps/spack/cpu/opt/spack/linux-centos8-zen2/gcc-10.2.0/qchem-5.4-akfmr7b3t57bfs6qan3padb2wnb2i7cl/config/preferences:
 Processing $rem in /home/theleonzhang/.qchemrc:
 Symmetry turned off for PCM/SM12/SMD calculation
 Core orbitals will be frozen

 Checking the input file for inconsistencies... 	...done.

--------------------------------------------------------------
User input:
--------------------------------------------------------------
$molecule
0 1
C	-0.498788	-3.866725	0.593324
C	0.393517	-3.703963	-0.469446
C	0.685674	-2.357056	-0.817050
H	0.837128	-4.561092	-0.998381
C	0.000000	-1.440664	0.000000
S	-0.992768	-2.286957	1.183149
C	1.621254	-1.978743	-1.931676
H	2.035845	-2.878678	-2.425882
H	2.477868	-1.376015	-1.563980
H	1.110719	-1.375728	-2.711417
C	0.000000	0.000000	0.000000
C	0.223548	0.834165	1.099446
C	0.581748	2.170912	0.776721
H	0.128089	0.477934	2.136088
C	0.638880	2.384045	-0.612546
S	0.243934	0.910282	-1.486809
C	0.863301	3.221592	1.814609
H	0.753137	2.810458	2.836676
H	0.170663	4.084559	1.726239
H	1.894637	3.622593	1.726228
H	0.884575	3.300913	-1.161575
H	-0.032646	-4.392713	1.433894
H	-1.407651	-4.392347	0.279954
H	-0.827254	-1.440391	-0.694299
$end

$rem
JOBTYPE		SP
EXCHANGE	HF
CORRELATION	pRIMP2
BASIS		cc-pvtz
METHOD		rimp2
AUX_BASIS	rimp2-cc-pvtz
SOLVENT_METHOD	PCM
PURECART	11111
SYMMETRY	false
MEM_TOTAL	110000
SCF_CONVERGENCE = 6
THRESH=10
$end



$solvent
dielectric 4.90
$end
--------------------------------------------------------------
 ----------------------------------------------------------------
             Standard Nuclear Orientation (Angstroms)
    I     Atom           X                Y                Z
 ----------------------------------------------------------------
    1      C      -0.4987880000    -3.8667250000     0.5933240000
    2      C       0.3935170000    -3.7039630000    -0.4694460000
    3      C       0.6856740000    -2.3570560000    -0.8170500000
    4      H       0.8371280000    -4.5610920000    -0.9983810000
    5      C       0.0000000000    -1.4406640000     0.0000000000
    6      S      -0.9927680000    -2.2869570000     1.1831490000
    7      C       1.6212540000    -1.9787430000    -1.9316760000
    8      H       2.0358450000    -2.8786780000    -2.4258820000
    9      H       2.4778680000    -1.3760150000    -1.5639800000
   10      H       1.1107190000    -1.3757280000    -2.7114170000
   11      C       0.0000000000     0.0000000000     0.0000000000
   12      C       0.2235480000     0.8341650000     1.0994460000
   13      C       0.5817480000     2.1709120000     0.7767210000
   14      H       0.1280890000     0.4779340000     2.1360880000
   15      C       0.6388800000     2.3840450000    -0.6125460000
   16      S       0.2439340000     0.9102820000    -1.4868090000
   17      C       0.8633010000     3.2215920000     1.8146090000
   18      H       0.7531370000     2.8104580000     2.8366760000
   19      H       0.1706630000     4.0845590000     1.7262390000
   20      H       1.8946370000     3.6225930000     1.7262280000
   21      H       0.8845750000     3.3009130000    -1.1615750000
   22      H      -0.0326460000    -4.3927130000     1.4338940000
   23      H      -1.4076510000    -4.3923470000     0.2799540000
   24      H      -0.8272540000    -1.4403910000    -0.6942990000
 ----------------------------------------------------------------
 Nuclear Repulsion Energy =         876.22261046 hartrees
 There are       52 alpha and       52 beta electrons

 Q-Chem warning in module forms1/BasisType.C, line 2236:

 You are not using the predefined 5D/6D in this basis set.

 Requested basis set is cc-pVTZ
 There are 196 shells and 536 basis functions

 Total QAlloc Memory Limit 110000 MB
 Mega-Array Size       188 MB
 MEM_STATIC part       192 MB
 Discretize the solute cavity surface with Lebedev spheres
	Using 110 Lebedev grid points for each H atom
	Using 194 Lebedev grid points for other atoms
	Atomic van der Waals radii will be scaled by 1.20
 Remove points where switching function is < 1.0e-08
 Keep 1584 surface tesserae and discard 2064 interior tesserae
 Molecular Surface Area = 232.278 Angst**2
 Requested basis set is rimp2-cc-pVTZ
 There are 414 shells and 1414 basis functions
 A cutoff of  1.0D-10 yielded  13953 shell pairs
 There are    101041 function pairs (    129552 Cartesian)
 Smallest overlap matrix eigenvalue = 5.31E-05

 Scale SEOQF with 1.000000e-01/1.000000e-01/1.000000e-01

 Standard Electronic Orientation quadrupole field applied
 Nucleus-field energy     =     0.0000000274 hartrees
 Guess from superposition of atomic densities
 Warning:  Energy on first SCF cycle will be non-variational
 SAD guess density has 104.000000 electrons

 -----------------------------------------------------------------------
  General SCF calculation program by
  Eric Jon Sundstrom, Paul Horn, Yuezhi Mao, Dmitri Zuev, Alec White,
  David Stuck, Shaama M.S., Shane Yost, Joonho Lee, David Small,
  Daniel Levine, Susi Lehtola, Hugh Burton, Evgeny Epifanovsky,
  Bang C. Huynh
 -----------------------------------------------------------------------
 Hartree-Fock
 A restricted SCF calculation will be
 performed using DIIS
 SCF converges when DIIS error is below 1.0e-06
 ---------------------------------------
  Cycle       Energy         DIIS error
 ---------------------------------------
    1   -1186.0410572488      2.39e-02  
    2   -1180.6055110940      1.57e-03  
    3   -1180.7309641176      6.41e-04  
    4   -1180.7463091693      3.45e-04  
    5   -1180.7518139048      6.14e-05  
    6   -1180.7520728316      2.51e-05  
    7   -1180.7521347216      9.20e-06  
    8   -1180.7521483806      4.35e-06  
    9   -1180.7521514385      1.47e-06  
   10   -1180.7521519030      5.04e-07  Convergence criterion met
 ---------------------------------------
 SCF time:   CPU 567.96s  wall 573.00s 

************** Final PCM Free Energy Summary **************
 G_electrostatic  =      -0.00805310 hartree =      -5.05339904 kcal/mol
 G_cavitation     =       0.00000000 hartree =       0.00000000 kcal/mol
 G_dispersion     =       0.00000000 hartree =       0.00000000 kcal/mol
 G_repulsion      =       0.00000000 hartree =       0.00000000 kcal/mol
 --------------------------------------------------
 Non-electrostatic Free Energy =       0.00000000 hartree =       0.00000000 kcal/mol
 Total                         =      -0.00805310 hartree =      -5.05339904 kcal/mol
 --------------------------------------------------
 SCF Energy (H0 + V/2)                       =   -1180.75215190 
 Solute Internal Energy (H0)                 =   -1180.74409880 
 Total Free Energy (H0 + V/2 + non-elec)     =   -1180.75215190 hartree
                                             = -740933.15822278 kcal/mol
***********************************************************

 SCF   energy in the final basis set =    -1180.7521519030
 Total energy in the final basis set =    -1180.7521519030


 --------------------------------------------------------------
  Generalized many-body perturbation theory program
  by Joonho Lee, Fazle Rob, Xintian Feng, Evgeny Epifanovsky

 No regularization used 
 (reg. param. = 0.0000e+00)
  (P|Q)^-1/2 Time:  CPU 1.91 s  wall 1.92 s

 In RI-MP2 calculation: 
 # of frozen core orbitals: 20

 Components of the RIMP2 correlation energy:
        aaaa    correlation energy =        -0.2516168235 a.u.
        abab    correlation energy =        -1.5039787787 a.u.
        bbbb    correlation energy =        -0.2516168235 a.u.
        non-Brillouin singles      =        -0.0000000000 a.u.
        total same-spin energy     =        -0.5032336470 a.u.
        total opposite-spin energy =        -1.5039787787 a.u.

 Total  RIMP2   correlation energy =        -2.0072124258 a.u.
        RIMP2         total energy =     -1182.7593643288 a.u.

 RI-MP2 Energy Time:  CPU 80.05 s  wall 80.33 s
 
 --------------------------------------------------------------
 
                    Orbital Energies (a.u.)
 --------------------------------------------------------------
 
 Alpha MOs
 -- Occupied --
-91.9832 -91.9439 -11.2829 -11.2647 -11.2611 -11.2577 -11.2501 -11.2423
-11.2352 -11.2309 -11.2280 -11.2208  -8.9832  -8.9484  -6.6641  -6.6636
 -6.6630  -6.6298  -6.6288  -6.6275  -1.2002  -1.1529  -1.0598  -1.0258
 -1.0057  -0.9595  -0.9142  -0.9013  -0.8128  -0.7701  -0.7265  -0.7053
 -0.6547  -0.6405  -0.6106  -0.5925  -0.5784  -0.5731  -0.5693  -0.5528
 -0.5420  -0.5317  -0.5146  -0.5089  -0.4897  -0.4797  -0.4598  -0.4460
 -0.3564  -0.3422  -0.3218  -0.2699
 -- Virtual --
  0.0980   0.1333   0.1433   0.1509   0.1604   0.1698   0.1795   0.1849
  0.1919   0.1970   0.2003   0.2066   0.2154   0.2328   0.2397   0.2441
  0.2508   0.2641   0.2717   0.3010   0.3194   0.3403   0.3482   0.3571
  0.3612   0.3734   0.3789   0.3941   0.3987   0.4103   0.4139   0.4311
  0.4421   0.4525   0.4552   0.4632   0.4689   0.4790   0.4861   0.4957
  0.5026   0.5155   0.5262   0.5316   0.5358   0.5471   0.5478   0.5566
  0.5603   0.5760   0.5846   0.5907   0.5982   0.6134   0.6154   0.6193
  0.6239   0.6284   0.6332   0.6349   0.6410   0.6466   0.6489   0.6578
  0.6708   0.6738   0.6825   0.6893   0.6938   0.7101   0.7179   0.7215
  0.7283   0.7476   0.7616   0.7806   0.7834   0.7924   0.7977   0.8207
  0.8318   0.8432   0.8558   0.8675   0.8787   0.8937   0.9018   0.9205
  0.9249   0.9391   0.9551   0.9715   0.9836   0.9879   0.9974   1.0041
  1.0105   1.0181   1.0397   1.0448   1.0599   1.0682   1.0758   1.0780
  1.0867   1.1022   1.1207   1.1310   1.1446   1.1480   1.1598   1.1678
  1.1769   1.1858   1.1929   1.2023   1.2197   1.2266   1.2378   1.2459
  1.2589   1.2629   1.2651   1.2794   1.2868   1.2922   1.3042   1.3060
  1.3179   1.3331   1.3394   1.3617   1.3922   1.3948   1.3994   1.4178
  1.4262   1.4295   1.4498   1.4660   1.4736   1.4818   1.4866   1.4995
  1.5034   1.5107   1.5200   1.5207   1.5340   1.5395   1.5433   1.5545
  1.5667   1.5709   1.5794   1.5942   1.6138   1.6255   1.6308   1.6398
  1.6536   1.6569   1.6759   1.6879   1.7017   1.7038   1.7247   1.7284
  1.7568   1.7593   1.7844   1.8076   1.8089   1.8216   1.8488   1.8603
  1.8767   1.9048   1.9232   1.9525   1.9674   1.9778   2.0056   2.0119
  2.0323   2.0405   2.0428   2.0547   2.0732   2.0933   2.1429   2.1575
  2.1876   2.2033   2.2127   2.2156   2.2331   2.2499   2.2708   2.2898
  2.3024   2.3251   2.3537   2.3647   2.3856   2.4373   2.4554   2.4670
  2.4958   2.5075   2.5358   2.5562   2.5711   2.5907   2.6051   2.6118
  2.6391   2.6459   2.6622   2.6680   2.6851   2.6901   2.7002   2.7288
  2.7496   2.7523   2.7592   2.7700   2.7739   2.7879   2.7957   2.8090
  2.8190   2.8453   2.8518   2.8744   2.8886   2.9075   2.9254   2.9345
  2.9469   2.9637   2.9696   2.9753   3.0007   3.0203   3.0286   3.0369
  3.0502   3.0666   3.0950   3.1053   3.1126   3.1240   3.1318   3.1448
  3.1585   3.1630   3.1681   3.1761   3.1902   3.1978   3.2116   3.2177
  3.2305   3.2408   3.2475   3.2539   3.2729   3.2916   3.2984   3.3059
  3.3102   3.3147   3.3264   3.3364   3.3413   3.3481   3.3662   3.3711
  3.3738   3.3855   3.3907   3.3954   3.4028   3.4244   3.4322   3.4381
  3.4466   3.4550   3.4600   3.4701   3.4742   3.4866   3.4934   3.5053
  3.5112   3.5257   3.5262   3.5405   3.5464   3.5538   3.5638   3.5736
  3.5845   3.6065   3.6119   3.6288   3.6349   3.6416   3.6505   3.6611
  3.6724   3.6816   3.6934   3.7067   3.7203   3.7267   3.7301   3.7446
  3.7471   3.7621   3.7661   3.7795   3.7848   3.7903   3.8005   3.8189
  3.8347   3.8456   3.8552   3.8605   3.8729   3.8842   3.8978   3.9059
  3.9219   3.9280   3.9524   3.9612   3.9769   3.9910   4.0007   4.0127
  4.0186   4.0331   4.0571   4.0602   4.0713   4.0757   4.1015   4.1054
  4.1099   4.1325   4.1440   4.1536   4.1650   4.1719   4.1828   4.1959
  4.2134   4.2167   4.2318   4.2491   4.2510   4.2630   4.2782   4.2795
  4.2847   4.3009   4.3108   4.3252   4.3465   4.3501   4.3678   4.3717
  4.3757   4.3949   4.4023   4.4075   4.4236   4.4303   4.4423   4.4538
  4.4622   4.4699   4.4740   4.4831   4.4948   4.5048   4.5295   4.5670
  4.5738   4.5817   4.6114   4.6238   4.6422   4.6433   4.6680   4.6735
  4.6789   4.6912   4.7410   4.7616   4.7678   4.8016   4.8140   4.8340
  4.8621   4.8723   4.8826   4.9050   4.9338   4.9502   4.9626   4.9852
  5.0320   5.0509   5.0861   5.1171   5.1191   5.1317   5.1636   5.1783
  5.1932   5.2194   5.2417   5.2687   5.2815   5.2872   5.3129   5.3226
  5.3436   5.3546   5.3811   5.3920   5.4112   5.4199   5.4425   5.4524
  5.4744   5.5113   5.5290   5.5435   5.5486   5.5612   5.5707   5.5907
  5.6174   5.6334   5.6443   5.6569   5.6670   5.6992   5.7028   5.7422
  5.7643   5.7898   5.8365   5.9822   6.0113   6.1267   6.1344   6.1442
  6.2239   6.2275   6.2369   6.2408   6.2841   6.2957   6.3075   6.3297
  6.4012   6.4970   9.5061  10.5788  11.9850  12.9588  13.1718  13.9467
 14.0898  14.2362  14.4133  14.8563
 --------------------------------------------------------------
 
          Ground-State Mulliken Net Atomic Charges

     Atom                 Charge (a.u.)
  ----------------------------------------
      1 C                    -0.073198
      2 C                    -0.325737
      3 C                    -0.040726
      4 H                     0.177782
      5 C                     0.112919
      6 S                    -0.179207
      7 C                    -0.284526
      8 H                     0.115380
      9 H                     0.117290
     10 H                     0.103655
     11 C                    -0.094344
     12 C                    -0.238684
     13 C                     0.020975
     14 H                     0.186654
     15 C                    -0.244604
     16 S                     0.002114
     17 C                    -0.272124
     18 H                     0.102854
     19 H                     0.108056
     20 H                     0.107613
     21 H                     0.197463
     22 H                     0.111864
     23 H                     0.112310
     24 H                     0.176224
  ----------------------------------------
  Sum of atomic charges =     0.000000

 -----------------------------------------------------------------
                    Cartesian Multipole Moments
 -----------------------------------------------------------------
    Charge (ESU x 10^10)
                -0.0000
    Dipole Moment (Debye)
         X       1.4251      Y       0.1845      Z      -0.9996
       Tot       1.7504
    Quadrupole Moments (Debye-Ang)
        XX     -90.7071     XY       1.5304     YY     -74.1777
        XZ      -0.0371     YZ       4.5993     ZZ     -86.0785
    Octopole Moments (Debye-Ang^2)
       XXX     -56.1376    XXY      46.8108    XYY     -11.4671
       YYY     124.4520    XXZ      -3.5544    XYZ       2.1090
       YYZ      -3.7175    XZZ     -12.5378    YZZ      55.2281
       ZZZ       2.4909
    Hexadecapole Moments (Debye-Ang^3)
      XXXX    -442.9366   XXXY    -132.4006   XXYY    -571.1489
      XYYY     -93.0668   YYYY   -2726.8387   XXXZ     115.0718
      XXYZ     -19.3492   XYYZ      18.4032   YYYZ    -105.0390
      XXZZ    -220.4879   XYZZ     -49.4334   YYZZ    -628.3428
      XZZZ     111.5566   YZZZ     -80.0957   ZZZZ    -877.4037
 -----------------------------------------------------------------
 Total job time:  656.63s(wall), 648.92s(cpu) 
 Sun Jul 10 00:34:03 2022

        *************************************************************
        *                                                           *
        *  Thank you very much for using Q-Chem.  Have a nice day.  *
        *                                                           *
        *************************************************************


remove work dirs ./qchem1564777.0 -- ./qchem1564777.-1
rm -rf ./qchem1564777
