You are running Q-Chem version: 5.4.0

#
# job setting
#
local host:  exp-1-17
current dir: /expanse/lustre/scratch/theleonzhang/temp_project/Hydrogenated_Rotation_Test
input file:  Methylthiophene_Phi_30_Theta_150_Methylthiophene_Hydrogenated.qcin
output file: 
nprocs     : 0
nthreads   : 1
#
# qchem installation setting
#
QC:          /cm/shared/apps/spack/cpu/opt/spack/linux-centos8-zen2/gcc-10.2.0/qchem-5.4-akfmr7b3t57bfs6qan3padb2wnb2i7cl
QCAUX:       /cm/shared/apps/spack/cpu/opt/spack/linux-centos8-zen2/gcc-10.2.0/qchem-5.4-akfmr7b3t57bfs6qan3padb2wnb2i7cl/qcaux
QCPROG:      /cm/shared/apps/spack/cpu/opt/spack/linux-centos8-zen2/gcc-10.2.0/qchem-5.4-akfmr7b3t57bfs6qan3padb2wnb2i7cl/exe/qcprog.exe_s
QCPROG_S:    /cm/shared/apps/spack/cpu/opt/spack/linux-centos8-zen2/gcc-10.2.0/qchem-5.4-akfmr7b3t57bfs6qan3padb2wnb2i7cl/exe/qcprog.exe_s
PARALLEL:    -DSERIAL
QCMPI:       mpich
#
# qchem directory setting
#
qcrun:       qchem3373962
QCSCRATCH:   .
QCLOCALSCR:  
QCTMPDIR:    .
QCFILEPREF:  ./qchem3373962
QCSAVEDIR:   
workdirs:    ./qchem3373962
workdir0:    ./qchem3373962
partmpdirs =  
#
# parallel setting
#
QCRSH:           ssh
QCMPI:           mpich
QCMPIRUN:        /cm/shared/apps/spack/cpu/opt/spack/linux-centos8-zen2/gcc-10.2.0/qchem-5.4-akfmr7b3t57bfs6qan3padb2wnb2i7cl/bin/mpi/mpirun_qchem
QCMACHINEFILE:   ./qchem3373962/hostfile

#
# env setting
#
exported envs:   QC QCAUX QCSCRATCH QCRUNNAME QCFILEPREF QCPROG QCPROG_S GUIFILE

Running Job 1 of 1 Methylthiophene_Phi_30_Theta_150_Methylthiophene_Hydrogenated.qcin
qchem Methylthiophene_Phi_30_Theta_150_Methylthiophene_Hydrogenated.qcin_3373962.0 ./qchem3373962/ 0
/cm/shared/apps/spack/cpu/opt/spack/linux-centos8-zen2/gcc-10.2.0/qchem-5.4-akfmr7b3t57bfs6qan3padb2wnb2i7cl/exe/qcprog.exe_s Methylthiophene_Phi_30_Theta_150_Methylthiophene_Hydrogenated.qcin_3373962.0 ./qchem3373962/
                  Welcome to Q-Chem
     A Quantum Leap Into The Future Of Chemistry


 Q-Chem 5.4, Q-Chem, Inc., Pleasanton, CA (2021)

 License issued to: University of California, San Diego (site)

 E. Epifanovsky,  A. T. B. Gilbert,  Xintian Feng,  Joonho Lee,  Yuezhi Mao,  
 N. Mardirossian,  P. Pokhilko,  A. White,  M. Wormit,  M. P. Coons,  
 A. L. Dempwolff,  Zhengting Gan,  D. Hait,  P. R. Horn,  L. D. Jacobson,  
 I. Kaliman,  J. Kussmann,  A. W. Lange,  Ka Un Lao,  D. S. Levine,  Jie Liu,  
 S. C. McKenzie,  A. F. Morrison,  K. Nanda,  F. Plasser,  D. R. Rehn,  
 M. L. Vidal,  Zhi-Qiang You,  Ying Zhu,  B. Alam,  B. Albrecht,  
 A. Aldossary,  E. Alguire,  J. H. Andersen,  D. Barton,  K. Begam,  A. Behn,  
 Y. A. Bernard,  E. J. Berquist,  H. Burton,  A. Carreras,  K. Carter-Fenk,  
 R. Chakraborty,  A. D. Chien,  K. D. Closser,  V. Cofer-Shabica,  
 S. Dasgupta,  Jia Deng,  M. de Wergifosse,  M. Diedenhofen,  Hainam Do,  
 S. Ehlert,  Po-Tung Fang,  S. Fatehi,  Qingguo Feng,  J. Gayvert,  
 Qinghui Ge,  G. Gidofalvi,  M. Goldey,  J. Gomes,  C. Gonzalez-Espinoza,  
 S. Gulania,  A. Gunina,  M. W. D. Hanson-Heine,  P. H. P. Harbach,  
 A. W. Hauser,  M. F. Herbst,  M. Hernandez Vera,  M. Hodecker,  
 Z. C. Holden,  S. Houck,  Xunkun Huang,  Kerwin Hui,  B. C. Huynh,  
 M. Ivanov,  Hyunjun Ji,  Hanjie Jiang,  B. Kaduk,  S. Kaehler,  
 K. Khistyaev,  Jaehoon Kim,  P. Klunzinger,  Z. Koczor-Benda,  
 Joong Hoon Koh,  D. Kosenkov,  L. Koulias,  T. Kowalczyk,  C. M. Krauter,  
 K. Kue,  A. Kunitsa,  T. Kus,  A. Landau,  K. V. Lawler,  D. Lefrancois,  
 S. Lehtola,  Rain Li,  Yi-Pei Li,  Jiashu Liang,  M. Liebenthal,  
 Hung-Hsuan Lin,  You-Sheng Lin,  Fenglai Liu,  Kuan-Yu Liu,  
 M. Loipersberger,  A. Luenser,  A. Manjanath,  P. Manohar,  E. Mansoor,  
 S. F. Manzer,  Shan-Ping Mao,  A. V. Marenich,  T. Markovich,  S. Mason,  
 S. A. Maurer,  P. F. McLaughlin,  M. F. S. J. Menger,  J.-M. Mewes,  
 S. A. Mewes,  P. Morgante,  J. W. Mullinax,  T. S. Nguyen-Beck,  
 K. J. Oosterbaan,  G. Paran,  Alexander C. Paul,  Suranjan K. Paul,  
 F. Pavosevic,  Zheng Pei,  S. Prager,  E. I. Proynov,  E. Ramos,  B. Rana,  
 A. E. Rask,  A. Rettig,  R. M. Richard,  F. Rob,  E. Rossomme,  T. Scheele,  
 M. Scheurer,  M. Schneider,  N. Sergueev,  S. M. Sharada,  W. Skomorowski,  
 D. W. Small,  C. J. Stein,  Yu-Chuan Su,  E. J. Sundstrom,  Zhen Tao,  
 J. Thirman,  T. Tsuchimochi,  N. M. Tubman,  S. P. Veccham,  O. Vydrov,  
 J. Wenzel,  J. Witte,  A. Yamada,  Kun Yao,  S. Yeganeh,  S. R. Yost,  
 A. Zech,  Igor Ying Zhang,  Xing Zhang,  Yu Zhang,  D. Zuev,  
 A. Aspuru-Guzik,  A. T. Bell,  N. A. Besley,  K. B. Bravaya,  B. R. Brooks,  
 D. Casanova,  Jeng-Da Chai,  S. Coriani,  C. J. Cramer,  
 A. E. DePrince, III,  R. A. DiStasio Jr.,  A. Dreuw,  B. D. Dunietz,  
 T. R. Furlani,  W. A. Goddard III,  S. Grimme,  S. Hammes-Schiffer,  
 T. Head-Gordon,  W. J. Hehre,  Chao-Ping Hsu,  T.-C. Jagau,  Yousung Jung,  
 A. Klamt,  Jing Kong,  D. S. Lambrecht,  WanZhen Liang,  N. J. Mayhall,  
 C. W. McCurdy,  J. B. Neaton,  C. Ochsenfeld,  J. A. Parkhill,  R. Peverati,  
 V. A. Rassolov,  Yihan Shao,  L. V. Slipchenko,  T. Stauch,  R. P. Steele,  
 J. E. Subotnik,  A. J. W. Thom,  A. Tkatchenko,  D. G. Truhlar,  
 T. Van Voorhis,  T. A. Wesolowski,  K. B. Whaley,  H. L. Woodcock III,  
 P. M. Zimmerman,  S. Faraji,  P. M. W. Gill,  M. Head-Gordon,  
 J. M. Herbert,  A. I. Krylov

 Contributors to earlier versions of Q-Chem not listed above: 
 R. D. Adamson,  B. Austin,  R. Baer,  J. Baker,  G. J. O. Beran,  
 K. Brandhorst,  S. T. Brown,  E. F. C. Byrd,  A. K. Chakraborty,  
 G. K. L. Chan,  Chun-Min Chang,  Yunqing Chen,  C.-L. Cheng,  
 Siu Hung Chien,  D. M. Chipman,  D. L. Crittenden,  H. Dachsel,  
 R. J. Doerksen,  A. D. Dutoi,  R. G. Edgar,  J. Fosso-Tande,  
 L. Fusti-Molnar,  D. Ghosh,  A. Ghysels,  A. Golubeva-Zadorozhnaya,  
 J. Gonthier,  M. S. Gordon,  S. R. Gwaltney,  G. Hawkins,  J. E. Herr,  
 A. Heyden,  S. Hirata,  E. G. Hohenstein,  G. Kedziora,  F. J. Keil,  
 C. Kelley,  Jihan Kim,  R. A. King,  R. Z. Khaliullin,  P. P. Korambath,  
 W. Kurlancheek,  A. Laurent,  A. M. Lee,  M. S. Lee,  S. V. Levchenko,  
 Ching Yeh Lin,  D. Liotard,  E. Livshits,  R. C. Lochan,  I. Lotan,  
 L. A. Martinez-Martinez,  P. E. Maslen,  N. Nair,  D. P. O'Neill,  
 D. Neuhauser,  E. Neuscamman,  C. M. Oana,  R. Olivares-Amaya,  R. Olson,  
 T. M. Perrine,  B. Peters,  P. A. Pieniazek,  A. Prociuk,  Y. M. Rhee,  
 J. Ritchie,  M. A. Rohrdanz,  E. Rosta,  N. J. Russ,  H. F. Schaefer III,  
 M. W. Schmidt,  N. E. Schultz,  S. Sharma,  N. Shenvi,  C. D. Sherrill,  
 A. C. Simmonett,  A. Sodt,  T. Stein,  D. Stuck,  K. S. Thanthiriwatte,  
 V. Vanovschi,  L. Vogt,  Tao Wang,  A. Warshel,  M. A. Watson,  
 C. F. Williams,  Q. Wu,  X. Xu,  Jun Yang,  W. Zhang,  Yan Zhao

 Please cite Q-Chem as follows:
 Y. Shao et al., Mol. Phys. 113, 184-215 (2015)
 DOI: 10.1080/00268976.2014.952696

 Q-Chem 5.4.0 for Intel X86 EM64T Linux

 Parts of Q-Chem use Armadillo 9.800.1 (Horizon Scraper).
 http://arma.sourceforge.net/

 Q-Chem begins on Sat Jul  9 21:44:34 2022  

 Host: 
0

     Scratch files written to ./qchem3373962//
 May1621 |scratch|qcdevops|jenkins|workspace|build_RNUM    
 Processing $rem in /cm/shared/apps/spack/cpu/opt/spack/linux-centos8-zen2/gcc-10.2.0/qchem-5.4-akfmr7b3t57bfs6qan3padb2wnb2i7cl/config/preferences:
 Processing $rem in /home/theleonzhang/.qchemrc:
 Symmetry turned off for PCM/SM12/SMD calculation
 Core orbitals will be frozen

 Checking the input file for inconsistencies... 	...done.

--------------------------------------------------------------
User input:
--------------------------------------------------------------
$molecule
0 1
C	-0.386946	-3.866725	-0.671636
C	0.306544	-3.703963	0.530345
C	0.533261	-2.357056	0.923770
H	0.651857	-4.561092	1.128109
C	0.000000	-1.440664	0.000000
S	-0.772250	-2.286957	-1.337557
C	1.260680	-1.978743	2.184153
H	1.583283	-2.878678	2.742769
H	0.622180	-1.376015	2.863347
H	2.168011	-1.375728	1.971094
C	0.000000	0.000000	0.000000
C	0.431829	0.747884	1.099446
C	1.123799	1.946373	0.776721
H	0.247423	0.428497	2.136088
C	1.234147	2.137457	-0.612546
S	0.471221	0.816130	-1.486809
C	1.667694	2.888380	1.814609
H	1.454874	2.519768	2.836676
H	1.222009	3.901210	1.726239
H	2.767675	3.008788	1.726228
H	1.708773	2.959493	-1.161575
H	-1.336254	-4.392713	-0.521098
H	0.218374	-4.392347	-1.418509
H	-0.935365	-1.440937	0.539900
$end

$rem
JOBTYPE		SP
EXCHANGE	HF
CORRELATION	pRIMP2
BASIS		cc-pvtz
METHOD		rimp2
AUX_BASIS	rimp2-cc-pvtz
SOLVENT_METHOD	PCM
PURECART	11111
SYMMETRY	false
MEM_TOTAL	110000
SCF_CONVERGENCE = 6
THRESH=10
$end



$solvent
dielectric 4.90
$end
--------------------------------------------------------------
 ----------------------------------------------------------------
             Standard Nuclear Orientation (Angstroms)
    I     Atom           X                Y                Z
 ----------------------------------------------------------------
    1      C      -0.3869460000    -3.8667250000    -0.6716360000
    2      C       0.3065440000    -3.7039630000     0.5303450000
    3      C       0.5332610000    -2.3570560000     0.9237700000
    4      H       0.6518570000    -4.5610920000     1.1281090000
    5      C       0.0000000000    -1.4406640000     0.0000000000
    6      S      -0.7722500000    -2.2869570000    -1.3375570000
    7      C       1.2606800000    -1.9787430000     2.1841530000
    8      H       1.5832830000    -2.8786780000     2.7427690000
    9      H       0.6221800000    -1.3760150000     2.8633470000
   10      H       2.1680110000    -1.3757280000     1.9710940000
   11      C       0.0000000000     0.0000000000     0.0000000000
   12      C       0.4318290000     0.7478840000     1.0994460000
   13      C       1.1237990000     1.9463730000     0.7767210000
   14      H       0.2474230000     0.4284970000     2.1360880000
   15      C       1.2341470000     2.1374570000    -0.6125460000
   16      S       0.4712210000     0.8161300000    -1.4868090000
   17      C       1.6676940000     2.8883800000     1.8146090000
   18      H       1.4548740000     2.5197680000     2.8366760000
   19      H       1.2220090000     3.9012100000     1.7262390000
   20      H       2.7676750000     3.0087880000     1.7262280000
   21      H       1.7087730000     2.9594930000    -1.1615750000
   22      H      -1.3362540000    -4.3927130000    -0.5210980000
   23      H       0.2183740000    -4.3923470000    -1.4185090000
   24      H      -0.9353650000    -1.4409370000     0.5399000000
 ----------------------------------------------------------------
 Nuclear Repulsion Energy =         881.54474780 hartrees
 There are       52 alpha and       52 beta electrons

 Q-Chem warning in module forms1/BasisType.C, line 2236:

 You are not using the predefined 5D/6D in this basis set.

 Requested basis set is cc-pVTZ
 There are 196 shells and 536 basis functions

 Total QAlloc Memory Limit 110000 MB
 Mega-Array Size       188 MB
 MEM_STATIC part       192 MB
 Discretize the solute cavity surface with Lebedev spheres
	Using 110 Lebedev grid points for each H atom
	Using 194 Lebedev grid points for other atoms
	Atomic van der Waals radii will be scaled by 1.20
 Remove points where switching function is < 1.0e-08
 Keep 1569 surface tesserae and discard 2079 interior tesserae
 Molecular Surface Area = 231.307 Angst**2
 Requested basis set is rimp2-cc-pVTZ
 There are 414 shells and 1414 basis functions
 A cutoff of  1.0D-10 yielded  14288 shell pairs
 There are    103664 function pairs (    132839 Cartesian)
 Smallest overlap matrix eigenvalue = 5.29E-05

 Scale SEOQF with 1.000000e-01/1.000000e-01/1.000000e-01

 Standard Electronic Orientation quadrupole field applied
 Nucleus-field energy     =     0.0000000234 hartrees
 Guess from superposition of atomic densities
 Warning:  Energy on first SCF cycle will be non-variational
 SAD guess density has 104.000000 electrons

 -----------------------------------------------------------------------
  General SCF calculation program by
  Eric Jon Sundstrom, Paul Horn, Yuezhi Mao, Dmitri Zuev, Alec White,
  David Stuck, Shaama M.S., Shane Yost, Joonho Lee, David Small,
  Daniel Levine, Susi Lehtola, Hugh Burton, Evgeny Epifanovsky,
  Bang C. Huynh
 -----------------------------------------------------------------------
 Hartree-Fock
 A restricted SCF calculation will be
 performed using DIIS
 SCF converges when DIIS error is below 1.0e-06
 ---------------------------------------
  Cycle       Energy         DIIS error
 ---------------------------------------
    1   -1186.0725477641      2.39e-02  
    2   -1180.5909936823      1.56e-03  
    3   -1180.7166008437      6.05e-04  
    4   -1180.7309383158      3.32e-04  
    5   -1180.7360343861      6.12e-05  
    6   -1180.7362906392      2.48e-05  
    7   -1180.7363519979      9.41e-06  
    8   -1180.7363661447      4.40e-06  
    9   -1180.7363695664      1.68e-06  
   10   -1180.7363701514      6.07e-07  Convergence criterion met
 ---------------------------------------
 SCF time:   CPU 583.32s  wall 586.00s 

************** Final PCM Free Energy Summary **************
 G_electrostatic  =      -0.00984739 hartree =      -6.17933004 kcal/mol
 G_cavitation     =       0.00000000 hartree =       0.00000000 kcal/mol
 G_dispersion     =       0.00000000 hartree =       0.00000000 kcal/mol
 G_repulsion      =       0.00000000 hartree =       0.00000000 kcal/mol
 --------------------------------------------------
 Non-electrostatic Free Energy =       0.00000000 hartree =       0.00000000 kcal/mol
 Total                         =      -0.00984739 hartree =      -6.17933004 kcal/mol
 --------------------------------------------------
 SCF Energy (H0 + V/2)                       =   -1180.73637015 
 Solute Internal Energy (H0)                 =   -1180.72652276 
 Total Free Energy (H0 + V/2 + non-elec)     =   -1180.73637015 hartree
                                             = -740923.25502417 kcal/mol
***********************************************************

 SCF   energy in the final basis set =    -1180.7363701514
 Total energy in the final basis set =    -1180.7363701514


 --------------------------------------------------------------
  Generalized many-body perturbation theory program
  by Joonho Lee, Fazle Rob, Xintian Feng, Evgeny Epifanovsky

 No regularization used 
 (reg. param. = 0.0000e+00)
  (P|Q)^-1/2 Time:  CPU 1.89 s  wall 1.89 s

 In RI-MP2 calculation: 
 # of frozen core orbitals: 20

 Components of the RIMP2 correlation energy:
        aaaa    correlation energy =        -0.2528022032 a.u.
        abab    correlation energy =        -1.5074009752 a.u.
        bbbb    correlation energy =        -0.2528022032 a.u.
        non-Brillouin singles      =        -0.0000000000 a.u.
        total same-spin energy     =        -0.5056044064 a.u.
        total opposite-spin energy =        -1.5074009752 a.u.

 Total  RIMP2   correlation energy =        -2.0130053815 a.u.
        RIMP2         total energy =     -1182.7493755329 a.u.

 RI-MP2 Energy Time:  CPU 80.29 s  wall 80.57 s
 
 --------------------------------------------------------------
 
                    Orbital Energies (a.u.)
 --------------------------------------------------------------
 
 Alpha MOs
 -- Occupied --
-91.9801 -91.9428 -11.2786 -11.2646 -11.2634 -11.2562 -11.2510 -11.2421
-11.2395 -11.2325 -11.2292 -11.2198  -8.9801  -8.9475  -6.6611  -6.6604
 -6.6599  -6.6289  -6.6279  -6.6266  -1.2007  -1.1530  -1.0589  -1.0299
 -1.0014  -0.9625  -0.9139  -0.9005  -0.8154  -0.7615  -0.7291  -0.7093
 -0.6551  -0.6455  -0.6108  -0.5924  -0.5886  -0.5704  -0.5592  -0.5531
 -0.5417  -0.5339  -0.5223  -0.5064  -0.4816  -0.4733  -0.4644  -0.4440
 -0.3573  -0.3419  -0.3224  -0.2654
 -- Virtual --
  0.0900   0.1291   0.1440   0.1471   0.1570   0.1703   0.1740   0.1851
  0.1923   0.1996   0.2052   0.2164   0.2211   0.2338   0.2407   0.2423
  0.2511   0.2742   0.2818   0.3005   0.3169   0.3320   0.3448   0.3550
  0.3652   0.3754   0.3790   0.3914   0.4083   0.4148   0.4186   0.4255
  0.4380   0.4463   0.4600   0.4692   0.4724   0.4803   0.4849   0.4856
  0.5006   0.5082   0.5214   0.5245   0.5355   0.5418   0.5477   0.5591
  0.5641   0.5782   0.5890   0.5972   0.5978   0.6086   0.6134   0.6177
  0.6219   0.6257   0.6359   0.6393   0.6415   0.6465   0.6582   0.6620
  0.6671   0.6744   0.6811   0.6901   0.6998   0.7165   0.7198   0.7281
  0.7413   0.7476   0.7626   0.7748   0.7847   0.7904   0.8034   0.8131
  0.8276   0.8438   0.8508   0.8617   0.8709   0.9024   0.9075   0.9263
  0.9320   0.9422   0.9501   0.9599   0.9760   0.9862   1.0010   1.0083
  1.0102   1.0325   1.0412   1.0492   1.0592   1.0672   1.0802   1.0885
  1.0894   1.1033   1.1129   1.1310   1.1313   1.1614   1.1683   1.1782
  1.1848   1.1932   1.1998   1.2091   1.2163   1.2257   1.2397   1.2411
  1.2539   1.2589   1.2702   1.2708   1.2888   1.3009   1.3104   1.3204
  1.3266   1.3412   1.3469   1.3679   1.3716   1.3854   1.3909   1.4186
  1.4271   1.4346   1.4504   1.4558   1.4684   1.4779   1.4898   1.4989
  1.5024   1.5137   1.5193   1.5340   1.5355   1.5471   1.5524   1.5577
  1.5712   1.5766   1.5879   1.6047   1.6182   1.6232   1.6400   1.6495
  1.6513   1.6524   1.6800   1.7033   1.7118   1.7263   1.7414   1.7423
  1.7588   1.7620   1.7709   1.8008   1.8011   1.8481   1.8598   1.8806
  1.8903   1.9059   1.9219   1.9511   1.9534   1.9734   1.9880   2.0001
  2.0140   2.0420   2.0469   2.0771   2.0961   2.1259   2.1273   2.1735
  2.1866   2.1961   2.2105   2.2300   2.2383   2.2484   2.2663   2.2758
  2.2794   2.2959   2.3294   2.3438   2.4172   2.4352   2.4533   2.4737
  2.4954   2.5152   2.5408   2.5726   2.5833   2.5860   2.6004   2.6239
  2.6333   2.6397   2.6588   2.6656   2.6730   2.6882   2.7163   2.7331
  2.7425   2.7606   2.7665   2.7727   2.7833   2.7942   2.8120   2.8291
  2.8372   2.8538   2.8583   2.8673   2.8894   2.9111   2.9215   2.9392
  2.9604   2.9666   2.9740   2.9887   3.0084   3.0198   3.0341   3.0400
  3.0520   3.0730   3.0975   3.1124   3.1147   3.1252   3.1346   3.1469
  3.1583   3.1708   3.1761   3.1824   3.1880   3.1965   3.2048   3.2092
  3.2216   3.2428   3.2526   3.2676   3.2730   3.2762   3.2943   3.2982
  3.3063   3.3271   3.3312   3.3352   3.3428   3.3532   3.3579   3.3637
  3.3775   3.3890   3.3910   3.3959   3.4047   3.4265   3.4287   3.4342
  3.4411   3.4476   3.4545   3.4622   3.4847   3.4915   3.4965   3.5140
  3.5223   3.5302   3.5370   3.5387   3.5529   3.5629   3.5705   3.5779
  3.5873   3.6080   3.6179   3.6247   3.6279   3.6445   3.6522   3.6689
  3.6818   3.6882   3.7029   3.7103   3.7210   3.7251   3.7392   3.7468
  3.7602   3.7657   3.7718   3.7840   3.7947   3.8050   3.8146   3.8251
  3.8273   3.8510   3.8644   3.8789   3.8860   3.9004   3.9057   3.9140
  3.9334   3.9541   3.9619   3.9668   3.9853   4.0016   4.0034   4.0163
  4.0369   4.0444   4.0466   4.0591   4.0690   4.0955   4.1059   4.1116
  4.1309   4.1434   4.1455   4.1538   4.1698   4.1846   4.1867   4.1990
  4.2145   4.2197   4.2345   4.2439   4.2562   4.2645   4.2686   4.2931
  4.2964   4.3102   4.3138   4.3355   4.3530   4.3631   4.3730   4.3766
  4.3865   4.3948   4.4016   4.4180   4.4295   4.4392   4.4513   4.4544
  4.4673   4.4808   4.5016   4.5072   4.5200   4.5365   4.5624   4.5727
  4.5869   4.6083   4.6207   4.6316   4.6461   4.6543   4.6786   4.6945
  4.7064   4.7340   4.7407   4.7615   4.7763   4.8068   4.8264   4.8536
  4.8667   4.8738   4.9030   4.9200   4.9427   4.9586   4.9731   4.9837
  5.0512   5.0687   5.0881   5.1034   5.1139   5.1263   5.1350   5.1815
  5.2094   5.2191   5.2457   5.2564   5.2824   5.2933   5.3122   5.3203
  5.3409   5.3699   5.3799   5.4010   5.4104   5.4196   5.4403   5.4459
  5.4726   5.5067   5.5204   5.5399   5.5553   5.5762   5.5819   5.6075
  5.6168   5.6263   5.6332   5.6655   5.6688   5.7037   5.7136   5.7553
  5.7688   5.7889   5.8256   5.9955   6.0334   6.0605   6.1275   6.1591
  6.2136   6.2295   6.2345   6.2395   6.2613   6.2911   6.3001   6.3116
  6.4129   6.5147   9.4484  10.5702  12.2018  12.9258  13.1460  13.9340
 14.1062  14.2119  14.4267  14.9660
 --------------------------------------------------------------
 
          Ground-State Mulliken Net Atomic Charges

     Atom                 Charge (a.u.)
  ----------------------------------------
      1 C                    -0.074314
      2 C                    -0.324026
      3 C                    -0.064741
      4 H                     0.178185
      5 C                     0.115559
      6 S                    -0.181458
      7 C                    -0.294814
      8 H                     0.121048
      9 H                     0.097512
     10 H                     0.117600
     11 C                    -0.039811
     12 C                    -0.312549
     13 C                     0.055467
     14 H                     0.193420
     15 C                    -0.254053
     16 S                     0.017524
     17 C                    -0.271782
     18 H                     0.101321
     19 H                     0.109226
     20 H                     0.107951
     21 H                     0.195738
     22 H                     0.110716
     23 H                     0.111740
     24 H                     0.184541
  ----------------------------------------
  Sum of atomic charges =     0.000000

 -----------------------------------------------------------------
                    Cartesian Multipole Moments
 -----------------------------------------------------------------
    Charge (ESU x 10^10)
                -0.0000
    Dipole Moment (Debye)
         X       1.4243      Y       0.1245      Z       4.0522
       Tot       4.2970
    Quadrupole Moments (Debye-Ang)
        XX     -88.7800     XY       4.1209     YY     -76.2092
        XZ       0.8410     YZ      -2.7385     ZZ     -86.1184
    Octopole Moments (Debye-Ang^2)
       XXX    -105.1533    XXY      61.7374    XYY     -23.2643
       YYY     137.3988    XXZ      -0.7721    XYZ      -3.6455
       YYZ      -3.2979    XZZ     -27.8321    YZZ      60.3027
       ZZZ       5.7997
    Hexadecapole Moments (Debye-Ang^3)
      XXXX    -529.2884   XXXY    -208.8236   XXYY    -544.0980
      XYYY    -175.4894   YYYY   -2584.2879   XXXZ    -172.7126
      XXYZ     -37.2398   XYYZ     -48.6086   YYYZ     -89.2300
      XXZZ    -247.7370   XYZZ     -74.9693   YYZZ    -613.3421
      XZZZ    -167.1361   YZZZ    -104.6902   ZZZZ    -969.3346
 -----------------------------------------------------------------
 Total job time:  688.02s(wall), 664.54s(cpu) 
 Sat Jul  9 21:56:02 2022

        *************************************************************
        *                                                           *
        *  Thank you very much for using Q-Chem.  Have a nice day.  *
        *                                                           *
        *************************************************************


remove work dirs ./qchem3373962.0 -- ./qchem3373962.-1
rm -rf ./qchem3373962
