You are running Q-Chem version: 5.4.0

#
# job setting
#
local host:  exp-1-29
current dir: /expanse/lustre/scratch/theleonzhang/temp_project/Hydrogenated_Rotation_Test
input file:  Methylthiophene_Phi_50_Theta_0_Methylthiophene_Hydrogenated.qcin
output file: 
nprocs     : 0
nthreads   : 1
#
# qchem installation setting
#
QC:          /cm/shared/apps/spack/cpu/opt/spack/linux-centos8-zen2/gcc-10.2.0/qchem-5.4-akfmr7b3t57bfs6qan3padb2wnb2i7cl
QCAUX:       /cm/shared/apps/spack/cpu/opt/spack/linux-centos8-zen2/gcc-10.2.0/qchem-5.4-akfmr7b3t57bfs6qan3padb2wnb2i7cl/qcaux
QCPROG:      /cm/shared/apps/spack/cpu/opt/spack/linux-centos8-zen2/gcc-10.2.0/qchem-5.4-akfmr7b3t57bfs6qan3padb2wnb2i7cl/exe/qcprog.exe_s
QCPROG_S:    /cm/shared/apps/spack/cpu/opt/spack/linux-centos8-zen2/gcc-10.2.0/qchem-5.4-akfmr7b3t57bfs6qan3padb2wnb2i7cl/exe/qcprog.exe_s
PARALLEL:    -DSERIAL
QCMPI:       mpich
#
# qchem directory setting
#
qcrun:       qchem1575931
QCSCRATCH:   .
QCLOCALSCR:  
QCTMPDIR:    .
QCFILEPREF:  ./qchem1575931
QCSAVEDIR:   
workdirs:    ./qchem1575931
workdir0:    ./qchem1575931
partmpdirs =  
#
# parallel setting
#
QCRSH:           ssh
QCMPI:           mpich
QCMPIRUN:        /cm/shared/apps/spack/cpu/opt/spack/linux-centos8-zen2/gcc-10.2.0/qchem-5.4-akfmr7b3t57bfs6qan3padb2wnb2i7cl/bin/mpi/mpirun_qchem
QCMACHINEFILE:   ./qchem1575931/hostfile

#
# env setting
#
exported envs:   QC QCAUX QCSCRATCH QCRUNNAME QCFILEPREF QCPROG QCPROG_S GUIFILE

Running Job 1 of 1 Methylthiophene_Phi_50_Theta_0_Methylthiophene_Hydrogenated.qcin
qchem Methylthiophene_Phi_50_Theta_0_Methylthiophene_Hydrogenated.qcin_1575931.0 ./qchem1575931/ 0
/cm/shared/apps/spack/cpu/opt/spack/linux-centos8-zen2/gcc-10.2.0/qchem-5.4-akfmr7b3t57bfs6qan3padb2wnb2i7cl/exe/qcprog.exe_s Methylthiophene_Phi_50_Theta_0_Methylthiophene_Hydrogenated.qcin_1575931.0 ./qchem1575931/
                  Welcome to Q-Chem
     A Quantum Leap Into The Future Of Chemistry


 Q-Chem 5.4, Q-Chem, Inc., Pleasanton, CA (2021)

 License issued to: University of California, San Diego (site)

 E. Epifanovsky,  A. T. B. Gilbert,  Xintian Feng,  Joonho Lee,  Yuezhi Mao,  
 N. Mardirossian,  P. Pokhilko,  A. White,  M. Wormit,  M. P. Coons,  
 A. L. Dempwolff,  Zhengting Gan,  D. Hait,  P. R. Horn,  L. D. Jacobson,  
 I. Kaliman,  J. Kussmann,  A. W. Lange,  Ka Un Lao,  D. S. Levine,  Jie Liu,  
 S. C. McKenzie,  A. F. Morrison,  K. Nanda,  F. Plasser,  D. R. Rehn,  
 M. L. Vidal,  Zhi-Qiang You,  Ying Zhu,  B. Alam,  B. Albrecht,  
 A. Aldossary,  E. Alguire,  J. H. Andersen,  D. Barton,  K. Begam,  A. Behn,  
 Y. A. Bernard,  E. J. Berquist,  H. Burton,  A. Carreras,  K. Carter-Fenk,  
 R. Chakraborty,  A. D. Chien,  K. D. Closser,  V. Cofer-Shabica,  
 S. Dasgupta,  Jia Deng,  M. de Wergifosse,  M. Diedenhofen,  Hainam Do,  
 S. Ehlert,  Po-Tung Fang,  S. Fatehi,  Qingguo Feng,  J. Gayvert,  
 Qinghui Ge,  G. Gidofalvi,  M. Goldey,  J. Gomes,  C. Gonzalez-Espinoza,  
 S. Gulania,  A. Gunina,  M. W. D. Hanson-Heine,  P. H. P. Harbach,  
 A. W. Hauser,  M. F. Herbst,  M. Hernandez Vera,  M. Hodecker,  
 Z. C. Holden,  S. Houck,  Xunkun Huang,  Kerwin Hui,  B. C. Huynh,  
 M. Ivanov,  Hyunjun Ji,  Hanjie Jiang,  B. Kaduk,  S. Kaehler,  
 K. Khistyaev,  Jaehoon Kim,  P. Klunzinger,  Z. Koczor-Benda,  
 Joong Hoon Koh,  D. Kosenkov,  L. Koulias,  T. Kowalczyk,  C. M. Krauter,  
 K. Kue,  A. Kunitsa,  T. Kus,  A. Landau,  K. V. Lawler,  D. Lefrancois,  
 S. Lehtola,  Rain Li,  Yi-Pei Li,  Jiashu Liang,  M. Liebenthal,  
 Hung-Hsuan Lin,  You-Sheng Lin,  Fenglai Liu,  Kuan-Yu Liu,  
 M. Loipersberger,  A. Luenser,  A. Manjanath,  P. Manohar,  E. Mansoor,  
 S. F. Manzer,  Shan-Ping Mao,  A. V. Marenich,  T. Markovich,  S. Mason,  
 S. A. Maurer,  P. F. McLaughlin,  M. F. S. J. Menger,  J.-M. Mewes,  
 S. A. Mewes,  P. Morgante,  J. W. Mullinax,  T. S. Nguyen-Beck,  
 K. J. Oosterbaan,  G. Paran,  Alexander C. Paul,  Suranjan K. Paul,  
 F. Pavosevic,  Zheng Pei,  S. Prager,  E. I. Proynov,  E. Ramos,  B. Rana,  
 A. E. Rask,  A. Rettig,  R. M. Richard,  F. Rob,  E. Rossomme,  T. Scheele,  
 M. Scheurer,  M. Schneider,  N. Sergueev,  S. M. Sharada,  W. Skomorowski,  
 D. W. Small,  C. J. Stein,  Yu-Chuan Su,  E. J. Sundstrom,  Zhen Tao,  
 J. Thirman,  T. Tsuchimochi,  N. M. Tubman,  S. P. Veccham,  O. Vydrov,  
 J. Wenzel,  J. Witte,  A. Yamada,  Kun Yao,  S. Yeganeh,  S. R. Yost,  
 A. Zech,  Igor Ying Zhang,  Xing Zhang,  Yu Zhang,  D. Zuev,  
 A. Aspuru-Guzik,  A. T. Bell,  N. A. Besley,  K. B. Bravaya,  B. R. Brooks,  
 D. Casanova,  Jeng-Da Chai,  S. Coriani,  C. J. Cramer,  
 A. E. DePrince, III,  R. A. DiStasio Jr.,  A. Dreuw,  B. D. Dunietz,  
 T. R. Furlani,  W. A. Goddard III,  S. Grimme,  S. Hammes-Schiffer,  
 T. Head-Gordon,  W. J. Hehre,  Chao-Ping Hsu,  T.-C. Jagau,  Yousung Jung,  
 A. Klamt,  Jing Kong,  D. S. Lambrecht,  WanZhen Liang,  N. J. Mayhall,  
 C. W. McCurdy,  J. B. Neaton,  C. Ochsenfeld,  J. A. Parkhill,  R. Peverati,  
 V. A. Rassolov,  Yihan Shao,  L. V. Slipchenko,  T. Stauch,  R. P. Steele,  
 J. E. Subotnik,  A. J. W. Thom,  A. Tkatchenko,  D. G. Truhlar,  
 T. Van Voorhis,  T. A. Wesolowski,  K. B. Whaley,  H. L. Woodcock III,  
 P. M. Zimmerman,  S. Faraji,  P. M. W. Gill,  M. Head-Gordon,  
 J. M. Herbert,  A. I. Krylov

 Contributors to earlier versions of Q-Chem not listed above: 
 R. D. Adamson,  B. Austin,  R. Baer,  J. Baker,  G. J. O. Beran,  
 K. Brandhorst,  S. T. Brown,  E. F. C. Byrd,  A. K. Chakraborty,  
 G. K. L. Chan,  Chun-Min Chang,  Yunqing Chen,  C.-L. Cheng,  
 Siu Hung Chien,  D. M. Chipman,  D. L. Crittenden,  H. Dachsel,  
 R. J. Doerksen,  A. D. Dutoi,  R. G. Edgar,  J. Fosso-Tande,  
 L. Fusti-Molnar,  D. Ghosh,  A. Ghysels,  A. Golubeva-Zadorozhnaya,  
 J. Gonthier,  M. S. Gordon,  S. R. Gwaltney,  G. Hawkins,  J. E. Herr,  
 A. Heyden,  S. Hirata,  E. G. Hohenstein,  G. Kedziora,  F. J. Keil,  
 C. Kelley,  Jihan Kim,  R. A. King,  R. Z. Khaliullin,  P. P. Korambath,  
 W. Kurlancheek,  A. Laurent,  A. M. Lee,  M. S. Lee,  S. V. Levchenko,  
 Ching Yeh Lin,  D. Liotard,  E. Livshits,  R. C. Lochan,  I. Lotan,  
 L. A. Martinez-Martinez,  P. E. Maslen,  N. Nair,  D. P. O'Neill,  
 D. Neuhauser,  E. Neuscamman,  C. M. Oana,  R. Olivares-Amaya,  R. Olson,  
 T. M. Perrine,  B. Peters,  P. A. Pieniazek,  A. Prociuk,  Y. M. Rhee,  
 J. Ritchie,  M. A. Rohrdanz,  E. Rosta,  N. J. Russ,  H. F. Schaefer III,  
 M. W. Schmidt,  N. E. Schultz,  S. Sharma,  N. Shenvi,  C. D. Sherrill,  
 A. C. Simmonett,  A. Sodt,  T. Stein,  D. Stuck,  K. S. Thanthiriwatte,  
 V. Vanovschi,  L. Vogt,  Tao Wang,  A. Warshel,  M. A. Watson,  
 C. F. Williams,  Q. Wu,  X. Xu,  Jun Yang,  W. Zhang,  Yan Zhao

 Please cite Q-Chem as follows:
 Y. Shao et al., Mol. Phys. 113, 184-215 (2015)
 DOI: 10.1080/00268976.2014.952696

 Q-Chem 5.4.0 for Intel X86 EM64T Linux

 Parts of Q-Chem use Armadillo 9.800.1 (Horizon Scraper).
 http://arma.sourceforge.net/

 Q-Chem begins on Sat Jul  9 19:06:30 2022  

 Host: 
0

     Scratch files written to ./qchem1575931//
 May1621 |scratch|qcdevops|jenkins|workspace|build_RNUM    
 Processing $rem in /cm/shared/apps/spack/cpu/opt/spack/linux-centos8-zen2/gcc-10.2.0/qchem-5.4-akfmr7b3t57bfs6qan3padb2wnb2i7cl/config/preferences:
 Processing $rem in /home/theleonzhang/.qchemrc:
 Symmetry turned off for PCM/SM12/SMD calculation
 Core orbitals will be frozen

 Checking the input file for inconsistencies... 	...done.

--------------------------------------------------------------
User input:
--------------------------------------------------------------
$molecule
0 1
C	0.670748	-3.808105	0.775127
C	0.642889	-3.647744	-0.612565
C	0.409365	-2.321236	-1.066639
H	0.791563	-4.491881	-1.302900
C	0.250169	-1.418777	0.000000
S	0.397135	-2.252211	1.544483
C	0.343896	-1.948630	-2.521872
H	0.500095	-2.834906	-3.166949
H	1.118228	-1.200068	-2.790821
H	-0.639561	-1.509723	-2.791023
C	0.000000	0.000000	0.000000
C	0.555137	0.661535	1.099446
C	1.444710	1.721658	0.776721
H	0.318072	0.379023	2.136088
C	1.586563	1.890676	-0.612546
S	0.605781	0.721904	-1.486809
C	2.143920	2.554907	1.814609
H	1.870325	2.228851	2.836676
H	1.880882	3.629742	1.726239
H	3.248098	2.482476	1.726228
H	2.196723	2.617806	-1.161575
H	1.645845	-4.170271	1.119411
H	-0.122001	-4.481618	1.119277
H	-0.813471	-1.606048	-0.000115
$end

$rem
JOBTYPE		SP
EXCHANGE	HF
CORRELATION	pRIMP2
BASIS		cc-pvtz
METHOD		rimp2
AUX_BASIS	rimp2-cc-pvtz
SOLVENT_METHOD	PCM
PURECART	11111
SYMMETRY	false
MEM_TOTAL	110000
SCF_CONVERGENCE = 6
THRESH=10
$end



$solvent
dielectric 4.90
$end
--------------------------------------------------------------
 ----------------------------------------------------------------
             Standard Nuclear Orientation (Angstroms)
    I     Atom           X                Y                Z
 ----------------------------------------------------------------
    1      C       0.6707480000    -3.8081050000     0.7751270000
    2      C       0.6428890000    -3.6477440000    -0.6125650000
    3      C       0.4093650000    -2.3212360000    -1.0666390000
    4      H       0.7915630000    -4.4918810000    -1.3029000000
    5      C       0.2501690000    -1.4187770000     0.0000000000
    6      S       0.3971350000    -2.2522110000     1.5444830000
    7      C       0.3438960000    -1.9486300000    -2.5218720000
    8      H       0.5000950000    -2.8349060000    -3.1669490000
    9      H       1.1182280000    -1.2000680000    -2.7908210000
   10      H      -0.6395610000    -1.5097230000    -2.7910230000
   11      C       0.0000000000     0.0000000000     0.0000000000
   12      C       0.5551370000     0.6615350000     1.0994460000
   13      C       1.4447100000     1.7216580000     0.7767210000
   14      H       0.3180720000     0.3790230000     2.1360880000
   15      C       1.5865630000     1.8906760000    -0.6125460000
   16      S       0.6057810000     0.7219040000    -1.4868090000
   17      C       2.1439200000     2.5549070000     1.8146090000
   18      H       1.8703250000     2.2288510000     2.8366760000
   19      H       1.8808820000     3.6297420000     1.7262390000
   20      H       3.2480980000     2.4824760000     1.7262280000
   21      H       2.1967230000     2.6178060000    -1.1615750000
   22      H       1.6458450000    -4.1702710000     1.1194110000
   23      H      -0.1220010000    -4.4816180000     1.1192770000
   24      H      -0.8134710000    -1.6060480000    -0.0001150000
 ----------------------------------------------------------------
 Nuclear Repulsion Energy =         895.34645897 hartrees
 There are       52 alpha and       52 beta electrons

 Q-Chem warning in module forms1/BasisType.C, line 2236:

 You are not using the predefined 5D/6D in this basis set.

 Requested basis set is cc-pVTZ
 There are 196 shells and 536 basis functions

 Total QAlloc Memory Limit 110000 MB
 Mega-Array Size       188 MB
 MEM_STATIC part       192 MB
 Discretize the solute cavity surface with Lebedev spheres
	Using 110 Lebedev grid points for each H atom
	Using 194 Lebedev grid points for other atoms
	Atomic van der Waals radii will be scaled by 1.20
 Remove points where switching function is < 1.0e-08
 Keep 1551 surface tesserae and discard 2097 interior tesserae
 Molecular Surface Area = 226.228 Angst**2
 Requested basis set is rimp2-cc-pVTZ
 There are 414 shells and 1414 basis functions
 A cutoff of  1.0D-10 yielded  14375 shell pairs
 There are    104175 function pairs (    133575 Cartesian)
 Smallest overlap matrix eigenvalue = 6.32E-05

 Scale SEOQF with 1.000000e-01/1.000000e-01/1.000000e-01

 Standard Electronic Orientation quadrupole field applied
 Nucleus-field energy     =     0.0000000177 hartrees
 Guess from superposition of atomic densities
 Warning:  Energy on first SCF cycle will be non-variational
 SAD guess density has 104.000000 electrons

 -----------------------------------------------------------------------
  General SCF calculation program by
  Eric Jon Sundstrom, Paul Horn, Yuezhi Mao, Dmitri Zuev, Alec White,
  David Stuck, Shaama M.S., Shane Yost, Joonho Lee, David Small,
  Daniel Levine, Susi Lehtola, Hugh Burton, Evgeny Epifanovsky,
  Bang C. Huynh
 -----------------------------------------------------------------------
 Hartree-Fock
 A restricted SCF calculation will be
 performed using DIIS
 SCF converges when DIIS error is below 1.0e-06
 ---------------------------------------
  Cycle       Energy         DIIS error
 ---------------------------------------
    1   -1186.1664819291      2.41e-02  
    2   -1180.5397568322      1.55e-03  
    3   -1180.6666313501      5.88e-04  
    4   -1180.6808370756      3.22e-04  
    5   -1180.6857028442      6.58e-05  
    6   -1180.6860030206      2.65e-05  
    7   -1180.6860835854      1.18e-05  
    8   -1180.6861052833      5.62e-06  
    9   -1180.6861119107      2.63e-06  
   10   -1180.6861133450      1.08e-06  
   11   -1180.6861136147      5.07e-07  Convergence criterion met
 ---------------------------------------
 SCF time:   CPU 651.38s  wall 654.00s 

************** Final PCM Free Energy Summary **************
 G_electrostatic  =      -0.00807733 hartree =      -5.06860367 kcal/mol
 G_cavitation     =       0.00000000 hartree =       0.00000000 kcal/mol
 G_dispersion     =       0.00000000 hartree =       0.00000000 kcal/mol
 G_repulsion      =       0.00000000 hartree =       0.00000000 kcal/mol
 --------------------------------------------------
 Non-electrostatic Free Energy =       0.00000000 hartree =       0.00000000 kcal/mol
 Total                         =      -0.00807733 hartree =      -5.06860367 kcal/mol
 --------------------------------------------------
 SCF Energy (H0 + V/2)                       =   -1180.68611361 
 Solute Internal Energy (H0)                 =   -1180.67803628 
 Total Free Energy (H0 + V/2 + non-elec)     =   -1180.68611361 hartree
                                             = -740891.71857138 kcal/mol
***********************************************************

 SCF   energy in the final basis set =    -1180.6861136147
 Total energy in the final basis set =    -1180.6861136147


 --------------------------------------------------------------
  Generalized many-body perturbation theory program
  by Joonho Lee, Fazle Rob, Xintian Feng, Evgeny Epifanovsky

 No regularization used 
 (reg. param. = 0.0000e+00)
  (P|Q)^-1/2 Time:  CPU 1.90 s  wall 1.90 s

 In RI-MP2 calculation: 
 # of frozen core orbitals: 20

 Components of the RIMP2 correlation energy:
        aaaa    correlation energy =        -0.2551332636 a.u.
        abab    correlation energy =        -1.5145755554 a.u.
        bbbb    correlation energy =        -0.2551332636 a.u.
        non-Brillouin singles      =        -0.0000000000 a.u.
        total same-spin energy     =        -0.5102665271 a.u.
        total opposite-spin energy =        -1.5145755554 a.u.

 Total  RIMP2   correlation energy =        -2.0248420825 a.u.
        RIMP2         total energy =     -1182.7109556972 a.u.

 RI-MP2 Energy Time:  CPU 80.41 s  wall 80.64 s
 
 --------------------------------------------------------------
 
                    Orbital Energies (a.u.)
 --------------------------------------------------------------
 
 Alpha MOs
 -- Occupied --
-91.9757 -91.9409 -11.2727 -11.2644 -11.2629 -11.2506 -11.2501 -11.2479
-11.2394 -11.2284 -11.2277 -11.2139  -8.9771  -8.9456  -6.6579  -6.6571
 -6.6566  -6.6270  -6.6260  -6.6247  -1.2026  -1.1528  -1.0588  -1.0271
 -1.0064  -0.9567  -0.9128  -0.9037  -0.8088  -0.7727  -0.7216  -0.7044
 -0.6523  -0.6441  -0.6122  -0.5922  -0.5843  -0.5745  -0.5671  -0.5507
 -0.5390  -0.5341  -0.5182  -0.5151  -0.4862  -0.4576  -0.4530  -0.4380
 -0.3559  -0.3365  -0.3271  -0.2549
 -- Virtual --
  0.0719   0.1354   0.1426   0.1531   0.1609   0.1688   0.1802   0.1840
  0.1866   0.1941   0.2048   0.2126   0.2168   0.2338   0.2397   0.2457
  0.2539   0.2715   0.2796   0.2996   0.3141   0.3270   0.3415   0.3646
  0.3660   0.3694   0.3799   0.4018   0.4066   0.4095   0.4188   0.4261
  0.4476   0.4492   0.4587   0.4662   0.4764   0.4796   0.4802   0.4951
  0.5073   0.5161   0.5308   0.5313   0.5331   0.5478   0.5515   0.5687
  0.5750   0.5804   0.5849   0.5922   0.6027   0.6111   0.6168   0.6210
  0.6211   0.6276   0.6325   0.6347   0.6380   0.6497   0.6531   0.6609
  0.6637   0.6769   0.6859   0.6923   0.6968   0.7025   0.7187   0.7381
  0.7482   0.7595   0.7681   0.7699   0.7748   0.7845   0.8117   0.8254
  0.8393   0.8466   0.8592   0.8643   0.8709   0.8918   0.9010   0.9240
  0.9299   0.9404   0.9517   0.9639   0.9690   0.9869   0.9920   1.0085
  1.0217   1.0304   1.0417   1.0478   1.0573   1.0689   1.0811   1.0886
  1.1015   1.1042   1.1177   1.1337   1.1491   1.1527   1.1621   1.1649
  1.1843   1.1923   1.1987   1.2129   1.2210   1.2281   1.2325   1.2455
  1.2600   1.2692   1.2777   1.2838   1.2896   1.3006   1.3059   1.3150
  1.3239   1.3390   1.3571   1.3688   1.3775   1.3875   1.3957   1.4084
  1.4195   1.4282   1.4513   1.4587   1.4642   1.4731   1.4855   1.4914
  1.5004   1.5161   1.5232   1.5320   1.5391   1.5412   1.5527   1.5547
  1.5655   1.5746   1.5906   1.5981   1.6185   1.6324   1.6347   1.6431
  1.6563   1.6683   1.6733   1.6837   1.6949   1.7098   1.7254   1.7278
  1.7388   1.7577   1.7754   1.8046   1.8199   1.8319   1.8402   1.8565
  1.8900   1.9201   1.9426   1.9730   1.9742   1.9904   2.0013   2.0268
  2.0354   2.0498   2.0762   2.0900   2.1062   2.1158   2.1326   2.1459
  2.1843   2.1878   2.1964   2.2129   2.2199   2.2395   2.2597   2.2941
  2.3029   2.3165   2.3354   2.3912   2.4144   2.4327   2.4412   2.4747
  2.5052   2.5196   2.5319   2.5505   2.5844   2.5922   2.6172   2.6210
  2.6384   2.6425   2.6629   2.6825   2.6895   2.7083   2.7223   2.7269
  2.7410   2.7492   2.7640   2.7793   2.7971   2.8056   2.8208   2.8313
  2.8401   2.8485   2.8542   2.8825   2.9019   2.9067   2.9282   2.9378
  2.9573   2.9775   2.9845   2.9954   3.0027   3.0222   3.0358   3.0411
  3.0617   3.0724   3.0842   3.1099   3.1137   3.1287   3.1431   3.1502
  3.1581   3.1634   3.1746   3.1855   3.1966   3.2021   3.2128   3.2194
  3.2241   3.2464   3.2526   3.2618   3.2740   3.2791   3.2830   3.2977
  3.3117   3.3236   3.3321   3.3403   3.3484   3.3561   3.3638   3.3682
  3.3808   3.3883   3.3961   3.4035   3.4075   3.4150   3.4265   3.4371
  3.4410   3.4556   3.4636   3.4743   3.4914   3.4951   3.4996   3.5169
  3.5242   3.5305   3.5410   3.5529   3.5561   3.5618   3.5723   3.5898
  3.5953   3.6135   3.6186   3.6258   3.6361   3.6544   3.6650   3.6852
  3.6870   3.7006   3.7045   3.7186   3.7268   3.7366   3.7400   3.7547
  3.7598   3.7676   3.7751   3.7955   3.8025   3.8117   3.8262   3.8358
  3.8399   3.8447   3.8622   3.8678   3.8802   3.8932   3.9113   3.9328
  3.9437   3.9535   3.9564   3.9658   3.9741   4.0073   4.0161   4.0191
  4.0322   4.0502   4.0528   4.0622   4.0673   4.0780   4.1046   4.1205
  4.1251   4.1450   4.1524   4.1717   4.1810   4.1892   4.1992   4.2021
  4.2100   4.2245   4.2386   4.2469   4.2536   4.2690   4.2776   4.2875
  4.2933   4.3130   4.3189   4.3458   4.3529   4.3551   4.3600   4.3846
  4.3883   4.3998   4.4036   4.4094   4.4172   4.4407   4.4523   4.4534
  4.4723   4.4853   4.4903   4.5009   4.5134   4.5438   4.5542   4.5822
  4.5936   4.5959   4.6057   4.6208   4.6467   4.6599   4.6746   4.6844
  4.6978   4.7410   4.7695   4.7704   4.7988   4.8089   4.8236   4.8397
  4.8791   4.8813   4.8954   4.9191   4.9297   4.9523   4.9564   4.9951
  5.0241   5.0534   5.0632   5.1005   5.1197   5.1306   5.1436   5.1618
  5.1956   5.2053   5.2280   5.2702   5.2879   5.2904   5.3077   5.3139
  5.3490   5.3724   5.3758   5.3987   5.4092   5.4194   5.4440   5.4491
  5.4767   5.5069   5.5248   5.5453   5.5561   5.5614   5.5749   5.5876
  5.6143   5.6322   5.6345   5.6542   5.6951   5.6994   5.7163   5.7350
  5.7680   5.7989   5.8208   5.9886   6.0224   6.0928   6.1034   6.1373
  6.2124   6.2224   6.2305   6.2471   6.2598   6.2762   6.2953   6.3161
  6.3899   6.4160   9.3945  10.5494  12.4114  12.8389  13.1848  13.8387
 14.1094  14.2324  14.3155  14.7037
 --------------------------------------------------------------
 
          Ground-State Mulliken Net Atomic Charges

     Atom                 Charge (a.u.)
  ----------------------------------------
      1 C                    -0.073811
      2 C                    -0.346694
      3 C                    -0.035944
      4 H                     0.176475
      5 C                     0.084986
      6 S                    -0.203093
      7 C                    -0.298434
      8 H                     0.114795
      9 H                     0.117879
     10 H                     0.110991
     11 C                    -0.091175
     12 C                    -0.209841
     13 C                     0.018764
     14 H                     0.188045
     15 C                    -0.223770
     16 S                     0.019677
     17 C                    -0.268678
     18 H                     0.102952
     19 H                     0.107795
     20 H                     0.106270
     21 H                     0.197565
     22 H                     0.110191
     23 H                     0.110122
     24 H                     0.184931
  ----------------------------------------
  Sum of atomic charges =     0.000000

 -----------------------------------------------------------------
                    Cartesian Multipole Moments
 -----------------------------------------------------------------
    Charge (ESU x 10^10)
                -0.0000
    Dipole Moment (Debye)
         X       0.9664      Y       0.5930      Z      -0.9869
       Tot       1.5032
    Quadrupole Moments (Debye-Ang)
        XX     -87.3397     XY       5.7565     YY     -79.2886
        XZ      -0.5859     YZ       4.0853     ZZ     -85.1512
    Octopole Moments (Debye-Ang^2)
       XXX    -188.9350    XXY      73.8691    XYY     -44.9671
       YYY     157.1828    XXZ      -1.2796    XYZ      -0.7987
       YYZ      -0.7063    XZZ     -58.9362    YZZ      64.2311
       ZZZ      -3.2192
    Hexadecapole Moments (Debye-Ang^3)
      XXXX    -594.2982   XXXY     -49.7825   XXYY    -517.3977
      XYYY     -79.4123   YYYY   -2433.4521   XXXZ     -65.5001
      XXYZ     -32.0099   XYYZ     -29.8388   YYYZ     -87.1013
      XXZZ    -285.3075   XYZZ     -16.2804   YYZZ    -600.6557
      XZZZ     -73.5857   YZZZ     -38.6785   ZZZZ   -1095.1602
 -----------------------------------------------------------------
 Total job time:  737.86s(wall), 732.71s(cpu) 
 Sat Jul  9 19:18:47 2022

        *************************************************************
        *                                                           *
        *  Thank you very much for using Q-Chem.  Have a nice day.  *
        *                                                           *
        *************************************************************


remove work dirs ./qchem1575931.0 -- ./qchem1575931.-1
rm -rf ./qchem1575931
