You are running Q-Chem version: 5.4.0

#
# job setting
#
local host:  exp-4-52
current dir: /expanse/lustre/scratch/theleonzhang/temp_project/Hydrogenated_Rotation_Test
input file:  Methylthiophene_Phi_5_Theta_300_Methylthiophene_Hydrogenated_Alternate.qcin
output file: 
nprocs     : 0
nthreads   : 1
#
# qchem installation setting
#
QC:          /cm/shared/apps/spack/cpu/opt/spack/linux-centos8-zen2/gcc-10.2.0/qchem-5.4-akfmr7b3t57bfs6qan3padb2wnb2i7cl
QCAUX:       /cm/shared/apps/spack/cpu/opt/spack/linux-centos8-zen2/gcc-10.2.0/qchem-5.4-akfmr7b3t57bfs6qan3padb2wnb2i7cl/qcaux
QCPROG:      /cm/shared/apps/spack/cpu/opt/spack/linux-centos8-zen2/gcc-10.2.0/qchem-5.4-akfmr7b3t57bfs6qan3padb2wnb2i7cl/exe/qcprog.exe_s
QCPROG_S:    /cm/shared/apps/spack/cpu/opt/spack/linux-centos8-zen2/gcc-10.2.0/qchem-5.4-akfmr7b3t57bfs6qan3padb2wnb2i7cl/exe/qcprog.exe_s
PARALLEL:    -DSERIAL
QCMPI:       mpich
#
# qchem directory setting
#
qcrun:       qchem2094217
QCSCRATCH:   .
QCLOCALSCR:  
QCTMPDIR:    .
QCFILEPREF:  ./qchem2094217
QCSAVEDIR:   
workdirs:    ./qchem2094217
workdir0:    ./qchem2094217
partmpdirs =  
#
# parallel setting
#
QCRSH:           ssh
QCMPI:           mpich
QCMPIRUN:        /cm/shared/apps/spack/cpu/opt/spack/linux-centos8-zen2/gcc-10.2.0/qchem-5.4-akfmr7b3t57bfs6qan3padb2wnb2i7cl/bin/mpi/mpirun_qchem
QCMACHINEFILE:   ./qchem2094217/hostfile

#
# env setting
#
exported envs:   QC QCAUX QCSCRATCH QCRUNNAME QCFILEPREF QCPROG QCPROG_S GUIFILE

Running Job 1 of 1 Methylthiophene_Phi_5_Theta_300_Methylthiophene_Hydrogenated_Alternate.qcin
qchem Methylthiophene_Phi_5_Theta_300_Methylthiophene_Hydrogenated_Alternate.qcin_2094217.0 ./qchem2094217/ 0
/cm/shared/apps/spack/cpu/opt/spack/linux-centos8-zen2/gcc-10.2.0/qchem-5.4-akfmr7b3t57bfs6qan3padb2wnb2i7cl/exe/qcprog.exe_s Methylthiophene_Phi_5_Theta_300_Methylthiophene_Hydrogenated_Alternate.qcin_2094217.0 ./qchem2094217/
                  Welcome to Q-Chem
     A Quantum Leap Into The Future Of Chemistry


 Q-Chem 5.4, Q-Chem, Inc., Pleasanton, CA (2021)

 License issued to: University of California, San Diego (site)

 E. Epifanovsky,  A. T. B. Gilbert,  Xintian Feng,  Joonho Lee,  Yuezhi Mao,  
 N. Mardirossian,  P. Pokhilko,  A. White,  M. Wormit,  M. P. Coons,  
 A. L. Dempwolff,  Zhengting Gan,  D. Hait,  P. R. Horn,  L. D. Jacobson,  
 I. Kaliman,  J. Kussmann,  A. W. Lange,  Ka Un Lao,  D. S. Levine,  Jie Liu,  
 S. C. McKenzie,  A. F. Morrison,  K. Nanda,  F. Plasser,  D. R. Rehn,  
 M. L. Vidal,  Zhi-Qiang You,  Ying Zhu,  B. Alam,  B. Albrecht,  
 A. Aldossary,  E. Alguire,  J. H. Andersen,  D. Barton,  K. Begam,  A. Behn,  
 Y. A. Bernard,  E. J. Berquist,  H. Burton,  A. Carreras,  K. Carter-Fenk,  
 R. Chakraborty,  A. D. Chien,  K. D. Closser,  V. Cofer-Shabica,  
 S. Dasgupta,  Jia Deng,  M. de Wergifosse,  M. Diedenhofen,  Hainam Do,  
 S. Ehlert,  Po-Tung Fang,  S. Fatehi,  Qingguo Feng,  J. Gayvert,  
 Qinghui Ge,  G. Gidofalvi,  M. Goldey,  J. Gomes,  C. Gonzalez-Espinoza,  
 S. Gulania,  A. Gunina,  M. W. D. Hanson-Heine,  P. H. P. Harbach,  
 A. W. Hauser,  M. F. Herbst,  M. Hernandez Vera,  M. Hodecker,  
 Z. C. Holden,  S. Houck,  Xunkun Huang,  Kerwin Hui,  B. C. Huynh,  
 M. Ivanov,  Hyunjun Ji,  Hanjie Jiang,  B. Kaduk,  S. Kaehler,  
 K. Khistyaev,  Jaehoon Kim,  P. Klunzinger,  Z. Koczor-Benda,  
 Joong Hoon Koh,  D. Kosenkov,  L. Koulias,  T. Kowalczyk,  C. M. Krauter,  
 K. Kue,  A. Kunitsa,  T. Kus,  A. Landau,  K. V. Lawler,  D. Lefrancois,  
 S. Lehtola,  Rain Li,  Yi-Pei Li,  Jiashu Liang,  M. Liebenthal,  
 Hung-Hsuan Lin,  You-Sheng Lin,  Fenglai Liu,  Kuan-Yu Liu,  
 M. Loipersberger,  A. Luenser,  A. Manjanath,  P. Manohar,  E. Mansoor,  
 S. F. Manzer,  Shan-Ping Mao,  A. V. Marenich,  T. Markovich,  S. Mason,  
 S. A. Maurer,  P. F. McLaughlin,  M. F. S. J. Menger,  J.-M. Mewes,  
 S. A. Mewes,  P. Morgante,  J. W. Mullinax,  T. S. Nguyen-Beck,  
 K. J. Oosterbaan,  G. Paran,  Alexander C. Paul,  Suranjan K. Paul,  
 F. Pavosevic,  Zheng Pei,  S. Prager,  E. I. Proynov,  E. Ramos,  B. Rana,  
 A. E. Rask,  A. Rettig,  R. M. Richard,  F. Rob,  E. Rossomme,  T. Scheele,  
 M. Scheurer,  M. Schneider,  N. Sergueev,  S. M. Sharada,  W. Skomorowski,  
 D. W. Small,  C. J. Stein,  Yu-Chuan Su,  E. J. Sundstrom,  Zhen Tao,  
 J. Thirman,  T. Tsuchimochi,  N. M. Tubman,  S. P. Veccham,  O. Vydrov,  
 J. Wenzel,  J. Witte,  A. Yamada,  Kun Yao,  S. Yeganeh,  S. R. Yost,  
 A. Zech,  Igor Ying Zhang,  Xing Zhang,  Yu Zhang,  D. Zuev,  
 A. Aspuru-Guzik,  A. T. Bell,  N. A. Besley,  K. B. Bravaya,  B. R. Brooks,  
 D. Casanova,  Jeng-Da Chai,  S. Coriani,  C. J. Cramer,  
 A. E. DePrince, III,  R. A. DiStasio Jr.,  A. Dreuw,  B. D. Dunietz,  
 T. R. Furlani,  W. A. Goddard III,  S. Grimme,  S. Hammes-Schiffer,  
 T. Head-Gordon,  W. J. Hehre,  Chao-Ping Hsu,  T.-C. Jagau,  Yousung Jung,  
 A. Klamt,  Jing Kong,  D. S. Lambrecht,  WanZhen Liang,  N. J. Mayhall,  
 C. W. McCurdy,  J. B. Neaton,  C. Ochsenfeld,  J. A. Parkhill,  R. Peverati,  
 V. A. Rassolov,  Yihan Shao,  L. V. Slipchenko,  T. Stauch,  R. P. Steele,  
 J. E. Subotnik,  A. J. W. Thom,  A. Tkatchenko,  D. G. Truhlar,  
 T. Van Voorhis,  T. A. Wesolowski,  K. B. Whaley,  H. L. Woodcock III,  
 P. M. Zimmerman,  S. Faraji,  P. M. W. Gill,  M. Head-Gordon,  
 J. M. Herbert,  A. I. Krylov

 Contributors to earlier versions of Q-Chem not listed above: 
 R. D. Adamson,  B. Austin,  R. Baer,  J. Baker,  G. J. O. Beran,  
 K. Brandhorst,  S. T. Brown,  E. F. C. Byrd,  A. K. Chakraborty,  
 G. K. L. Chan,  Chun-Min Chang,  Yunqing Chen,  C.-L. Cheng,  
 Siu Hung Chien,  D. M. Chipman,  D. L. Crittenden,  H. Dachsel,  
 R. J. Doerksen,  A. D. Dutoi,  R. G. Edgar,  J. Fosso-Tande,  
 L. Fusti-Molnar,  D. Ghosh,  A. Ghysels,  A. Golubeva-Zadorozhnaya,  
 J. Gonthier,  M. S. Gordon,  S. R. Gwaltney,  G. Hawkins,  J. E. Herr,  
 A. Heyden,  S. Hirata,  E. G. Hohenstein,  G. Kedziora,  F. J. Keil,  
 C. Kelley,  Jihan Kim,  R. A. King,  R. Z. Khaliullin,  P. P. Korambath,  
 W. Kurlancheek,  A. Laurent,  A. M. Lee,  M. S. Lee,  S. V. Levchenko,  
 Ching Yeh Lin,  D. Liotard,  E. Livshits,  R. C. Lochan,  I. Lotan,  
 L. A. Martinez-Martinez,  P. E. Maslen,  N. Nair,  D. P. O'Neill,  
 D. Neuhauser,  E. Neuscamman,  C. M. Oana,  R. Olivares-Amaya,  R. Olson,  
 T. M. Perrine,  B. Peters,  P. A. Pieniazek,  A. Prociuk,  Y. M. Rhee,  
 J. Ritchie,  M. A. Rohrdanz,  E. Rosta,  N. J. Russ,  H. F. Schaefer III,  
 M. W. Schmidt,  N. E. Schultz,  S. Sharma,  N. Shenvi,  C. D. Sherrill,  
 A. C. Simmonett,  A. Sodt,  T. Stein,  D. Stuck,  K. S. Thanthiriwatte,  
 V. Vanovschi,  L. Vogt,  Tao Wang,  A. Warshel,  M. A. Watson,  
 C. F. Williams,  Q. Wu,  X. Xu,  Jun Yang,  W. Zhang,  Yan Zhao

 Please cite Q-Chem as follows:
 Y. Shao et al., Mol. Phys. 113, 184-215 (2015)
 DOI: 10.1080/00268976.2014.952696

 Q-Chem 5.4.0 for Intel X86 EM64T Linux

 Parts of Q-Chem use Armadillo 9.800.1 (Horizon Scraper).
 http://arma.sourceforge.net/

 Q-Chem begins on Sun Jul 10 05:57:59 2022  

 Host: 
0

     Scratch files written to ./qchem2094217//
 May1621 |scratch|qcdevops|jenkins|workspace|build_RNUM    
 Processing $rem in /cm/shared/apps/spack/cpu/opt/spack/linux-centos8-zen2/gcc-10.2.0/qchem-5.4-akfmr7b3t57bfs6qan3padb2wnb2i7cl/config/preferences:
 Processing $rem in /home/theleonzhang/.qchemrc:
 Symmetry turned off for PCM/SM12/SMD calculation
 Core orbitals will be frozen

 Checking the input file for inconsistencies... 	...done.

--------------------------------------------------------------
User input:
--------------------------------------------------------------
$molecule
0 1
C	0.670924	-3.866725	0.388181
C	-0.530648	-3.703963	-0.306020
C	-0.923703	-2.357056	-0.533378
H	-1.128579	-4.561092	-0.651043
C	-0.000000	-1.440664	-0.000000
S	1.337567	-2.286957	0.772234
C	-2.183857	-1.978743	-1.261192
H	-2.742548	-2.878678	-1.583666
H	-1.970497	-1.376015	-2.168641
H	-2.863099	-1.375728	-0.623012
C	0.000000	0.000000	0.000000
C	0.075300	0.860311	1.099446
C	0.195935	2.238951	0.776721
H	0.043151	0.492916	2.136088
C	0.215188	2.458766	-0.612546
S	0.082160	0.938811	-1.486809
C	0.290762	3.322559	1.814609
H	0.253664	2.898542	2.836676
H	-0.541206	4.052140	1.726239
H	1.236797	3.896558	1.726228
H	0.297938	3.404370	-1.161575
H	1.417779	-4.392713	-0.216843
H	0.520136	-4.392347	1.337652
H	0.540100	-1.440937	-0.935250
$end

$rem
JOBTYPE		SP
EXCHANGE	HF
CORRELATION	pRIMP2
BASIS		cc-pvtz
METHOD		rimp2
AUX_BASIS	rimp2-cc-pvtz
SOLVENT_METHOD	PCM
PURECART	11111
SYMMETRY	false
MEM_TOTAL	110000
SCF_CONVERGENCE = 6
THRESH=10
$end



$solvent
dielectric 4.90
$end
--------------------------------------------------------------
 ----------------------------------------------------------------
             Standard Nuclear Orientation (Angstroms)
    I     Atom           X                Y                Z
 ----------------------------------------------------------------
    1      C       0.6709240000    -3.8667250000     0.3881810000
    2      C      -0.5306480000    -3.7039630000    -0.3060200000
    3      C      -0.9237030000    -2.3570560000    -0.5333780000
    4      H      -1.1285790000    -4.5610920000    -0.6510430000
    5      C       0.0000000000    -1.4406640000     0.0000000000
    6      S       1.3375670000    -2.2869570000     0.7722340000
    7      C      -2.1838570000    -1.9787430000    -1.2611920000
    8      H      -2.7425480000    -2.8786780000    -1.5836660000
    9      H      -1.9704970000    -1.3760150000    -2.1686410000
   10      H      -2.8630990000    -1.3757280000    -0.6230120000
   11      C       0.0000000000     0.0000000000     0.0000000000
   12      C       0.0753000000     0.8603110000     1.0994460000
   13      C       0.1959350000     2.2389510000     0.7767210000
   14      H       0.0431510000     0.4929160000     2.1360880000
   15      C       0.2151880000     2.4587660000    -0.6125460000
   16      S       0.0821600000     0.9388110000    -1.4868090000
   17      C       0.2907620000     3.3225590000     1.8146090000
   18      H       0.2536640000     2.8985420000     2.8366760000
   19      H      -0.5412060000     4.0521400000     1.7262390000
   20      H       1.2367970000     3.8965580000     1.7262280000
   21      H       0.2979380000     3.4043700000    -1.1615750000
   22      H       1.4177790000    -4.3927130000    -0.2168430000
   23      H       0.5201360000    -4.3923470000     1.3376520000
   24      H       0.5401000000    -1.4409370000    -0.9352500000
 ----------------------------------------------------------------
 Nuclear Repulsion Energy =         872.73791233 hartrees
 There are       52 alpha and       52 beta electrons

 Q-Chem warning in module forms1/BasisType.C, line 2236:

 You are not using the predefined 5D/6D in this basis set.

 Requested basis set is cc-pVTZ
 There are 196 shells and 536 basis functions

 Total QAlloc Memory Limit 110000 MB
 Mega-Array Size       188 MB
 MEM_STATIC part       192 MB
 Discretize the solute cavity surface with Lebedev spheres
	Using 110 Lebedev grid points for each H atom
	Using 194 Lebedev grid points for other atoms
	Atomic van der Waals radii will be scaled by 1.20
 Remove points where switching function is < 1.0e-08
 Keep 1616 surface tesserae and discard 2032 interior tesserae
 Molecular Surface Area = 237.291 Angst**2
 Requested basis set is rimp2-cc-pVTZ
 There are 414 shells and 1414 basis functions
 A cutoff of  1.0D-10 yielded  13843 shell pairs
 There are    100345 function pairs (    128734 Cartesian)
 Smallest overlap matrix eigenvalue = 5.89E-05

 Scale SEOQF with 1.000000e-01/1.000000e-01/1.000000e-01

 Standard Electronic Orientation quadrupole field applied
 Nucleus-field energy     =     0.0000000333 hartrees
 Guess from superposition of atomic densities
 Warning:  Energy on first SCF cycle will be non-variational
 SAD guess density has 104.000000 electrons

 -----------------------------------------------------------------------
  General SCF calculation program by
  Eric Jon Sundstrom, Paul Horn, Yuezhi Mao, Dmitri Zuev, Alec White,
  David Stuck, Shaama M.S., Shane Yost, Joonho Lee, David Small,
  Daniel Levine, Susi Lehtola, Hugh Burton, Evgeny Epifanovsky,
  Bang C. Huynh
 -----------------------------------------------------------------------
 Hartree-Fock
 A restricted SCF calculation will be
 performed using DIIS
 SCF converges when DIIS error is below 1.0e-06
 ---------------------------------------
  Cycle       Energy         DIIS error
 ---------------------------------------
    1   -1186.0226367257      2.39e-02  
    2   -1180.6150058257      1.57e-03  
    3   -1180.7398996896      6.22e-04  
    4   -1180.7545876980      3.39e-04  
    5   -1180.7598384242      6.05e-05  
    6   -1180.7600902223      2.48e-05  
    7   -1180.7601512232      9.13e-06  
    8   -1180.7601650429      4.44e-06  
    9   -1180.7601682017      1.46e-06  
   10   -1180.7601686742      4.96e-07  Convergence criterion met
 ---------------------------------------
 SCF time:   CPU 570.57s  wall 573.00s 

************** Final PCM Free Energy Summary **************
 G_electrostatic  =      -0.00830093 hartree =      -5.20891005 kcal/mol
 G_cavitation     =       0.00000000 hartree =       0.00000000 kcal/mol
 G_dispersion     =       0.00000000 hartree =       0.00000000 kcal/mol
 G_repulsion      =       0.00000000 hartree =       0.00000000 kcal/mol
 --------------------------------------------------
 Non-electrostatic Free Energy =       0.00000000 hartree =       0.00000000 kcal/mol
 Total                         =      -0.00830093 hartree =      -5.20891005 kcal/mol
 --------------------------------------------------
 SCF Energy (H0 + V/2)                       =   -1180.76016867 
 Solute Internal Energy (H0)                 =   -1180.75186775 
 Total Free Energy (H0 + V/2 + non-elec)     =   -1180.76016867 hartree
                                             = -740938.18882262 kcal/mol
***********************************************************

 SCF   energy in the final basis set =    -1180.7601686742
 Total energy in the final basis set =    -1180.7601686742


 --------------------------------------------------------------
  Generalized many-body perturbation theory program
  by Joonho Lee, Fazle Rob, Xintian Feng, Evgeny Epifanovsky

 No regularization used 
 (reg. param. = 0.0000e+00)
  (P|Q)^-1/2 Time:  CPU 1.90 s  wall 1.90 s

 In RI-MP2 calculation: 
 # of frozen core orbitals: 20

 Components of the RIMP2 correlation energy:
        aaaa    correlation energy =        -0.2509363671 a.u.
        abab    correlation energy =        -1.5022616126 a.u.
        bbbb    correlation energy =        -0.2509363671 a.u.
        non-Brillouin singles      =        -0.0000000000 a.u.
        total same-spin energy     =        -0.5018727342 a.u.
        total opposite-spin energy =        -1.5022616126 a.u.

 Total  RIMP2   correlation energy =        -2.0041343468 a.u.
        RIMP2         total energy =     -1182.7643030210 a.u.

 RI-MP2 Energy Time:  CPU 79.06 s  wall 79.32 s
 
 --------------------------------------------------------------
 
                    Orbital Energies (a.u.)
 --------------------------------------------------------------
 
 Alpha MOs
 -- Occupied --
-91.9852 -91.9430 -11.2820 -11.2630 -11.2628 -11.2565 -11.2508 -11.2413
-11.2370 -11.2317 -11.2284 -11.2198  -8.9850  -8.9475  -6.6659  -6.6654
 -6.6648  -6.6289  -6.6279  -6.6266  -1.1992  -1.1534  -1.0594  -1.0260
 -1.0045  -0.9609  -0.9141  -0.9004  -0.8132  -0.7675  -0.7329  -0.7039
 -0.6548  -0.6370  -0.6107  -0.5901  -0.5764  -0.5739  -0.5692  -0.5536
 -0.5424  -0.5316  -0.5134  -0.5059  -0.4892  -0.4841  -0.4627  -0.4475
 -0.3558  -0.3427  -0.3177  -0.2762
 -- Virtual --
  0.0961   0.1317   0.1436   0.1485   0.1600   0.1669   0.1808   0.1840
  0.1880   0.1978   0.2029   0.2134   0.2186   0.2346   0.2402   0.2445
  0.2508   0.2593   0.2703   0.2936   0.3096   0.3368   0.3421   0.3539
  0.3648   0.3736   0.3782   0.3888   0.3967   0.4084   0.4114   0.4279
  0.4378   0.4479   0.4552   0.4631   0.4668   0.4740   0.4829   0.4948
  0.4985   0.5099   0.5205   0.5285   0.5383   0.5423   0.5490   0.5596
  0.5604   0.5767   0.5826   0.5894   0.6033   0.6088   0.6107   0.6203
  0.6215   0.6246   0.6324   0.6345   0.6398   0.6420   0.6512   0.6581
  0.6680   0.6742   0.6807   0.6866   0.6960   0.7046   0.7123   0.7189
  0.7299   0.7484   0.7582   0.7752   0.7830   0.8023   0.8059   0.8239
  0.8263   0.8348   0.8472   0.8567   0.8696   0.8852   0.9003   0.9074
  0.9271   0.9440   0.9531   0.9665   0.9802   0.9953   0.9987   1.0083
  1.0151   1.0318   1.0344   1.0445   1.0584   1.0698   1.0779   1.0861
  1.0896   1.0991   1.1080   1.1144   1.1287   1.1327   1.1569   1.1652
  1.1789   1.1832   1.1928   1.2087   1.2181   1.2236   1.2391   1.2452
  1.2568   1.2620   1.2660   1.2783   1.2896   1.2944   1.3016   1.3209
  1.3330   1.3366   1.3494   1.3569   1.3790   1.3934   1.4058   1.4158
  1.4227   1.4314   1.4494   1.4580   1.4628   1.4803   1.4853   1.4947
  1.5015   1.5138   1.5216   1.5262   1.5321   1.5371   1.5454   1.5557
  1.5706   1.5790   1.5878   1.5903   1.6073   1.6251   1.6281   1.6396
  1.6499   1.6601   1.6698   1.6917   1.6989   1.7134   1.7260   1.7335
  1.7421   1.7552   1.7740   1.7861   1.8074   1.8365   1.8387   1.8479
  1.8845   1.9083   1.9221   1.9326   1.9604   1.9699   1.9938   2.0089
  2.0172   2.0190   2.0297   2.0465   2.0844   2.1045   2.1302   2.1619
  2.1799   2.1905   2.2121   2.2244   2.2410   2.2603   2.2693   2.2843
  2.3045   2.3301   2.3470   2.3696   2.4004   2.4287   2.4445   2.4621
  2.4881   2.5170   2.5337   2.5386   2.5674   2.5898   2.6050   2.6114
  2.6297   2.6487   2.6575   2.6600   2.6823   2.6897   2.6965   2.7150
  2.7335   2.7430   2.7575   2.7592   2.7728   2.7807   2.7928   2.8280
  2.8396   2.8452   2.8578   2.8817   2.8892   2.9000   2.9052   2.9165
  2.9317   2.9580   2.9705   2.9857   3.0098   3.0162   3.0357   3.0412
  3.0430   3.0673   3.0891   3.1047   3.1122   3.1191   3.1331   3.1413
  3.1469   3.1544   3.1673   3.1753   3.1863   3.1963   3.1981   3.2246
  3.2306   3.2401   3.2476   3.2656   3.2774   3.2865   3.2954   3.3024
  3.3081   3.3186   3.3251   3.3366   3.3452   3.3553   3.3613   3.3689
  3.3771   3.3865   3.3894   3.4008   3.4070   3.4188   3.4278   3.4318
  3.4452   3.4510   3.4623   3.4715   3.4806   3.4872   3.4928   3.5137
  3.5194   3.5238   3.5306   3.5354   3.5419   3.5565   3.5705   3.5748
  3.5854   3.6041   3.6064   3.6248   3.6304   3.6381   3.6516   3.6551
  3.6657   3.6788   3.6938   3.7019   3.7098   3.7159   3.7320   3.7395
  3.7455   3.7555   3.7710   3.7755   3.7878   3.7930   3.8013   3.8210
  3.8286   3.8348   3.8502   3.8668   3.8874   3.8937   3.9017   3.9082
  3.9154   3.9302   3.9463   3.9615   3.9723   3.9892   3.9985   4.0059
  4.0141   4.0482   4.0516   4.0562   4.0659   4.0825   4.0931   4.1097
  4.1164   4.1422   4.1471   4.1538   4.1601   4.1708   4.1753   4.2002
  4.2145   4.2186   4.2292   4.2349   4.2527   4.2674   4.2751   4.2777
  4.2854   4.3046   4.3090   4.3235   4.3427   4.3582   4.3660   4.3713
  4.3760   4.3916   4.3998   4.4066   4.4120   4.4180   4.4376   4.4426
  4.4566   4.4723   4.4749   4.4819   4.4928   4.5058   4.5305   4.5681
  4.5731   4.5831   4.6043   4.6235   4.6328   4.6430   4.6622   4.6717
  4.6882   4.7019   4.7380   4.7561   4.7782   4.8051   4.8092   4.8332
  4.8579   4.8709   4.8909   4.9041   4.9400   4.9482   4.9688   4.9888
  5.0215   5.0582   5.0914   5.1062   5.1115   5.1325   5.1535   5.1720
  5.2002   5.2205   5.2412   5.2696   5.2742   5.2860   5.3118   5.3154
  5.3516   5.3724   5.3857   5.3950   5.4147   5.4206   5.4422   5.4507
  5.4721   5.5155   5.5267   5.5451   5.5523   5.5613   5.5769   5.5811
  5.6146   5.6247   5.6443   5.6521   5.6750   5.7030   5.7038   5.7483
  5.7581   5.7863   5.8341   5.9568   5.9950   6.0752   6.1299   6.1482
  6.2103   6.2206   6.2273   6.2436   6.2678   6.2846   6.3048   6.3259
  6.3812   6.5187   9.5405  10.6893  11.9798  12.9499  13.1952  13.9650
 14.0757  14.2243  14.4004  14.6928
 --------------------------------------------------------------
 
          Ground-State Mulliken Net Atomic Charges

     Atom                 Charge (a.u.)
  ----------------------------------------
      1 C                    -0.077492
      2 C                    -0.324945
      3 C                    -0.048485
      4 H                     0.176636
      5 C                     0.130794
      6 S                    -0.175142
      7 C                    -0.268627
      8 H                     0.114125
      9 H                     0.100281
     10 H                     0.109601
     11 C                    -0.107369
     12 C                    -0.243603
     13 C                     0.026889
     14 H                     0.187158
     15 C                    -0.247909
     16 S                     0.011585
     17 C                    -0.272604
     18 H                     0.103028
     19 H                     0.107920
     20 H                     0.108387
     21 H                     0.197833
     22 H                     0.111592
     23 H                     0.111554
     24 H                     0.168795
  ----------------------------------------
  Sum of atomic charges =     0.000000

 -----------------------------------------------------------------
                    Cartesian Multipole Moments
 -----------------------------------------------------------------
    Charge (ESU x 10^10)
                -0.0000
    Dipole Moment (Debye)
         X      -1.5495      Y       0.4631      Z      -0.3989
       Tot       1.6657
    Quadrupole Moments (Debye-Ang)
        XX     -91.3391     XY       3.2612     YY     -73.5666
        XZ       0.0617     YZ       4.0304     ZZ     -86.1739
    Octopole Moments (Debye-Ang^2)
       XXX     -21.9801    XXY      40.7288    XYY      -0.6228
       YYY     124.1411    XXZ      -4.3602    XYZ      -2.1075
       YYZ      -4.9677    XZZ      -6.4400    YZZ      55.4204
       ZZZ       5.7956
    Hexadecapole Moments (Debye-Ang^3)
      XXXX    -570.3591   XXXY     -23.5782   XXYY    -599.6998
      XYYY     -35.6251   YYYY   -2777.4018   XXXZ    -126.6555
      XXYZ     -15.2643   XYYZ     -32.8916   YYYZ    -107.0262
      XXZZ    -215.3685   XYZZ      -4.2266   YYZZ    -614.5580
      XZZZ    -135.6994   YZZZ     -95.2398   ZZZZ    -685.7943
 -----------------------------------------------------------------
 Total job time:  653.83s(wall), 650.51s(cpu) 
 Sun Jul 10 06:08:53 2022

        *************************************************************
        *                                                           *
        *  Thank you very much for using Q-Chem.  Have a nice day.  *
        *                                                           *
        *************************************************************


remove work dirs ./qchem2094217.0 -- ./qchem2094217.-1
rm -rf ./qchem2094217
