You are running Q-Chem version: 5.4.0

#
# job setting
#
local host:  exp-2-30
current dir: /expanse/lustre/scratch/theleonzhang/temp_project/Hydrogenated_Rotation_Test
input file:  Methylthiophene_Phi_30_Theta_110_Methylthiophene_Hydrogenated_Alternate.qcin
output file: 
nprocs     : 0
nthreads   : 1
#
# qchem installation setting
#
QC:          /cm/shared/apps/spack/cpu/opt/spack/linux-centos8-zen2/gcc-10.2.0/qchem-5.4-akfmr7b3t57bfs6qan3padb2wnb2i7cl
QCAUX:       /cm/shared/apps/spack/cpu/opt/spack/linux-centos8-zen2/gcc-10.2.0/qchem-5.4-akfmr7b3t57bfs6qan3padb2wnb2i7cl/qcaux
QCPROG:      /cm/shared/apps/spack/cpu/opt/spack/linux-centos8-zen2/gcc-10.2.0/qchem-5.4-akfmr7b3t57bfs6qan3padb2wnb2i7cl/exe/qcprog.exe_s
QCPROG_S:    /cm/shared/apps/spack/cpu/opt/spack/linux-centos8-zen2/gcc-10.2.0/qchem-5.4-akfmr7b3t57bfs6qan3padb2wnb2i7cl/exe/qcprog.exe_s
PARALLEL:    -DSERIAL
QCMPI:       mpich
#
# qchem directory setting
#
qcrun:       qchem264662
QCSCRATCH:   .
QCLOCALSCR:  
QCTMPDIR:    .
QCFILEPREF:  ./qchem264662
QCSAVEDIR:   
workdirs:    ./qchem264662
workdir0:    ./qchem264662
partmpdirs =  
#
# parallel setting
#
QCRSH:           ssh
QCMPI:           mpich
QCMPIRUN:        /cm/shared/apps/spack/cpu/opt/spack/linux-centos8-zen2/gcc-10.2.0/qchem-5.4-akfmr7b3t57bfs6qan3padb2wnb2i7cl/bin/mpi/mpirun_qchem
QCMACHINEFILE:   ./qchem264662/hostfile

#
# env setting
#
exported envs:   QC QCAUX QCSCRATCH QCRUNNAME QCFILEPREF QCPROG QCPROG_S GUIFILE

Running Job 1 of 1 Methylthiophene_Phi_30_Theta_110_Methylthiophene_Hydrogenated_Alternate.qcin
qchem Methylthiophene_Phi_30_Theta_110_Methylthiophene_Hydrogenated_Alternate.qcin_264662.0 ./qchem264662/ 0
/cm/shared/apps/spack/cpu/opt/spack/linux-centos8-zen2/gcc-10.2.0/qchem-5.4-akfmr7b3t57bfs6qan3padb2wnb2i7cl/exe/qcprog.exe_s Methylthiophene_Phi_30_Theta_110_Methylthiophene_Hydrogenated_Alternate.qcin_264662.0 ./qchem264662/
                  Welcome to Q-Chem
     A Quantum Leap Into The Future Of Chemistry


 Q-Chem 5.4, Q-Chem, Inc., Pleasanton, CA (2021)

 License issued to: University of California, San Diego (site)

 E. Epifanovsky,  A. T. B. Gilbert,  Xintian Feng,  Joonho Lee,  Yuezhi Mao,  
 N. Mardirossian,  P. Pokhilko,  A. White,  M. Wormit,  M. P. Coons,  
 A. L. Dempwolff,  Zhengting Gan,  D. Hait,  P. R. Horn,  L. D. Jacobson,  
 I. Kaliman,  J. Kussmann,  A. W. Lange,  Ka Un Lao,  D. S. Levine,  Jie Liu,  
 S. C. McKenzie,  A. F. Morrison,  K. Nanda,  F. Plasser,  D. R. Rehn,  
 M. L. Vidal,  Zhi-Qiang You,  Ying Zhu,  B. Alam,  B. Albrecht,  
 A. Aldossary,  E. Alguire,  J. H. Andersen,  D. Barton,  K. Begam,  A. Behn,  
 Y. A. Bernard,  E. J. Berquist,  H. Burton,  A. Carreras,  K. Carter-Fenk,  
 R. Chakraborty,  A. D. Chien,  K. D. Closser,  V. Cofer-Shabica,  
 S. Dasgupta,  Jia Deng,  M. de Wergifosse,  M. Diedenhofen,  Hainam Do,  
 S. Ehlert,  Po-Tung Fang,  S. Fatehi,  Qingguo Feng,  J. Gayvert,  
 Qinghui Ge,  G. Gidofalvi,  M. Goldey,  J. Gomes,  C. Gonzalez-Espinoza,  
 S. Gulania,  A. Gunina,  M. W. D. Hanson-Heine,  P. H. P. Harbach,  
 A. W. Hauser,  M. F. Herbst,  M. Hernandez Vera,  M. Hodecker,  
 Z. C. Holden,  S. Houck,  Xunkun Huang,  Kerwin Hui,  B. C. Huynh,  
 M. Ivanov,  Hyunjun Ji,  Hanjie Jiang,  B. Kaduk,  S. Kaehler,  
 K. Khistyaev,  Jaehoon Kim,  P. Klunzinger,  Z. Koczor-Benda,  
 Joong Hoon Koh,  D. Kosenkov,  L. Koulias,  T. Kowalczyk,  C. M. Krauter,  
 K. Kue,  A. Kunitsa,  T. Kus,  A. Landau,  K. V. Lawler,  D. Lefrancois,  
 S. Lehtola,  Rain Li,  Yi-Pei Li,  Jiashu Liang,  M. Liebenthal,  
 Hung-Hsuan Lin,  You-Sheng Lin,  Fenglai Liu,  Kuan-Yu Liu,  
 M. Loipersberger,  A. Luenser,  A. Manjanath,  P. Manohar,  E. Mansoor,  
 S. F. Manzer,  Shan-Ping Mao,  A. V. Marenich,  T. Markovich,  S. Mason,  
 S. A. Maurer,  P. F. McLaughlin,  M. F. S. J. Menger,  J.-M. Mewes,  
 S. A. Mewes,  P. Morgante,  J. W. Mullinax,  T. S. Nguyen-Beck,  
 K. J. Oosterbaan,  G. Paran,  Alexander C. Paul,  Suranjan K. Paul,  
 F. Pavosevic,  Zheng Pei,  S. Prager,  E. I. Proynov,  E. Ramos,  B. Rana,  
 A. E. Rask,  A. Rettig,  R. M. Richard,  F. Rob,  E. Rossomme,  T. Scheele,  
 M. Scheurer,  M. Schneider,  N. Sergueev,  S. M. Sharada,  W. Skomorowski,  
 D. W. Small,  C. J. Stein,  Yu-Chuan Su,  E. J. Sundstrom,  Zhen Tao,  
 J. Thirman,  T. Tsuchimochi,  N. M. Tubman,  S. P. Veccham,  O. Vydrov,  
 J. Wenzel,  J. Witte,  A. Yamada,  Kun Yao,  S. Yeganeh,  S. R. Yost,  
 A. Zech,  Igor Ying Zhang,  Xing Zhang,  Yu Zhang,  D. Zuev,  
 A. Aspuru-Guzik,  A. T. Bell,  N. A. Besley,  K. B. Bravaya,  B. R. Brooks,  
 D. Casanova,  Jeng-Da Chai,  S. Coriani,  C. J. Cramer,  
 A. E. DePrince, III,  R. A. DiStasio Jr.,  A. Dreuw,  B. D. Dunietz,  
 T. R. Furlani,  W. A. Goddard III,  S. Grimme,  S. Hammes-Schiffer,  
 T. Head-Gordon,  W. J. Hehre,  Chao-Ping Hsu,  T.-C. Jagau,  Yousung Jung,  
 A. Klamt,  Jing Kong,  D. S. Lambrecht,  WanZhen Liang,  N. J. Mayhall,  
 C. W. McCurdy,  J. B. Neaton,  C. Ochsenfeld,  J. A. Parkhill,  R. Peverati,  
 V. A. Rassolov,  Yihan Shao,  L. V. Slipchenko,  T. Stauch,  R. P. Steele,  
 J. E. Subotnik,  A. J. W. Thom,  A. Tkatchenko,  D. G. Truhlar,  
 T. Van Voorhis,  T. A. Wesolowski,  K. B. Whaley,  H. L. Woodcock III,  
 P. M. Zimmerman,  S. Faraji,  P. M. W. Gill,  M. Head-Gordon,  
 J. M. Herbert,  A. I. Krylov

 Contributors to earlier versions of Q-Chem not listed above: 
 R. D. Adamson,  B. Austin,  R. Baer,  J. Baker,  G. J. O. Beran,  
 K. Brandhorst,  S. T. Brown,  E. F. C. Byrd,  A. K. Chakraborty,  
 G. K. L. Chan,  Chun-Min Chang,  Yunqing Chen,  C.-L. Cheng,  
 Siu Hung Chien,  D. M. Chipman,  D. L. Crittenden,  H. Dachsel,  
 R. J. Doerksen,  A. D. Dutoi,  R. G. Edgar,  J. Fosso-Tande,  
 L. Fusti-Molnar,  D. Ghosh,  A. Ghysels,  A. Golubeva-Zadorozhnaya,  
 J. Gonthier,  M. S. Gordon,  S. R. Gwaltney,  G. Hawkins,  J. E. Herr,  
 A. Heyden,  S. Hirata,  E. G. Hohenstein,  G. Kedziora,  F. J. Keil,  
 C. Kelley,  Jihan Kim,  R. A. King,  R. Z. Khaliullin,  P. P. Korambath,  
 W. Kurlancheek,  A. Laurent,  A. M. Lee,  M. S. Lee,  S. V. Levchenko,  
 Ching Yeh Lin,  D. Liotard,  E. Livshits,  R. C. Lochan,  I. Lotan,  
 L. A. Martinez-Martinez,  P. E. Maslen,  N. Nair,  D. P. O'Neill,  
 D. Neuhauser,  E. Neuscamman,  C. M. Oana,  R. Olivares-Amaya,  R. Olson,  
 T. M. Perrine,  B. Peters,  P. A. Pieniazek,  A. Prociuk,  Y. M. Rhee,  
 J. Ritchie,  M. A. Rohrdanz,  E. Rosta,  N. J. Russ,  H. F. Schaefer III,  
 M. W. Schmidt,  N. E. Schultz,  S. Sharma,  N. Shenvi,  C. D. Sherrill,  
 A. C. Simmonett,  A. Sodt,  T. Stein,  D. Stuck,  K. S. Thanthiriwatte,  
 V. Vanovschi,  L. Vogt,  Tao Wang,  A. Warshel,  M. A. Watson,  
 C. F. Williams,  Q. Wu,  X. Xu,  Jun Yang,  W. Zhang,  Yan Zhao

 Please cite Q-Chem as follows:
 Y. Shao et al., Mol. Phys. 113, 184-215 (2015)
 DOI: 10.1080/00268976.2014.952696

 Q-Chem 5.4.0 for Intel X86 EM64T Linux

 Parts of Q-Chem use Armadillo 9.800.1 (Horizon Scraper).
 http://arma.sourceforge.net/

 Q-Chem begins on Sun Jul 10 02:10:50 2022  

 Host: 
0

     Scratch files written to ./qchem264662//
 May1621 |scratch|qcdevops|jenkins|workspace|build_RNUM    
 Processing $rem in /cm/shared/apps/spack/cpu/opt/spack/linux-centos8-zen2/gcc-10.2.0/qchem-5.4-akfmr7b3t57bfs6qan3padb2wnb2i7cl/config/preferences:
 Processing $rem in /home/theleonzhang/.qchemrc:
 Symmetry turned off for PCM/SM12/SMD calculation
 Core orbitals will be frozen

 Checking the input file for inconsistencies... 	...done.

--------------------------------------------------------------
User input:
--------------------------------------------------------------
$molecule
0 1
C	-0.728138	-3.866725	-0.265779
C	0.575726	-3.703963	0.209225
C	1.002290	-2.357056	0.364875
H	1.224486	-4.561092	0.445176
C	-0.000000	-1.440664	-0.000000
S	-1.451343	-2.286957	-0.528236
C	2.369683	-1.978743	0.862808
H	2.975883	-2.878678	1.083368
H	2.317142	-1.376015	1.793522
H	2.927787	-1.375728	0.116375
C	0.000000	0.000000	0.000000
C	0.431829	0.747884	1.099446
C	1.123799	1.946373	0.776721
H	0.247423	0.428497	2.136088
C	1.234147	2.137457	-0.612546
S	0.471221	0.816130	-1.486809
C	1.667694	2.888380	1.814609
H	1.454874	2.519768	2.836676
H	1.222009	3.901210	1.726239
H	2.767675	3.008788	1.726228
H	1.708773	2.959493	-1.161575
H	-1.358585	-4.392713	0.459743
H	-0.744515	-4.392347	-1.227009
H	0.369490	-1.440391	-1.014829
$end

$rem
JOBTYPE		SP
EXCHANGE	HF
CORRELATION	pRIMP2
BASIS		cc-pvtz
METHOD		rimp2
AUX_BASIS	rimp2-cc-pvtz
SOLVENT_METHOD	PCM
PURECART	11111
SYMMETRY	false
MEM_TOTAL	110000
SCF_CONVERGENCE = 6
THRESH=10
$end



$solvent
dielectric 4.90
$end
--------------------------------------------------------------
 ----------------------------------------------------------------
             Standard Nuclear Orientation (Angstroms)
    I     Atom           X                Y                Z
 ----------------------------------------------------------------
    1      C      -0.7281380000    -3.8667250000    -0.2657790000
    2      C       0.5757260000    -3.7039630000     0.2092250000
    3      C       1.0022900000    -2.3570560000     0.3648750000
    4      H       1.2244860000    -4.5610920000     0.4451760000
    5      C       0.0000000000    -1.4406640000     0.0000000000
    6      S      -1.4513430000    -2.2869570000    -0.5282360000
    7      C       2.3696830000    -1.9787430000     0.8628080000
    8      H       2.9758830000    -2.8786780000     1.0833680000
    9      H       2.3171420000    -1.3760150000     1.7935220000
   10      H       2.9277870000    -1.3757280000     0.1163750000
   11      C       0.0000000000     0.0000000000     0.0000000000
   12      C       0.4318290000     0.7478840000     1.0994460000
   13      C       1.1237990000     1.9463730000     0.7767210000
   14      H       0.2474230000     0.4284970000     2.1360880000
   15      C       1.2341470000     2.1374570000    -0.6125460000
   16      S       0.4712210000     0.8161300000    -1.4868090000
   17      C       1.6676940000     2.8883800000     1.8146090000
   18      H       1.4548740000     2.5197680000     2.8366760000
   19      H       1.2220090000     3.9012100000     1.7262390000
   20      H       2.7676750000     3.0087880000     1.7262280000
   21      H       1.7087730000     2.9594930000    -1.1615750000
   22      H      -1.3585850000    -4.3927130000     0.4597430000
   23      H      -0.7445150000    -4.3923470000    -1.2270090000
   24      H       0.3694900000    -1.4403910000    -1.0148290000
 ----------------------------------------------------------------
 Nuclear Repulsion Energy =         880.23478769 hartrees
 There are       52 alpha and       52 beta electrons

 Q-Chem warning in module forms1/BasisType.C, line 2236:

 You are not using the predefined 5D/6D in this basis set.

 Requested basis set is cc-pVTZ
 There are 196 shells and 536 basis functions

 Total QAlloc Memory Limit 110000 MB
 Mega-Array Size       188 MB
 MEM_STATIC part       192 MB
 Discretize the solute cavity surface with Lebedev spheres
	Using 110 Lebedev grid points for each H atom
	Using 194 Lebedev grid points for other atoms
	Atomic van der Waals radii will be scaled by 1.20
 Remove points where switching function is < 1.0e-08
 Keep 1600 surface tesserae and discard 2048 interior tesserae
 Molecular Surface Area = 235.821 Angst**2
 Requested basis set is rimp2-cc-pVTZ
 There are 414 shells and 1414 basis functions
 A cutoff of  1.0D-10 yielded  14324 shell pairs
 There are    103998 function pairs (    133384 Cartesian)
 Smallest overlap matrix eigenvalue = 6.28E-05

 Scale SEOQF with 1.000000e-01/1.000000e-01/1.000000e-01

 Standard Electronic Orientation quadrupole field applied
 Nucleus-field energy     =     0.0000000337 hartrees
 Guess from superposition of atomic densities
 Warning:  Energy on first SCF cycle will be non-variational
 SAD guess density has 104.000000 electrons

 -----------------------------------------------------------------------
  General SCF calculation program by
  Eric Jon Sundstrom, Paul Horn, Yuezhi Mao, Dmitri Zuev, Alec White,
  David Stuck, Shaama M.S., Shane Yost, Joonho Lee, David Small,
  Daniel Levine, Susi Lehtola, Hugh Burton, Evgeny Epifanovsky,
  Bang C. Huynh
 -----------------------------------------------------------------------
 Hartree-Fock
 A restricted SCF calculation will be
 performed using DIIS
 SCF converges when DIIS error is below 1.0e-06
 ---------------------------------------
  Cycle       Energy         DIIS error
 ---------------------------------------
    1   -1186.0583380549      2.39e-02  
    2   -1180.5963747660      1.55e-03  
    3   -1180.7217274926      5.78e-04  
    4   -1180.7354095351      3.15e-04  
    5   -1180.7399763432      6.06e-05  
    6   -1180.7402302836      2.48e-05  
    7   -1180.7402934471      9.82e-06  
    8   -1180.7403088214      4.61e-06  
    9   -1180.7403124711      1.64e-06  
   10   -1180.7403130466      5.56e-07  Convergence criterion met
 ---------------------------------------
 SCF time:   CPU 582.03s  wall 584.00s 

************** Final PCM Free Energy Summary **************
 G_electrostatic  =      -0.00917759 hartree =      -5.75902452 kcal/mol
 G_cavitation     =       0.00000000 hartree =       0.00000000 kcal/mol
 G_dispersion     =       0.00000000 hartree =       0.00000000 kcal/mol
 G_repulsion      =       0.00000000 hartree =       0.00000000 kcal/mol
 --------------------------------------------------
 Non-electrostatic Free Energy =       0.00000000 hartree =       0.00000000 kcal/mol
 Total                         =      -0.00917759 hartree =      -5.75902452 kcal/mol
 --------------------------------------------------
 SCF Energy (H0 + V/2)                       =   -1180.74031305 
 Solute Internal Energy (H0)                 =   -1180.73113546 
 Total Free Energy (H0 + V/2 + non-elec)     =   -1180.74031305 hartree
                                             = -740925.72922823 kcal/mol
***********************************************************

 SCF   energy in the final basis set =    -1180.7403130466
 Total energy in the final basis set =    -1180.7403130466


 --------------------------------------------------------------
  Generalized many-body perturbation theory program
  by Joonho Lee, Fazle Rob, Xintian Feng, Evgeny Epifanovsky

 No regularization used 
 (reg. param. = 0.0000e+00)
  (P|Q)^-1/2 Time:  CPU 1.89 s  wall 1.90 s

 In RI-MP2 calculation: 
 # of frozen core orbitals: 20

 Components of the RIMP2 correlation energy:
        aaaa    correlation energy =        -0.2519092223 a.u.
        abab    correlation energy =        -1.5056009923 a.u.
        bbbb    correlation energy =        -0.2519092223 a.u.
        non-Brillouin singles      =        -0.0000000000 a.u.
        total same-spin energy     =        -0.5038184445 a.u.
        total opposite-spin energy =        -1.5056009923 a.u.

 Total  RIMP2   correlation energy =        -2.0094194368 a.u.
        RIMP2         total energy =     -1182.7497324834 a.u.

 RI-MP2 Energy Time:  CPU 80.24 s  wall 80.50 s
 
 --------------------------------------------------------------
 
                    Orbital Energies (a.u.)
 --------------------------------------------------------------
 
 Alpha MOs
 -- Occupied --
-91.9833 -91.9371 -11.2733 -11.2707 -11.2619 -11.2525 -11.2514 -11.2444
-11.2390 -11.2308 -11.2297 -11.2181  -8.9836  -8.9420  -6.6645  -6.6638
 -6.6632  -6.6234  -6.6224  -6.6211  -1.1995  -1.1538  -1.0590  -1.0258
 -1.0015  -0.9648  -0.9120  -0.9005  -0.8098  -0.7605  -0.7460  -0.7048
 -0.6518  -0.6332  -0.6119  -0.5876  -0.5763  -0.5734  -0.5691  -0.5544
 -0.5437  -0.5292  -0.5186  -0.5058  -0.4889  -0.4722  -0.4636  -0.4457
 -0.3540  -0.3436  -0.3166  -0.2745
 -- Virtual --
  0.0836   0.1334   0.1347   0.1533   0.1594   0.1684   0.1784   0.1848
  0.1884   0.1897   0.2052   0.2088   0.2322   0.2372   0.2435   0.2457
  0.2472   0.2531   0.2668   0.2897   0.3095   0.3388   0.3458   0.3487
  0.3660   0.3719   0.3859   0.3943   0.3983   0.4041   0.4127   0.4183
  0.4308   0.4404   0.4425   0.4610   0.4695   0.4764   0.4818   0.4929
  0.5006   0.5042   0.5159   0.5279   0.5324   0.5423   0.5516   0.5603
  0.5618   0.5755   0.5827   0.5906   0.5988   0.6031   0.6160   0.6201
  0.6219   0.6247   0.6291   0.6413   0.6434   0.6503   0.6560   0.6583
  0.6637   0.6708   0.6794   0.6905   0.6941   0.7013   0.7231   0.7318
  0.7376   0.7526   0.7614   0.7706   0.7779   0.7806   0.7955   0.8142
  0.8258   0.8413   0.8516   0.8668   0.8743   0.8863   0.9018   0.9087
  0.9295   0.9348   0.9530   0.9676   0.9783   0.9950   1.0071   1.0092
  1.0131   1.0294   1.0397   1.0461   1.0491   1.0603   1.0678   1.0807
  1.0870   1.0943   1.1143   1.1264   1.1303   1.1577   1.1685   1.1814
  1.1893   1.1945   1.1996   1.2042   1.2202   1.2261   1.2285   1.2388
  1.2503   1.2596   1.2709   1.2752   1.2836   1.2877   1.3037   1.3164
  1.3241   1.3333   1.3508   1.3576   1.3762   1.3962   1.4092   1.4171
  1.4277   1.4412   1.4507   1.4648   1.4672   1.4844   1.4858   1.4981
  1.5040   1.5164   1.5235   1.5337   1.5425   1.5458   1.5537   1.5571
  1.5647   1.5780   1.5825   1.5976   1.6124   1.6252   1.6310   1.6376
  1.6579   1.6702   1.6867   1.6956   1.6987   1.7102   1.7216   1.7330
  1.7480   1.7594   1.7666   1.7698   1.8096   1.8156   1.8482   1.8754
  1.8812   1.9048   1.9158   1.9365   1.9614   1.9711   1.9811   2.0026
  2.0215   2.0274   2.0368   2.0692   2.0883   2.1151   2.1274   2.1649
  2.1847   2.1893   2.2047   2.2186   2.2326   2.2391   2.2648   2.2785
  2.3107   2.3358   2.3405   2.3787   2.4041   2.4181   2.4491   2.4656
  2.4990   2.5192   2.5308   2.5412   2.5682   2.6020   2.6139   2.6190
  2.6396   2.6477   2.6603   2.6681   2.6743   2.6751   2.7019   2.7272
  2.7360   2.7582   2.7646   2.7734   2.7826   2.7921   2.8032   2.8237
  2.8418   2.8581   2.8699   2.8867   2.8945   2.9050   2.9174   2.9241
  2.9448   2.9513   2.9705   2.9935   3.0038   3.0146   3.0329   3.0402
  3.0584   3.0669   3.0881   3.1070   3.1127   3.1141   3.1267   3.1288
  3.1458   3.1522   3.1588   3.1687   3.1895   3.1939   3.2156   3.2271
  3.2301   3.2389   3.2649   3.2705   3.2789   3.2956   3.3004   3.3059
  3.3097   3.3230   3.3281   3.3413   3.3440   3.3495   3.3541   3.3664
  3.3731   3.3813   3.3964   3.4003   3.4084   3.4158   3.4281   3.4360
  3.4456   3.4484   3.4538   3.4711   3.4796   3.4852   3.5034   3.5072
  3.5168   3.5306   3.5402   3.5468   3.5574   3.5659   3.5749   3.5802
  3.6059   3.6133   3.6205   3.6324   3.6361   3.6418   3.6492   3.6642
  3.6776   3.6855   3.6956   3.6982   3.7187   3.7259   3.7370   3.7383
  3.7474   3.7607   3.7625   3.7688   3.7925   3.8011   3.8026   3.8245
  3.8303   3.8411   3.8512   3.8557   3.8774   3.8863   3.8933   3.9221
  3.9280   3.9478   3.9604   3.9738   3.9816   3.9881   3.9949   3.9983
  4.0355   4.0394   4.0569   4.0629   4.0874   4.0957   4.0999   4.1119
  4.1192   4.1304   4.1487   4.1682   4.1736   4.1856   4.1918   4.1995
  4.2112   4.2240   4.2255   4.2420   4.2600   4.2628   4.2750   4.2821
  4.2898   4.3084   4.3203   4.3286   4.3424   4.3514   4.3570   4.3721
  4.3871   4.3952   4.4035   4.4051   4.4149   4.4251   4.4331   4.4559
  4.4680   4.4719   4.4800   4.4865   4.4998   4.5209   4.5245   4.5442
  4.5821   4.5836   4.6077   4.6315   4.6356   4.6479   4.6588   4.6810
  4.6890   4.7176   4.7389   4.7630   4.7680   4.7979   4.8083   4.8419
  4.8637   4.8797   4.8815   4.8971   4.9406   4.9520   4.9758   4.9823
  5.0356   5.0566   5.0966   5.1123   5.1210   5.1321   5.1475   5.1674
  5.1881   5.2070   5.2323   5.2497   5.2818   5.2956   5.3042   5.3228
  5.3366   5.3694   5.3792   5.4045   5.4101   5.4253   5.4408   5.4473
  5.4605   5.5168   5.5182   5.5340   5.5503   5.5557   5.5737   5.5946
  5.6156   5.6248   5.6323   5.6698   5.6742   5.6996   5.7107   5.7413
  5.7640   5.7917   5.8240   5.9415   5.9974   6.0257   6.1179   6.1419
  6.1947   6.2246   6.2272   6.2367   6.2490   6.2925   6.3038   6.3141
  6.3871   6.4958   9.4336  10.4268  12.2043  12.8835  13.1655  13.9204
 14.0824  14.2245  14.3265  14.7493
 --------------------------------------------------------------
 
          Ground-State Mulliken Net Atomic Charges

     Atom                 Charge (a.u.)
  ----------------------------------------
      1 C                    -0.075587
      2 C                    -0.326760
      3 C                    -0.032677
      4 H                     0.176234
      5 C                     0.088132
      6 S                    -0.189417
      7 C                    -0.275261
      8 H                     0.116457
      9 H                     0.104481
     10 H                     0.108608
     11 C                    -0.064507
     12 C                    -0.276631
     13 C                     0.048148
     14 H                     0.191928
     15 C                    -0.236323
     16 S                     0.008304
     17 C                    -0.270935
     18 H                     0.102754
     19 H                     0.109309
     20 H                     0.106982
     21 H                     0.199941
     22 H                     0.110520
     23 H                     0.107982
     24 H                     0.168317
  ----------------------------------------
  Sum of atomic charges =     0.000000

 -----------------------------------------------------------------
                    Cartesian Multipole Moments
 -----------------------------------------------------------------
    Charge (ESU x 10^10)
                -0.0000
    Dipole Moment (Debye)
         X       3.7121      Y       0.8158      Z       1.7117
       Tot       4.1683
    Quadrupole Moments (Debye-Ang)
        XX     -89.3944     XY       0.7873     YY     -76.8107
        XZ       0.6184     YZ       0.8080     ZZ     -85.5760
    Octopole Moments (Debye-Ang^2)
       XXX     -99.5255    XXY      61.2764    XYY     -19.6493
       YYY     144.9340    XXZ       1.2319    XYZ      -3.3642
       YYZ      -5.4290    XZZ     -31.7622    YZZ      63.5622
       ZZZ       3.3297
    Hexadecapole Moments (Debye-Ang^3)
      XXXX    -891.5828   XXXY    -236.5785   XXYY    -589.9210
      XYYY    -179.6242   YYYY   -2602.2562   XXXZ    -134.8764
      XXYZ     -43.2548   XYYZ     -42.8712   YYYZ     -90.3947
      XXZZ    -250.9942   XYZZ     -62.0490   YYZZ    -570.3273
      XZZZ    -143.8403   YZZZ     -83.6008   ZZZZ    -603.8474
 -----------------------------------------------------------------
 Total job time:  666.98s(wall), 663.15s(cpu) 
 Sun Jul 10 02:21:57 2022

        *************************************************************
        *                                                           *
        *  Thank you very much for using Q-Chem.  Have a nice day.  *
        *                                                           *
        *************************************************************


remove work dirs ./qchem264662.0 -- ./qchem264662.-1
rm -rf ./qchem264662
You are running Q-Chem version: 5.4.0

#
# job setting
#
local host:  exp-5-13
current dir: /expanse/lustre/scratch/theleonzhang/temp_project/Hydrogenated_Rotation_Test
input file:  Methylthiophene_Phi_30_Theta_110_Methylthiophene_Hydrogenated_Alternate.qcin
output file: 
nprocs     : 0
nthreads   : 1
#
# qchem installation setting
#
QC:          /cm/shared/apps/spack/cpu/opt/spack/linux-centos8-zen2/gcc-10.2.0/qchem-5.4-akfmr7b3t57bfs6qan3padb2wnb2i7cl
QCAUX:       /cm/shared/apps/spack/cpu/opt/spack/linux-centos8-zen2/gcc-10.2.0/qchem-5.4-akfmr7b3t57bfs6qan3padb2wnb2i7cl/qcaux
QCPROG:      /cm/shared/apps/spack/cpu/opt/spack/linux-centos8-zen2/gcc-10.2.0/qchem-5.4-akfmr7b3t57bfs6qan3padb2wnb2i7cl/exe/qcprog.exe_s
QCPROG_S:    /cm/shared/apps/spack/cpu/opt/spack/linux-centos8-zen2/gcc-10.2.0/qchem-5.4-akfmr7b3t57bfs6qan3padb2wnb2i7cl/exe/qcprog.exe_s
PARALLEL:    -DSERIAL
QCMPI:       mpich
#
# qchem directory setting
#
qcrun:       qchem3807918
QCSCRATCH:   .
QCLOCALSCR:  
QCTMPDIR:    .
QCFILEPREF:  ./qchem3807918
QCSAVEDIR:   
workdirs:    ./qchem3807918
workdir0:    ./qchem3807918
partmpdirs =  
#
# parallel setting
#
QCRSH:           ssh
QCMPI:           mpich
QCMPIRUN:        /cm/shared/apps/spack/cpu/opt/spack/linux-centos8-zen2/gcc-10.2.0/qchem-5.4-akfmr7b3t57bfs6qan3padb2wnb2i7cl/bin/mpi/mpirun_qchem
QCMACHINEFILE:   ./qchem3807918/hostfile

#
# env setting
#
exported envs:   QC QCAUX QCSCRATCH QCRUNNAME QCFILEPREF QCPROG QCPROG_S GUIFILE

Running Job 1 of 1 Methylthiophene_Phi_30_Theta_110_Methylthiophene_Hydrogenated_Alternate.qcin
qchem Methylthiophene_Phi_30_Theta_110_Methylthiophene_Hydrogenated_Alternate.qcin_3807918.0 ./qchem3807918/ 0
/cm/shared/apps/spack/cpu/opt/spack/linux-centos8-zen2/gcc-10.2.0/qchem-5.4-akfmr7b3t57bfs6qan3padb2wnb2i7cl/exe/qcprog.exe_s Methylthiophene_Phi_30_Theta_110_Methylthiophene_Hydrogenated_Alternate.qcin_3807918.0 ./qchem3807918/
                  Welcome to Q-Chem
     A Quantum Leap Into The Future Of Chemistry


 Q-Chem 5.4, Q-Chem, Inc., Pleasanton, CA (2021)

 License issued to: University of California, San Diego (site)

 E. Epifanovsky,  A. T. B. Gilbert,  Xintian Feng,  Joonho Lee,  Yuezhi Mao,  
 N. Mardirossian,  P. Pokhilko,  A. White,  M. Wormit,  M. P. Coons,  
 A. L. Dempwolff,  Zhengting Gan,  D. Hait,  P. R. Horn,  L. D. Jacobson,  
 I. Kaliman,  J. Kussmann,  A. W. Lange,  Ka Un Lao,  D. S. Levine,  Jie Liu,  
 S. C. McKenzie,  A. F. Morrison,  K. Nanda,  F. Plasser,  D. R. Rehn,  
 M. L. Vidal,  Zhi-Qiang You,  Ying Zhu,  B. Alam,  B. Albrecht,  
 A. Aldossary,  E. Alguire,  J. H. Andersen,  D. Barton,  K. Begam,  A. Behn,  
 Y. A. Bernard,  E. J. Berquist,  H. Burton,  A. Carreras,  K. Carter-Fenk,  
 R. Chakraborty,  A. D. Chien,  K. D. Closser,  V. Cofer-Shabica,  
 S. Dasgupta,  Jia Deng,  M. de Wergifosse,  M. Diedenhofen,  Hainam Do,  
 S. Ehlert,  Po-Tung Fang,  S. Fatehi,  Qingguo Feng,  J. Gayvert,  
 Qinghui Ge,  G. Gidofalvi,  M. Goldey,  J. Gomes,  C. Gonzalez-Espinoza,  
 S. Gulania,  A. Gunina,  M. W. D. Hanson-Heine,  P. H. P. Harbach,  
 A. W. Hauser,  M. F. Herbst,  M. Hernandez Vera,  M. Hodecker,  
 Z. C. Holden,  S. Houck,  Xunkun Huang,  Kerwin Hui,  B. C. Huynh,  
 M. Ivanov,  Hyunjun Ji,  Hanjie Jiang,  B. Kaduk,  S. Kaehler,  
 K. Khistyaev,  Jaehoon Kim,  P. Klunzinger,  Z. Koczor-Benda,  
 Joong Hoon Koh,  D. Kosenkov,  L. Koulias,  T. Kowalczyk,  C. M. Krauter,  
 K. Kue,  A. Kunitsa,  T. Kus,  A. Landau,  K. V. Lawler,  D. Lefrancois,  
 S. Lehtola,  Rain Li,  Yi-Pei Li,  Jiashu Liang,  M. Liebenthal,  
 Hung-Hsuan Lin,  You-Sheng Lin,  Fenglai Liu,  Kuan-Yu Liu,  
 M. Loipersberger,  A. Luenser,  A. Manjanath,  P. Manohar,  E. Mansoor,  
 S. F. Manzer,  Shan-Ping Mao,  A. V. Marenich,  T. Markovich,  S. Mason,  
 S. A. Maurer,  P. F. McLaughlin,  M. F. S. J. Menger,  J.-M. Mewes,  
 S. A. Mewes,  P. Morgante,  J. W. Mullinax,  T. S. Nguyen-Beck,  
 K. J. Oosterbaan,  G. Paran,  Alexander C. Paul,  Suranjan K. Paul,  
 F. Pavosevic,  Zheng Pei,  S. Prager,  E. I. Proynov,  E. Ramos,  B. Rana,  
 A. E. Rask,  A. Rettig,  R. M. Richard,  F. Rob,  E. Rossomme,  T. Scheele,  
 M. Scheurer,  M. Schneider,  N. Sergueev,  S. M. Sharada,  W. Skomorowski,  
 D. W. Small,  C. J. Stein,  Yu-Chuan Su,  E. J. Sundstrom,  Zhen Tao,  
 J. Thirman,  T. Tsuchimochi,  N. M. Tubman,  S. P. Veccham,  O. Vydrov,  
 J. Wenzel,  J. Witte,  A. Yamada,  Kun Yao,  S. Yeganeh,  S. R. Yost,  
 A. Zech,  Igor Ying Zhang,  Xing Zhang,  Yu Zhang,  D. Zuev,  
 A. Aspuru-Guzik,  A. T. Bell,  N. A. Besley,  K. B. Bravaya,  B. R. Brooks,  
 D. Casanova,  Jeng-Da Chai,  S. Coriani,  C. J. Cramer,  
 A. E. DePrince, III,  R. A. DiStasio Jr.,  A. Dreuw,  B. D. Dunietz,  
 T. R. Furlani,  W. A. Goddard III,  S. Grimme,  S. Hammes-Schiffer,  
 T. Head-Gordon,  W. J. Hehre,  Chao-Ping Hsu,  T.-C. Jagau,  Yousung Jung,  
 A. Klamt,  Jing Kong,  D. S. Lambrecht,  WanZhen Liang,  N. J. Mayhall,  
 C. W. McCurdy,  J. B. Neaton,  C. Ochsenfeld,  J. A. Parkhill,  R. Peverati,  
 V. A. Rassolov,  Yihan Shao,  L. V. Slipchenko,  T. Stauch,  R. P. Steele,  
 J. E. Subotnik,  A. J. W. Thom,  A. Tkatchenko,  D. G. Truhlar,  
 T. Van Voorhis,  T. A. Wesolowski,  K. B. Whaley,  H. L. Woodcock III,  
 P. M. Zimmerman,  S. Faraji,  P. M. W. Gill,  M. Head-Gordon,  
 J. M. Herbert,  A. I. Krylov

 Contributors to earlier versions of Q-Chem not listed above: 
 R. D. Adamson,  B. Austin,  R. Baer,  J. Baker,  G. J. O. Beran,  
 K. Brandhorst,  S. T. Brown,  E. F. C. Byrd,  A. K. Chakraborty,  
 G. K. L. Chan,  Chun-Min Chang,  Yunqing Chen,  C.-L. Cheng,  
 Siu Hung Chien,  D. M. Chipman,  D. L. Crittenden,  H. Dachsel,  
 R. J. Doerksen,  A. D. Dutoi,  R. G. Edgar,  J. Fosso-Tande,  
 L. Fusti-Molnar,  D. Ghosh,  A. Ghysels,  A. Golubeva-Zadorozhnaya,  
 J. Gonthier,  M. S. Gordon,  S. R. Gwaltney,  G. Hawkins,  J. E. Herr,  
 A. Heyden,  S. Hirata,  E. G. Hohenstein,  G. Kedziora,  F. J. Keil,  
 C. Kelley,  Jihan Kim,  R. A. King,  R. Z. Khaliullin,  P. P. Korambath,  
 W. Kurlancheek,  A. Laurent,  A. M. Lee,  M. S. Lee,  S. V. Levchenko,  
 Ching Yeh Lin,  D. Liotard,  E. Livshits,  R. C. Lochan,  I. Lotan,  
 L. A. Martinez-Martinez,  P. E. Maslen,  N. Nair,  D. P. O'Neill,  
 D. Neuhauser,  E. Neuscamman,  C. M. Oana,  R. Olivares-Amaya,  R. Olson,  
 T. M. Perrine,  B. Peters,  P. A. Pieniazek,  A. Prociuk,  Y. M. Rhee,  
 J. Ritchie,  M. A. Rohrdanz,  E. Rosta,  N. J. Russ,  H. F. Schaefer III,  
 M. W. Schmidt,  N. E. Schultz,  S. Sharma,  N. Shenvi,  C. D. Sherrill,  
 A. C. Simmonett,  A. Sodt,  T. Stein,  D. Stuck,  K. S. Thanthiriwatte,  
 V. Vanovschi,  L. Vogt,  Tao Wang,  A. Warshel,  M. A. Watson,  
 C. F. Williams,  Q. Wu,  X. Xu,  Jun Yang,  W. Zhang,  Yan Zhao

 Please cite Q-Chem as follows:
 Y. Shao et al., Mol. Phys. 113, 184-215 (2015)
 DOI: 10.1080/00268976.2014.952696

 Q-Chem 5.4.0 for Intel X86 EM64T Linux

 Parts of Q-Chem use Armadillo 9.800.1 (Horizon Scraper).
 http://arma.sourceforge.net/

 Q-Chem begins on Sun Jul 10 02:53:15 2022  

 Host: 
0

     Scratch files written to ./qchem3807918//
 May1621 |scratch|qcdevops|jenkins|workspace|build_RNUM    
 Processing $rem in /cm/shared/apps/spack/cpu/opt/spack/linux-centos8-zen2/gcc-10.2.0/qchem-5.4-akfmr7b3t57bfs6qan3padb2wnb2i7cl/config/preferences:
 Processing $rem in /home/theleonzhang/.qchemrc:
 Symmetry turned off for PCM/SM12/SMD calculation
 Core orbitals will be frozen

 Checking the input file for inconsistencies... 	...done.

--------------------------------------------------------------
User input:
--------------------------------------------------------------
$molecule
0 1
C	-0.728138	-3.866725	-0.265779
C	0.575726	-3.703963	0.209225
C	1.002290	-2.357056	0.364875
H	1.224486	-4.561092	0.445176
C	-0.000000	-1.440664	-0.000000
S	-1.451343	-2.286957	-0.528236
C	2.369683	-1.978743	0.862808
H	2.975883	-2.878678	1.083368
H	2.317142	-1.376015	1.793522
H	2.927787	-1.375728	0.116375
C	0.000000	0.000000	0.000000
C	0.431829	0.747884	1.099446
C	1.123799	1.946373	0.776721
H	0.247423	0.428497	2.136088
C	1.234147	2.137457	-0.612546
S	0.471221	0.816130	-1.486809
C	1.667694	2.888380	1.814609
H	1.454874	2.519768	2.836676
H	1.222009	3.901210	1.726239
H	2.767675	3.008788	1.726228
H	1.708773	2.959493	-1.161575
H	-1.358585	-4.392713	0.459743
H	-0.744515	-4.392347	-1.227009
H	0.369490	-1.440391	-1.014829
$end

$rem
JOBTYPE		SP
EXCHANGE	HF
CORRELATION	pRIMP2
BASIS		cc-pvtz
METHOD		rimp2
AUX_BASIS	rimp2-cc-pvtz
SOLVENT_METHOD	PCM
PURECART	11111
SYMMETRY	false
MEM_TOTAL	110000
SCF_CONVERGENCE = 6
THRESH=10
$end



$solvent
dielectric 4.90
$end
--------------------------------------------------------------
 ----------------------------------------------------------------
             Standard Nuclear Orientation (Angstroms)
    I     Atom           X                Y                Z
 ----------------------------------------------------------------
    1      C      -0.7281380000    -3.8667250000    -0.2657790000
    2      C       0.5757260000    -3.7039630000     0.2092250000
    3      C       1.0022900000    -2.3570560000     0.3648750000
    4      H       1.2244860000    -4.5610920000     0.4451760000
    5      C       0.0000000000    -1.4406640000     0.0000000000
    6      S      -1.4513430000    -2.2869570000    -0.5282360000
    7      C       2.3696830000    -1.9787430000     0.8628080000
    8      H       2.9758830000    -2.8786780000     1.0833680000
    9      H       2.3171420000    -1.3760150000     1.7935220000
   10      H       2.9277870000    -1.3757280000     0.1163750000
   11      C       0.0000000000     0.0000000000     0.0000000000
   12      C       0.4318290000     0.7478840000     1.0994460000
   13      C       1.1237990000     1.9463730000     0.7767210000
   14      H       0.2474230000     0.4284970000     2.1360880000
   15      C       1.2341470000     2.1374570000    -0.6125460000
   16      S       0.4712210000     0.8161300000    -1.4868090000
   17      C       1.6676940000     2.8883800000     1.8146090000
   18      H       1.4548740000     2.5197680000     2.8366760000
   19      H       1.2220090000     3.9012100000     1.7262390000
   20      H       2.7676750000     3.0087880000     1.7262280000
   21      H       1.7087730000     2.9594930000    -1.1615750000
   22      H      -1.3585850000    -4.3927130000     0.4597430000
   23      H      -0.7445150000    -4.3923470000    -1.2270090000
   24      H       0.3694900000    -1.4403910000    -1.0148290000
 ----------------------------------------------------------------
 Nuclear Repulsion Energy =         880.23478769 hartrees
 There are       52 alpha and       52 beta electrons

 Q-Chem warning in module forms1/BasisType.C, line 2236:

 You are not using the predefined 5D/6D in this basis set.

 Requested basis set is cc-pVTZ
 There are 196 shells and 536 basis functions

 Total QAlloc Memory Limit 110000 MB
 Mega-Array Size       188 MB
 MEM_STATIC part       192 MB
 Discretize the solute cavity surface with Lebedev spheres
	Using 110 Lebedev grid points for each H atom
	Using 194 Lebedev grid points for other atoms
	Atomic van der Waals radii will be scaled by 1.20
 Remove points where switching function is < 1.0e-08
 Keep 1600 surface tesserae and discard 2048 interior tesserae
 Molecular Surface Area = 235.821 Angst**2
 Requested basis set is rimp2-cc-pVTZ
 There are 414 shells and 1414 basis functions
 A cutoff of  1.0D-10 yielded  14324 shell pairs
 There are    103998 function pairs (    133384 Cartesian)
 Smallest overlap matrix eigenvalue = 6.28E-05

 Scale SEOQF with 1.000000e-01/1.000000e-01/1.000000e-01

 Standard Electronic Orientation quadrupole field applied
 Nucleus-field energy     =     0.0000000337 hartrees
 Guess from superposition of atomic densities
 Warning:  Energy on first SCF cycle will be non-variational
 SAD guess density has 104.000000 electrons

 -----------------------------------------------------------------------
  General SCF calculation program by
  Eric Jon Sundstrom, Paul Horn, Yuezhi Mao, Dmitri Zuev, Alec White,
  David Stuck, Shaama M.S., Shane Yost, Joonho Lee, David Small,
  Daniel Levine, Susi Lehtola, Hugh Burton, Evgeny Epifanovsky,
  Bang C. Huynh
 -----------------------------------------------------------------------
 Hartree-Fock
 A restricted SCF calculation will be
 performed using DIIS
 SCF converges when DIIS error is below 1.0e-06
 ---------------------------------------
  Cycle       Energy         DIIS error
 ---------------------------------------
    1   -1186.0583380549      2.39e-02  
    2   -1180.5963747660      1.55e-03  
    3   -1180.7217274926      5.78e-04  
    4   -1180.7354095351      3.15e-04  
    5   -1180.7399763432      6.06e-05  
    6   -1180.7402302836      2.48e-05  
    7   -1180.7402934471      9.82e-06  
    8   -1180.7403088214      4.61e-06  
    9   -1180.7403124711      1.64e-06  
   10   -1180.7403130466      5.56e-07  Convergence criterion met
 ---------------------------------------
 SCF time:   CPU 581.37s  wall 583.00s 

************** Final PCM Free Energy Summary **************
 G_electrostatic  =      -0.00917759 hartree =      -5.75902452 kcal/mol
 G_cavitation     =       0.00000000 hartree =       0.00000000 kcal/mol
 G_dispersion     =       0.00000000 hartree =       0.00000000 kcal/mol
 G_repulsion      =       0.00000000 hartree =       0.00000000 kcal/mol
 --------------------------------------------------
 Non-electrostatic Free Energy =       0.00000000 hartree =       0.00000000 kcal/mol
 Total                         =      -0.00917759 hartree =      -5.75902452 kcal/mol
 --------------------------------------------------
 SCF Energy (H0 + V/2)                       =   -1180.74031305 
 Solute Internal Energy (H0)                 =   -1180.73113546 
 Total Free Energy (H0 + V/2 + non-elec)     =   -1180.74031305 hartree
                                             = -740925.72922823 kcal/mol
***********************************************************

 SCF   energy in the final basis set =    -1180.7403130466
 Total energy in the final basis set =    -1180.7403130466


 --------------------------------------------------------------
  Generalized many-body perturbation theory program
  by Joonho Lee, Fazle Rob, Xintian Feng, Evgeny Epifanovsky

 No regularization used 
 (reg. param. = 0.0000e+00)
  (P|Q)^-1/2 Time:  CPU 1.88 s  wall 1.89 s

 In RI-MP2 calculation: 
 # of frozen core orbitals: 20

 Components of the RIMP2 correlation energy:
        aaaa    correlation energy =        -0.2519092223 a.u.
        abab    correlation energy =        -1.5056009923 a.u.
        bbbb    correlation energy =        -0.2519092223 a.u.
        non-Brillouin singles      =        -0.0000000000 a.u.
        total same-spin energy     =        -0.5038184445 a.u.
        total opposite-spin energy =        -1.5056009923 a.u.

 Total  RIMP2   correlation energy =        -2.0094194368 a.u.
        RIMP2         total energy =     -1182.7497324834 a.u.

 RI-MP2 Energy Time:  CPU 80.05 s  wall 80.20 s
 
 --------------------------------------------------------------
 
                    Orbital Energies (a.u.)
 --------------------------------------------------------------
 
 Alpha MOs
 -- Occupied --
-91.9833 -91.9371 -11.2733 -11.2707 -11.2619 -11.2525 -11.2514 -11.2444
-11.2390 -11.2308 -11.2297 -11.2181  -8.9836  -8.9420  -6.6645  -6.6638
 -6.6632  -6.6234  -6.6224  -6.6211  -1.1995  -1.1538  -1.0590  -1.0258
 -1.0015  -0.9648  -0.9120  -0.9005  -0.8098  -0.7605  -0.7460  -0.7048
 -0.6518  -0.6332  -0.6119  -0.5876  -0.5763  -0.5734  -0.5691  -0.5544
 -0.5437  -0.5292  -0.5186  -0.5058  -0.4889  -0.4722  -0.4636  -0.4457
 -0.3540  -0.3436  -0.3166  -0.2745
 -- Virtual --
  0.0836   0.1334   0.1347   0.1533   0.1594   0.1684   0.1784   0.1848
  0.1884   0.1897   0.2052   0.2088   0.2322   0.2372   0.2435   0.2457
  0.2472   0.2531   0.2668   0.2897   0.3095   0.3388   0.3458   0.3487
  0.3660   0.3719   0.3859   0.3943   0.3983   0.4041   0.4127   0.4183
  0.4308   0.4404   0.4425   0.4610   0.4695   0.4764   0.4818   0.4929
  0.5006   0.5042   0.5159   0.5279   0.5324   0.5423   0.5516   0.5603
  0.5618   0.5755   0.5827   0.5906   0.5988   0.6031   0.6160   0.6201
  0.6219   0.6247   0.6291   0.6413   0.6434   0.6503   0.6560   0.6583
  0.6637   0.6708   0.6794   0.6905   0.6941   0.7013   0.7231   0.7318
  0.7376   0.7526   0.7614   0.7706   0.7779   0.7806   0.7955   0.8142
  0.8258   0.8413   0.8516   0.8668   0.8743   0.8863   0.9018   0.9087
  0.9295   0.9348   0.9530   0.9676   0.9783   0.9950   1.0071   1.0092
  1.0131   1.0294   1.0397   1.0461   1.0491   1.0603   1.0678   1.0807
  1.0870   1.0943   1.1143   1.1264   1.1303   1.1577   1.1685   1.1814
  1.1893   1.1945   1.1996   1.2042   1.2202   1.2261   1.2285   1.2388
  1.2503   1.2596   1.2709   1.2752   1.2836   1.2877   1.3037   1.3164
  1.3241   1.3333   1.3508   1.3576   1.3762   1.3962   1.4092   1.4171
  1.4277   1.4412   1.4507   1.4648   1.4672   1.4844   1.4858   1.4981
  1.5040   1.5164   1.5235   1.5337   1.5425   1.5458   1.5537   1.5571
  1.5647   1.5780   1.5825   1.5976   1.6124   1.6252   1.6310   1.6376
  1.6579   1.6702   1.6867   1.6956   1.6987   1.7102   1.7216   1.7330
  1.7480   1.7594   1.7666   1.7698   1.8096   1.8156   1.8482   1.8754
  1.8812   1.9048   1.9158   1.9365   1.9614   1.9711   1.9811   2.0026
  2.0215   2.0274   2.0368   2.0692   2.0883   2.1151   2.1274   2.1649
  2.1847   2.1893   2.2047   2.2186   2.2326   2.2391   2.2648   2.2785
  2.3107   2.3358   2.3405   2.3787   2.4041   2.4181   2.4491   2.4656
  2.4990   2.5192   2.5308   2.5412   2.5682   2.6020   2.6139   2.6190
  2.6396   2.6477   2.6603   2.6681   2.6743   2.6751   2.7019   2.7272
  2.7360   2.7582   2.7646   2.7734   2.7826   2.7921   2.8032   2.8237
  2.8418   2.8581   2.8699   2.8867   2.8945   2.9050   2.9174   2.9241
  2.9448   2.9513   2.9705   2.9935   3.0038   3.0146   3.0329   3.0402
  3.0584   3.0669   3.0881   3.1070   3.1127   3.1141   3.1267   3.1288
  3.1458   3.1522   3.1588   3.1687   3.1895   3.1939   3.2156   3.2271
  3.2301   3.2389   3.2649   3.2705   3.2789   3.2956   3.3004   3.3059
  3.3097   3.3230   3.3281   3.3413   3.3440   3.3495   3.3541   3.3664
  3.3731   3.3813   3.3964   3.4003   3.4084   3.4158   3.4281   3.4360
  3.4456   3.4484   3.4538   3.4711   3.4796   3.4852   3.5034   3.5072
  3.5168   3.5306   3.5402   3.5468   3.5574   3.5659   3.5749   3.5802
  3.6059   3.6133   3.6205   3.6324   3.6361   3.6418   3.6492   3.6642
  3.6776   3.6855   3.6956   3.6982   3.7187   3.7259   3.7370   3.7383
  3.7474   3.7607   3.7625   3.7688   3.7925   3.8011   3.8026   3.8245
  3.8303   3.8411   3.8512   3.8557   3.8774   3.8863   3.8933   3.9221
  3.9280   3.9478   3.9604   3.9738   3.9816   3.9881   3.9949   3.9983
  4.0355   4.0394   4.0569   4.0629   4.0874   4.0957   4.0999   4.1119
  4.1192   4.1304   4.1487   4.1682   4.1736   4.1856   4.1918   4.1995
  4.2112   4.2240   4.2255   4.2420   4.2600   4.2628   4.2750   4.2821
  4.2898   4.3084   4.3203   4.3286   4.3424   4.3514   4.3570   4.3721
  4.3871   4.3952   4.4035   4.4051   4.4149   4.4251   4.4331   4.4559
  4.4680   4.4719   4.4800   4.4865   4.4998   4.5209   4.5245   4.5442
  4.5821   4.5836   4.6077   4.6315   4.6356   4.6479   4.6588   4.6810
  4.6890   4.7176   4.7389   4.7630   4.7680   4.7979   4.8083   4.8419
  4.8637   4.8797   4.8815   4.8971   4.9406   4.9520   4.9758   4.9823
  5.0356   5.0566   5.0966   5.1123   5.1210   5.1321   5.1475   5.1674
  5.1881   5.2070   5.2323   5.2497   5.2818   5.2956   5.3042   5.3228
  5.3366   5.3694   5.3792   5.4045   5.4101   5.4253   5.4408   5.4473
  5.4605   5.5168   5.5182   5.5340   5.5503   5.5557   5.5737   5.5946
  5.6156   5.6248   5.6323   5.6698   5.6742   5.6996   5.7107   5.7413
  5.7640   5.7917   5.8240   5.9415   5.9974   6.0257   6.1179   6.1419
  6.1947   6.2246   6.2272   6.2367   6.2490   6.2925   6.3038   6.3141
  6.3871   6.4958   9.4336  10.4268  12.2043  12.8835  13.1655  13.9204
 14.0824  14.2245  14.3265  14.7493
 --------------------------------------------------------------
 
          Ground-State Mulliken Net Atomic Charges

     Atom                 Charge (a.u.)
  ----------------------------------------
      1 C                    -0.075587
      2 C                    -0.326760
      3 C                    -0.032677
      4 H                     0.176234
      5 C                     0.088132
      6 S                    -0.189417
      7 C                    -0.275261
      8 H                     0.116457
      9 H                     0.104481
     10 H                     0.108608
     11 C                    -0.064507
     12 C                    -0.276631
     13 C                     0.048148
     14 H                     0.191928
     15 C                    -0.236323
     16 S                     0.008304
     17 C                    -0.270935
     18 H                     0.102754
     19 H                     0.109309
     20 H                     0.106982
     21 H                     0.199941
     22 H                     0.110520
     23 H                     0.107982
     24 H                     0.168317
  ----------------------------------------
  Sum of atomic charges =     0.000000

 -----------------------------------------------------------------
                    Cartesian Multipole Moments
 -----------------------------------------------------------------
    Charge (ESU x 10^10)
                -0.0000
    Dipole Moment (Debye)
         X       3.7121      Y       0.8158      Z       1.7117
       Tot       4.1683
    Quadrupole Moments (Debye-Ang)
        XX     -89.3944     XY       0.7873     YY     -76.8107
        XZ       0.6184     YZ       0.8080     ZZ     -85.5760
    Octopole Moments (Debye-Ang^2)
       XXX     -99.5255    XXY      61.2764    XYY     -19.6493
       YYY     144.9340    XXZ       1.2319    XYZ      -3.3642
       YYZ      -5.4290    XZZ     -31.7622    YZZ      63.5622
       ZZZ       3.3297
    Hexadecapole Moments (Debye-Ang^3)
      XXXX    -891.5828   XXXY    -236.5785   XXYY    -589.9210
      XYYY    -179.6242   YYYY   -2602.2562   XXXZ    -134.8764
      XXYZ     -43.2548   XYYZ     -42.8712   YYYZ     -90.3947
      XXZZ    -250.9942   XYZZ     -62.0490   YYZZ    -570.3273
      XZZZ    -143.8403   YZZZ     -83.6008   ZZZZ    -603.8474
 -----------------------------------------------------------------
 Total job time:  665.47s(wall), 662.30s(cpu) 
 Sun Jul 10 03:04:20 2022

        *************************************************************
        *                                                           *
        *  Thank you very much for using Q-Chem.  Have a nice day.  *
        *                                                           *
        *************************************************************


remove work dirs ./qchem3807918.0 -- ./qchem3807918.-1
rm -rf ./qchem3807918
