You are running Q-Chem version: 5.4.0

#
# job setting
#
local host:  exp-1-10
current dir: /expanse/lustre/scratch/theleonzhang/temp_project/Hydrogenated_Rotation_Test
input file:  Methylthiophene_Phi_10_Theta_150_Methylthiophene_Hydrogenated.qcin
output file: 
nprocs     : 0
nthreads   : 1
#
# qchem installation setting
#
QC:          /cm/shared/apps/spack/cpu/opt/spack/linux-centos8-zen2/gcc-10.2.0/qchem-5.4-akfmr7b3t57bfs6qan3padb2wnb2i7cl
QCAUX:       /cm/shared/apps/spack/cpu/opt/spack/linux-centos8-zen2/gcc-10.2.0/qchem-5.4-akfmr7b3t57bfs6qan3padb2wnb2i7cl/qcaux
QCPROG:      /cm/shared/apps/spack/cpu/opt/spack/linux-centos8-zen2/gcc-10.2.0/qchem-5.4-akfmr7b3t57bfs6qan3padb2wnb2i7cl/exe/qcprog.exe_s
QCPROG_S:    /cm/shared/apps/spack/cpu/opt/spack/linux-centos8-zen2/gcc-10.2.0/qchem-5.4-akfmr7b3t57bfs6qan3padb2wnb2i7cl/exe/qcprog.exe_s
PARALLEL:    -DSERIAL
QCMPI:       mpich
#
# qchem directory setting
#
qcrun:       qchem4005077
QCSCRATCH:   .
QCLOCALSCR:  
QCTMPDIR:    .
QCFILEPREF:  ./qchem4005077
QCSAVEDIR:   
workdirs:    ./qchem4005077
workdir0:    ./qchem4005077
partmpdirs =  
#
# parallel setting
#
QCRSH:           ssh
QCMPI:           mpich
QCMPIRUN:        /cm/shared/apps/spack/cpu/opt/spack/linux-centos8-zen2/gcc-10.2.0/qchem-5.4-akfmr7b3t57bfs6qan3padb2wnb2i7cl/bin/mpi/mpirun_qchem
QCMACHINEFILE:   ./qchem4005077/hostfile

#
# env setting
#
exported envs:   QC QCAUX QCSCRATCH QCRUNNAME QCFILEPREF QCPROG QCPROG_S GUIFILE

Running Job 1 of 1 Methylthiophene_Phi_10_Theta_150_Methylthiophene_Hydrogenated.qcin
qchem Methylthiophene_Phi_10_Theta_150_Methylthiophene_Hydrogenated.qcin_4005077.0 ./qchem4005077/ 0
/cm/shared/apps/spack/cpu/opt/spack/linux-centos8-zen2/gcc-10.2.0/qchem-5.4-akfmr7b3t57bfs6qan3padb2wnb2i7cl/exe/qcprog.exe_s Methylthiophene_Phi_10_Theta_150_Methylthiophene_Hydrogenated.qcin_4005077.0 ./qchem4005077/
                  Welcome to Q-Chem
     A Quantum Leap Into The Future Of Chemistry


 Q-Chem 5.4, Q-Chem, Inc., Pleasanton, CA (2021)

 License issued to: University of California, San Diego (site)

 E. Epifanovsky,  A. T. B. Gilbert,  Xintian Feng,  Joonho Lee,  Yuezhi Mao,  
 N. Mardirossian,  P. Pokhilko,  A. White,  M. Wormit,  M. P. Coons,  
 A. L. Dempwolff,  Zhengting Gan,  D. Hait,  P. R. Horn,  L. D. Jacobson,  
 I. Kaliman,  J. Kussmann,  A. W. Lange,  Ka Un Lao,  D. S. Levine,  Jie Liu,  
 S. C. McKenzie,  A. F. Morrison,  K. Nanda,  F. Plasser,  D. R. Rehn,  
 M. L. Vidal,  Zhi-Qiang You,  Ying Zhu,  B. Alam,  B. Albrecht,  
 A. Aldossary,  E. Alguire,  J. H. Andersen,  D. Barton,  K. Begam,  A. Behn,  
 Y. A. Bernard,  E. J. Berquist,  H. Burton,  A. Carreras,  K. Carter-Fenk,  
 R. Chakraborty,  A. D. Chien,  K. D. Closser,  V. Cofer-Shabica,  
 S. Dasgupta,  Jia Deng,  M. de Wergifosse,  M. Diedenhofen,  Hainam Do,  
 S. Ehlert,  Po-Tung Fang,  S. Fatehi,  Qingguo Feng,  J. Gayvert,  
 Qinghui Ge,  G. Gidofalvi,  M. Goldey,  J. Gomes,  C. Gonzalez-Espinoza,  
 S. Gulania,  A. Gunina,  M. W. D. Hanson-Heine,  P. H. P. Harbach,  
 A. W. Hauser,  M. F. Herbst,  M. Hernandez Vera,  M. Hodecker,  
 Z. C. Holden,  S. Houck,  Xunkun Huang,  Kerwin Hui,  B. C. Huynh,  
 M. Ivanov,  Hyunjun Ji,  Hanjie Jiang,  B. Kaduk,  S. Kaehler,  
 K. Khistyaev,  Jaehoon Kim,  P. Klunzinger,  Z. Koczor-Benda,  
 Joong Hoon Koh,  D. Kosenkov,  L. Koulias,  T. Kowalczyk,  C. M. Krauter,  
 K. Kue,  A. Kunitsa,  T. Kus,  A. Landau,  K. V. Lawler,  D. Lefrancois,  
 S. Lehtola,  Rain Li,  Yi-Pei Li,  Jiashu Liang,  M. Liebenthal,  
 Hung-Hsuan Lin,  You-Sheng Lin,  Fenglai Liu,  Kuan-Yu Liu,  
 M. Loipersberger,  A. Luenser,  A. Manjanath,  P. Manohar,  E. Mansoor,  
 S. F. Manzer,  Shan-Ping Mao,  A. V. Marenich,  T. Markovich,  S. Mason,  
 S. A. Maurer,  P. F. McLaughlin,  M. F. S. J. Menger,  J.-M. Mewes,  
 S. A. Mewes,  P. Morgante,  J. W. Mullinax,  T. S. Nguyen-Beck,  
 K. J. Oosterbaan,  G. Paran,  Alexander C. Paul,  Suranjan K. Paul,  
 F. Pavosevic,  Zheng Pei,  S. Prager,  E. I. Proynov,  E. Ramos,  B. Rana,  
 A. E. Rask,  A. Rettig,  R. M. Richard,  F. Rob,  E. Rossomme,  T. Scheele,  
 M. Scheurer,  M. Schneider,  N. Sergueev,  S. M. Sharada,  W. Skomorowski,  
 D. W. Small,  C. J. Stein,  Yu-Chuan Su,  E. J. Sundstrom,  Zhen Tao,  
 J. Thirman,  T. Tsuchimochi,  N. M. Tubman,  S. P. Veccham,  O. Vydrov,  
 J. Wenzel,  J. Witte,  A. Yamada,  Kun Yao,  S. Yeganeh,  S. R. Yost,  
 A. Zech,  Igor Ying Zhang,  Xing Zhang,  Yu Zhang,  D. Zuev,  
 A. Aspuru-Guzik,  A. T. Bell,  N. A. Besley,  K. B. Bravaya,  B. R. Brooks,  
 D. Casanova,  Jeng-Da Chai,  S. Coriani,  C. J. Cramer,  
 A. E. DePrince, III,  R. A. DiStasio Jr.,  A. Dreuw,  B. D. Dunietz,  
 T. R. Furlani,  W. A. Goddard III,  S. Grimme,  S. Hammes-Schiffer,  
 T. Head-Gordon,  W. J. Hehre,  Chao-Ping Hsu,  T.-C. Jagau,  Yousung Jung,  
 A. Klamt,  Jing Kong,  D. S. Lambrecht,  WanZhen Liang,  N. J. Mayhall,  
 C. W. McCurdy,  J. B. Neaton,  C. Ochsenfeld,  J. A. Parkhill,  R. Peverati,  
 V. A. Rassolov,  Yihan Shao,  L. V. Slipchenko,  T. Stauch,  R. P. Steele,  
 J. E. Subotnik,  A. J. W. Thom,  A. Tkatchenko,  D. G. Truhlar,  
 T. Van Voorhis,  T. A. Wesolowski,  K. B. Whaley,  H. L. Woodcock III,  
 P. M. Zimmerman,  S. Faraji,  P. M. W. Gill,  M. Head-Gordon,  
 J. M. Herbert,  A. I. Krylov

 Contributors to earlier versions of Q-Chem not listed above: 
 R. D. Adamson,  B. Austin,  R. Baer,  J. Baker,  G. J. O. Beran,  
 K. Brandhorst,  S. T. Brown,  E. F. C. Byrd,  A. K. Chakraborty,  
 G. K. L. Chan,  Chun-Min Chang,  Yunqing Chen,  C.-L. Cheng,  
 Siu Hung Chien,  D. M. Chipman,  D. L. Crittenden,  H. Dachsel,  
 R. J. Doerksen,  A. D. Dutoi,  R. G. Edgar,  J. Fosso-Tande,  
 L. Fusti-Molnar,  D. Ghosh,  A. Ghysels,  A. Golubeva-Zadorozhnaya,  
 J. Gonthier,  M. S. Gordon,  S. R. Gwaltney,  G. Hawkins,  J. E. Herr,  
 A. Heyden,  S. Hirata,  E. G. Hohenstein,  G. Kedziora,  F. J. Keil,  
 C. Kelley,  Jihan Kim,  R. A. King,  R. Z. Khaliullin,  P. P. Korambath,  
 W. Kurlancheek,  A. Laurent,  A. M. Lee,  M. S. Lee,  S. V. Levchenko,  
 Ching Yeh Lin,  D. Liotard,  E. Livshits,  R. C. Lochan,  I. Lotan,  
 L. A. Martinez-Martinez,  P. E. Maslen,  N. Nair,  D. P. O'Neill,  
 D. Neuhauser,  E. Neuscamman,  C. M. Oana,  R. Olivares-Amaya,  R. Olson,  
 T. M. Perrine,  B. Peters,  P. A. Pieniazek,  A. Prociuk,  Y. M. Rhee,  
 J. Ritchie,  M. A. Rohrdanz,  E. Rosta,  N. J. Russ,  H. F. Schaefer III,  
 M. W. Schmidt,  N. E. Schultz,  S. Sharma,  N. Shenvi,  C. D. Sherrill,  
 A. C. Simmonett,  A. Sodt,  T. Stein,  D. Stuck,  K. S. Thanthiriwatte,  
 V. Vanovschi,  L. Vogt,  Tao Wang,  A. Warshel,  M. A. Watson,  
 C. F. Williams,  Q. Wu,  X. Xu,  Jun Yang,  W. Zhang,  Yan Zhao

 Please cite Q-Chem as follows:
 Y. Shao et al., Mol. Phys. 113, 184-215 (2015)
 DOI: 10.1080/00268976.2014.952696

 Q-Chem 5.4.0 for Intel X86 EM64T Linux

 Parts of Q-Chem use Armadillo 9.800.1 (Horizon Scraper).
 http://arma.sourceforge.net/

 Q-Chem begins on Sat Jul  9 21:33:47 2022  

 Host: 
0

     Scratch files written to ./qchem4005077//
 May1621 |scratch|qcdevops|jenkins|workspace|build_RNUM    
 Processing $rem in /cm/shared/apps/spack/cpu/opt/spack/linux-centos8-zen2/gcc-10.2.0/qchem-5.4-akfmr7b3t57bfs6qan3padb2wnb2i7cl/config/preferences:
 Processing $rem in /home/theleonzhang/.qchemrc:
 Symmetry turned off for PCM/SM12/SMD calculation
 Core orbitals will be frozen

 Checking the input file for inconsistencies... 	...done.

--------------------------------------------------------------
User input:
--------------------------------------------------------------
$molecule
0 1
C	-0.386946	-3.866725	-0.671636
C	0.306544	-3.703963	0.530345
C	0.533261	-2.357056	0.923770
H	0.651857	-4.561092	1.128109
C	-0.000000	-1.440664	-0.000000
S	-0.772250	-2.286957	-1.337557
C	1.260680	-1.978743	2.184153
H	1.583283	-2.878678	2.742769
H	0.622180	-1.376015	2.863347
H	2.168011	-1.375728	1.971094
C	0.000000	0.000000	0.000000
C	0.149995	0.850475	1.099446
C	0.390327	2.213354	0.776721
H	0.085947	0.487279	2.136088
C	0.428665	2.430655	-0.612546
S	0.163670	0.928078	-1.486809
C	0.579235	3.284574	1.814609
H	0.505323	2.865404	2.836676
H	-0.185980	4.083890	1.726239
H	1.571698	3.773937	1.726228
H	0.593515	3.365448	-1.161575
H	-1.336254	-4.392713	-0.521098
H	0.218374	-4.392347	-1.418509
H	-0.935365	-1.440937	0.539900
$end

$rem
JOBTYPE		SP
EXCHANGE	HF
CORRELATION	pRIMP2
BASIS		cc-pvtz
METHOD		rimp2
AUX_BASIS	rimp2-cc-pvtz
SOLVENT_METHOD	PCM
PURECART	11111
SYMMETRY	false
MEM_TOTAL	110000
SCF_CONVERGENCE = 6
THRESH=10
$end



$solvent
dielectric 4.90
$end
--------------------------------------------------------------
 ----------------------------------------------------------------
             Standard Nuclear Orientation (Angstroms)
    I     Atom           X                Y                Z
 ----------------------------------------------------------------
    1      C      -0.3869460000    -3.8667250000    -0.6716360000
    2      C       0.3065440000    -3.7039630000     0.5303450000
    3      C       0.5332610000    -2.3570560000     0.9237700000
    4      H       0.6518570000    -4.5610920000     1.1281090000
    5      C       0.0000000000    -1.4406640000     0.0000000000
    6      S      -0.7722500000    -2.2869570000    -1.3375570000
    7      C       1.2606800000    -1.9787430000     2.1841530000
    8      H       1.5832830000    -2.8786780000     2.7427690000
    9      H       0.6221800000    -1.3760150000     2.8633470000
   10      H       2.1680110000    -1.3757280000     1.9710940000
   11      C       0.0000000000     0.0000000000     0.0000000000
   12      C       0.1499950000     0.8504750000     1.0994460000
   13      C       0.3903270000     2.2133540000     0.7767210000
   14      H       0.0859470000     0.4872790000     2.1360880000
   15      C       0.4286650000     2.4306550000    -0.6125460000
   16      S       0.1636700000     0.9280780000    -1.4868090000
   17      C       0.5792350000     3.2845740000     1.8146090000
   18      H       0.5053230000     2.8654040000     2.8366760000
   19      H      -0.1859800000     4.0838900000     1.7262390000
   20      H       1.5716980000     3.7739370000     1.7262280000
   21      H       0.5935150000     3.3654480000    -1.1615750000
   22      H      -1.3362540000    -4.3927130000    -0.5210980000
   23      H       0.2183740000    -4.3923470000    -1.4185090000
   24      H      -0.9353650000    -1.4409370000     0.5399000000
 ----------------------------------------------------------------
 Nuclear Repulsion Energy =         875.33459165 hartrees
 There are       52 alpha and       52 beta electrons

 Q-Chem warning in module forms1/BasisType.C, line 2236:

 You are not using the predefined 5D/6D in this basis set.

 Requested basis set is cc-pVTZ
 There are 196 shells and 536 basis functions

 Total QAlloc Memory Limit 110000 MB
 Mega-Array Size       188 MB
 MEM_STATIC part       192 MB
 Discretize the solute cavity surface with Lebedev spheres
	Using 110 Lebedev grid points for each H atom
	Using 194 Lebedev grid points for other atoms
	Atomic van der Waals radii will be scaled by 1.20
 Remove points where switching function is < 1.0e-08
 Keep 1592 surface tesserae and discard 2056 interior tesserae
 Molecular Surface Area = 232.858 Angst**2
 Requested basis set is rimp2-cc-pVTZ
 There are 414 shells and 1414 basis functions
 A cutoff of  1.0D-10 yielded  14059 shell pairs
 There are    101745 function pairs (    130373 Cartesian)
 Smallest overlap matrix eigenvalue = 4.56E-05

 Scale SEOQF with 1.000000e-01/1.000000e-01/1.000000e-01

 Standard Electronic Orientation quadrupole field applied
 Nucleus-field energy     =     0.0000000250 hartrees
 Guess from superposition of atomic densities
 Warning:  Energy on first SCF cycle will be non-variational
 SAD guess density has 104.000000 electrons

 -----------------------------------------------------------------------
  General SCF calculation program by
  Eric Jon Sundstrom, Paul Horn, Yuezhi Mao, Dmitri Zuev, Alec White,
  David Stuck, Shaama M.S., Shane Yost, Joonho Lee, David Small,
  Daniel Levine, Susi Lehtola, Hugh Burton, Evgeny Epifanovsky,
  Bang C. Huynh
 -----------------------------------------------------------------------
 Hartree-Fock
 A restricted SCF calculation will be
 performed using DIIS
 SCF converges when DIIS error is below 1.0e-06
 ---------------------------------------
  Cycle       Energy         DIIS error
 ---------------------------------------
    1   -1186.0421808358      2.39e-02  
    2   -1180.6090700580      1.58e-03  
    3   -1180.7347016853      6.42e-04  
    4   -1180.7501401067      3.46e-04  
    5   -1180.7556592090      5.91e-05  
    6   -1180.7559012384      2.43e-05  
    7   -1180.7559568559      8.53e-06  
    8   -1180.7559685800      4.08e-06  
    9   -1180.7559711760      1.40e-06  
   10   -1180.7559715941      5.04e-07  Convergence criterion met
 ---------------------------------------
 SCF time:   CPU 576.53s  wall 579.00s 

************** Final PCM Free Energy Summary **************
 G_electrostatic  =      -0.00959069 hartree =      -6.01825114 kcal/mol
 G_cavitation     =       0.00000000 hartree =       0.00000000 kcal/mol
 G_dispersion     =       0.00000000 hartree =       0.00000000 kcal/mol
 G_repulsion      =       0.00000000 hartree =       0.00000000 kcal/mol
 --------------------------------------------------
 Non-electrostatic Free Energy =       0.00000000 hartree =       0.00000000 kcal/mol
 Total                         =      -0.00959069 hartree =      -6.01825114 kcal/mol
 --------------------------------------------------
 SCF Energy (H0 + V/2)                       =   -1180.75597159 
 Solute Internal Energy (H0)                 =   -1180.74638090 
 Total Free Energy (H0 + V/2 + non-elec)     =   -1180.75597159 hartree
                                             = -740935.55511511 kcal/mol
***********************************************************

 SCF   energy in the final basis set =    -1180.7559715941
 Total energy in the final basis set =    -1180.7559715941


 --------------------------------------------------------------
  Generalized many-body perturbation theory program
  by Joonho Lee, Fazle Rob, Xintian Feng, Evgeny Epifanovsky

 No regularization used 
 (reg. param. = 0.0000e+00)
  (P|Q)^-1/2 Time:  CPU 1.91 s  wall 1.91 s

 In RI-MP2 calculation: 
 # of frozen core orbitals: 20

 Components of the RIMP2 correlation energy:
        aaaa    correlation energy =        -0.2516711143 a.u.
        abab    correlation energy =        -1.5035683756 a.u.
        bbbb    correlation energy =        -0.2516711143 a.u.
        non-Brillouin singles      =        -0.0000000000 a.u.
        total same-spin energy     =        -0.5033422287 a.u.
        total opposite-spin energy =        -1.5035683756 a.u.

 Total  RIMP2   correlation energy =        -2.0069106043 a.u.
        RIMP2         total energy =     -1182.7628821984 a.u.

 RI-MP2 Energy Time:  CPU 80.32 s  wall 80.63 s
 
 --------------------------------------------------------------
 
                    Orbital Energies (a.u.)
 --------------------------------------------------------------
 
 Alpha MOs
 -- Occupied --
-91.9828 -91.9451 -11.2873 -11.2659 -11.2596 -11.2563 -11.2505 -11.2436
-11.2333 -11.2333 -11.2286 -11.2224  -8.9824  -8.9497  -6.6634  -6.6628
 -6.6622  -6.6311  -6.6301  -6.6289  -1.2013  -1.1526  -1.0598  -1.0304
 -1.0023  -0.9615  -0.9147  -0.9000  -0.8178  -0.7625  -0.7273  -0.7072
 -0.6590  -0.6470  -0.6107  -0.5926  -0.5863  -0.5698  -0.5597  -0.5537
 -0.5428  -0.5341  -0.5208  -0.5045  -0.4832  -0.4829  -0.4667  -0.4452
 -0.3586  -0.3432  -0.3226  -0.2671
 -- Virtual --
  0.1029   0.1301   0.1431   0.1491   0.1564   0.1695   0.1720   0.1866
  0.1947   0.2021   0.2049   0.2138   0.2186   0.2350   0.2383   0.2421
  0.2558   0.2757   0.2811   0.3015   0.3175   0.3304   0.3520   0.3532
  0.3694   0.3785   0.3852   0.3914   0.4009   0.4128   0.4169   0.4249
  0.4369   0.4519   0.4624   0.4649   0.4734   0.4781   0.4855   0.4915
  0.5053   0.5129   0.5212   0.5291   0.5357   0.5455   0.5482   0.5503
  0.5620   0.5800   0.5870   0.5922   0.5988   0.6021   0.6130   0.6205
  0.6242   0.6272   0.6352   0.6372   0.6428   0.6501   0.6521   0.6610
  0.6667   0.6773   0.6813   0.6880   0.6982   0.7219   0.7255   0.7301
  0.7414   0.7464   0.7584   0.7728   0.7813   0.7929   0.8101   0.8175
  0.8328   0.8379   0.8589   0.8628   0.8813   0.9009   0.9064   0.9172
  0.9302   0.9477   0.9530   0.9585   0.9757   0.9894   1.0108   1.0143
  1.0231   1.0289   1.0411   1.0475   1.0500   1.0661   1.0738   1.0888
  1.0908   1.1014   1.1076   1.1208   1.1360   1.1418   1.1627   1.1770
  1.1892   1.1924   1.1983   1.2086   1.2163   1.2279   1.2293   1.2411
  1.2484   1.2564   1.2655   1.2768   1.2852   1.2957   1.3091   1.3174
  1.3225   1.3384   1.3506   1.3620   1.3702   1.3821   1.3961   1.4169
  1.4236   1.4377   1.4429   1.4587   1.4644   1.4780   1.4849   1.4970
  1.5041   1.5089   1.5243   1.5306   1.5378   1.5438   1.5469   1.5540
  1.5795   1.5834   1.5946   1.6084   1.6201   1.6260   1.6360   1.6458
  1.6503   1.6633   1.6759   1.6932   1.7089   1.7329   1.7354   1.7398
  1.7594   1.7652   1.7712   1.7957   1.8026   1.8238   1.8556   1.8665
  1.8869   1.9045   1.9221   1.9337   1.9461   1.9747   1.9796   1.9977
  2.0178   2.0448   2.0524   2.0648   2.0825   2.1165   2.1459   2.1638
  2.1843   2.2058   2.2071   2.2256   2.2377   2.2457   2.2732   2.2861
  2.2935   2.3073   2.3145   2.3639   2.4043   2.4350   2.4638   2.4781
  2.4995   2.5178   2.5343   2.5602   2.5673   2.5899   2.6021   2.6208
  2.6420   2.6456   2.6539   2.6638   2.6721   2.6914   2.7038   2.7355
  2.7451   2.7586   2.7669   2.7706   2.7747   2.7874   2.7968   2.8106
  2.8350   2.8494   2.8542   2.8667   2.8879   2.8993   2.9211   2.9253
  2.9386   2.9537   2.9793   2.9850   3.0049   3.0163   3.0339   3.0405
  3.0454   3.0710   3.0955   3.0997   3.1115   3.1232   3.1273   3.1433
  3.1515   3.1552   3.1674   3.1778   3.1910   3.1975   3.2073   3.2222
  3.2235   3.2451   3.2570   3.2640   3.2655   3.2873   3.2919   3.2981
  3.3148   3.3254   3.3281   3.3362   3.3442   3.3552   3.3633   3.3653
  3.3735   3.3913   3.3967   3.4057   3.4076   3.4191   3.4286   3.4329
  3.4428   3.4449   3.4536   3.4581   3.4777   3.4868   3.4950   3.5063
  3.5105   3.5179   3.5304   3.5316   3.5504   3.5582   3.5706   3.5757
  3.5868   3.6036   3.6111   3.6268   3.6285   3.6375   3.6530   3.6551
  3.6649   3.6732   3.6935   3.7060   3.7183   3.7271   3.7337   3.7405
  3.7438   3.7525   3.7778   3.7831   3.7887   3.8014   3.8121   3.8251
  3.8349   3.8392   3.8523   3.8719   3.8832   3.8855   3.8985   3.9054
  3.9237   3.9339   3.9553   3.9688   3.9929   3.9944   4.0050   4.0211
  4.0320   4.0438   4.0542   4.0561   4.0661   4.0760   4.0873   4.1061
  4.1191   4.1383   4.1463   4.1543   4.1581   4.1737   4.1861   4.1909
  4.2101   4.2237   4.2284   4.2373   4.2500   4.2631   4.2681   4.2939
  4.3044   4.3053   4.3158   4.3383   4.3465   4.3592   4.3639   4.3743
  4.3845   4.3939   4.4017   4.4187   4.4328   4.4389   4.4417   4.4561
  4.4616   4.4705   4.4919   4.4955   4.5195   4.5281   4.5556   4.5664
  4.5889   4.5971   4.5994   4.6257   4.6405   4.6430   4.6666   4.6847
  4.6941   4.7244   4.7370   4.7597   4.7741   4.8118   4.8360   4.8511
  4.8554   4.8807   4.8991   4.9169   4.9454   4.9678   4.9820   4.9878
  5.0478   5.0689   5.0885   5.1077   5.1188   5.1335   5.1547   5.1833
  5.2105   5.2188   5.2525   5.2599   5.2808   5.2910   5.3103   5.3271
  5.3528   5.3554   5.3877   5.3960   5.4151   5.4231   5.4368   5.4420
  5.4648   5.5200   5.5245   5.5411   5.5507   5.5736   5.5774   5.6057
  5.6135   5.6233   5.6335   5.6584   5.6624   5.7031   5.7117   5.7507
  5.7698   5.7895   5.8343   5.9721   6.0556   6.0766   6.1346   6.1828
  6.2096   6.2283   6.2379   6.2570   6.2761   6.2856   6.3009   6.3526
  6.4019   6.5910   9.4567  10.7707  12.0906  12.9772  13.1746  13.8767
 14.0895  14.2066  14.4106  15.1980
 --------------------------------------------------------------
 
          Ground-State Mulliken Net Atomic Charges

     Atom                 Charge (a.u.)
  ----------------------------------------
      1 C                    -0.075309
      2 C                    -0.317430
      3 C                    -0.064149
      4 H                     0.178220
      5 C                     0.136539
      6 S                    -0.177843
      7 C                    -0.289873
      8 H                     0.120135
      9 H                     0.098474
     10 H                     0.117307
     11 C                    -0.059567
     12 C                    -0.288080
     13 C                     0.039979
     14 H                     0.189423
     15 C                    -0.271293
     16 S                     0.014138
     17 C                    -0.273315
     18 H                     0.100921
     19 H                     0.108663
     20 H                     0.108588
     21 H                     0.195327
     22 H                     0.112671
     23 H                     0.112392
     24 H                     0.184082
  ----------------------------------------
  Sum of atomic charges =     0.000000

 -----------------------------------------------------------------
                    Cartesian Multipole Moments
 -----------------------------------------------------------------
    Charge (ESU x 10^10)
                -0.0000
    Dipole Moment (Debye)
         X       0.7293      Y      -0.2130      Z       3.9195
       Tot       3.9924
    Quadrupole Moments (Debye-Ang)
        XX     -91.1196     XY       1.3306     YY     -73.4591
        XZ       0.5003     YZ      -2.5848     ZZ     -86.1347
    Octopole Moments (Debye-Ang^2)
       XXX     -39.0659    XXY      44.3343    XYY      -8.2596
       YYY     118.0264    XXZ      -0.3308    XYZ      -3.1123
       YYZ      -3.1457    XZZ      -7.3613    YZZ      52.1566
       ZZZ       4.9872
    Hexadecapole Moments (Debye-Ang^3)
      XXXX    -311.9223   XXXY     -88.7260   XXYY    -564.6997
      XYYY     -61.7364   YYYY   -2746.0367   XXXZ    -140.3940
      XXYZ     -37.1951   XYYZ     -33.7454   YYYZ    -104.3920
      XXZZ    -216.9259   XYZZ     -38.4500   YYZZ    -641.8281
      XZZZ    -134.9347   YZZZ    -117.4606   ZZZZ    -968.7446
 -----------------------------------------------------------------
 Total job time:  662.54s(wall), 657.76s(cpu) 
 Sat Jul  9 21:44:49 2022

        *************************************************************
        *                                                           *
        *  Thank you very much for using Q-Chem.  Have a nice day.  *
        *                                                           *
        *************************************************************


remove work dirs ./qchem4005077.0 -- ./qchem4005077.-1
rm -rf ./qchem4005077
