You are running Q-Chem version: 5.4.0

#
# job setting
#
local host:  exp-7-31
current dir: /expanse/lustre/scratch/theleonzhang/temp_project/Hydrogenated_Rotation_Test
input file:  Methylthiophene_Phi_50_Theta_10_Methylthiophene_Hydrogenated_Alternate.qcin
output file: 
nprocs     : 0
nthreads   : 1
#
# qchem installation setting
#
QC:          /cm/shared/apps/spack/cpu/opt/spack/linux-centos8-zen2/gcc-10.2.0/qchem-5.4-akfmr7b3t57bfs6qan3padb2wnb2i7cl
QCAUX:       /cm/shared/apps/spack/cpu/opt/spack/linux-centos8-zen2/gcc-10.2.0/qchem-5.4-akfmr7b3t57bfs6qan3padb2wnb2i7cl/qcaux
QCPROG:      /cm/shared/apps/spack/cpu/opt/spack/linux-centos8-zen2/gcc-10.2.0/qchem-5.4-akfmr7b3t57bfs6qan3padb2wnb2i7cl/exe/qcprog.exe_s
QCPROG_S:    /cm/shared/apps/spack/cpu/opt/spack/linux-centos8-zen2/gcc-10.2.0/qchem-5.4-akfmr7b3t57bfs6qan3padb2wnb2i7cl/exe/qcprog.exe_s
PARALLEL:    -DSERIAL
QCMPI:       mpich
#
# qchem directory setting
#
qcrun:       qchem2474958
QCSCRATCH:   .
QCLOCALSCR:  
QCTMPDIR:    .
QCFILEPREF:  ./qchem2474958
QCSAVEDIR:   
workdirs:    ./qchem2474958
workdir0:    ./qchem2474958
partmpdirs =  
#
# parallel setting
#
QCRSH:           ssh
QCMPI:           mpich
QCMPIRUN:        /cm/shared/apps/spack/cpu/opt/spack/linux-centos8-zen2/gcc-10.2.0/qchem-5.4-akfmr7b3t57bfs6qan3padb2wnb2i7cl/bin/mpi/mpirun_qchem
QCMACHINEFILE:   ./qchem2474958/hostfile

#
# env setting
#
exported envs:   QC QCAUX QCSCRATCH QCRUNNAME QCFILEPREF QCPROG QCPROG_S GUIFILE

Running Job 1 of 1 Methylthiophene_Phi_50_Theta_10_Methylthiophene_Hydrogenated_Alternate.qcin
qchem Methylthiophene_Phi_50_Theta_10_Methylthiophene_Hydrogenated_Alternate.qcin_2474958.0 ./qchem2474958/ 0
/cm/shared/apps/spack/cpu/opt/spack/linux-centos8-zen2/gcc-10.2.0/qchem-5.4-akfmr7b3t57bfs6qan3padb2wnb2i7cl/exe/qcprog.exe_s Methylthiophene_Phi_50_Theta_10_Methylthiophene_Hydrogenated_Alternate.qcin_2474958.0 ./qchem2474958/
                  Welcome to Q-Chem
     A Quantum Leap Into The Future Of Chemistry


 Q-Chem 5.4, Q-Chem, Inc., Pleasanton, CA (2021)

 License issued to: University of California, San Diego (site)

 E. Epifanovsky,  A. T. B. Gilbert,  Xintian Feng,  Joonho Lee,  Yuezhi Mao,  
 N. Mardirossian,  P. Pokhilko,  A. White,  M. Wormit,  M. P. Coons,  
 A. L. Dempwolff,  Zhengting Gan,  D. Hait,  P. R. Horn,  L. D. Jacobson,  
 I. Kaliman,  J. Kussmann,  A. W. Lange,  Ka Un Lao,  D. S. Levine,  Jie Liu,  
 S. C. McKenzie,  A. F. Morrison,  K. Nanda,  F. Plasser,  D. R. Rehn,  
 M. L. Vidal,  Zhi-Qiang You,  Ying Zhu,  B. Alam,  B. Albrecht,  
 A. Aldossary,  E. Alguire,  J. H. Andersen,  D. Barton,  K. Begam,  A. Behn,  
 Y. A. Bernard,  E. J. Berquist,  H. Burton,  A. Carreras,  K. Carter-Fenk,  
 R. Chakraborty,  A. D. Chien,  K. D. Closser,  V. Cofer-Shabica,  
 S. Dasgupta,  Jia Deng,  M. de Wergifosse,  M. Diedenhofen,  Hainam Do,  
 S. Ehlert,  Po-Tung Fang,  S. Fatehi,  Qingguo Feng,  J. Gayvert,  
 Qinghui Ge,  G. Gidofalvi,  M. Goldey,  J. Gomes,  C. Gonzalez-Espinoza,  
 S. Gulania,  A. Gunina,  M. W. D. Hanson-Heine,  P. H. P. Harbach,  
 A. W. Hauser,  M. F. Herbst,  M. Hernandez Vera,  M. Hodecker,  
 Z. C. Holden,  S. Houck,  Xunkun Huang,  Kerwin Hui,  B. C. Huynh,  
 M. Ivanov,  Hyunjun Ji,  Hanjie Jiang,  B. Kaduk,  S. Kaehler,  
 K. Khistyaev,  Jaehoon Kim,  P. Klunzinger,  Z. Koczor-Benda,  
 Joong Hoon Koh,  D. Kosenkov,  L. Koulias,  T. Kowalczyk,  C. M. Krauter,  
 K. Kue,  A. Kunitsa,  T. Kus,  A. Landau,  K. V. Lawler,  D. Lefrancois,  
 S. Lehtola,  Rain Li,  Yi-Pei Li,  Jiashu Liang,  M. Liebenthal,  
 Hung-Hsuan Lin,  You-Sheng Lin,  Fenglai Liu,  Kuan-Yu Liu,  
 M. Loipersberger,  A. Luenser,  A. Manjanath,  P. Manohar,  E. Mansoor,  
 S. F. Manzer,  Shan-Ping Mao,  A. V. Marenich,  T. Markovich,  S. Mason,  
 S. A. Maurer,  P. F. McLaughlin,  M. F. S. J. Menger,  J.-M. Mewes,  
 S. A. Mewes,  P. Morgante,  J. W. Mullinax,  T. S. Nguyen-Beck,  
 K. J. Oosterbaan,  G. Paran,  Alexander C. Paul,  Suranjan K. Paul,  
 F. Pavosevic,  Zheng Pei,  S. Prager,  E. I. Proynov,  E. Ramos,  B. Rana,  
 A. E. Rask,  A. Rettig,  R. M. Richard,  F. Rob,  E. Rossomme,  T. Scheele,  
 M. Scheurer,  M. Schneider,  N. Sergueev,  S. M. Sharada,  W. Skomorowski,  
 D. W. Small,  C. J. Stein,  Yu-Chuan Su,  E. J. Sundstrom,  Zhen Tao,  
 J. Thirman,  T. Tsuchimochi,  N. M. Tubman,  S. P. Veccham,  O. Vydrov,  
 J. Wenzel,  J. Witte,  A. Yamada,  Kun Yao,  S. Yeganeh,  S. R. Yost,  
 A. Zech,  Igor Ying Zhang,  Xing Zhang,  Yu Zhang,  D. Zuev,  
 A. Aspuru-Guzik,  A. T. Bell,  N. A. Besley,  K. B. Bravaya,  B. R. Brooks,  
 D. Casanova,  Jeng-Da Chai,  S. Coriani,  C. J. Cramer,  
 A. E. DePrince, III,  R. A. DiStasio Jr.,  A. Dreuw,  B. D. Dunietz,  
 T. R. Furlani,  W. A. Goddard III,  S. Grimme,  S. Hammes-Schiffer,  
 T. Head-Gordon,  W. J. Hehre,  Chao-Ping Hsu,  T.-C. Jagau,  Yousung Jung,  
 A. Klamt,  Jing Kong,  D. S. Lambrecht,  WanZhen Liang,  N. J. Mayhall,  
 C. W. McCurdy,  J. B. Neaton,  C. Ochsenfeld,  J. A. Parkhill,  R. Peverati,  
 V. A. Rassolov,  Yihan Shao,  L. V. Slipchenko,  T. Stauch,  R. P. Steele,  
 J. E. Subotnik,  A. J. W. Thom,  A. Tkatchenko,  D. G. Truhlar,  
 T. Van Voorhis,  T. A. Wesolowski,  K. B. Whaley,  H. L. Woodcock III,  
 P. M. Zimmerman,  S. Faraji,  P. M. W. Gill,  M. Head-Gordon,  
 J. M. Herbert,  A. I. Krylov

 Contributors to earlier versions of Q-Chem not listed above: 
 R. D. Adamson,  B. Austin,  R. Baer,  J. Baker,  G. J. O. Beran,  
 K. Brandhorst,  S. T. Brown,  E. F. C. Byrd,  A. K. Chakraborty,  
 G. K. L. Chan,  Chun-Min Chang,  Yunqing Chen,  C.-L. Cheng,  
 Siu Hung Chien,  D. M. Chipman,  D. L. Crittenden,  H. Dachsel,  
 R. J. Doerksen,  A. D. Dutoi,  R. G. Edgar,  J. Fosso-Tande,  
 L. Fusti-Molnar,  D. Ghosh,  A. Ghysels,  A. Golubeva-Zadorozhnaya,  
 J. Gonthier,  M. S. Gordon,  S. R. Gwaltney,  G. Hawkins,  J. E. Herr,  
 A. Heyden,  S. Hirata,  E. G. Hohenstein,  G. Kedziora,  F. J. Keil,  
 C. Kelley,  Jihan Kim,  R. A. King,  R. Z. Khaliullin,  P. P. Korambath,  
 W. Kurlancheek,  A. Laurent,  A. M. Lee,  M. S. Lee,  S. V. Levchenko,  
 Ching Yeh Lin,  D. Liotard,  E. Livshits,  R. C. Lochan,  I. Lotan,  
 L. A. Martinez-Martinez,  P. E. Maslen,  N. Nair,  D. P. O'Neill,  
 D. Neuhauser,  E. Neuscamman,  C. M. Oana,  R. Olivares-Amaya,  R. Olson,  
 T. M. Perrine,  B. Peters,  P. A. Pieniazek,  A. Prociuk,  Y. M. Rhee,  
 J. Ritchie,  M. A. Rohrdanz,  E. Rosta,  N. J. Russ,  H. F. Schaefer III,  
 M. W. Schmidt,  N. E. Schultz,  S. Sharma,  N. Shenvi,  C. D. Sherrill,  
 A. C. Simmonett,  A. Sodt,  T. Stein,  D. Stuck,  K. S. Thanthiriwatte,  
 V. Vanovschi,  L. Vogt,  Tao Wang,  A. Warshel,  M. A. Watson,  
 C. F. Williams,  Q. Wu,  X. Xu,  Jun Yang,  W. Zhang,  Yan Zhao

 Please cite Q-Chem as follows:
 Y. Shao et al., Mol. Phys. 113, 184-215 (2015)
 DOI: 10.1080/00268976.2014.952696

 Q-Chem 5.4.0 for Intel X86 EM64T Linux

 Parts of Q-Chem use Armadillo 9.800.1 (Horizon Scraper).
 http://arma.sourceforge.net/

 Q-Chem begins on Sun Jul 10 00:29:01 2022  

 Host: 
0

     Scratch files written to ./qchem2474958//
 May1621 |scratch|qcdevops|jenkins|workspace|build_RNUM    
 Processing $rem in /cm/shared/apps/spack/cpu/opt/spack/linux-centos8-zen2/gcc-10.2.0/qchem-5.4-akfmr7b3t57bfs6qan3padb2wnb2i7cl/config/preferences:
 Processing $rem in /home/theleonzhang/.qchemrc:
 Symmetry turned off for PCM/SM12/SMD calculation
 Core orbitals will be frozen

 Checking the input file for inconsistencies... 	...done.

--------------------------------------------------------------
User input:
--------------------------------------------------------------
$molecule
0 1
C	-0.135301	-3.866725	0.763228
C	0.106073	-3.703963	-0.603311
C	0.185286	-2.357056	-1.050423
H	0.225783	-4.561092	-1.283188
C	-0.000000	-1.440664	-0.000000
S	-0.268187	-2.286957	1.521021
C	0.438209	-1.978743	-2.483507
H	0.550153	-2.878678	-3.118798
H	1.363906	-1.376015	-2.593381
H	-0.393798	-1.375728	-2.903516
C	0.000000	0.000000	0.000000
C	0.661577	0.555087	1.099446
C	1.721724	1.444630	0.776721
H	0.379056	0.318032	2.136088
C	1.890772	1.586449	-0.612546
S	0.721935	0.605744	-1.486809
C	2.555004	2.143805	1.814609
H	2.228946	1.870211	2.836676
H	2.482605	3.247987	1.726239
H	3.629830	1.880735	1.726228
H	2.617927	2.196579	-1.161575
H	0.688674	-4.392713	1.258111
H	-1.079084	-4.392347	0.946272
H	1.063572	-1.440937	0.187654
$end

$rem
JOBTYPE		SP
EXCHANGE	HF
CORRELATION	pRIMP2
BASIS		cc-pvtz
METHOD		rimp2
AUX_BASIS	rimp2-cc-pvtz
SOLVENT_METHOD	PCM
PURECART	11111
SYMMETRY	false
MEM_TOTAL	110000
SCF_CONVERGENCE = 6
THRESH=10
$end



$solvent
dielectric 4.90
$end
--------------------------------------------------------------
 ----------------------------------------------------------------
             Standard Nuclear Orientation (Angstroms)
    I     Atom           X                Y                Z
 ----------------------------------------------------------------
    1      C      -0.1353010000    -3.8667250000     0.7632280000
    2      C       0.1060730000    -3.7039630000    -0.6033110000
    3      C       0.1852860000    -2.3570560000    -1.0504230000
    4      H       0.2257830000    -4.5610920000    -1.2831880000
    5      C       0.0000000000    -1.4406640000     0.0000000000
    6      S      -0.2681870000    -2.2869570000     1.5210210000
    7      C       0.4382090000    -1.9787430000    -2.4835070000
    8      H       0.5501530000    -2.8786780000    -3.1187980000
    9      H       1.3639060000    -1.3760150000    -2.5933810000
   10      H      -0.3937980000    -1.3757280000    -2.9035160000
   11      C       0.0000000000     0.0000000000     0.0000000000
   12      C       0.6615770000     0.5550870000     1.0994460000
   13      C       1.7217240000     1.4446300000     0.7767210000
   14      H       0.3790560000     0.3180320000     2.1360880000
   15      C       1.8907720000     1.5864490000    -0.6125460000
   16      S       0.7219350000     0.6057440000    -1.4868090000
   17      C       2.5550040000     2.1438050000     1.8146090000
   18      H       2.2289460000     1.8702110000     2.8366760000
   19      H       2.4826050000     3.2479870000     1.7262390000
   20      H       3.6298300000     1.8807350000     1.7262280000
   21      H       2.6179270000     2.1965790000    -1.1615750000
   22      H       0.6886740000    -4.3927130000     1.2581110000
   23      H      -1.0790840000    -4.3923470000     0.9462720000
   24      H       1.0635720000    -1.4409370000     0.1876540000
 ----------------------------------------------------------------
 Nuclear Repulsion Energy =         897.37582656 hartrees
 There are       52 alpha and       52 beta electrons

 Q-Chem warning in module forms1/BasisType.C, line 2236:

 You are not using the predefined 5D/6D in this basis set.

 Requested basis set is cc-pVTZ
 There are 196 shells and 536 basis functions

 Total QAlloc Memory Limit 110000 MB
 Mega-Array Size       188 MB
 MEM_STATIC part       192 MB
 Discretize the solute cavity surface with Lebedev spheres
	Using 110 Lebedev grid points for each H atom
	Using 194 Lebedev grid points for other atoms
	Atomic van der Waals radii will be scaled by 1.20
 Remove points where switching function is < 1.0e-08
 Keep 1546 surface tesserae and discard 2102 interior tesserae
 Molecular Surface Area = 225.579 Angst**2
 Requested basis set is rimp2-cc-pVTZ
 There are 414 shells and 1414 basis functions
 A cutoff of  1.0D-10 yielded  14489 shell pairs
 There are    105015 function pairs (    134621 Cartesian)
 Smallest overlap matrix eigenvalue = 6.41E-05

 Scale SEOQF with 1.000000e-01/1.000000e-01/1.000000e-01

 Standard Electronic Orientation quadrupole field applied
 Nucleus-field energy     =     0.0000000173 hartrees
 Guess from superposition of atomic densities
 Warning:  Energy on first SCF cycle will be non-variational
 SAD guess density has 104.000000 electrons

 -----------------------------------------------------------------------
  General SCF calculation program by
  Eric Jon Sundstrom, Paul Horn, Yuezhi Mao, Dmitri Zuev, Alec White,
  David Stuck, Shaama M.S., Shane Yost, Joonho Lee, David Small,
  Daniel Levine, Susi Lehtola, Hugh Burton, Evgeny Epifanovsky,
  Bang C. Huynh
 -----------------------------------------------------------------------
 Hartree-Fock
 A restricted SCF calculation will be
 performed using DIIS
 SCF converges when DIIS error is below 1.0e-06
 ---------------------------------------
  Cycle       Energy         DIIS error
 ---------------------------------------
    1   -1186.2155597837      2.41e-02  
    2   -1180.5450678069      1.56e-03  
    3   -1180.6728146604      6.02e-04  
    4   -1180.6874082302      3.32e-04  
    5   -1180.6925280486      6.58e-05  
    6   -1180.6928251095      2.66e-05  
    7   -1180.6929030047      1.10e-05  
    8   -1180.6929220791      5.25e-06  
    9   -1180.6929274803      2.48e-06  
   10   -1180.6929288026      1.03e-06  
   11   -1180.6929290523      5.00e-07  Convergence criterion met
 ---------------------------------------
 SCF time:   CPU 657.89s  wall 661.00s 

************** Final PCM Free Energy Summary **************
 G_electrostatic  =      -0.00840083 hartree =      -5.27160107 kcal/mol
 G_cavitation     =       0.00000000 hartree =       0.00000000 kcal/mol
 G_dispersion     =       0.00000000 hartree =       0.00000000 kcal/mol
 G_repulsion      =       0.00000000 hartree =       0.00000000 kcal/mol
 --------------------------------------------------
 Non-electrostatic Free Energy =       0.00000000 hartree =       0.00000000 kcal/mol
 Total                         =      -0.00840083 hartree =      -5.27160107 kcal/mol
 --------------------------------------------------
 SCF Energy (H0 + V/2)                       =   -1180.69292905 
 Solute Internal Energy (H0)                 =   -1180.68452822 
 Total Free Energy (H0 + V/2 + non-elec)     =   -1180.69292905 hartree
                                             = -740895.99532306 kcal/mol
***********************************************************

 SCF   energy in the final basis set =    -1180.6929290523
 Total energy in the final basis set =    -1180.6929290523


 --------------------------------------------------------------
  Generalized many-body perturbation theory program
  by Joonho Lee, Fazle Rob, Xintian Feng, Evgeny Epifanovsky

 No regularization used 
 (reg. param. = 0.0000e+00)
  (P|Q)^-1/2 Time:  CPU 1.89 s  wall 1.90 s

 In RI-MP2 calculation: 
 # of frozen core orbitals: 20

 Components of the RIMP2 correlation energy:
        aaaa    correlation energy =        -0.2552895110 a.u.
        abab    correlation energy =        -1.5139872669 a.u.
        bbbb    correlation energy =        -0.2552895110 a.u.
        non-Brillouin singles      =        -0.0000000000 a.u.
        total same-spin energy     =        -0.5105790219 a.u.
        total opposite-spin energy =        -1.5139872669 a.u.

 Total  RIMP2   correlation energy =        -2.0245662888 a.u.
        RIMP2         total energy =     -1182.7174953411 a.u.

 RI-MP2 Energy Time:  CPU 80.38 s  wall 80.76 s
 
 --------------------------------------------------------------
 
                    Orbital Energies (a.u.)
 --------------------------------------------------------------
 
 Alpha MOs
 -- Occupied --
-91.9776 -91.9408 -11.2730 -11.2709 -11.2612 -11.2577 -11.2519 -11.2406
-11.2402 -11.2290 -11.2275 -11.2172  -8.9792  -8.9456  -6.6598  -6.6591
 -6.6587  -6.6270  -6.6260  -6.6248  -1.2082  -1.1527  -1.0612  -1.0285
 -1.0068  -0.9546  -0.9133  -0.9049  -0.8067  -0.7739  -0.7219  -0.7017
 -0.6632  -0.6452  -0.6123  -0.5865  -0.5858  -0.5734  -0.5699  -0.5535
 -0.5408  -0.5341  -0.5176  -0.5174  -0.4899  -0.4634  -0.4504  -0.4383
 -0.3553  -0.3375  -0.3269  -0.2599
 -- Virtual --
  0.0736   0.1327   0.1462   0.1545   0.1617   0.1686   0.1758   0.1853
  0.1924   0.1946   0.1997   0.2042   0.2210   0.2363   0.2389   0.2440
  0.2570   0.2714   0.2784   0.3053   0.3143   0.3285   0.3495   0.3591
  0.3660   0.3710   0.3754   0.3817   0.4024   0.4109   0.4227   0.4307
  0.4432   0.4568   0.4610   0.4692   0.4727   0.4775   0.4856   0.4900
  0.5007   0.5146   0.5207   0.5285   0.5396   0.5401   0.5500   0.5683
  0.5789   0.5808   0.5891   0.5928   0.6013   0.6133   0.6178   0.6195
  0.6242   0.6269   0.6280   0.6389   0.6417   0.6496   0.6580   0.6615
  0.6627   0.6814   0.6872   0.6950   0.6982   0.7041   0.7153   0.7264
  0.7497   0.7562   0.7653   0.7668   0.7758   0.7906   0.8105   0.8211
  0.8383   0.8444   0.8574   0.8601   0.8684   0.8953   0.9073   0.9225
  0.9310   0.9392   0.9535   0.9569   0.9681   0.9797   0.9994   1.0075
  1.0286   1.0336   1.0351   1.0482   1.0577   1.0686   1.0822   1.0896
  1.0973   1.1162   1.1215   1.1361   1.1447   1.1556   1.1715   1.1776
  1.1839   1.1923   1.1967   1.2025   1.2226   1.2266   1.2341   1.2429
  1.2581   1.2613   1.2740   1.2878   1.2896   1.3023   1.3110   1.3176
  1.3303   1.3357   1.3547   1.3616   1.3654   1.4009   1.4022   1.4189
  1.4349   1.4438   1.4468   1.4620   1.4697   1.4764   1.4779   1.4952
  1.5136   1.5171   1.5211   1.5264   1.5344   1.5414   1.5489   1.5577
  1.5681   1.5721   1.5872   1.5977   1.6098   1.6332   1.6377   1.6490
  1.6599   1.6638   1.6758   1.6919   1.7013   1.7036   1.7193   1.7374
  1.7421   1.7628   1.7869   1.7951   1.8172   1.8272   1.8387   1.8662
  1.8924   1.9231   1.9327   1.9612   1.9708   1.9933   2.0045   2.0298
  2.0369   2.0443   2.0693   2.0846   2.0973   2.1117   2.1290   2.1743
  2.1844   2.1972   2.2030   2.2139   2.2309   2.2405   2.2861   2.2919
  2.3134   2.3179   2.3413   2.3816   2.4050   2.4365   2.4664   2.4769
  2.5041   2.5229   2.5380   2.5527   2.5620   2.6037   2.6099   2.6264
  2.6330   2.6522   2.6623   2.6717   2.6903   2.6937   2.7078   2.7261
  2.7402   2.7528   2.7702   2.7764   2.7937   2.8066   2.8223   2.8354
  2.8394   2.8468   2.8518   2.8901   2.8901   2.9233   2.9322   2.9408
  2.9677   2.9814   2.9858   3.0047   3.0119   3.0267   3.0348   3.0429
  3.0553   3.0915   3.0959   3.1119   3.1174   3.1260   3.1454   3.1528
  3.1572   3.1690   3.1788   3.1828   3.1915   3.2065   3.2118   3.2229
  3.2345   3.2475   3.2546   3.2633   3.2698   3.2836   3.2900   3.2926
  3.3052   3.3150   3.3326   3.3422   3.3473   3.3502   3.3583   3.3692
  3.3721   3.3843   3.3982   3.4018   3.4113   3.4194   3.4291   3.4342
  3.4431   3.4588   3.4609   3.4737   3.4773   3.4964   3.5012   3.5142
  3.5237   3.5292   3.5379   3.5395   3.5502   3.5631   3.5672   3.5885
  3.6050   3.6093   3.6265   3.6315   3.6364   3.6514   3.6706   3.6722
  3.6963   3.7005   3.7107   3.7203   3.7217   3.7333   3.7425   3.7554
  3.7563   3.7679   3.7720   3.7994   3.8053   3.8102   3.8303   3.8406
  3.8522   3.8624   3.8652   3.8688   3.8898   3.8951   3.9052   3.9427
  3.9494   3.9586   3.9705   3.9737   3.9882   3.9958   4.0188   4.0309
  4.0378   4.0421   4.0500   4.0714   4.0787   4.0912   4.1147   4.1190
  4.1330   4.1389   4.1579   4.1631   4.1760   4.1797   4.2035   4.2092
  4.2252   4.2296   4.2333   4.2561   4.2586   4.2692   4.2782   4.2827
  4.3084   4.3169   4.3318   4.3339   4.3491   4.3522   4.3674   4.3815
  4.3893   4.4018   4.4031   4.4198   4.4256   4.4411   4.4481   4.4571
  4.4629   4.4879   4.4962   4.5040   4.5346   4.5382   4.5713   4.5795
  4.5932   4.5997   4.6292   4.6330   4.6433   4.6555   4.6729   4.6880
  4.7000   4.7323   4.7537   4.7688   4.7825   4.8229   4.8265   4.8534
  4.8629   4.8828   4.8980   4.9207   4.9316   4.9454   4.9730   4.9930
  5.0131   5.0560   5.0869   5.1119   5.1195   5.1321   5.1541   5.1819
  5.1878   5.2048   5.2263   5.2772   5.2851   5.2917   5.3073   5.3169
  5.3541   5.3626   5.3922   5.4002   5.4135   5.4397   5.4463   5.4559
  5.4818   5.5068   5.5383   5.5452   5.5573   5.5631   5.5806   5.5927
  5.6286   5.6293   5.6411   5.6552   5.6916   5.7000   5.7194   5.7233
  5.7699   5.7970   5.8269   5.9846   6.0144   6.0957   6.1240   6.1536
  6.2133   6.2257   6.2402   6.2555   6.2681   6.2769   6.2961   6.3120
  6.3811   6.4258   9.4247  10.5684  12.5383  12.8561  13.1821  13.8426
 14.1343  14.2599  14.3715  14.8219
 --------------------------------------------------------------
 
          Ground-State Mulliken Net Atomic Charges

     Atom                 Charge (a.u.)
  ----------------------------------------
      1 C                    -0.074378
      2 C                    -0.326408
      3 C                    -0.047814
      4 H                     0.176807
      5 C                     0.088869
      6 S                    -0.206813
      7 C                    -0.285539
      8 H                     0.110558
      9 H                     0.112106
     10 H                     0.112332
     11 C                    -0.066162
     12 C                    -0.221197
     13 C                     0.012723
     14 H                     0.183319
     15 C                    -0.242156
     16 S                     0.027595
     17 C                    -0.267508
     18 H                     0.103695
     19 H                     0.108034
     20 H                     0.105561
     21 H                     0.198911
     22 H                     0.109658
     23 H                     0.112437
     24 H                     0.175370
  ----------------------------------------
  Sum of atomic charges =     0.000000

 -----------------------------------------------------------------
                    Cartesian Multipole Moments
 -----------------------------------------------------------------
    Charge (ESU x 10^10)
                -0.0000
    Dipole Moment (Debye)
         X       2.9508      Y       0.0429      Z      -1.0263
       Tot       3.1245
    Quadrupole Moments (Debye-Ang)
        XX     -85.2931     XY       3.5408     YY     -80.8324
        XZ       0.6976     YZ       3.6148     ZZ     -85.0772
    Octopole Moments (Debye-Ang^2)
       XXX    -149.5828    XXY      87.1328    XYY     -40.3438
       YYY     177.0324    XXZ      -1.9692    XYZ      -1.2677
       YYZ       0.2069    XZZ     -45.3834    YZZ      73.8238
       ZZZ      -3.5592
    Hexadecapole Moments (Debye-Ang^3)
      XXXX    -707.9874   XXXY    -211.0871   XXYY    -525.8169
      XYYY    -226.4266   YYYY   -2310.5462   XXXZ     -28.8269
      XXYZ     -28.1366   XYYZ     -16.1996   YYYZ     -71.7813
      XXZZ    -299.0936   XYZZ     -75.9845   YYZZ    -583.8659
      XZZZ     -29.3001   YZZZ     -30.2817   ZZZZ   -1078.1831
 -----------------------------------------------------------------
 Total job time:  743.97s(wall), 739.16s(cpu) 
 Sun Jul 10 00:41:25 2022

        *************************************************************
        *                                                           *
        *  Thank you very much for using Q-Chem.  Have a nice day.  *
        *                                                           *
        *************************************************************


remove work dirs ./qchem2474958.0 -- ./qchem2474958.-1
rm -rf ./qchem2474958
