You are running Q-Chem version: 5.4.0

#
# job setting
#
local host:  exp-2-23
current dir: /expanse/lustre/scratch/theleonzhang/temp_project/Hydrogenated_Rotation_Test
input file:  Methylthiophene_Phi_25_Theta_10_Methylthiophene_Hydrogenated_Alternate.qcin
output file: 
nprocs     : 0
nthreads   : 1
#
# qchem installation setting
#
QC:          /cm/shared/apps/spack/cpu/opt/spack/linux-centos8-zen2/gcc-10.2.0/qchem-5.4-akfmr7b3t57bfs6qan3padb2wnb2i7cl
QCAUX:       /cm/shared/apps/spack/cpu/opt/spack/linux-centos8-zen2/gcc-10.2.0/qchem-5.4-akfmr7b3t57bfs6qan3padb2wnb2i7cl/qcaux
QCPROG:      /cm/shared/apps/spack/cpu/opt/spack/linux-centos8-zen2/gcc-10.2.0/qchem-5.4-akfmr7b3t57bfs6qan3padb2wnb2i7cl/exe/qcprog.exe_s
QCPROG_S:    /cm/shared/apps/spack/cpu/opt/spack/linux-centos8-zen2/gcc-10.2.0/qchem-5.4-akfmr7b3t57bfs6qan3padb2wnb2i7cl/exe/qcprog.exe_s
PARALLEL:    -DSERIAL
QCMPI:       mpich
#
# qchem directory setting
#
qcrun:       qchem3397103
QCSCRATCH:   .
QCLOCALSCR:  
QCTMPDIR:    .
QCFILEPREF:  ./qchem3397103
QCSAVEDIR:   
workdirs:    ./qchem3397103
workdir0:    ./qchem3397103
partmpdirs =  
#
# parallel setting
#
QCRSH:           ssh
QCMPI:           mpich
QCMPIRUN:        /cm/shared/apps/spack/cpu/opt/spack/linux-centos8-zen2/gcc-10.2.0/qchem-5.4-akfmr7b3t57bfs6qan3padb2wnb2i7cl/bin/mpi/mpirun_qchem
QCMACHINEFILE:   ./qchem3397103/hostfile

#
# env setting
#
exported envs:   QC QCAUX QCSCRATCH QCRUNNAME QCFILEPREF QCPROG QCPROG_S GUIFILE

Running Job 1 of 1 Methylthiophene_Phi_25_Theta_10_Methylthiophene_Hydrogenated_Alternate.qcin
qchem Methylthiophene_Phi_25_Theta_10_Methylthiophene_Hydrogenated_Alternate.qcin_3397103.0 ./qchem3397103/ 0
/cm/shared/apps/spack/cpu/opt/spack/linux-centos8-zen2/gcc-10.2.0/qchem-5.4-akfmr7b3t57bfs6qan3padb2wnb2i7cl/exe/qcprog.exe_s Methylthiophene_Phi_25_Theta_10_Methylthiophene_Hydrogenated_Alternate.qcin_3397103.0 ./qchem3397103/
                  Welcome to Q-Chem
     A Quantum Leap Into The Future Of Chemistry


 Q-Chem 5.4, Q-Chem, Inc., Pleasanton, CA (2021)

 License issued to: University of California, San Diego (site)

 E. Epifanovsky,  A. T. B. Gilbert,  Xintian Feng,  Joonho Lee,  Yuezhi Mao,  
 N. Mardirossian,  P. Pokhilko,  A. White,  M. Wormit,  M. P. Coons,  
 A. L. Dempwolff,  Zhengting Gan,  D. Hait,  P. R. Horn,  L. D. Jacobson,  
 I. Kaliman,  J. Kussmann,  A. W. Lange,  Ka Un Lao,  D. S. Levine,  Jie Liu,  
 S. C. McKenzie,  A. F. Morrison,  K. Nanda,  F. Plasser,  D. R. Rehn,  
 M. L. Vidal,  Zhi-Qiang You,  Ying Zhu,  B. Alam,  B. Albrecht,  
 A. Aldossary,  E. Alguire,  J. H. Andersen,  D. Barton,  K. Begam,  A. Behn,  
 Y. A. Bernard,  E. J. Berquist,  H. Burton,  A. Carreras,  K. Carter-Fenk,  
 R. Chakraborty,  A. D. Chien,  K. D. Closser,  V. Cofer-Shabica,  
 S. Dasgupta,  Jia Deng,  M. de Wergifosse,  M. Diedenhofen,  Hainam Do,  
 S. Ehlert,  Po-Tung Fang,  S. Fatehi,  Qingguo Feng,  J. Gayvert,  
 Qinghui Ge,  G. Gidofalvi,  M. Goldey,  J. Gomes,  C. Gonzalez-Espinoza,  
 S. Gulania,  A. Gunina,  M. W. D. Hanson-Heine,  P. H. P. Harbach,  
 A. W. Hauser,  M. F. Herbst,  M. Hernandez Vera,  M. Hodecker,  
 Z. C. Holden,  S. Houck,  Xunkun Huang,  Kerwin Hui,  B. C. Huynh,  
 M. Ivanov,  Hyunjun Ji,  Hanjie Jiang,  B. Kaduk,  S. Kaehler,  
 K. Khistyaev,  Jaehoon Kim,  P. Klunzinger,  Z. Koczor-Benda,  
 Joong Hoon Koh,  D. Kosenkov,  L. Koulias,  T. Kowalczyk,  C. M. Krauter,  
 K. Kue,  A. Kunitsa,  T. Kus,  A. Landau,  K. V. Lawler,  D. Lefrancois,  
 S. Lehtola,  Rain Li,  Yi-Pei Li,  Jiashu Liang,  M. Liebenthal,  
 Hung-Hsuan Lin,  You-Sheng Lin,  Fenglai Liu,  Kuan-Yu Liu,  
 M. Loipersberger,  A. Luenser,  A. Manjanath,  P. Manohar,  E. Mansoor,  
 S. F. Manzer,  Shan-Ping Mao,  A. V. Marenich,  T. Markovich,  S. Mason,  
 S. A. Maurer,  P. F. McLaughlin,  M. F. S. J. Menger,  J.-M. Mewes,  
 S. A. Mewes,  P. Morgante,  J. W. Mullinax,  T. S. Nguyen-Beck,  
 K. J. Oosterbaan,  G. Paran,  Alexander C. Paul,  Suranjan K. Paul,  
 F. Pavosevic,  Zheng Pei,  S. Prager,  E. I. Proynov,  E. Ramos,  B. Rana,  
 A. E. Rask,  A. Rettig,  R. M. Richard,  F. Rob,  E. Rossomme,  T. Scheele,  
 M. Scheurer,  M. Schneider,  N. Sergueev,  S. M. Sharada,  W. Skomorowski,  
 D. W. Small,  C. J. Stein,  Yu-Chuan Su,  E. J. Sundstrom,  Zhen Tao,  
 J. Thirman,  T. Tsuchimochi,  N. M. Tubman,  S. P. Veccham,  O. Vydrov,  
 J. Wenzel,  J. Witte,  A. Yamada,  Kun Yao,  S. Yeganeh,  S. R. Yost,  
 A. Zech,  Igor Ying Zhang,  Xing Zhang,  Yu Zhang,  D. Zuev,  
 A. Aspuru-Guzik,  A. T. Bell,  N. A. Besley,  K. B. Bravaya,  B. R. Brooks,  
 D. Casanova,  Jeng-Da Chai,  S. Coriani,  C. J. Cramer,  
 A. E. DePrince, III,  R. A. DiStasio Jr.,  A. Dreuw,  B. D. Dunietz,  
 T. R. Furlani,  W. A. Goddard III,  S. Grimme,  S. Hammes-Schiffer,  
 T. Head-Gordon,  W. J. Hehre,  Chao-Ping Hsu,  T.-C. Jagau,  Yousung Jung,  
 A. Klamt,  Jing Kong,  D. S. Lambrecht,  WanZhen Liang,  N. J. Mayhall,  
 C. W. McCurdy,  J. B. Neaton,  C. Ochsenfeld,  J. A. Parkhill,  R. Peverati,  
 V. A. Rassolov,  Yihan Shao,  L. V. Slipchenko,  T. Stauch,  R. P. Steele,  
 J. E. Subotnik,  A. J. W. Thom,  A. Tkatchenko,  D. G. Truhlar,  
 T. Van Voorhis,  T. A. Wesolowski,  K. B. Whaley,  H. L. Woodcock III,  
 P. M. Zimmerman,  S. Faraji,  P. M. W. Gill,  M. Head-Gordon,  
 J. M. Herbert,  A. I. Krylov

 Contributors to earlier versions of Q-Chem not listed above: 
 R. D. Adamson,  B. Austin,  R. Baer,  J. Baker,  G. J. O. Beran,  
 K. Brandhorst,  S. T. Brown,  E. F. C. Byrd,  A. K. Chakraborty,  
 G. K. L. Chan,  Chun-Min Chang,  Yunqing Chen,  C.-L. Cheng,  
 Siu Hung Chien,  D. M. Chipman,  D. L. Crittenden,  H. Dachsel,  
 R. J. Doerksen,  A. D. Dutoi,  R. G. Edgar,  J. Fosso-Tande,  
 L. Fusti-Molnar,  D. Ghosh,  A. Ghysels,  A. Golubeva-Zadorozhnaya,  
 J. Gonthier,  M. S. Gordon,  S. R. Gwaltney,  G. Hawkins,  J. E. Herr,  
 A. Heyden,  S. Hirata,  E. G. Hohenstein,  G. Kedziora,  F. J. Keil,  
 C. Kelley,  Jihan Kim,  R. A. King,  R. Z. Khaliullin,  P. P. Korambath,  
 W. Kurlancheek,  A. Laurent,  A. M. Lee,  M. S. Lee,  S. V. Levchenko,  
 Ching Yeh Lin,  D. Liotard,  E. Livshits,  R. C. Lochan,  I. Lotan,  
 L. A. Martinez-Martinez,  P. E. Maslen,  N. Nair,  D. P. O'Neill,  
 D. Neuhauser,  E. Neuscamman,  C. M. Oana,  R. Olivares-Amaya,  R. Olson,  
 T. M. Perrine,  B. Peters,  P. A. Pieniazek,  A. Prociuk,  Y. M. Rhee,  
 J. Ritchie,  M. A. Rohrdanz,  E. Rosta,  N. J. Russ,  H. F. Schaefer III,  
 M. W. Schmidt,  N. E. Schultz,  S. Sharma,  N. Shenvi,  C. D. Sherrill,  
 A. C. Simmonett,  A. Sodt,  T. Stein,  D. Stuck,  K. S. Thanthiriwatte,  
 V. Vanovschi,  L. Vogt,  Tao Wang,  A. Warshel,  M. A. Watson,  
 C. F. Williams,  Q. Wu,  X. Xu,  Jun Yang,  W. Zhang,  Yan Zhao

 Please cite Q-Chem as follows:
 Y. Shao et al., Mol. Phys. 113, 184-215 (2015)
 DOI: 10.1080/00268976.2014.952696

 Q-Chem 5.4.0 for Intel X86 EM64T Linux

 Parts of Q-Chem use Armadillo 9.800.1 (Horizon Scraper).
 http://arma.sourceforge.net/

 Q-Chem begins on Sun Jul 10 00:58:57 2022  

 Host: 
0

     Scratch files written to ./qchem3397103//
 May1621 |scratch|qcdevops|jenkins|workspace|build_RNUM    
 Processing $rem in /cm/shared/apps/spack/cpu/opt/spack/linux-centos8-zen2/gcc-10.2.0/qchem-5.4-akfmr7b3t57bfs6qan3padb2wnb2i7cl/config/preferences:
 Processing $rem in /home/theleonzhang/.qchemrc:
 Symmetry turned off for PCM/SM12/SMD calculation
 Core orbitals will be frozen

 Checking the input file for inconsistencies... 	...done.

--------------------------------------------------------------
User input:
--------------------------------------------------------------
$molecule
0 1
C	-0.135301	-3.866725	0.763228
C	0.106073	-3.703963	-0.603311
C	0.185286	-2.357056	-1.050423
H	0.225783	-4.561092	-1.283188
C	-0.000000	-1.440664	-0.000000
S	-0.268187	-2.286957	1.521021
C	0.438209	-1.978743	-2.483507
H	0.550153	-2.878678	-3.118798
H	1.363906	-1.376015	-2.593381
H	-0.393798	-1.375728	-2.903516
C	0.000000	0.000000	0.000000
C	0.365003	0.782674	1.099446
C	0.949885	2.036912	0.776721
H	0.209135	0.448431	2.136088
C	1.043159	2.236886	-0.612546
S	0.398297	0.854094	-1.486809
C	1.409609	3.022738	1.814609
H	1.229726	2.636980	2.836676
H	0.877346	3.992870	1.726239
H	2.494910	3.238558	1.726228
H	1.444334	3.097160	-1.161575
H	0.688674	-4.392713	1.258111
H	-1.079084	-4.392347	0.946272
H	1.063572	-1.440937	0.187654
$end

$rem
JOBTYPE		SP
EXCHANGE	HF
CORRELATION	pRIMP2
BASIS		cc-pvtz
METHOD		rimp2
AUX_BASIS	rimp2-cc-pvtz
SOLVENT_METHOD	PCM
PURECART	11111
SYMMETRY	false
MEM_TOTAL	110000
SCF_CONVERGENCE = 6
THRESH=10
$end



$solvent
dielectric 4.90
$end
--------------------------------------------------------------
 ----------------------------------------------------------------
             Standard Nuclear Orientation (Angstroms)
    I     Atom           X                Y                Z
 ----------------------------------------------------------------
    1      C      -0.1353010000    -3.8667250000     0.7632280000
    2      C       0.1060730000    -3.7039630000    -0.6033110000
    3      C       0.1852860000    -2.3570560000    -1.0504230000
    4      H       0.2257830000    -4.5610920000    -1.2831880000
    5      C       0.0000000000    -1.4406640000     0.0000000000
    6      S      -0.2681870000    -2.2869570000     1.5210210000
    7      C       0.4382090000    -1.9787430000    -2.4835070000
    8      H       0.5501530000    -2.8786780000    -3.1187980000
    9      H       1.3639060000    -1.3760150000    -2.5933810000
   10      H      -0.3937980000    -1.3757280000    -2.9035160000
   11      C       0.0000000000     0.0000000000     0.0000000000
   12      C       0.3650030000     0.7826740000     1.0994460000
   13      C       0.9498850000     2.0369120000     0.7767210000
   14      H       0.2091350000     0.4484310000     2.1360880000
   15      C       1.0431590000     2.2368860000    -0.6125460000
   16      S       0.3982970000     0.8540940000    -1.4868090000
   17      C       1.4096090000     3.0227380000     1.8146090000
   18      H       1.2297260000     2.6369800000     2.8366760000
   19      H       0.8773460000     3.9928700000     1.7262390000
   20      H       2.4949100000     3.2385580000     1.7262280000
   21      H       1.4443340000     3.0971600000    -1.1615750000
   22      H       0.6886740000    -4.3927130000     1.2581110000
   23      H      -1.0790840000    -4.3923470000     0.9462720000
   24      H       1.0635720000    -1.4409370000     0.1876540000
 ----------------------------------------------------------------
 Nuclear Repulsion Energy =         881.48869047 hartrees
 There are       52 alpha and       52 beta electrons

 Q-Chem warning in module forms1/BasisType.C, line 2236:

 You are not using the predefined 5D/6D in this basis set.

 Requested basis set is cc-pVTZ
 There are 196 shells and 536 basis functions

 Total QAlloc Memory Limit 110000 MB
 Mega-Array Size       188 MB
 MEM_STATIC part       192 MB
 Discretize the solute cavity surface with Lebedev spheres
	Using 110 Lebedev grid points for each H atom
	Using 194 Lebedev grid points for other atoms
	Atomic van der Waals radii will be scaled by 1.20
 Remove points where switching function is < 1.0e-08
 Keep 1578 surface tesserae and discard 2070 interior tesserae
 Molecular Surface Area = 228.901 Angst**2
 Requested basis set is rimp2-cc-pVTZ
 There are 414 shells and 1414 basis functions
 A cutoff of  1.0D-10 yielded  14053 shell pairs
 There are    101767 function pairs (    130471 Cartesian)
 Smallest overlap matrix eigenvalue = 5.65E-05

 Scale SEOQF with 1.000000e-01/1.000000e-01/1.000000e-01

 Standard Electronic Orientation quadrupole field applied
 Nucleus-field energy     =     0.0000000203 hartrees
 Guess from superposition of atomic densities
 Warning:  Energy on first SCF cycle will be non-variational
 SAD guess density has 104.000000 electrons

 -----------------------------------------------------------------------
  General SCF calculation program by
  Eric Jon Sundstrom, Paul Horn, Yuezhi Mao, Dmitri Zuev, Alec White,
  David Stuck, Shaama M.S., Shane Yost, Joonho Lee, David Small,
  Daniel Levine, Susi Lehtola, Hugh Burton, Evgeny Epifanovsky,
  Bang C. Huynh
 -----------------------------------------------------------------------
 Hartree-Fock
 A restricted SCF calculation will be
 performed using DIIS
 SCF converges when DIIS error is below 1.0e-06
 ---------------------------------------
  Cycle       Energy         DIIS error
 ---------------------------------------
    1   -1186.0883271732      2.39e-02  
    2   -1180.5960899230      1.59e-03  
    3   -1180.7225745443      6.63e-04  
    4   -1180.7387889268      3.54e-04  
    5   -1180.7446064030      6.02e-05  
    6   -1180.7448590397      2.48e-05  
    7   -1180.7449164522      8.48e-06  
    8   -1180.7449277180      3.99e-06  
    9   -1180.7449300851      1.36e-06  
   10   -1180.7449304692      4.91e-07  Convergence criterion met
 ---------------------------------------
 SCF time:   CPU 578.80s  wall 581.00s 

************** Final PCM Free Energy Summary **************
 G_electrostatic  =      -0.00801647 hartree =      -5.03040774 kcal/mol
 G_cavitation     =       0.00000000 hartree =       0.00000000 kcal/mol
 G_dispersion     =       0.00000000 hartree =       0.00000000 kcal/mol
 G_repulsion      =       0.00000000 hartree =       0.00000000 kcal/mol
 --------------------------------------------------
 Non-electrostatic Free Energy =       0.00000000 hartree =       0.00000000 kcal/mol
 Total                         =      -0.00801647 hartree =      -5.03040774 kcal/mol
 --------------------------------------------------
 SCF Energy (H0 + V/2)                       =   -1180.74493047 
 Solute Internal Energy (H0)                 =   -1180.73691400 
 Total Free Energy (H0 + V/2 + non-elec)     =   -1180.74493047 hartree
                                             = -740928.62670467 kcal/mol
***********************************************************

 SCF   energy in the final basis set =    -1180.7449304692
 Total energy in the final basis set =    -1180.7449304692


 --------------------------------------------------------------
  Generalized many-body perturbation theory program
  by Joonho Lee, Fazle Rob, Xintian Feng, Evgeny Epifanovsky

 No regularization used 
 (reg. param. = 0.0000e+00)
  (P|Q)^-1/2 Time:  CPU 1.90 s  wall 1.90 s

 In RI-MP2 calculation: 
 # of frozen core orbitals: 20

 Components of the RIMP2 correlation energy:
        aaaa    correlation energy =        -0.2523299279 a.u.
        abab    correlation energy =        -1.5052080534 a.u.
        bbbb    correlation energy =        -0.2523299279 a.u.
        non-Brillouin singles      =        -0.0000000000 a.u.
        total same-spin energy     =        -0.5046598557 a.u.
        total opposite-spin energy =        -1.5052080534 a.u.

 Total  RIMP2   correlation energy =        -2.0098679092 a.u.
        RIMP2         total energy =     -1182.7547983784 a.u.

 RI-MP2 Energy Time:  CPU 79.74 s  wall 80.04 s
 
 --------------------------------------------------------------
 
                    Orbital Energies (a.u.)
 --------------------------------------------------------------
 
 Alpha MOs
 -- Occupied --
-91.9804 -91.9452 -11.2880 -11.2648 -11.2617 -11.2553 -11.2502 -11.2436
-11.2314 -11.2309 -11.2277 -11.2220  -8.9807  -8.9499  -6.6616  -6.6610
 -6.6603  -6.6313  -6.6303  -6.6290  -1.2038  -1.1522  -1.0610  -1.0283
 -1.0067  -0.9555  -0.9156  -0.9022  -0.8125  -0.7724  -0.7180  -0.7026
 -0.6628  -0.6477  -0.6114  -0.5890  -0.5829  -0.5720  -0.5685  -0.5540
 -0.5423  -0.5337  -0.5166  -0.5117  -0.4905  -0.4781  -0.4563  -0.4442
 -0.3581  -0.3412  -0.3266  -0.2633
 -- Virtual --
  0.0963   0.1340   0.1451   0.1531   0.1607   0.1726   0.1730   0.1839
  0.1930   0.1981   0.2004   0.2049   0.2256   0.2340   0.2392   0.2464
  0.2491   0.2692   0.2765   0.3067   0.3198   0.3361   0.3549   0.3658
  0.3709   0.3753   0.3768   0.3934   0.4083   0.4118   0.4213   0.4366
  0.4454   0.4505   0.4577   0.4635   0.4787   0.4807   0.4870   0.4950
  0.5079   0.5151   0.5182   0.5345   0.5380   0.5435   0.5568   0.5594
  0.5615   0.5827   0.5945   0.5955   0.5996   0.6155   0.6180   0.6222
  0.6236   0.6268   0.6357   0.6373   0.6402   0.6470   0.6515   0.6577
  0.6642   0.6708   0.6840   0.6858   0.6944   0.7116   0.7240   0.7289
  0.7304   0.7604   0.7742   0.7786   0.7850   0.7974   0.8143   0.8192
  0.8420   0.8435   0.8543   0.8583   0.8795   0.8946   0.9115   0.9227
  0.9268   0.9359   0.9581   0.9611   0.9778   0.9808   0.9962   0.9989
  1.0150   1.0264   1.0280   1.0520   1.0573   1.0623   1.0763   1.0777
  1.0934   1.1075   1.1281   1.1327   1.1456   1.1522   1.1552   1.1692
  1.1769   1.1837   1.1978   1.2089   1.2163   1.2251   1.2313   1.2409
  1.2618   1.2653   1.2699   1.2781   1.2835   1.2910   1.2981   1.3099
  1.3171   1.3293   1.3456   1.3630   1.3792   1.3988   1.4056   1.4112
  1.4365   1.4425   1.4442   1.4561   1.4624   1.4798   1.4868   1.4980
  1.5078   1.5170   1.5213   1.5282   1.5369   1.5409   1.5501   1.5509
  1.5613   1.5785   1.5814   1.5940   1.6111   1.6335   1.6445   1.6529
  1.6623   1.6634   1.6842   1.6901   1.7008   1.7145   1.7239   1.7317
  1.7374   1.7710   1.7807   1.7999   1.8064   1.8227   1.8469   1.8531
  1.8884   1.9066   1.9322   1.9502   1.9574   1.9742   1.9838   2.0207
  2.0336   2.0504   2.0559   2.0661   2.0846   2.1093   2.1265   2.1509
  2.1862   2.2023   2.2104   2.2182   2.2295   2.2538   2.2843   2.2866
  2.3076   2.3337   2.3607   2.3788   2.4072   2.4392   2.4586   2.4668
  2.4964   2.5151   2.5314   2.5410   2.5590   2.5864   2.5961   2.6130
  2.6422   2.6541   2.6580   2.6690   2.6824   2.6928   2.7073   2.7282
  2.7469   2.7508   2.7583   2.7740   2.7837   2.7897   2.8154   2.8231
  2.8370   2.8464   2.8527   2.8780   2.8849   2.9053   2.9274   2.9543
  2.9634   2.9714   2.9788   2.9997   3.0081   3.0197   3.0294   3.0413
  3.0680   3.0760   3.0853   3.1112   3.1141   3.1210   3.1324   3.1413
  3.1538   3.1610   3.1690   3.1764   3.1824   3.2019   3.2143   3.2185
  3.2255   3.2339   3.2462   3.2549   3.2701   3.2823   3.2974   3.2996
  3.3146   3.3238   3.3303   3.3378   3.3470   3.3520   3.3601   3.3639
  3.3723   3.3841   3.3872   3.4041   3.4105   3.4185   3.4282   3.4296
  3.4360   3.4414   3.4638   3.4715   3.4751   3.4906   3.4984   3.5090
  3.5132   3.5272   3.5334   3.5390   3.5500   3.5575   3.5793   3.5847
  3.5977   3.6146   3.6176   3.6237   3.6336   3.6413   3.6483   3.6568
  3.6744   3.6930   3.7002   3.7087   3.7165   3.7265   3.7332   3.7462
  3.7511   3.7557   3.7655   3.7789   3.7935   3.7960   3.8076   3.8147
  3.8241   3.8426   3.8519   3.8578   3.8711   3.8876   3.9073   3.9109
  3.9428   3.9462   3.9530   3.9675   3.9791   3.9918   4.0020   4.0130
  4.0268   4.0369   4.0493   4.0590   4.0727   4.0840   4.1071   4.1164
  4.1244   4.1349   4.1456   4.1494   4.1631   4.1788   4.1947   4.2091
  4.2102   4.2150   4.2316   4.2415   4.2483   4.2634   4.2713   4.2840
  4.2964   4.3069   4.3325   4.3395   4.3449   4.3526   4.3657   4.3688
  4.3846   4.4001   4.4030   4.4093   4.4120   4.4309   4.4355   4.4507
  4.4650   4.4727   4.4928   4.5036   4.5089   4.5244   4.5493   4.5707
  4.5801   4.5997   4.6095   4.6352   4.6438   4.6588   4.6647   4.6779
  4.7121   4.7290   4.7313   4.7562   4.7844   4.8089   4.8195   4.8393
  4.8561   4.8714   4.8989   4.9077   4.9250   4.9646   4.9696   4.9980
  5.0359   5.0578   5.0902   5.0998   5.1187   5.1258   5.1652   5.1820
  5.1934   5.2164   5.2248   5.2702   5.2855   5.2884   5.3078   5.3131
  5.3451   5.3652   5.3826   5.3926   5.4084   5.4190   5.4410   5.4550
  5.4982   5.5050   5.5253   5.5417   5.5530   5.5642   5.5672   5.5760
  5.6240   5.6360   5.6378   5.6733   5.6790   5.6993   5.7002   5.7267
  5.7652   5.7927   5.8434   5.9622   6.0033   6.0930   6.1357   6.1516
  6.2286   6.2303   6.2364   6.2459   6.2686   6.2876   6.2959   6.3094
  6.4240   6.4503   9.4519  10.6398  12.0960  12.9201  13.1813  13.9001
 14.1408  14.2854  14.3635  14.8254
 --------------------------------------------------------------
 
          Ground-State Mulliken Net Atomic Charges

     Atom                 Charge (a.u.)
  ----------------------------------------
      1 C                    -0.074721
      2 C                    -0.316167
      3 C                    -0.049783
      4 H                     0.178687
      5 C                     0.098499
      6 S                    -0.189694
      7 C                    -0.304613
      8 H                     0.118045
      9 H                     0.113415
     10 H                     0.113104
     11 C                     0.005660
     12 C                    -0.314672
     13 C                     0.047470
     14 H                     0.177834
     15 C                    -0.279272
     16 S                     0.010057
     17 C                    -0.270276
     18 H                     0.102828
     19 H                     0.108658
     20 H                     0.107550
     21 H                     0.196589
     22 H                     0.111433
     23 H                     0.113466
     24 H                     0.195901
  ----------------------------------------
  Sum of atomic charges =     0.000000

 -----------------------------------------------------------------
                    Cartesian Multipole Moments
 -----------------------------------------------------------------
    Charge (ESU x 10^10)
                -0.0000
    Dipole Moment (Debye)
         X       1.9245      Y      -0.4417      Z      -0.9488
       Tot       2.1907
    Quadrupole Moments (Debye-Ang)
        XX     -89.9890     XY       1.7389     YY     -75.3417
        XZ       0.6351     YZ       4.1556     ZZ     -85.4254
    Octopole Moments (Debye-Ang^2)
       XXX     -91.3960    XXY      57.0723    XYY     -15.3590
       YYY     127.1768    XXZ      -0.1143    XYZ      -0.2856
       YYZ      -0.6297    XZZ     -24.6814    YZZ      55.0483
       ZZZ      -3.7804
    Hexadecapole Moments (Debye-Ang^3)
      XXXX    -333.9899   XXXY    -187.8218   XXYY    -538.7759
      XYYY    -158.8451   YYYY   -2633.0561   XXXZ      11.6422
      XXYZ     -31.3087   XYYZ      -5.8038   YYYZ     -99.0325
      XXZZ    -243.6099   XYZZ     -60.7868   YYZZ    -633.5877
      XZZZ       4.6463   YZZZ     -54.8099   ZZZZ   -1078.1583
 -----------------------------------------------------------------
 Total job time:  664.14s(wall), 659.44s(cpu) 
 Sun Jul 10 01:10:01 2022

        *************************************************************
        *                                                           *
        *  Thank you very much for using Q-Chem.  Have a nice day.  *
        *                                                           *
        *************************************************************


remove work dirs ./qchem3397103.0 -- ./qchem3397103.-1
rm -rf ./qchem3397103
