You are running Q-Chem version: 5.4.0

#
# job setting
#
local host:  exp-1-12
current dir: /expanse/lustre/scratch/theleonzhang/temp_project/Hydrogenated_Rotation_Test
input file:  Methylthiophene_Phi_40_Theta_10_Methylthiophene_Hydrogenated.qcin
output file: 
nprocs     : 0
nthreads   : 1
#
# qchem installation setting
#
QC:          /cm/shared/apps/spack/cpu/opt/spack/linux-centos8-zen2/gcc-10.2.0/qchem-5.4-akfmr7b3t57bfs6qan3padb2wnb2i7cl
QCAUX:       /cm/shared/apps/spack/cpu/opt/spack/linux-centos8-zen2/gcc-10.2.0/qchem-5.4-akfmr7b3t57bfs6qan3padb2wnb2i7cl/qcaux
QCPROG:      /cm/shared/apps/spack/cpu/opt/spack/linux-centos8-zen2/gcc-10.2.0/qchem-5.4-akfmr7b3t57bfs6qan3padb2wnb2i7cl/exe/qcprog.exe_s
QCPROG_S:    /cm/shared/apps/spack/cpu/opt/spack/linux-centos8-zen2/gcc-10.2.0/qchem-5.4-akfmr7b3t57bfs6qan3padb2wnb2i7cl/exe/qcprog.exe_s
PARALLEL:    -DSERIAL
QCMPI:       mpich
#
# qchem directory setting
#
qcrun:       qchem122345
QCSCRATCH:   .
QCLOCALSCR:  
QCTMPDIR:    .
QCFILEPREF:  ./qchem122345
QCSAVEDIR:   
workdirs:    ./qchem122345
workdir0:    ./qchem122345
partmpdirs =  
#
# parallel setting
#
QCRSH:           ssh
QCMPI:           mpich
QCMPIRUN:        /cm/shared/apps/spack/cpu/opt/spack/linux-centos8-zen2/gcc-10.2.0/qchem-5.4-akfmr7b3t57bfs6qan3padb2wnb2i7cl/bin/mpi/mpirun_qchem
QCMACHINEFILE:   ./qchem122345/hostfile

#
# env setting
#
exported envs:   QC QCAUX QCSCRATCH QCRUNNAME QCFILEPREF QCPROG QCPROG_S GUIFILE

Running Job 1 of 1 Methylthiophene_Phi_40_Theta_10_Methylthiophene_Hydrogenated.qcin
qchem Methylthiophene_Phi_40_Theta_10_Methylthiophene_Hydrogenated.qcin_122345.0 ./qchem122345/ 0
/cm/shared/apps/spack/cpu/opt/spack/linux-centos8-zen2/gcc-10.2.0/qchem-5.4-akfmr7b3t57bfs6qan3padb2wnb2i7cl/exe/qcprog.exe_s Methylthiophene_Phi_40_Theta_10_Methylthiophene_Hydrogenated.qcin_122345.0 ./qchem122345/
                  Welcome to Q-Chem
     A Quantum Leap Into The Future Of Chemistry


 Q-Chem 5.4, Q-Chem, Inc., Pleasanton, CA (2021)

 License issued to: University of California, San Diego (site)

 E. Epifanovsky,  A. T. B. Gilbert,  Xintian Feng,  Joonho Lee,  Yuezhi Mao,  
 N. Mardirossian,  P. Pokhilko,  A. White,  M. Wormit,  M. P. Coons,  
 A. L. Dempwolff,  Zhengting Gan,  D. Hait,  P. R. Horn,  L. D. Jacobson,  
 I. Kaliman,  J. Kussmann,  A. W. Lange,  Ka Un Lao,  D. S. Levine,  Jie Liu,  
 S. C. McKenzie,  A. F. Morrison,  K. Nanda,  F. Plasser,  D. R. Rehn,  
 M. L. Vidal,  Zhi-Qiang You,  Ying Zhu,  B. Alam,  B. Albrecht,  
 A. Aldossary,  E. Alguire,  J. H. Andersen,  D. Barton,  K. Begam,  A. Behn,  
 Y. A. Bernard,  E. J. Berquist,  H. Burton,  A. Carreras,  K. Carter-Fenk,  
 R. Chakraborty,  A. D. Chien,  K. D. Closser,  V. Cofer-Shabica,  
 S. Dasgupta,  Jia Deng,  M. de Wergifosse,  M. Diedenhofen,  Hainam Do,  
 S. Ehlert,  Po-Tung Fang,  S. Fatehi,  Qingguo Feng,  J. Gayvert,  
 Qinghui Ge,  G. Gidofalvi,  M. Goldey,  J. Gomes,  C. Gonzalez-Espinoza,  
 S. Gulania,  A. Gunina,  M. W. D. Hanson-Heine,  P. H. P. Harbach,  
 A. W. Hauser,  M. F. Herbst,  M. Hernandez Vera,  M. Hodecker,  
 Z. C. Holden,  S. Houck,  Xunkun Huang,  Kerwin Hui,  B. C. Huynh,  
 M. Ivanov,  Hyunjun Ji,  Hanjie Jiang,  B. Kaduk,  S. Kaehler,  
 K. Khistyaev,  Jaehoon Kim,  P. Klunzinger,  Z. Koczor-Benda,  
 Joong Hoon Koh,  D. Kosenkov,  L. Koulias,  T. Kowalczyk,  C. M. Krauter,  
 K. Kue,  A. Kunitsa,  T. Kus,  A. Landau,  K. V. Lawler,  D. Lefrancois,  
 S. Lehtola,  Rain Li,  Yi-Pei Li,  Jiashu Liang,  M. Liebenthal,  
 Hung-Hsuan Lin,  You-Sheng Lin,  Fenglai Liu,  Kuan-Yu Liu,  
 M. Loipersberger,  A. Luenser,  A. Manjanath,  P. Manohar,  E. Mansoor,  
 S. F. Manzer,  Shan-Ping Mao,  A. V. Marenich,  T. Markovich,  S. Mason,  
 S. A. Maurer,  P. F. McLaughlin,  M. F. S. J. Menger,  J.-M. Mewes,  
 S. A. Mewes,  P. Morgante,  J. W. Mullinax,  T. S. Nguyen-Beck,  
 K. J. Oosterbaan,  G. Paran,  Alexander C. Paul,  Suranjan K. Paul,  
 F. Pavosevic,  Zheng Pei,  S. Prager,  E. I. Proynov,  E. Ramos,  B. Rana,  
 A. E. Rask,  A. Rettig,  R. M. Richard,  F. Rob,  E. Rossomme,  T. Scheele,  
 M. Scheurer,  M. Schneider,  N. Sergueev,  S. M. Sharada,  W. Skomorowski,  
 D. W. Small,  C. J. Stein,  Yu-Chuan Su,  E. J. Sundstrom,  Zhen Tao,  
 J. Thirman,  T. Tsuchimochi,  N. M. Tubman,  S. P. Veccham,  O. Vydrov,  
 J. Wenzel,  J. Witte,  A. Yamada,  Kun Yao,  S. Yeganeh,  S. R. Yost,  
 A. Zech,  Igor Ying Zhang,  Xing Zhang,  Yu Zhang,  D. Zuev,  
 A. Aspuru-Guzik,  A. T. Bell,  N. A. Besley,  K. B. Bravaya,  B. R. Brooks,  
 D. Casanova,  Jeng-Da Chai,  S. Coriani,  C. J. Cramer,  
 A. E. DePrince, III,  R. A. DiStasio Jr.,  A. Dreuw,  B. D. Dunietz,  
 T. R. Furlani,  W. A. Goddard III,  S. Grimme,  S. Hammes-Schiffer,  
 T. Head-Gordon,  W. J. Hehre,  Chao-Ping Hsu,  T.-C. Jagau,  Yousung Jung,  
 A. Klamt,  Jing Kong,  D. S. Lambrecht,  WanZhen Liang,  N. J. Mayhall,  
 C. W. McCurdy,  J. B. Neaton,  C. Ochsenfeld,  J. A. Parkhill,  R. Peverati,  
 V. A. Rassolov,  Yihan Shao,  L. V. Slipchenko,  T. Stauch,  R. P. Steele,  
 J. E. Subotnik,  A. J. W. Thom,  A. Tkatchenko,  D. G. Truhlar,  
 T. Van Voorhis,  T. A. Wesolowski,  K. B. Whaley,  H. L. Woodcock III,  
 P. M. Zimmerman,  S. Faraji,  P. M. W. Gill,  M. Head-Gordon,  
 J. M. Herbert,  A. I. Krylov

 Contributors to earlier versions of Q-Chem not listed above: 
 R. D. Adamson,  B. Austin,  R. Baer,  J. Baker,  G. J. O. Beran,  
 K. Brandhorst,  S. T. Brown,  E. F. C. Byrd,  A. K. Chakraborty,  
 G. K. L. Chan,  Chun-Min Chang,  Yunqing Chen,  C.-L. Cheng,  
 Siu Hung Chien,  D. M. Chipman,  D. L. Crittenden,  H. Dachsel,  
 R. J. Doerksen,  A. D. Dutoi,  R. G. Edgar,  J. Fosso-Tande,  
 L. Fusti-Molnar,  D. Ghosh,  A. Ghysels,  A. Golubeva-Zadorozhnaya,  
 J. Gonthier,  M. S. Gordon,  S. R. Gwaltney,  G. Hawkins,  J. E. Herr,  
 A. Heyden,  S. Hirata,  E. G. Hohenstein,  G. Kedziora,  F. J. Keil,  
 C. Kelley,  Jihan Kim,  R. A. King,  R. Z. Khaliullin,  P. P. Korambath,  
 W. Kurlancheek,  A. Laurent,  A. M. Lee,  M. S. Lee,  S. V. Levchenko,  
 Ching Yeh Lin,  D. Liotard,  E. Livshits,  R. C. Lochan,  I. Lotan,  
 L. A. Martinez-Martinez,  P. E. Maslen,  N. Nair,  D. P. O'Neill,  
 D. Neuhauser,  E. Neuscamman,  C. M. Oana,  R. Olivares-Amaya,  R. Olson,  
 T. M. Perrine,  B. Peters,  P. A. Pieniazek,  A. Prociuk,  Y. M. Rhee,  
 J. Ritchie,  M. A. Rohrdanz,  E. Rosta,  N. J. Russ,  H. F. Schaefer III,  
 M. W. Schmidt,  N. E. Schultz,  S. Sharma,  N. Shenvi,  C. D. Sherrill,  
 A. C. Simmonett,  A. Sodt,  T. Stein,  D. Stuck,  K. S. Thanthiriwatte,  
 V. Vanovschi,  L. Vogt,  Tao Wang,  A. Warshel,  M. A. Watson,  
 C. F. Williams,  Q. Wu,  X. Xu,  Jun Yang,  W. Zhang,  Yan Zhao

 Please cite Q-Chem as follows:
 Y. Shao et al., Mol. Phys. 113, 184-215 (2015)
 DOI: 10.1080/00268976.2014.952696

 Q-Chem 5.4.0 for Intel X86 EM64T Linux

 Parts of Q-Chem use Armadillo 9.800.1 (Horizon Scraper).
 http://arma.sourceforge.net/

 Q-Chem begins on Sat Jul  9 19:14:19 2022  

 Host: 
0

     Scratch files written to ./qchem122345//
 May1621 |scratch|qcdevops|jenkins|workspace|build_RNUM    
 Processing $rem in /cm/shared/apps/spack/cpu/opt/spack/linux-centos8-zen2/gcc-10.2.0/qchem-5.4-akfmr7b3t57bfs6qan3padb2wnb2i7cl/config/preferences:
 Processing $rem in /home/theleonzhang/.qchemrc:
 Symmetry turned off for PCM/SM12/SMD calculation
 Core orbitals will be frozen

 Checking the input file for inconsistencies... 	...done.

--------------------------------------------------------------
User input:
--------------------------------------------------------------
$molecule
0 1
C	-0.135301	-3.866725	0.763228
C	0.106073	-3.703963	-0.603311
C	0.185286	-2.357056	-1.050423
H	0.225783	-4.561092	-1.283188
C	-0.000000	-1.440664	-0.000000
S	-0.268187	-2.286957	1.521021
C	0.438209	-1.978743	-2.483507
H	0.550153	-2.878678	-3.118798
H	1.363906	-1.376015	-2.593381
H	-0.393798	-1.375728	-2.903516
C	0.000000	0.000000	0.000000
C	0.555137	0.661535	1.099446
C	1.444710	1.721658	0.776721
H	0.318072	0.379023	2.136088
C	1.586563	1.890676	-0.612546
S	0.605781	0.721904	-1.486809
C	2.143920	2.554907	1.814609
H	1.870325	2.228851	2.836676
H	1.880882	3.629742	1.726239
H	3.248098	2.482476	1.726228
H	2.196723	2.617806	-1.161575
H	0.688674	-4.392713	1.258111
H	-1.079084	-4.392347	0.946272
H	-1.063572	-1.440391	-0.187654
$end

$rem
JOBTYPE		SP
EXCHANGE	HF
CORRELATION	pRIMP2
BASIS		cc-pvtz
METHOD		rimp2
AUX_BASIS	rimp2-cc-pvtz
SOLVENT_METHOD	PCM
PURECART	11111
SYMMETRY	false
MEM_TOTAL	110000
SCF_CONVERGENCE = 6
THRESH=10
$end



$solvent
dielectric 4.90
$end
--------------------------------------------------------------
 ----------------------------------------------------------------
             Standard Nuclear Orientation (Angstroms)
    I     Atom           X                Y                Z
 ----------------------------------------------------------------
    1      C      -0.1353010000    -3.8667250000     0.7632280000
    2      C       0.1060730000    -3.7039630000    -0.6033110000
    3      C       0.1852860000    -2.3570560000    -1.0504230000
    4      H       0.2257830000    -4.5610920000    -1.2831880000
    5      C       0.0000000000    -1.4406640000     0.0000000000
    6      S      -0.2681870000    -2.2869570000     1.5210210000
    7      C       0.4382090000    -1.9787430000    -2.4835070000
    8      H       0.5501530000    -2.8786780000    -3.1187980000
    9      H       1.3639060000    -1.3760150000    -2.5933810000
   10      H      -0.3937980000    -1.3757280000    -2.9035160000
   11      C       0.0000000000     0.0000000000     0.0000000000
   12      C       0.5551370000     0.6615350000     1.0994460000
   13      C       1.4447100000     1.7216580000     0.7767210000
   14      H       0.3180720000     0.3790230000     2.1360880000
   15      C       1.5865630000     1.8906760000    -0.6125460000
   16      S       0.6057810000     0.7219040000    -1.4868090000
   17      C       2.1439200000     2.5549070000     1.8146090000
   18      H       1.8703250000     2.2288510000     2.8366760000
   19      H       1.8808820000     3.6297420000     1.7262390000
   20      H       3.2480980000     2.4824760000     1.7262280000
   21      H       2.1967230000     2.6178060000    -1.1615750000
   22      H       0.6886740000    -4.3927130000     1.2581110000
   23      H      -1.0790840000    -4.3923470000     0.9462720000
   24      H      -1.0635720000    -1.4403910000    -0.1876540000
 ----------------------------------------------------------------
 Nuclear Repulsion Energy =         888.49922396 hartrees
 There are       52 alpha and       52 beta electrons

 Q-Chem warning in module forms1/BasisType.C, line 2236:

 You are not using the predefined 5D/6D in this basis set.

 Requested basis set is cc-pVTZ
 There are 196 shells and 536 basis functions

 Total QAlloc Memory Limit 110000 MB
 Mega-Array Size       188 MB
 MEM_STATIC part       192 MB
 Discretize the solute cavity surface with Lebedev spheres
	Using 110 Lebedev grid points for each H atom
	Using 194 Lebedev grid points for other atoms
	Atomic van der Waals radii will be scaled by 1.20
 Remove points where switching function is < 1.0e-08
 Keep 1565 surface tesserae and discard 2083 interior tesserae
 Molecular Surface Area = 227.211 Angst**2
 Requested basis set is rimp2-cc-pVTZ
 There are 414 shells and 1414 basis functions
 A cutoff of  1.0D-10 yielded  14215 shell pairs
 There are    102993 function pairs (    132032 Cartesian)
 Smallest overlap matrix eigenvalue = 6.01E-05

 Scale SEOQF with 1.000000e-01/1.000000e-01/1.000000e-01

 Standard Electronic Orientation quadrupole field applied
 Nucleus-field energy     =     0.0000000186 hartrees
 Guess from superposition of atomic densities
 Warning:  Energy on first SCF cycle will be non-variational
 SAD guess density has 104.000000 electrons

 -----------------------------------------------------------------------
  General SCF calculation program by
  Eric Jon Sundstrom, Paul Horn, Yuezhi Mao, Dmitri Zuev, Alec White,
  David Stuck, Shaama M.S., Shane Yost, Joonho Lee, David Small,
  Daniel Levine, Susi Lehtola, Hugh Burton, Evgeny Epifanovsky,
  Bang C. Huynh
 -----------------------------------------------------------------------
 Hartree-Fock
 A restricted SCF calculation will be
 performed using DIIS
 SCF converges when DIIS error is below 1.0e-06
 ---------------------------------------
  Cycle       Energy         DIIS error
 ---------------------------------------
    1   -1186.1251273681      2.40e-02  
    2   -1180.5618937487      1.57e-03  
    3   -1180.6884388927      6.23e-04  
    4   -1180.7034327627      3.39e-04  
    5   -1180.7088057670      6.48e-05  
    6   -1180.7090919872      2.59e-05  
    7   -1180.7091625352      1.04e-05  
    8   -1180.7091791466      4.86e-06  
    9   -1180.7091834777      2.01e-06  
   10   -1180.7091842868      7.71e-07  Convergence criterion met
 ---------------------------------------
 SCF time:   CPU 591.56s  wall 594.00s 

************** Final PCM Free Energy Summary **************
 G_electrostatic  =      -0.00797537 hartree =      -5.00462148 kcal/mol
 G_cavitation     =       0.00000000 hartree =       0.00000000 kcal/mol
 G_dispersion     =       0.00000000 hartree =       0.00000000 kcal/mol
 G_repulsion      =       0.00000000 hartree =       0.00000000 kcal/mol
 --------------------------------------------------
 Non-electrostatic Free Energy =       0.00000000 hartree =       0.00000000 kcal/mol
 Total                         =      -0.00797537 hartree =      -5.00462148 kcal/mol
 --------------------------------------------------
 SCF Energy (H0 + V/2)                       =   -1180.70918429 
 Solute Internal Energy (H0)                 =   -1180.70120891 
 Total Free Energy (H0 + V/2 + non-elec)     =   -1180.70918429 hartree
                                             = -740906.19563666 kcal/mol
***********************************************************

 SCF   energy in the final basis set =    -1180.7091842868
 Total energy in the final basis set =    -1180.7091842868


 --------------------------------------------------------------
  Generalized many-body perturbation theory program
  by Joonho Lee, Fazle Rob, Xintian Feng, Evgeny Epifanovsky

 No regularization used 
 (reg. param. = 0.0000e+00)
  (P|Q)^-1/2 Time:  CPU 2.29 s  wall 2.29 s

 In RI-MP2 calculation: 
 # of frozen core orbitals: 20

 Components of the RIMP2 correlation energy:
        aaaa    correlation energy =        -0.2540277102 a.u.
        abab    correlation energy =        -1.5111746461 a.u.
        bbbb    correlation energy =        -0.2540277102 a.u.
        non-Brillouin singles      =        -0.0000000000 a.u.
        total same-spin energy     =        -0.5080554204 a.u.
        total opposite-spin energy =        -1.5111746461 a.u.

 Total  RIMP2   correlation energy =        -2.0192300665 a.u.
        RIMP2         total energy =     -1182.7284143533 a.u.

 RI-MP2 Energy Time:  CPU 115.06 s  wall 115.44 s
 
 --------------------------------------------------------------
 
                    Orbital Energies (a.u.)
 --------------------------------------------------------------
 
 Alpha MOs
 -- Occupied --
-91.9775 -91.9427 -11.2734 -11.2658 -11.2646 -11.2537 -11.2497 -11.2412
-11.2408 -11.2291 -11.2278 -11.2166  -8.9785  -8.9473  -6.6593  -6.6586
 -6.6580  -6.6286  -6.6277  -6.6264  -1.2016  -1.1525  -1.0592  -1.0269
 -1.0061  -0.9572  -0.9137  -0.9029  -0.8099  -0.7721  -0.7199  -0.7065
 -0.6529  -0.6447  -0.6110  -0.5933  -0.5826  -0.5731  -0.5675  -0.5502
 -0.5400  -0.5329  -0.5169  -0.5163  -0.4871  -0.4655  -0.4544  -0.4406
 -0.3560  -0.3380  -0.3261  -0.2588
 -- Virtual --
  0.0835   0.1343   0.1429   0.1541   0.1606   0.1695   0.1783   0.1841
  0.1875   0.1941   0.2033   0.2094   0.2155   0.2332   0.2391   0.2468
  0.2500   0.2707   0.2785   0.3043   0.3196   0.3367   0.3432   0.3651
  0.3687   0.3707   0.3773   0.4005   0.4042   0.4119   0.4245   0.4302
  0.4480   0.4497   0.4575   0.4627   0.4756   0.4791   0.4843   0.4940
  0.5005   0.5146   0.5280   0.5381   0.5395   0.5426   0.5558   0.5699
  0.5772   0.5800   0.5861   0.5935   0.5986   0.6122   0.6164   0.6186
  0.6233   0.6270   0.6332   0.6371   0.6388   0.6469   0.6546   0.6618
  0.6652   0.6791   0.6875   0.6910   0.6930   0.7009   0.7207   0.7317
  0.7444   0.7563   0.7622   0.7683   0.7791   0.7867   0.8137   0.8264
  0.8328   0.8421   0.8560   0.8602   0.8737   0.8980   0.9059   0.9254
  0.9287   0.9438   0.9570   0.9611   0.9747   0.9837   0.9867   1.0009
  1.0223   1.0274   1.0391   1.0481   1.0542   1.0672   1.0809   1.0842
  1.0953   1.1038   1.1260   1.1347   1.1466   1.1560   1.1578   1.1655
  1.1797   1.1943   1.1982   1.2075   1.2149   1.2235   1.2369   1.2476
  1.2585   1.2636   1.2704   1.2779   1.2919   1.2981   1.3064   1.3166
  1.3230   1.3413   1.3571   1.3629   1.3851   1.3960   1.4029   1.4098
  1.4157   1.4285   1.4475   1.4622   1.4654   1.4750   1.4883   1.4901
  1.5105   1.5127   1.5231   1.5281   1.5387   1.5396   1.5472   1.5546
  1.5697   1.5752   1.5888   1.5956   1.6068   1.6308   1.6337   1.6502
  1.6551   1.6644   1.6693   1.6811   1.7002   1.7108   1.7156   1.7221
  1.7410   1.7584   1.7841   1.7904   1.8183   1.8338   1.8450   1.8536
  1.8916   1.9227   1.9349   1.9530   1.9743   1.9836   1.9949   2.0192
  2.0333   2.0565   2.0715   2.0852   2.1075   2.1110   2.1275   2.1479
  2.1844   2.1927   2.2025   2.2143   2.2251   2.2383   2.2659   2.2919
  2.3098   2.3122   2.3444   2.3650   2.4276   2.4353   2.4607   2.4788
  2.5044   2.5083   2.5364   2.5546   2.5707   2.5924   2.6034   2.6100
  2.6339   2.6408   2.6635   2.6688   2.6812   2.7052   2.7109   2.7223
  2.7480   2.7522   2.7650   2.7775   2.7946   2.8074   2.8235   2.8278
  2.8358   2.8405   2.8578   2.8751   2.8953   2.9094   2.9164   2.9377
  2.9596   2.9738   2.9855   2.9958   3.0087   3.0267   3.0318   3.0427
  3.0681   3.0709   3.0860   3.1042   3.1125   3.1311   3.1354   3.1458
  3.1577   3.1618   3.1760   3.1890   3.1942   3.2031   3.2071   3.2156
  3.2299   3.2408   3.2488   3.2596   3.2700   3.2772   3.2894   3.3052
  3.3065   3.3187   3.3406   3.3426   3.3440   3.3575   3.3605   3.3651
  3.3746   3.3822   3.3998   3.4056   3.4120   3.4197   3.4273   3.4312
  3.4388   3.4504   3.4577   3.4838   3.4879   3.4935   3.4997   3.5075
  3.5195   3.5283   3.5398   3.5477   3.5539   3.5602   3.5731   3.5847
  3.6034   3.6159   3.6179   3.6268   3.6313   3.6454   3.6548   3.6744
  3.6795   3.6904   3.6976   3.7116   3.7196   3.7387   3.7439   3.7508
  3.7565   3.7686   3.7744   3.7960   3.8054   3.8102   3.8120   3.8241
  3.8348   3.8458   3.8486   3.8728   3.8812   3.9026   3.9051   3.9214
  3.9433   3.9534   3.9576   3.9677   3.9826   3.9935   4.0131   4.0193
  4.0296   4.0383   4.0488   4.0574   4.0646   4.0747   4.0909   4.1123
  4.1286   4.1307   4.1456   4.1612   4.1791   4.1845   4.1899   4.2036
  4.2134   4.2203   4.2342   4.2427   4.2478   4.2678   4.2782   4.2833
  4.2959   4.3069   4.3215   4.3365   4.3429   4.3583   4.3613   4.3770
  4.3850   4.3922   4.4034   4.4156   4.4172   4.4396   4.4441   4.4526
  4.4644   4.4815   4.4952   4.5004   4.5107   4.5329   4.5554   4.5813
  4.5885   4.5968   4.6011   4.6197   4.6492   4.6626   4.6727   4.6928
  4.6952   4.7434   4.7580   4.7649   4.7934   4.8113   4.8208   4.8338
  4.8704   4.8815   4.8931   4.9157   4.9376   4.9491   4.9736   4.9849
  5.0291   5.0463   5.0565   5.1070   5.1163   5.1316   5.1433   5.1710
  5.1917   5.2069   5.2260   5.2701   5.2862   5.2905   5.3106   5.3143
  5.3512   5.3690   5.3728   5.3920   5.4095   5.4135   5.4413   5.4550
  5.4841   5.5068   5.5276   5.5440   5.5571   5.5582   5.5751   5.5922
  5.6219   5.6251   5.6393   5.6508   5.6929   5.6989   5.7131   5.7372
  5.7649   5.7974   5.8274   5.9885   6.0268   6.1089   6.1159   6.1412
  6.2135   6.2298   6.2373   6.2491   6.2646   6.2842   6.2950   6.3148
  6.4067   6.4229   9.3711  10.5518  12.2117  12.8715  13.1791  13.8484
 14.1155  14.2347  14.3463  14.7242
 --------------------------------------------------------------
 
          Ground-State Mulliken Net Atomic Charges

     Atom                 Charge (a.u.)
  ----------------------------------------
      1 C                    -0.070996
      2 C                    -0.338297
      3 C                    -0.037659
      4 H                     0.177618
      5 C                     0.085095
      6 S                    -0.197681
      7 C                    -0.295385
      8 H                     0.115305
      9 H                     0.119098
     10 H                     0.107458
     11 C                    -0.064270
     12 C                    -0.238569
     13 C                     0.029138
     14 H                     0.185304
     15 C                    -0.244216
     16 S                     0.015223
     17 C                    -0.269590
     18 H                     0.102630
     19 H                     0.107853
     20 H                     0.106428
     21 H                     0.197588
     22 H                     0.111308
     23 H                     0.110623
     24 H                     0.185995
  ----------------------------------------
  Sum of atomic charges =     0.000000

 -----------------------------------------------------------------
                    Cartesian Multipole Moments
 -----------------------------------------------------------------
    Charge (ESU x 10^10)
                -0.0000
    Dipole Moment (Debye)
         X       0.9680      Y       0.2127      Z      -1.2107
       Tot       1.5647
    Quadrupole Moments (Debye-Ang)
        XX     -87.1565     XY       5.9528     YY     -79.0048
        XZ       0.0132     YZ       4.4061     ZZ     -85.4007
    Octopole Moments (Debye-Ang^2)
       XXX    -129.3525    XXY      74.9078    XYY     -33.3833
       YYY     155.6148    XXZ      -1.2788    XYZ       0.2768
       YYZ      -1.1217    XZZ     -37.6820    YZZ      65.5736
       ZZZ      -3.2869
    Hexadecapole Moments (Debye-Ang^3)
      XXXX    -553.0663   XXXY    -224.6186   XXYY    -525.5502
      XYYY    -211.9173   YYYY   -2465.1032   XXXZ     -15.2593
      XXYZ     -30.9940   XYYZ     -18.3271   YYYZ     -84.6525
      XXZZ    -274.8279   XYZZ     -75.6508   YYZZ    -606.8314
      XZZZ     -21.5647   YZZZ     -40.1538   ZZZZ   -1081.0305
 -----------------------------------------------------------------
 Total job time:  711.31s(wall), 707.64s(cpu) 
 Sat Jul  9 19:26:10 2022

        *************************************************************
        *                                                           *
        *  Thank you very much for using Q-Chem.  Have a nice day.  *
        *                                                           *
        *************************************************************


remove work dirs ./qchem122345.0 -- ./qchem122345.-1
rm -rf ./qchem122345
