You are running Q-Chem version: 5.4.0

#
# job setting
#
local host:  exp-1-02
current dir: /expanse/lustre/scratch/theleonzhang/temp_project/Hydrogenated_Rotation_Test
input file:  Methylthiophene_Phi_0_Theta_60_Methylthiophene_Hydrogenated.qcin
output file: 
nprocs     : 0
nthreads   : 1
#
# qchem installation setting
#
QC:          /cm/shared/apps/spack/cpu/opt/spack/linux-centos8-zen2/gcc-10.2.0/qchem-5.4-akfmr7b3t57bfs6qan3padb2wnb2i7cl
QCAUX:       /cm/shared/apps/spack/cpu/opt/spack/linux-centos8-zen2/gcc-10.2.0/qchem-5.4-akfmr7b3t57bfs6qan3padb2wnb2i7cl/qcaux
QCPROG:      /cm/shared/apps/spack/cpu/opt/spack/linux-centos8-zen2/gcc-10.2.0/qchem-5.4-akfmr7b3t57bfs6qan3padb2wnb2i7cl/exe/qcprog.exe_s
QCPROG_S:    /cm/shared/apps/spack/cpu/opt/spack/linux-centos8-zen2/gcc-10.2.0/qchem-5.4-akfmr7b3t57bfs6qan3padb2wnb2i7cl/exe/qcprog.exe_s
PARALLEL:    -DSERIAL
QCMPI:       mpich
#
# qchem directory setting
#
qcrun:       qchem1094781
QCSCRATCH:   .
QCLOCALSCR:  
QCTMPDIR:    .
QCFILEPREF:  ./qchem1094781
QCSAVEDIR:   
workdirs:    ./qchem1094781
workdir0:    ./qchem1094781
partmpdirs =  
#
# parallel setting
#
QCRSH:           ssh
QCMPI:           mpich
QCMPIRUN:        /cm/shared/apps/spack/cpu/opt/spack/linux-centos8-zen2/gcc-10.2.0/qchem-5.4-akfmr7b3t57bfs6qan3padb2wnb2i7cl/bin/mpi/mpirun_qchem
QCMACHINEFILE:   ./qchem1094781/hostfile

#
# env setting
#
exported envs:   QC QCAUX QCSCRATCH QCRUNNAME QCFILEPREF QCPROG QCPROG_S GUIFILE

Running Job 1 of 1 Methylthiophene_Phi_0_Theta_60_Methylthiophene_Hydrogenated.qcin
qchem Methylthiophene_Phi_0_Theta_60_Methylthiophene_Hydrogenated.qcin_1094781.0 ./qchem1094781/ 0
/cm/shared/apps/spack/cpu/opt/spack/linux-centos8-zen2/gcc-10.2.0/qchem-5.4-akfmr7b3t57bfs6qan3padb2wnb2i7cl/exe/qcprog.exe_s Methylthiophene_Phi_0_Theta_60_Methylthiophene_Hydrogenated.qcin_1094781.0 ./qchem1094781/
                  Welcome to Q-Chem
     A Quantum Leap Into The Future Of Chemistry


 Q-Chem 5.4, Q-Chem, Inc., Pleasanton, CA (2021)

 License issued to: University of California, San Diego (site)

 E. Epifanovsky,  A. T. B. Gilbert,  Xintian Feng,  Joonho Lee,  Yuezhi Mao,  
 N. Mardirossian,  P. Pokhilko,  A. White,  M. Wormit,  M. P. Coons,  
 A. L. Dempwolff,  Zhengting Gan,  D. Hait,  P. R. Horn,  L. D. Jacobson,  
 I. Kaliman,  J. Kussmann,  A. W. Lange,  Ka Un Lao,  D. S. Levine,  Jie Liu,  
 S. C. McKenzie,  A. F. Morrison,  K. Nanda,  F. Plasser,  D. R. Rehn,  
 M. L. Vidal,  Zhi-Qiang You,  Ying Zhu,  B. Alam,  B. Albrecht,  
 A. Aldossary,  E. Alguire,  J. H. Andersen,  D. Barton,  K. Begam,  A. Behn,  
 Y. A. Bernard,  E. J. Berquist,  H. Burton,  A. Carreras,  K. Carter-Fenk,  
 R. Chakraborty,  A. D. Chien,  K. D. Closser,  V. Cofer-Shabica,  
 S. Dasgupta,  Jia Deng,  M. de Wergifosse,  M. Diedenhofen,  Hainam Do,  
 S. Ehlert,  Po-Tung Fang,  S. Fatehi,  Qingguo Feng,  J. Gayvert,  
 Qinghui Ge,  G. Gidofalvi,  M. Goldey,  J. Gomes,  C. Gonzalez-Espinoza,  
 S. Gulania,  A. Gunina,  M. W. D. Hanson-Heine,  P. H. P. Harbach,  
 A. W. Hauser,  M. F. Herbst,  M. Hernandez Vera,  M. Hodecker,  
 Z. C. Holden,  S. Houck,  Xunkun Huang,  Kerwin Hui,  B. C. Huynh,  
 M. Ivanov,  Hyunjun Ji,  Hanjie Jiang,  B. Kaduk,  S. Kaehler,  
 K. Khistyaev,  Jaehoon Kim,  P. Klunzinger,  Z. Koczor-Benda,  
 Joong Hoon Koh,  D. Kosenkov,  L. Koulias,  T. Kowalczyk,  C. M. Krauter,  
 K. Kue,  A. Kunitsa,  T. Kus,  A. Landau,  K. V. Lawler,  D. Lefrancois,  
 S. Lehtola,  Rain Li,  Yi-Pei Li,  Jiashu Liang,  M. Liebenthal,  
 Hung-Hsuan Lin,  You-Sheng Lin,  Fenglai Liu,  Kuan-Yu Liu,  
 M. Loipersberger,  A. Luenser,  A. Manjanath,  P. Manohar,  E. Mansoor,  
 S. F. Manzer,  Shan-Ping Mao,  A. V. Marenich,  T. Markovich,  S. Mason,  
 S. A. Maurer,  P. F. McLaughlin,  M. F. S. J. Menger,  J.-M. Mewes,  
 S. A. Mewes,  P. Morgante,  J. W. Mullinax,  T. S. Nguyen-Beck,  
 K. J. Oosterbaan,  G. Paran,  Alexander C. Paul,  Suranjan K. Paul,  
 F. Pavosevic,  Zheng Pei,  S. Prager,  E. I. Proynov,  E. Ramos,  B. Rana,  
 A. E. Rask,  A. Rettig,  R. M. Richard,  F. Rob,  E. Rossomme,  T. Scheele,  
 M. Scheurer,  M. Schneider,  N. Sergueev,  S. M. Sharada,  W. Skomorowski,  
 D. W. Small,  C. J. Stein,  Yu-Chuan Su,  E. J. Sundstrom,  Zhen Tao,  
 J. Thirman,  T. Tsuchimochi,  N. M. Tubman,  S. P. Veccham,  O. Vydrov,  
 J. Wenzel,  J. Witte,  A. Yamada,  Kun Yao,  S. Yeganeh,  S. R. Yost,  
 A. Zech,  Igor Ying Zhang,  Xing Zhang,  Yu Zhang,  D. Zuev,  
 A. Aspuru-Guzik,  A. T. Bell,  N. A. Besley,  K. B. Bravaya,  B. R. Brooks,  
 D. Casanova,  Jeng-Da Chai,  S. Coriani,  C. J. Cramer,  
 A. E. DePrince, III,  R. A. DiStasio Jr.,  A. Dreuw,  B. D. Dunietz,  
 T. R. Furlani,  W. A. Goddard III,  S. Grimme,  S. Hammes-Schiffer,  
 T. Head-Gordon,  W. J. Hehre,  Chao-Ping Hsu,  T.-C. Jagau,  Yousung Jung,  
 A. Klamt,  Jing Kong,  D. S. Lambrecht,  WanZhen Liang,  N. J. Mayhall,  
 C. W. McCurdy,  J. B. Neaton,  C. Ochsenfeld,  J. A. Parkhill,  R. Peverati,  
 V. A. Rassolov,  Yihan Shao,  L. V. Slipchenko,  T. Stauch,  R. P. Steele,  
 J. E. Subotnik,  A. J. W. Thom,  A. Tkatchenko,  D. G. Truhlar,  
 T. Van Voorhis,  T. A. Wesolowski,  K. B. Whaley,  H. L. Woodcock III,  
 P. M. Zimmerman,  S. Faraji,  P. M. W. Gill,  M. Head-Gordon,  
 J. M. Herbert,  A. I. Krylov

 Contributors to earlier versions of Q-Chem not listed above: 
 R. D. Adamson,  B. Austin,  R. Baer,  J. Baker,  G. J. O. Beran,  
 K. Brandhorst,  S. T. Brown,  E. F. C. Byrd,  A. K. Chakraborty,  
 G. K. L. Chan,  Chun-Min Chang,  Yunqing Chen,  C.-L. Cheng,  
 Siu Hung Chien,  D. M. Chipman,  D. L. Crittenden,  H. Dachsel,  
 R. J. Doerksen,  A. D. Dutoi,  R. G. Edgar,  J. Fosso-Tande,  
 L. Fusti-Molnar,  D. Ghosh,  A. Ghysels,  A. Golubeva-Zadorozhnaya,  
 J. Gonthier,  M. S. Gordon,  S. R. Gwaltney,  G. Hawkins,  J. E. Herr,  
 A. Heyden,  S. Hirata,  E. G. Hohenstein,  G. Kedziora,  F. J. Keil,  
 C. Kelley,  Jihan Kim,  R. A. King,  R. Z. Khaliullin,  P. P. Korambath,  
 W. Kurlancheek,  A. Laurent,  A. M. Lee,  M. S. Lee,  S. V. Levchenko,  
 Ching Yeh Lin,  D. Liotard,  E. Livshits,  R. C. Lochan,  I. Lotan,  
 L. A. Martinez-Martinez,  P. E. Maslen,  N. Nair,  D. P. O'Neill,  
 D. Neuhauser,  E. Neuscamman,  C. M. Oana,  R. Olivares-Amaya,  R. Olson,  
 T. M. Perrine,  B. Peters,  P. A. Pieniazek,  A. Prociuk,  Y. M. Rhee,  
 J. Ritchie,  M. A. Rohrdanz,  E. Rosta,  N. J. Russ,  H. F. Schaefer III,  
 M. W. Schmidt,  N. E. Schultz,  S. Sharma,  N. Shenvi,  C. D. Sherrill,  
 A. C. Simmonett,  A. Sodt,  T. Stein,  D. Stuck,  K. S. Thanthiriwatte,  
 V. Vanovschi,  L. Vogt,  Tao Wang,  A. Warshel,  M. A. Watson,  
 C. F. Williams,  Q. Wu,  X. Xu,  Jun Yang,  W. Zhang,  Yan Zhao

 Please cite Q-Chem as follows:
 Y. Shao et al., Mol. Phys. 113, 184-215 (2015)
 DOI: 10.1080/00268976.2014.952696

 Q-Chem 5.4.0 for Intel X86 EM64T Linux

 Parts of Q-Chem use Armadillo 9.800.1 (Horizon Scraper).
 http://arma.sourceforge.net/

 Q-Chem begins on Sat Jul  9 19:51:11 2022  

 Host: 
0

     Scratch files written to ./qchem1094781//
 May1621 |scratch|qcdevops|jenkins|workspace|build_RNUM    
 Processing $rem in /cm/shared/apps/spack/cpu/opt/spack/linux-centos8-zen2/gcc-10.2.0/qchem-5.4-akfmr7b3t57bfs6qan3padb2wnb2i7cl/config/preferences:
 Processing $rem in /home/theleonzhang/.qchemrc:
 Symmetry turned off for PCM/SM12/SMD calculation
 Core orbitals will be frozen

 Checking the input file for inconsistencies... 	...done.

--------------------------------------------------------------
User input:
--------------------------------------------------------------
$molecule
0 1
C	-0.671636	-3.866725	0.386946
C	0.530345	-3.703963	-0.306544
C	0.923770	-2.357056	-0.533261
H	1.128109	-4.561092	-0.651857
C	0.000000	-1.440664	0.000000
S	-1.337557	-2.286957	0.772250
C	2.184153	-1.978743	-1.260680
H	2.742769	-2.878678	-1.583283
H	2.863347	-1.376015	-0.622180
H	1.971094	-1.375728	-2.168011
C	0.000000	0.000000	0.000000
C	0.000033	0.863600	1.099446
C	0.000052	2.247508	0.776721
H	0.000026	0.494801	2.136088
C	0.000074	2.468165	-0.612546
S	0.000024	0.942399	-1.486809
C	0.000075	3.335257	1.814609
H	0.000074	2.909620	2.836676
H	-0.892314	3.989552	1.726239
H	0.892483	3.989525	1.726228
H	0.000094	3.417382	-1.161575
H	-0.521098	-4.392713	1.336254
H	-1.418509	-4.392347	-0.218374
H	0.539900	-1.440937	0.935365
$end

$rem
JOBTYPE		SP
EXCHANGE	HF
CORRELATION	pRIMP2
BASIS		cc-pvtz
METHOD		rimp2
AUX_BASIS	rimp2-cc-pvtz
SOLVENT_METHOD	PCM
PURECART	11111
SYMMETRY	false
MEM_TOTAL	110000
SCF_CONVERGENCE = 6
THRESH=10
$end



$solvent
dielectric 4.90
$end
--------------------------------------------------------------
 ----------------------------------------------------------------
             Standard Nuclear Orientation (Angstroms)
    I     Atom           X                Y                Z
 ----------------------------------------------------------------
    1      C      -0.6716360000    -3.8667250000     0.3869460000
    2      C       0.5303450000    -3.7039630000    -0.3065440000
    3      C       0.9237700000    -2.3570560000    -0.5332610000
    4      H       1.1281090000    -4.5610920000    -0.6518570000
    5      C       0.0000000000    -1.4406640000     0.0000000000
    6      S      -1.3375570000    -2.2869570000     0.7722500000
    7      C       2.1841530000    -1.9787430000    -1.2606800000
    8      H       2.7427690000    -2.8786780000    -1.5832830000
    9      H       2.8633470000    -1.3760150000    -0.6221800000
   10      H       1.9710940000    -1.3757280000    -2.1680110000
   11      C       0.0000000000     0.0000000000     0.0000000000
   12      C       0.0000330000     0.8636000000     1.0994460000
   13      C       0.0000520000     2.2475080000     0.7767210000
   14      H       0.0000260000     0.4948010000     2.1360880000
   15      C       0.0000740000     2.4681650000    -0.6125460000
   16      S       0.0000240000     0.9423990000    -1.4868090000
   17      C       0.0000750000     3.3352570000     1.8146090000
   18      H       0.0000740000     2.9096200000     2.8366760000
   19      H      -0.8923140000     3.9895520000     1.7262390000
   20      H       0.8924830000     3.9895250000     1.7262280000
   21      H       0.0000940000     3.4173820000    -1.1615750000
   22      H      -0.5210980000    -4.3927130000     1.3362540000
   23      H      -1.4185090000    -4.3923470000    -0.2183740000
   24      H       0.5399000000    -1.4409370000     0.9353650000
 ----------------------------------------------------------------
 Nuclear Repulsion Energy =         872.22290294 hartrees
 There are       52 alpha and       52 beta electrons

 Q-Chem warning in module forms1/BasisType.C, line 2236:

 You are not using the predefined 5D/6D in this basis set.

 Requested basis set is cc-pVTZ
 There are 196 shells and 536 basis functions

 Total QAlloc Memory Limit 110000 MB
 Mega-Array Size       188 MB
 MEM_STATIC part       192 MB
 Discretize the solute cavity surface with Lebedev spheres
	Using 110 Lebedev grid points for each H atom
	Using 194 Lebedev grid points for other atoms
	Atomic van der Waals radii will be scaled by 1.20
 Remove points where switching function is < 1.0e-08
 Keep 1611 surface tesserae and discard 2037 interior tesserae
 Molecular Surface Area = 237.573 Angst**2
 Requested basis set is rimp2-cc-pVTZ
 There are 414 shells and 1414 basis functions
 A cutoff of  1.0D-10 yielded  13885 shell pairs
 There are    100779 function pairs (    129314 Cartesian)
 Smallest overlap matrix eigenvalue = 5.91E-05

 Scale SEOQF with 1.000000e-01/1.000000e-01/1.000000e-01

 Standard Electronic Orientation quadrupole field applied
 Nucleus-field energy     =     0.0000000334 hartrees
 Guess from superposition of atomic densities
 Warning:  Energy on first SCF cycle will be non-variational
 SAD guess density has 104.000000 electrons

 -----------------------------------------------------------------------
  General SCF calculation program by
  Eric Jon Sundstrom, Paul Horn, Yuezhi Mao, Dmitri Zuev, Alec White,
  David Stuck, Shaama M.S., Shane Yost, Joonho Lee, David Small,
  Daniel Levine, Susi Lehtola, Hugh Burton, Evgeny Epifanovsky,
  Bang C. Huynh
 -----------------------------------------------------------------------
 Hartree-Fock
 A restricted SCF calculation will be
 performed using DIIS
 SCF converges when DIIS error is below 1.0e-06
 ---------------------------------------
  Cycle       Energy         DIIS error
 ---------------------------------------
    1   -1186.0194064819      2.39e-02  
    2   -1180.6195496033      1.55e-03  
    3   -1180.7433175486      6.04e-04  
    4   -1180.7573156993      3.38e-04  
    5   -1180.7624826527      5.81e-05  
    6   -1180.7627224467      2.41e-05  
    7   -1180.7627799021      8.81e-06  
    8   -1180.7627933317      4.27e-06  
    9   -1180.7627963751      1.47e-06  
   10   -1180.7627968430      4.97e-07  Convergence criterion met
 ---------------------------------------
 SCF time:   CPU 561.43s  wall 563.00s 

************** Final PCM Free Energy Summary **************
 G_electrostatic  =      -0.00879846 hartree =      -5.52111960 kcal/mol
 G_cavitation     =       0.00000000 hartree =       0.00000000 kcal/mol
 G_dispersion     =       0.00000000 hartree =       0.00000000 kcal/mol
 G_repulsion      =       0.00000000 hartree =       0.00000000 kcal/mol
 --------------------------------------------------
 Non-electrostatic Free Energy =       0.00000000 hartree =       0.00000000 kcal/mol
 Total                         =      -0.00879846 hartree =      -5.52111960 kcal/mol
 --------------------------------------------------
 SCF Energy (H0 + V/2)                       =   -1180.76279684 
 Solute Internal Energy (H0)                 =   -1180.75399838 
 Total Free Energy (H0 + V/2 + non-elec)     =   -1180.76279684 hartree
                                             = -740939.83802343 kcal/mol
***********************************************************

 SCF   energy in the final basis set =    -1180.7627968430
 Total energy in the final basis set =    -1180.7627968430


 --------------------------------------------------------------
  Generalized many-body perturbation theory program
  by Joonho Lee, Fazle Rob, Xintian Feng, Evgeny Epifanovsky

 No regularization used 
 (reg. param. = 0.0000e+00)
  (P|Q)^-1/2 Time:  CPU 1.89 s  wall 1.89 s

 In RI-MP2 calculation: 
 # of frozen core orbitals: 20

 Components of the RIMP2 correlation energy:
        aaaa    correlation energy =        -0.2511975241 a.u.
        abab    correlation energy =        -1.5025338273 a.u.
        bbbb    correlation energy =        -0.2511975241 a.u.
        non-Brillouin singles      =        -0.0000000000 a.u.
        total same-spin energy     =        -0.5023950482 a.u.
        total opposite-spin energy =        -1.5025338273 a.u.

 Total  RIMP2   correlation energy =        -2.0049288755 a.u.
        RIMP2         total energy =     -1182.7677257185 a.u.

 RI-MP2 Energy Time:  CPU 79.19 s  wall 79.45 s
 
 --------------------------------------------------------------
 
                    Orbital Energies (a.u.)
 --------------------------------------------------------------
 
 Alpha MOs
 -- Occupied --
-91.9814 -91.9422 -11.2841 -11.2636 -11.2615 -11.2565 -11.2509 -11.2414
-11.2402 -11.2317 -11.2289 -11.2204  -8.9813  -8.9469  -6.6622  -6.6617
 -6.6611  -6.6283  -6.6272  -6.6259  -1.1990  -1.1533  -1.0587  -1.0260
 -1.0072  -0.9583  -0.9132  -0.9011  -0.8149  -0.7660  -0.7307  -0.7004
 -0.6618  -0.6422  -0.6106  -0.5877  -0.5801  -0.5728  -0.5673  -0.5516
 -0.5419  -0.5320  -0.5142  -0.5061  -0.4917  -0.4821  -0.4589  -0.4493
 -0.3559  -0.3430  -0.3166  -0.2749
 -- Virtual --
  0.0972   0.1322   0.1429   0.1494   0.1575   0.1697   0.1771   0.1809
  0.1923   0.1986   0.2038   0.2077   0.2281   0.2337   0.2376   0.2442
  0.2533   0.2590   0.2730   0.2945   0.3179   0.3377   0.3476   0.3535
  0.3660   0.3685   0.3793   0.3943   0.3969   0.4015   0.4147   0.4244
  0.4330   0.4489   0.4583   0.4600   0.4672   0.4701   0.4827   0.4934
  0.5033   0.5155   0.5191   0.5290   0.5370   0.5404   0.5438   0.5502
  0.5640   0.5753   0.5824   0.5893   0.5998   0.6061   0.6152   0.6186
  0.6225   0.6257   0.6345   0.6396   0.6434   0.6470   0.6507   0.6571
  0.6648   0.6704   0.6797   0.6887   0.6977   0.7019   0.7053   0.7284
  0.7307   0.7502   0.7534   0.7737   0.7933   0.7985   0.8073   0.8215
  0.8267   0.8374   0.8491   0.8564   0.8714   0.8811   0.8956   0.9131
  0.9224   0.9503   0.9548   0.9719   0.9799   0.9920   0.9990   1.0040
  1.0131   1.0326   1.0342   1.0428   1.0547   1.0736   1.0780   1.0867
  1.0890   1.0960   1.1056   1.1130   1.1361   1.1495   1.1561   1.1653
  1.1754   1.1881   1.2002   1.2086   1.2205   1.2320   1.2378   1.2421
  1.2469   1.2541   1.2701   1.2770   1.2808   1.2924   1.3003   1.3125
  1.3339   1.3343   1.3434   1.3568   1.3680   1.3957   1.4033   1.4193
  1.4244   1.4445   1.4506   1.4532   1.4711   1.4833   1.4921   1.4955
  1.5006   1.5152   1.5225   1.5335   1.5398   1.5446   1.5462   1.5551
  1.5678   1.5770   1.5849   1.6048   1.6054   1.6108   1.6171   1.6372
  1.6415   1.6612   1.6754   1.6871   1.7025   1.7202   1.7336   1.7369
  1.7421   1.7519   1.7881   1.7920   1.8023   1.8186   1.8393   1.8609
  1.8769   1.8900   1.9294   1.9431   1.9586   1.9639   1.9936   1.9981
  2.0183   2.0216   2.0337   2.0627   2.0689   2.1149   2.1376   2.1615
  2.1825   2.1925   2.2144   2.2210   2.2317   2.2641   2.2719   2.2806
  2.3192   2.3363   2.3431   2.3620   2.4084   2.4325   2.4427   2.4716
  2.4818   2.5173   2.5354   2.5491   2.5621   2.5770   2.6107   2.6255
  2.6320   2.6484   2.6579   2.6621   2.6753   2.6924   2.7024   2.7255
  2.7370   2.7478   2.7498   2.7676   2.7735   2.7824   2.7947   2.8127
  2.8273   2.8464   2.8569   2.8775   2.8873   2.8982   2.9105   2.9194
  2.9201   2.9616   2.9698   2.9759   3.0088   3.0154   3.0269   3.0378
  3.0461   3.0742   3.0894   3.0971   3.1123   3.1195   3.1340   3.1365
  3.1502   3.1518   3.1667   3.1683   3.1824   3.1888   3.1997   3.2134
  3.2251   3.2412   3.2548   3.2644   3.2806   3.2889   3.2963   3.3021
  3.3099   3.3226   3.3276   3.3346   3.3391   3.3513   3.3595   3.3793
  3.3808   3.3862   3.3911   3.3980   3.4071   3.4108   3.4201   3.4399
  3.4412   3.4450   3.4492   3.4573   3.4717   3.4878   3.4944   3.5039
  3.5189   3.5214   3.5295   3.5330   3.5435   3.5583   3.5621   3.5770
  3.5941   3.5984   3.6096   3.6156   3.6314   3.6384   3.6457   3.6569
  3.6737   3.6830   3.6893   3.7067   3.7135   3.7192   3.7277   3.7363
  3.7436   3.7586   3.7692   3.7831   3.7884   3.7899   3.8010   3.8060
  3.8324   3.8380   3.8568   3.8602   3.8756   3.8944   3.8995   3.9098
  3.9269   3.9456   3.9546   3.9697   3.9723   3.9906   4.0015   4.0097
  4.0251   4.0402   4.0463   4.0597   4.0747   4.0882   4.0982   4.1145
  4.1277   4.1339   4.1409   4.1570   4.1679   4.1724   4.1763   4.1929
  4.2012   4.2221   4.2394   4.2416   4.2498   4.2682   4.2709   4.2779
  4.2972   4.3042   4.3182   4.3312   4.3373   4.3516   4.3535   4.3652
  4.3825   4.3837   4.4015   4.4084   4.4140   4.4232   4.4321   4.4438
  4.4601   4.4701   4.4760   4.4855   4.4970   4.5151   4.5459   4.5522
  4.5643   4.5956   4.6069   4.6234   4.6394   4.6491   4.6598   4.6652
  4.7105   4.7263   4.7310   4.7571   4.7756   4.8066   4.8220   4.8464
  4.8547   4.8623   4.8843   4.8956   4.9432   4.9586   4.9781   4.9957
  5.0150   5.0393   5.0898   5.0939   5.1139   5.1235   5.1535   5.1778
  5.1879   5.2207   5.2352   5.2713   5.2826   5.2873   5.3097   5.3176
  5.3405   5.3689   5.3835   5.3997   5.4062   5.4263   5.4406   5.4522
  5.4743   5.5159   5.5248   5.5446   5.5468   5.5637   5.5722   5.5895
  5.6238   5.6303   5.6464   5.6696   5.6802   5.6997   5.7067   5.7232
  5.7720   5.7921   5.8336   5.9858   6.0006   6.1139   6.1188   6.1488
  6.2100   6.2172   6.2272   6.2434   6.2475   6.2782   6.3085   6.3282
  6.3892   6.5040   9.5303  10.6309  11.9975  12.9611  13.1807  13.9594
 14.1239  14.2399  14.2934  14.7003
 --------------------------------------------------------------
 
          Ground-State Mulliken Net Atomic Charges

     Atom                 Charge (a.u.)
  ----------------------------------------
      1 C                    -0.078801
      2 C                    -0.325296
      3 C                    -0.026900
      4 H                     0.177253
      5 C                     0.098333
      6 S                    -0.176402
      7 C                    -0.270367
      8 H                     0.114336
      9 H                     0.105189
     10 H                     0.106805
     11 C                    -0.077172
     12 C                    -0.255647
     13 C                     0.024229
     14 H                     0.183944
     15 C                    -0.246084
     16 S                     0.006329
     17 C                    -0.271730
     18 H                     0.102440
     19 H                     0.108707
     20 H                     0.107820
     21 H                     0.196263
     22 H                     0.110928
     23 H                     0.113359
     24 H                     0.172464
  ----------------------------------------
  Sum of atomic charges =     0.000000

 -----------------------------------------------------------------
                    Cartesian Multipole Moments
 -----------------------------------------------------------------
    Charge (ESU x 10^10)
                -0.0000
    Dipole Moment (Debye)
         X       2.5113      Y       0.3208      Z       0.9744
       Tot       2.7127
    Quadrupole Moments (Debye-Ang)
        XX     -91.9534     XY      -3.8884     YY     -73.6226
        XZ      -0.2551     YZ       1.7645     ZZ     -85.7251
    Octopole Moments (Debye-Ang^2)
       XXX       2.3613    XXY      41.4300    XYY       0.2160
       YYY     122.7399    XXZ      -4.7414    XYZ       2.5630
       YYZ      -0.8993    XZZ       0.7941    YZZ      53.3457
       ZZZ       4.8203
    Hexadecapole Moments (Debye-Ang^3)
      XXXX    -569.2879   XXXY     -22.3927   XXYY    -605.1483
      XYYY      -1.9229   YYYY   -2782.7607   XXXZ     118.0596
      XXYZ     -15.3381   XYYZ      26.1794   YYYZ    -111.5332
      XXZZ    -213.0066   XYZZ      -7.1096   YYZZ    -612.0782
      XZZZ     124.8397   YZZZ     -94.9814   ZZZZ    -682.7224
 -----------------------------------------------------------------
 Total job time:  645.06s(wall), 641.51s(cpu) 
 Sat Jul  9 20:01:56 2022

        *************************************************************
        *                                                           *
        *  Thank you very much for using Q-Chem.  Have a nice day.  *
        *                                                           *
        *************************************************************


remove work dirs ./qchem1094781.0 -- ./qchem1094781.-1
rm -rf ./qchem1094781
You are running Q-Chem version: 5.4.0

#
# job setting
#
local host:  exp-1-17
current dir: /expanse/lustre/scratch/theleonzhang/temp_project/Hydrogenated_Rotation_Test
input file:  Methylthiophene_Phi_0_Theta_60_Methylthiophene_Hydrogenated.qcin
output file: 
nprocs     : 0
nthreads   : 1
#
# qchem installation setting
#
QC:          /cm/shared/apps/spack/cpu/opt/spack/linux-centos8-zen2/gcc-10.2.0/qchem-5.4-akfmr7b3t57bfs6qan3padb2wnb2i7cl
QCAUX:       /cm/shared/apps/spack/cpu/opt/spack/linux-centos8-zen2/gcc-10.2.0/qchem-5.4-akfmr7b3t57bfs6qan3padb2wnb2i7cl/qcaux
QCPROG:      /cm/shared/apps/spack/cpu/opt/spack/linux-centos8-zen2/gcc-10.2.0/qchem-5.4-akfmr7b3t57bfs6qan3padb2wnb2i7cl/exe/qcprog.exe_s
QCPROG_S:    /cm/shared/apps/spack/cpu/opt/spack/linux-centos8-zen2/gcc-10.2.0/qchem-5.4-akfmr7b3t57bfs6qan3padb2wnb2i7cl/exe/qcprog.exe_s
PARALLEL:    -DSERIAL
QCMPI:       mpich
#
# qchem directory setting
#
qcrun:       qchem3448649
QCSCRATCH:   .
QCLOCALSCR:  
QCTMPDIR:    .
QCFILEPREF:  ./qchem3448649
QCSAVEDIR:   
workdirs:    ./qchem3448649
workdir0:    ./qchem3448649
partmpdirs =  
#
# parallel setting
#
QCRSH:           ssh
QCMPI:           mpich
QCMPIRUN:        /cm/shared/apps/spack/cpu/opt/spack/linux-centos8-zen2/gcc-10.2.0/qchem-5.4-akfmr7b3t57bfs6qan3padb2wnb2i7cl/bin/mpi/mpirun_qchem
QCMACHINEFILE:   ./qchem3448649/hostfile

#
# env setting
#
exported envs:   QC QCAUX QCSCRATCH QCRUNNAME QCFILEPREF QCPROG QCPROG_S GUIFILE

Running Job 1 of 1 Methylthiophene_Phi_0_Theta_60_Methylthiophene_Hydrogenated.qcin
qchem Methylthiophene_Phi_0_Theta_60_Methylthiophene_Hydrogenated.qcin_3448649.0 ./qchem3448649/ 0
/cm/shared/apps/spack/cpu/opt/spack/linux-centos8-zen2/gcc-10.2.0/qchem-5.4-akfmr7b3t57bfs6qan3padb2wnb2i7cl/exe/qcprog.exe_s Methylthiophene_Phi_0_Theta_60_Methylthiophene_Hydrogenated.qcin_3448649.0 ./qchem3448649/
                  Welcome to Q-Chem
     A Quantum Leap Into The Future Of Chemistry


 Q-Chem 5.4, Q-Chem, Inc., Pleasanton, CA (2021)

 License issued to: University of California, San Diego (site)

 E. Epifanovsky,  A. T. B. Gilbert,  Xintian Feng,  Joonho Lee,  Yuezhi Mao,  
 N. Mardirossian,  P. Pokhilko,  A. White,  M. Wormit,  M. P. Coons,  
 A. L. Dempwolff,  Zhengting Gan,  D. Hait,  P. R. Horn,  L. D. Jacobson,  
 I. Kaliman,  J. Kussmann,  A. W. Lange,  Ka Un Lao,  D. S. Levine,  Jie Liu,  
 S. C. McKenzie,  A. F. Morrison,  K. Nanda,  F. Plasser,  D. R. Rehn,  
 M. L. Vidal,  Zhi-Qiang You,  Ying Zhu,  B. Alam,  B. Albrecht,  
 A. Aldossary,  E. Alguire,  J. H. Andersen,  D. Barton,  K. Begam,  A. Behn,  
 Y. A. Bernard,  E. J. Berquist,  H. Burton,  A. Carreras,  K. Carter-Fenk,  
 R. Chakraborty,  A. D. Chien,  K. D. Closser,  V. Cofer-Shabica,  
 S. Dasgupta,  Jia Deng,  M. de Wergifosse,  M. Diedenhofen,  Hainam Do,  
 S. Ehlert,  Po-Tung Fang,  S. Fatehi,  Qingguo Feng,  J. Gayvert,  
 Qinghui Ge,  G. Gidofalvi,  M. Goldey,  J. Gomes,  C. Gonzalez-Espinoza,  
 S. Gulania,  A. Gunina,  M. W. D. Hanson-Heine,  P. H. P. Harbach,  
 A. W. Hauser,  M. F. Herbst,  M. Hernandez Vera,  M. Hodecker,  
 Z. C. Holden,  S. Houck,  Xunkun Huang,  Kerwin Hui,  B. C. Huynh,  
 M. Ivanov,  Hyunjun Ji,  Hanjie Jiang,  B. Kaduk,  S. Kaehler,  
 K. Khistyaev,  Jaehoon Kim,  P. Klunzinger,  Z. Koczor-Benda,  
 Joong Hoon Koh,  D. Kosenkov,  L. Koulias,  T. Kowalczyk,  C. M. Krauter,  
 K. Kue,  A. Kunitsa,  T. Kus,  A. Landau,  K. V. Lawler,  D. Lefrancois,  
 S. Lehtola,  Rain Li,  Yi-Pei Li,  Jiashu Liang,  M. Liebenthal,  
 Hung-Hsuan Lin,  You-Sheng Lin,  Fenglai Liu,  Kuan-Yu Liu,  
 M. Loipersberger,  A. Luenser,  A. Manjanath,  P. Manohar,  E. Mansoor,  
 S. F. Manzer,  Shan-Ping Mao,  A. V. Marenich,  T. Markovich,  S. Mason,  
 S. A. Maurer,  P. F. McLaughlin,  M. F. S. J. Menger,  J.-M. Mewes,  
 S. A. Mewes,  P. Morgante,  J. W. Mullinax,  T. S. Nguyen-Beck,  
 K. J. Oosterbaan,  G. Paran,  Alexander C. Paul,  Suranjan K. Paul,  
 F. Pavosevic,  Zheng Pei,  S. Prager,  E. I. Proynov,  E. Ramos,  B. Rana,  
 A. E. Rask,  A. Rettig,  R. M. Richard,  F. Rob,  E. Rossomme,  T. Scheele,  
 M. Scheurer,  M. Schneider,  N. Sergueev,  S. M. Sharada,  W. Skomorowski,  
 D. W. Small,  C. J. Stein,  Yu-Chuan Su,  E. J. Sundstrom,  Zhen Tao,  
 J. Thirman,  T. Tsuchimochi,  N. M. Tubman,  S. P. Veccham,  O. Vydrov,  
 J. Wenzel,  J. Witte,  A. Yamada,  Kun Yao,  S. Yeganeh,  S. R. Yost,  
 A. Zech,  Igor Ying Zhang,  Xing Zhang,  Yu Zhang,  D. Zuev,  
 A. Aspuru-Guzik,  A. T. Bell,  N. A. Besley,  K. B. Bravaya,  B. R. Brooks,  
 D. Casanova,  Jeng-Da Chai,  S. Coriani,  C. J. Cramer,  
 A. E. DePrince, III,  R. A. DiStasio Jr.,  A. Dreuw,  B. D. Dunietz,  
 T. R. Furlani,  W. A. Goddard III,  S. Grimme,  S. Hammes-Schiffer,  
 T. Head-Gordon,  W. J. Hehre,  Chao-Ping Hsu,  T.-C. Jagau,  Yousung Jung,  
 A. Klamt,  Jing Kong,  D. S. Lambrecht,  WanZhen Liang,  N. J. Mayhall,  
 C. W. McCurdy,  J. B. Neaton,  C. Ochsenfeld,  J. A. Parkhill,  R. Peverati,  
 V. A. Rassolov,  Yihan Shao,  L. V. Slipchenko,  T. Stauch,  R. P. Steele,  
 J. E. Subotnik,  A. J. W. Thom,  A. Tkatchenko,  D. G. Truhlar,  
 T. Van Voorhis,  T. A. Wesolowski,  K. B. Whaley,  H. L. Woodcock III,  
 P. M. Zimmerman,  S. Faraji,  P. M. W. Gill,  M. Head-Gordon,  
 J. M. Herbert,  A. I. Krylov

 Contributors to earlier versions of Q-Chem not listed above: 
 R. D. Adamson,  B. Austin,  R. Baer,  J. Baker,  G. J. O. Beran,  
 K. Brandhorst,  S. T. Brown,  E. F. C. Byrd,  A. K. Chakraborty,  
 G. K. L. Chan,  Chun-Min Chang,  Yunqing Chen,  C.-L. Cheng,  
 Siu Hung Chien,  D. M. Chipman,  D. L. Crittenden,  H. Dachsel,  
 R. J. Doerksen,  A. D. Dutoi,  R. G. Edgar,  J. Fosso-Tande,  
 L. Fusti-Molnar,  D. Ghosh,  A. Ghysels,  A. Golubeva-Zadorozhnaya,  
 J. Gonthier,  M. S. Gordon,  S. R. Gwaltney,  G. Hawkins,  J. E. Herr,  
 A. Heyden,  S. Hirata,  E. G. Hohenstein,  G. Kedziora,  F. J. Keil,  
 C. Kelley,  Jihan Kim,  R. A. King,  R. Z. Khaliullin,  P. P. Korambath,  
 W. Kurlancheek,  A. Laurent,  A. M. Lee,  M. S. Lee,  S. V. Levchenko,  
 Ching Yeh Lin,  D. Liotard,  E. Livshits,  R. C. Lochan,  I. Lotan,  
 L. A. Martinez-Martinez,  P. E. Maslen,  N. Nair,  D. P. O'Neill,  
 D. Neuhauser,  E. Neuscamman,  C. M. Oana,  R. Olivares-Amaya,  R. Olson,  
 T. M. Perrine,  B. Peters,  P. A. Pieniazek,  A. Prociuk,  Y. M. Rhee,  
 J. Ritchie,  M. A. Rohrdanz,  E. Rosta,  N. J. Russ,  H. F. Schaefer III,  
 M. W. Schmidt,  N. E. Schultz,  S. Sharma,  N. Shenvi,  C. D. Sherrill,  
 A. C. Simmonett,  A. Sodt,  T. Stein,  D. Stuck,  K. S. Thanthiriwatte,  
 V. Vanovschi,  L. Vogt,  Tao Wang,  A. Warshel,  M. A. Watson,  
 C. F. Williams,  Q. Wu,  X. Xu,  Jun Yang,  W. Zhang,  Yan Zhao

 Please cite Q-Chem as follows:
 Y. Shao et al., Mol. Phys. 113, 184-215 (2015)
 DOI: 10.1080/00268976.2014.952696

 Q-Chem 5.4.0 for Intel X86 EM64T Linux

 Parts of Q-Chem use Armadillo 9.800.1 (Horizon Scraper).
 http://arma.sourceforge.net/

 Q-Chem begins on Sun Jul 10 00:00:40 2022  

 Host: 
0

     Scratch files written to ./qchem3448649//
 May1621 |scratch|qcdevops|jenkins|workspace|build_RNUM    
 Processing $rem in /cm/shared/apps/spack/cpu/opt/spack/linux-centos8-zen2/gcc-10.2.0/qchem-5.4-akfmr7b3t57bfs6qan3padb2wnb2i7cl/config/preferences:
 Processing $rem in /home/theleonzhang/.qchemrc:
 Symmetry turned off for PCM/SM12/SMD calculation
 Core orbitals will be frozen

 Checking the input file for inconsistencies... 	...done.

--------------------------------------------------------------
User input:
--------------------------------------------------------------
$molecule
0 1
C	-0.671636	-3.866725	0.386946
C	0.530345	-3.703963	-0.306544
C	0.923770	-2.357056	-0.533261
H	1.128109	-4.561092	-0.651857
C	0.000000	-1.440664	0.000000
S	-1.337557	-2.286957	0.772250
C	2.184153	-1.978743	-1.260680
H	2.742769	-2.878678	-1.583283
H	2.863347	-1.376015	-0.622180
H	1.971094	-1.375728	-2.168011
C	0.000000	0.000000	0.000000
C	0.000033	0.863600	1.099446
C	0.000052	2.247508	0.776721
H	0.000026	0.494801	2.136088
C	0.000074	2.468165	-0.612546
S	0.000024	0.942399	-1.486809
C	0.000075	3.335257	1.814609
H	0.000074	2.909620	2.836676
H	-0.892314	3.989552	1.726239
H	0.892483	3.989525	1.726228
H	0.000094	3.417382	-1.161575
H	-0.521098	-4.392713	1.336254
H	-1.418509	-4.392347	-0.218374
H	0.539900	-1.440937	0.935365
$end

$rem
JOBTYPE		SP
EXCHANGE	HF
CORRELATION	pRIMP2
BASIS		cc-pvtz
METHOD		rimp2
AUX_BASIS	rimp2-cc-pvtz
SOLVENT_METHOD	PCM
PURECART	11111
SYMMETRY	false
MEM_TOTAL	110000
SCF_CONVERGENCE = 6
THRESH=10
$end



$solvent
dielectric 4.90
$end
--------------------------------------------------------------
 ----------------------------------------------------------------
             Standard Nuclear Orientation (Angstroms)
    I     Atom           X                Y                Z
 ----------------------------------------------------------------
    1      C      -0.6716360000    -3.8667250000     0.3869460000
    2      C       0.5303450000    -3.7039630000    -0.3065440000
    3      C       0.9237700000    -2.3570560000    -0.5332610000
    4      H       1.1281090000    -4.5610920000    -0.6518570000
    5      C       0.0000000000    -1.4406640000     0.0000000000
    6      S      -1.3375570000    -2.2869570000     0.7722500000
    7      C       2.1841530000    -1.9787430000    -1.2606800000
    8      H       2.7427690000    -2.8786780000    -1.5832830000
    9      H       2.8633470000    -1.3760150000    -0.6221800000
   10      H       1.9710940000    -1.3757280000    -2.1680110000
   11      C       0.0000000000     0.0000000000     0.0000000000
   12      C       0.0000330000     0.8636000000     1.0994460000
   13      C       0.0000520000     2.2475080000     0.7767210000
   14      H       0.0000260000     0.4948010000     2.1360880000
   15      C       0.0000740000     2.4681650000    -0.6125460000
   16      S       0.0000240000     0.9423990000    -1.4868090000
   17      C       0.0000750000     3.3352570000     1.8146090000
   18      H       0.0000740000     2.9096200000     2.8366760000
   19      H      -0.8923140000     3.9895520000     1.7262390000
   20      H       0.8924830000     3.9895250000     1.7262280000
   21      H       0.0000940000     3.4173820000    -1.1615750000
   22      H      -0.5210980000    -4.3927130000     1.3362540000
   23      H      -1.4185090000    -4.3923470000    -0.2183740000
   24      H       0.5399000000    -1.4409370000     0.9353650000
 ----------------------------------------------------------------
 Nuclear Repulsion Energy =         872.22290294 hartrees
 There are       52 alpha and       52 beta electrons

 Q-Chem warning in module forms1/BasisType.C, line 2236:

 You are not using the predefined 5D/6D in this basis set.

 Requested basis set is cc-pVTZ
 There are 196 shells and 536 basis functions

 Total QAlloc Memory Limit 110000 MB
 Mega-Array Size       188 MB
 MEM_STATIC part       192 MB
 Discretize the solute cavity surface with Lebedev spheres
	Using 110 Lebedev grid points for each H atom
	Using 194 Lebedev grid points for other atoms
	Atomic van der Waals radii will be scaled by 1.20
 Remove points where switching function is < 1.0e-08
 Keep 1611 surface tesserae and discard 2037 interior tesserae
 Molecular Surface Area = 237.573 Angst**2
 Requested basis set is rimp2-cc-pVTZ
 There are 414 shells and 1414 basis functions
 A cutoff of  1.0D-10 yielded  13885 shell pairs
 There are    100779 function pairs (    129314 Cartesian)
 Smallest overlap matrix eigenvalue = 5.91E-05

 Scale SEOQF with 1.000000e-01/1.000000e-01/1.000000e-01

 Standard Electronic Orientation quadrupole field applied
 Nucleus-field energy     =     0.0000000334 hartrees
 Guess from superposition of atomic densities
 Warning:  Energy on first SCF cycle will be non-variational
 SAD guess density has 104.000000 electrons

 -----------------------------------------------------------------------
  General SCF calculation program by
  Eric Jon Sundstrom, Paul Horn, Yuezhi Mao, Dmitri Zuev, Alec White,
  David Stuck, Shaama M.S., Shane Yost, Joonho Lee, David Small,
  Daniel Levine, Susi Lehtola, Hugh Burton, Evgeny Epifanovsky,
  Bang C. Huynh
 -----------------------------------------------------------------------
 Hartree-Fock
 A restricted SCF calculation will be
 performed using DIIS
 SCF converges when DIIS error is below 1.0e-06
 ---------------------------------------
  Cycle       Energy         DIIS error
 ---------------------------------------
    1   -1186.0194064819      2.39e-02  
    2   -1180.6195496033      1.55e-03  
    3   -1180.7433175486      6.04e-04  
    4   -1180.7573156993      3.38e-04  
    5   -1180.7624826527      5.81e-05  
    6   -1180.7627224467      2.41e-05  
    7   -1180.7627799021      8.81e-06  
    8   -1180.7627933317      4.27e-06  
    9   -1180.7627963751      1.47e-06  
   10   -1180.7627968430      4.97e-07  Convergence criterion met
 ---------------------------------------
 SCF time:   CPU 562.43s  wall 564.00s 

************** Final PCM Free Energy Summary **************
 G_electrostatic  =      -0.00879846 hartree =      -5.52111960 kcal/mol
 G_cavitation     =       0.00000000 hartree =       0.00000000 kcal/mol
 G_dispersion     =       0.00000000 hartree =       0.00000000 kcal/mol
 G_repulsion      =       0.00000000 hartree =       0.00000000 kcal/mol
 --------------------------------------------------
 Non-electrostatic Free Energy =       0.00000000 hartree =       0.00000000 kcal/mol
 Total                         =      -0.00879846 hartree =      -5.52111960 kcal/mol
 --------------------------------------------------
 SCF Energy (H0 + V/2)                       =   -1180.76279684 
 Solute Internal Energy (H0)                 =   -1180.75399838 
 Total Free Energy (H0 + V/2 + non-elec)     =   -1180.76279684 hartree
                                             = -740939.83802343 kcal/mol
***********************************************************

 SCF   energy in the final basis set =    -1180.7627968430
 Total energy in the final basis set =    -1180.7627968430


 --------------------------------------------------------------
  Generalized many-body perturbation theory program
  by Joonho Lee, Fazle Rob, Xintian Feng, Evgeny Epifanovsky

 No regularization used 
 (reg. param. = 0.0000e+00)
  (P|Q)^-1/2 Time:  CPU 1.89 s  wall 1.90 s

 In RI-MP2 calculation: 
 # of frozen core orbitals: 20

 Components of the RIMP2 correlation energy:
        aaaa    correlation energy =        -0.2511975241 a.u.
        abab    correlation energy =        -1.5025338273 a.u.
        bbbb    correlation energy =        -0.2511975241 a.u.
        non-Brillouin singles      =        -0.0000000000 a.u.
        total same-spin energy     =        -0.5023950482 a.u.
        total opposite-spin energy =        -1.5025338273 a.u.

 Total  RIMP2   correlation energy =        -2.0049288755 a.u.
        RIMP2         total energy =     -1182.7677257185 a.u.

 RI-MP2 Energy Time:  CPU 79.56 s  wall 79.88 s
 
 --------------------------------------------------------------
 
                    Orbital Energies (a.u.)
 --------------------------------------------------------------
 
 Alpha MOs
 -- Occupied --
-91.9814 -91.9422 -11.2841 -11.2636 -11.2615 -11.2565 -11.2509 -11.2414
-11.2402 -11.2317 -11.2289 -11.2204  -8.9813  -8.9469  -6.6622  -6.6617
 -6.6611  -6.6283  -6.6272  -6.6259  -1.1990  -1.1533  -1.0587  -1.0260
 -1.0072  -0.9583  -0.9132  -0.9011  -0.8149  -0.7660  -0.7307  -0.7004
 -0.6618  -0.6422  -0.6106  -0.5877  -0.5801  -0.5728  -0.5673  -0.5516
 -0.5419  -0.5320  -0.5142  -0.5061  -0.4917  -0.4821  -0.4589  -0.4493
 -0.3559  -0.3430  -0.3166  -0.2749
 -- Virtual --
  0.0972   0.1322   0.1429   0.1494   0.1575   0.1697   0.1771   0.1809
  0.1923   0.1986   0.2038   0.2077   0.2281   0.2337   0.2376   0.2442
  0.2533   0.2590   0.2730   0.2945   0.3179   0.3377   0.3476   0.3535
  0.3660   0.3685   0.3793   0.3943   0.3969   0.4015   0.4147   0.4244
  0.4330   0.4489   0.4583   0.4600   0.4672   0.4701   0.4827   0.4934
  0.5033   0.5155   0.5191   0.5290   0.5370   0.5404   0.5438   0.5502
  0.5640   0.5753   0.5824   0.5893   0.5998   0.6061   0.6152   0.6186
  0.6225   0.6257   0.6345   0.6396   0.6434   0.6470   0.6507   0.6571
  0.6648   0.6704   0.6797   0.6887   0.6977   0.7019   0.7053   0.7284
  0.7307   0.7502   0.7534   0.7737   0.7933   0.7985   0.8073   0.8215
  0.8267   0.8374   0.8491   0.8564   0.8714   0.8811   0.8956   0.9131
  0.9224   0.9503   0.9548   0.9719   0.9799   0.9920   0.9990   1.0040
  1.0131   1.0326   1.0342   1.0428   1.0547   1.0736   1.0780   1.0867
  1.0890   1.0960   1.1056   1.1130   1.1361   1.1495   1.1561   1.1653
  1.1754   1.1881   1.2002   1.2086   1.2205   1.2320   1.2378   1.2421
  1.2469   1.2541   1.2701   1.2770   1.2808   1.2924   1.3003   1.3125
  1.3339   1.3343   1.3434   1.3568   1.3680   1.3957   1.4033   1.4193
  1.4244   1.4445   1.4506   1.4532   1.4711   1.4833   1.4921   1.4955
  1.5006   1.5152   1.5225   1.5335   1.5398   1.5446   1.5462   1.5551
  1.5678   1.5770   1.5849   1.6048   1.6054   1.6108   1.6171   1.6372
  1.6415   1.6612   1.6754   1.6871   1.7025   1.7202   1.7336   1.7369
  1.7421   1.7519   1.7881   1.7920   1.8023   1.8186   1.8393   1.8609
  1.8769   1.8900   1.9294   1.9431   1.9586   1.9639   1.9936   1.9981
  2.0183   2.0216   2.0337   2.0627   2.0689   2.1149   2.1376   2.1615
  2.1825   2.1925   2.2144   2.2210   2.2317   2.2641   2.2719   2.2806
  2.3192   2.3363   2.3431   2.3620   2.4084   2.4325   2.4427   2.4716
  2.4818   2.5173   2.5354   2.5491   2.5621   2.5770   2.6107   2.6255
  2.6320   2.6484   2.6579   2.6621   2.6753   2.6924   2.7024   2.7255
  2.7370   2.7478   2.7498   2.7676   2.7735   2.7824   2.7947   2.8127
  2.8273   2.8464   2.8569   2.8775   2.8873   2.8982   2.9105   2.9194
  2.9201   2.9616   2.9698   2.9759   3.0088   3.0154   3.0269   3.0378
  3.0461   3.0742   3.0894   3.0971   3.1123   3.1195   3.1340   3.1365
  3.1502   3.1518   3.1667   3.1683   3.1824   3.1888   3.1997   3.2134
  3.2251   3.2412   3.2548   3.2644   3.2806   3.2889   3.2963   3.3021
  3.3099   3.3226   3.3276   3.3346   3.3391   3.3513   3.3595   3.3793
  3.3808   3.3862   3.3911   3.3980   3.4071   3.4108   3.4201   3.4399
  3.4412   3.4450   3.4492   3.4573   3.4717   3.4878   3.4944   3.5039
  3.5189   3.5214   3.5295   3.5330   3.5435   3.5583   3.5621   3.5770
  3.5941   3.5984   3.6096   3.6156   3.6314   3.6384   3.6457   3.6569
  3.6737   3.6830   3.6893   3.7067   3.7135   3.7192   3.7277   3.7363
  3.7436   3.7586   3.7692   3.7831   3.7884   3.7899   3.8010   3.8060
  3.8324   3.8380   3.8568   3.8602   3.8756   3.8944   3.8995   3.9098
  3.9269   3.9456   3.9546   3.9697   3.9723   3.9906   4.0015   4.0097
  4.0251   4.0402   4.0463   4.0597   4.0747   4.0882   4.0982   4.1145
  4.1277   4.1339   4.1409   4.1570   4.1679   4.1724   4.1763   4.1929
  4.2012   4.2221   4.2394   4.2416   4.2498   4.2682   4.2709   4.2779
  4.2972   4.3042   4.3182   4.3312   4.3373   4.3516   4.3535   4.3652
  4.3825   4.3837   4.4015   4.4084   4.4140   4.4232   4.4321   4.4438
  4.4601   4.4701   4.4760   4.4855   4.4970   4.5151   4.5459   4.5522
  4.5643   4.5956   4.6069   4.6234   4.6394   4.6491   4.6598   4.6652
  4.7105   4.7263   4.7310   4.7571   4.7756   4.8066   4.8220   4.8464
  4.8547   4.8623   4.8843   4.8956   4.9432   4.9586   4.9781   4.9957
  5.0150   5.0393   5.0898   5.0939   5.1139   5.1235   5.1535   5.1778
  5.1879   5.2207   5.2352   5.2713   5.2826   5.2873   5.3097   5.3176
  5.3405   5.3689   5.3835   5.3997   5.4062   5.4263   5.4406   5.4522
  5.4743   5.5159   5.5248   5.5446   5.5468   5.5637   5.5722   5.5895
  5.6238   5.6303   5.6464   5.6696   5.6802   5.6997   5.7067   5.7232
  5.7720   5.7921   5.8336   5.9858   6.0006   6.1139   6.1188   6.1488
  6.2100   6.2172   6.2272   6.2434   6.2475   6.2782   6.3085   6.3282
  6.3892   6.5040   9.5303  10.6309  11.9975  12.9611  13.1807  13.9594
 14.1239  14.2399  14.2934  14.7003
 --------------------------------------------------------------
 
          Ground-State Mulliken Net Atomic Charges

     Atom                 Charge (a.u.)
  ----------------------------------------
      1 C                    -0.078801
      2 C                    -0.325296
      3 C                    -0.026900
      4 H                     0.177253
      5 C                     0.098333
      6 S                    -0.176402
      7 C                    -0.270367
      8 H                     0.114336
      9 H                     0.105189
     10 H                     0.106805
     11 C                    -0.077172
     12 C                    -0.255647
     13 C                     0.024229
     14 H                     0.183944
     15 C                    -0.246084
     16 S                     0.006329
     17 C                    -0.271730
     18 H                     0.102440
     19 H                     0.108707
     20 H                     0.107820
     21 H                     0.196263
     22 H                     0.110928
     23 H                     0.113359
     24 H                     0.172464
  ----------------------------------------
  Sum of atomic charges =     0.000000

 -----------------------------------------------------------------
                    Cartesian Multipole Moments
 -----------------------------------------------------------------
    Charge (ESU x 10^10)
                -0.0000
    Dipole Moment (Debye)
         X       2.5113      Y       0.3208      Z       0.9744
       Tot       2.7127
    Quadrupole Moments (Debye-Ang)
        XX     -91.9534     XY      -3.8884     YY     -73.6226
        XZ      -0.2551     YZ       1.7645     ZZ     -85.7251
    Octopole Moments (Debye-Ang^2)
       XXX       2.3613    XXY      41.4300    XYY       0.2160
       YYY     122.7399    XXZ      -4.7414    XYZ       2.5630
       YYZ      -0.8993    XZZ       0.7941    YZZ      53.3457
       ZZZ       4.8203
    Hexadecapole Moments (Debye-Ang^3)
      XXXX    -569.2879   XXXY     -22.3927   XXYY    -605.1483
      XYYY      -1.9229   YYYY   -2782.7607   XXXZ     118.0596
      XXYZ     -15.3381   XYYZ      26.1794   YYYZ    -111.5332
      XXZZ    -213.0066   XYZZ      -7.1096   YYZZ    -612.0782
      XZZZ     124.8397   YZZZ     -94.9814   ZZZZ    -682.7224
 -----------------------------------------------------------------
 Total job time:  647.24s(wall), 642.88s(cpu) 
 Sun Jul 10 00:11:28 2022

        *************************************************************
        *                                                           *
        *  Thank you very much for using Q-Chem.  Have a nice day.  *
        *                                                           *
        *************************************************************


remove work dirs ./qchem3448649.0 -- ./qchem3448649.-1
rm -rf ./qchem3448649
You are running Q-Chem version: 5.4.0

#
# job setting
#
local host:  exp-2-18
current dir: /expanse/lustre/scratch/theleonzhang/temp_project/Hydrogenated_Rotation_Test
input file:  Methylthiophene_Phi_0_Theta_60_Methylthiophene_Hydrogenated.qcin
output file: 
nprocs     : 0
nthreads   : 1
#
# qchem installation setting
#
QC:          /cm/shared/apps/spack/cpu/opt/spack/linux-centos8-zen2/gcc-10.2.0/qchem-5.4-akfmr7b3t57bfs6qan3padb2wnb2i7cl
QCAUX:       /cm/shared/apps/spack/cpu/opt/spack/linux-centos8-zen2/gcc-10.2.0/qchem-5.4-akfmr7b3t57bfs6qan3padb2wnb2i7cl/qcaux
QCPROG:      /cm/shared/apps/spack/cpu/opt/spack/linux-centos8-zen2/gcc-10.2.0/qchem-5.4-akfmr7b3t57bfs6qan3padb2wnb2i7cl/exe/qcprog.exe_s
QCPROG_S:    /cm/shared/apps/spack/cpu/opt/spack/linux-centos8-zen2/gcc-10.2.0/qchem-5.4-akfmr7b3t57bfs6qan3padb2wnb2i7cl/exe/qcprog.exe_s
PARALLEL:    -DSERIAL
QCMPI:       mpich
#
# qchem directory setting
#
qcrun:       qchem1838487
QCSCRATCH:   .
QCLOCALSCR:  
QCTMPDIR:    .
QCFILEPREF:  ./qchem1838487
QCSAVEDIR:   
workdirs:    ./qchem1838487
workdir0:    ./qchem1838487
partmpdirs =  
#
# parallel setting
#
QCRSH:           ssh
QCMPI:           mpich
QCMPIRUN:        /cm/shared/apps/spack/cpu/opt/spack/linux-centos8-zen2/gcc-10.2.0/qchem-5.4-akfmr7b3t57bfs6qan3padb2wnb2i7cl/bin/mpi/mpirun_qchem
QCMACHINEFILE:   ./qchem1838487/hostfile

#
# env setting
#
exported envs:   QC QCAUX QCSCRATCH QCRUNNAME QCFILEPREF QCPROG QCPROG_S GUIFILE

Running Job 1 of 1 Methylthiophene_Phi_0_Theta_60_Methylthiophene_Hydrogenated.qcin
qchem Methylthiophene_Phi_0_Theta_60_Methylthiophene_Hydrogenated.qcin_1838487.0 ./qchem1838487/ 0
/cm/shared/apps/spack/cpu/opt/spack/linux-centos8-zen2/gcc-10.2.0/qchem-5.4-akfmr7b3t57bfs6qan3padb2wnb2i7cl/exe/qcprog.exe_s Methylthiophene_Phi_0_Theta_60_Methylthiophene_Hydrogenated.qcin_1838487.0 ./qchem1838487/
                  Welcome to Q-Chem
     A Quantum Leap Into The Future Of Chemistry


 Q-Chem 5.4, Q-Chem, Inc., Pleasanton, CA (2021)

 License issued to: University of California, San Diego (site)

 E. Epifanovsky,  A. T. B. Gilbert,  Xintian Feng,  Joonho Lee,  Yuezhi Mao,  
 N. Mardirossian,  P. Pokhilko,  A. White,  M. Wormit,  M. P. Coons,  
 A. L. Dempwolff,  Zhengting Gan,  D. Hait,  P. R. Horn,  L. D. Jacobson,  
 I. Kaliman,  J. Kussmann,  A. W. Lange,  Ka Un Lao,  D. S. Levine,  Jie Liu,  
 S. C. McKenzie,  A. F. Morrison,  K. Nanda,  F. Plasser,  D. R. Rehn,  
 M. L. Vidal,  Zhi-Qiang You,  Ying Zhu,  B. Alam,  B. Albrecht,  
 A. Aldossary,  E. Alguire,  J. H. Andersen,  D. Barton,  K. Begam,  A. Behn,  
 Y. A. Bernard,  E. J. Berquist,  H. Burton,  A. Carreras,  K. Carter-Fenk,  
 R. Chakraborty,  A. D. Chien,  K. D. Closser,  V. Cofer-Shabica,  
 S. Dasgupta,  Jia Deng,  M. de Wergifosse,  M. Diedenhofen,  Hainam Do,  
 S. Ehlert,  Po-Tung Fang,  S. Fatehi,  Qingguo Feng,  J. Gayvert,  
 Qinghui Ge,  G. Gidofalvi,  M. Goldey,  J. Gomes,  C. Gonzalez-Espinoza,  
 S. Gulania,  A. Gunina,  M. W. D. Hanson-Heine,  P. H. P. Harbach,  
 A. W. Hauser,  M. F. Herbst,  M. Hernandez Vera,  M. Hodecker,  
 Z. C. Holden,  S. Houck,  Xunkun Huang,  Kerwin Hui,  B. C. Huynh,  
 M. Ivanov,  Hyunjun Ji,  Hanjie Jiang,  B. Kaduk,  S. Kaehler,  
 K. Khistyaev,  Jaehoon Kim,  P. Klunzinger,  Z. Koczor-Benda,  
 Joong Hoon Koh,  D. Kosenkov,  L. Koulias,  T. Kowalczyk,  C. M. Krauter,  
 K. Kue,  A. Kunitsa,  T. Kus,  A. Landau,  K. V. Lawler,  D. Lefrancois,  
 S. Lehtola,  Rain Li,  Yi-Pei Li,  Jiashu Liang,  M. Liebenthal,  
 Hung-Hsuan Lin,  You-Sheng Lin,  Fenglai Liu,  Kuan-Yu Liu,  
 M. Loipersberger,  A. Luenser,  A. Manjanath,  P. Manohar,  E. Mansoor,  
 S. F. Manzer,  Shan-Ping Mao,  A. V. Marenich,  T. Markovich,  S. Mason,  
 S. A. Maurer,  P. F. McLaughlin,  M. F. S. J. Menger,  J.-M. Mewes,  
 S. A. Mewes,  P. Morgante,  J. W. Mullinax,  T. S. Nguyen-Beck,  
 K. J. Oosterbaan,  G. Paran,  Alexander C. Paul,  Suranjan K. Paul,  
 F. Pavosevic,  Zheng Pei,  S. Prager,  E. I. Proynov,  E. Ramos,  B. Rana,  
 A. E. Rask,  A. Rettig,  R. M. Richard,  F. Rob,  E. Rossomme,  T. Scheele,  
 M. Scheurer,  M. Schneider,  N. Sergueev,  S. M. Sharada,  W. Skomorowski,  
 D. W. Small,  C. J. Stein,  Yu-Chuan Su,  E. J. Sundstrom,  Zhen Tao,  
 J. Thirman,  T. Tsuchimochi,  N. M. Tubman,  S. P. Veccham,  O. Vydrov,  
 J. Wenzel,  J. Witte,  A. Yamada,  Kun Yao,  S. Yeganeh,  S. R. Yost,  
 A. Zech,  Igor Ying Zhang,  Xing Zhang,  Yu Zhang,  D. Zuev,  
 A. Aspuru-Guzik,  A. T. Bell,  N. A. Besley,  K. B. Bravaya,  B. R. Brooks,  
 D. Casanova,  Jeng-Da Chai,  S. Coriani,  C. J. Cramer,  
 A. E. DePrince, III,  R. A. DiStasio Jr.,  A. Dreuw,  B. D. Dunietz,  
 T. R. Furlani,  W. A. Goddard III,  S. Grimme,  S. Hammes-Schiffer,  
 T. Head-Gordon,  W. J. Hehre,  Chao-Ping Hsu,  T.-C. Jagau,  Yousung Jung,  
 A. Klamt,  Jing Kong,  D. S. Lambrecht,  WanZhen Liang,  N. J. Mayhall,  
 C. W. McCurdy,  J. B. Neaton,  C. Ochsenfeld,  J. A. Parkhill,  R. Peverati,  
 V. A. Rassolov,  Yihan Shao,  L. V. Slipchenko,  T. Stauch,  R. P. Steele,  
 J. E. Subotnik,  A. J. W. Thom,  A. Tkatchenko,  D. G. Truhlar,  
 T. Van Voorhis,  T. A. Wesolowski,  K. B. Whaley,  H. L. Woodcock III,  
 P. M. Zimmerman,  S. Faraji,  P. M. W. Gill,  M. Head-Gordon,  
 J. M. Herbert,  A. I. Krylov

 Contributors to earlier versions of Q-Chem not listed above: 
 R. D. Adamson,  B. Austin,  R. Baer,  J. Baker,  G. J. O. Beran,  
 K. Brandhorst,  S. T. Brown,  E. F. C. Byrd,  A. K. Chakraborty,  
 G. K. L. Chan,  Chun-Min Chang,  Yunqing Chen,  C.-L. Cheng,  
 Siu Hung Chien,  D. M. Chipman,  D. L. Crittenden,  H. Dachsel,  
 R. J. Doerksen,  A. D. Dutoi,  R. G. Edgar,  J. Fosso-Tande,  
 L. Fusti-Molnar,  D. Ghosh,  A. Ghysels,  A. Golubeva-Zadorozhnaya,  
 J. Gonthier,  M. S. Gordon,  S. R. Gwaltney,  G. Hawkins,  J. E. Herr,  
 A. Heyden,  S. Hirata,  E. G. Hohenstein,  G. Kedziora,  F. J. Keil,  
 C. Kelley,  Jihan Kim,  R. A. King,  R. Z. Khaliullin,  P. P. Korambath,  
 W. Kurlancheek,  A. Laurent,  A. M. Lee,  M. S. Lee,  S. V. Levchenko,  
 Ching Yeh Lin,  D. Liotard,  E. Livshits,  R. C. Lochan,  I. Lotan,  
 L. A. Martinez-Martinez,  P. E. Maslen,  N. Nair,  D. P. O'Neill,  
 D. Neuhauser,  E. Neuscamman,  C. M. Oana,  R. Olivares-Amaya,  R. Olson,  
 T. M. Perrine,  B. Peters,  P. A. Pieniazek,  A. Prociuk,  Y. M. Rhee,  
 J. Ritchie,  M. A. Rohrdanz,  E. Rosta,  N. J. Russ,  H. F. Schaefer III,  
 M. W. Schmidt,  N. E. Schultz,  S. Sharma,  N. Shenvi,  C. D. Sherrill,  
 A. C. Simmonett,  A. Sodt,  T. Stein,  D. Stuck,  K. S. Thanthiriwatte,  
 V. Vanovschi,  L. Vogt,  Tao Wang,  A. Warshel,  M. A. Watson,  
 C. F. Williams,  Q. Wu,  X. Xu,  Jun Yang,  W. Zhang,  Yan Zhao

 Please cite Q-Chem as follows:
 Y. Shao et al., Mol. Phys. 113, 184-215 (2015)
 DOI: 10.1080/00268976.2014.952696

 Q-Chem 5.4.0 for Intel X86 EM64T Linux

 Parts of Q-Chem use Armadillo 9.800.1 (Horizon Scraper).
 http://arma.sourceforge.net/

 Q-Chem begins on Sun Jul 10 00:32:03 2022  

 Host: 
0

     Scratch files written to ./qchem1838487//
 May1621 |scratch|qcdevops|jenkins|workspace|build_RNUM    
 Processing $rem in /cm/shared/apps/spack/cpu/opt/spack/linux-centos8-zen2/gcc-10.2.0/qchem-5.4-akfmr7b3t57bfs6qan3padb2wnb2i7cl/config/preferences:
 Processing $rem in /home/theleonzhang/.qchemrc:
 Symmetry turned off for PCM/SM12/SMD calculation
 Core orbitals will be frozen

 Checking the input file for inconsistencies... 	...done.

--------------------------------------------------------------
User input:
--------------------------------------------------------------
$molecule
0 1
C	-0.671636	-3.866725	0.386946
C	0.530345	-3.703963	-0.306544
C	0.923770	-2.357056	-0.533261
H	1.128109	-4.561092	-0.651857
C	0.000000	-1.440664	0.000000
S	-1.337557	-2.286957	0.772250
C	2.184153	-1.978743	-1.260680
H	2.742769	-2.878678	-1.583283
H	2.863347	-1.376015	-0.622180
H	1.971094	-1.375728	-2.168011
C	0.000000	0.000000	0.000000
C	0.000033	0.863600	1.099446
C	0.000052	2.247508	0.776721
H	0.000026	0.494801	2.136088
C	0.000074	2.468165	-0.612546
S	0.000024	0.942399	-1.486809
C	0.000075	3.335257	1.814609
H	0.000074	2.909620	2.836676
H	-0.892314	3.989552	1.726239
H	0.892483	3.989525	1.726228
H	0.000094	3.417382	-1.161575
H	-0.521098	-4.392713	1.336254
H	-1.418509	-4.392347	-0.218374
H	0.539900	-1.440937	0.935365
$end

$rem
JOBTYPE		SP
EXCHANGE	HF
CORRELATION	pRIMP2
BASIS		cc-pvtz
METHOD		rimp2
AUX_BASIS	rimp2-cc-pvtz
SOLVENT_METHOD	PCM
PURECART	11111
SYMMETRY	false
MEM_TOTAL	110000
SCF_CONVERGENCE = 6
THRESH=10
$end



$solvent
dielectric 4.90
$end
--------------------------------------------------------------
 ----------------------------------------------------------------
             Standard Nuclear Orientation (Angstroms)
    I     Atom           X                Y                Z
 ----------------------------------------------------------------
    1      C      -0.6716360000    -3.8667250000     0.3869460000
    2      C       0.5303450000    -3.7039630000    -0.3065440000
    3      C       0.9237700000    -2.3570560000    -0.5332610000
    4      H       1.1281090000    -4.5610920000    -0.6518570000
    5      C       0.0000000000    -1.4406640000     0.0000000000
    6      S      -1.3375570000    -2.2869570000     0.7722500000
    7      C       2.1841530000    -1.9787430000    -1.2606800000
    8      H       2.7427690000    -2.8786780000    -1.5832830000
    9      H       2.8633470000    -1.3760150000    -0.6221800000
   10      H       1.9710940000    -1.3757280000    -2.1680110000
   11      C       0.0000000000     0.0000000000     0.0000000000
   12      C       0.0000330000     0.8636000000     1.0994460000
   13      C       0.0000520000     2.2475080000     0.7767210000
   14      H       0.0000260000     0.4948010000     2.1360880000
   15      C       0.0000740000     2.4681650000    -0.6125460000
   16      S       0.0000240000     0.9423990000    -1.4868090000
   17      C       0.0000750000     3.3352570000     1.8146090000
   18      H       0.0000740000     2.9096200000     2.8366760000
   19      H      -0.8923140000     3.9895520000     1.7262390000
   20      H       0.8924830000     3.9895250000     1.7262280000
   21      H       0.0000940000     3.4173820000    -1.1615750000
   22      H      -0.5210980000    -4.3927130000     1.3362540000
   23      H      -1.4185090000    -4.3923470000    -0.2183740000
   24      H       0.5399000000    -1.4409370000     0.9353650000
 ----------------------------------------------------------------
 Nuclear Repulsion Energy =         872.22290294 hartrees
 There are       52 alpha and       52 beta electrons

 Q-Chem warning in module forms1/BasisType.C, line 2236:

 You are not using the predefined 5D/6D in this basis set.

 Requested basis set is cc-pVTZ
 There are 196 shells and 536 basis functions

 Total QAlloc Memory Limit 110000 MB
 Mega-Array Size       188 MB
 MEM_STATIC part       192 MB
 Discretize the solute cavity surface with Lebedev spheres
	Using 110 Lebedev grid points for each H atom
	Using 194 Lebedev grid points for other atoms
	Atomic van der Waals radii will be scaled by 1.20
 Remove points where switching function is < 1.0e-08
 Keep 1611 surface tesserae and discard 2037 interior tesserae
 Molecular Surface Area = 237.573 Angst**2
 Requested basis set is rimp2-cc-pVTZ
 There are 414 shells and 1414 basis functions
 A cutoff of  1.0D-10 yielded  13885 shell pairs
 There are    100779 function pairs (    129314 Cartesian)
 Smallest overlap matrix eigenvalue = 5.91E-05

 Scale SEOQF with 1.000000e-01/1.000000e-01/1.000000e-01

 Standard Electronic Orientation quadrupole field applied
 Nucleus-field energy     =     0.0000000334 hartrees
 Guess from superposition of atomic densities
 Warning:  Energy on first SCF cycle will be non-variational
 SAD guess density has 104.000000 electrons

 -----------------------------------------------------------------------
  General SCF calculation program by
  Eric Jon Sundstrom, Paul Horn, Yuezhi Mao, Dmitri Zuev, Alec White,
  David Stuck, Shaama M.S., Shane Yost, Joonho Lee, David Small,
  Daniel Levine, Susi Lehtola, Hugh Burton, Evgeny Epifanovsky,
  Bang C. Huynh
 -----------------------------------------------------------------------
 Hartree-Fock
 A restricted SCF calculation will be
 performed using DIIS
 SCF converges when DIIS error is below 1.0e-06
 ---------------------------------------
  Cycle       Energy         DIIS error
 ---------------------------------------
    1   -1186.0194064819      2.39e-02  
    2   -1180.6195496033      1.55e-03  
    3   -1180.7433175486      6.04e-04  
    4   -1180.7573156993      3.38e-04  
    5   -1180.7624826527      5.81e-05  
    6   -1180.7627224467      2.41e-05  
    7   -1180.7627799021      8.81e-06  
    8   -1180.7627933317      4.27e-06  
    9   -1180.7627963751      1.47e-06  
   10   -1180.7627968430      4.97e-07  Convergence criterion met
 ---------------------------------------
 SCF time:   CPU 567.01s  wall 570.00s 

************** Final PCM Free Energy Summary **************
 G_electrostatic  =      -0.00879846 hartree =      -5.52111960 kcal/mol
 G_cavitation     =       0.00000000 hartree =       0.00000000 kcal/mol
 G_dispersion     =       0.00000000 hartree =       0.00000000 kcal/mol
 G_repulsion      =       0.00000000 hartree =       0.00000000 kcal/mol
 --------------------------------------------------
 Non-electrostatic Free Energy =       0.00000000 hartree =       0.00000000 kcal/mol
 Total                         =      -0.00879846 hartree =      -5.52111960 kcal/mol
 --------------------------------------------------
 SCF Energy (H0 + V/2)                       =   -1180.76279684 
 Solute Internal Energy (H0)                 =   -1180.75399838 
 Total Free Energy (H0 + V/2 + non-elec)     =   -1180.76279684 hartree
                                             = -740939.83802343 kcal/mol
***********************************************************

 SCF   energy in the final basis set =    -1180.7627968430
 Total energy in the final basis set =    -1180.7627968430


 --------------------------------------------------------------
  Generalized many-body perturbation theory program
  by Joonho Lee, Fazle Rob, Xintian Feng, Evgeny Epifanovsky

 No regularization used 
 (reg. param. = 0.0000e+00)
  (P|Q)^-1/2 Time:  CPU 1.90 s  wall 1.91 s

 In RI-MP2 calculation: 
 # of frozen core orbitals: 20

 Components of the RIMP2 correlation energy:
        aaaa    correlation energy =        -0.2511975241 a.u.
        abab    correlation energy =        -1.5025338273 a.u.
        bbbb    correlation energy =        -0.2511975241 a.u.
        non-Brillouin singles      =        -0.0000000000 a.u.
        total same-spin energy     =        -0.5023950482 a.u.
        total opposite-spin energy =        -1.5025338273 a.u.

 Total  RIMP2   correlation energy =        -2.0049288755 a.u.
        RIMP2         total energy =     -1182.7677257185 a.u.

 RI-MP2 Energy Time:  CPU 80.21 s  wall 80.51 s
 
 --------------------------------------------------------------
 
                    Orbital Energies (a.u.)
 --------------------------------------------------------------
 
 Alpha MOs
 -- Occupied --
-91.9814 -91.9422 -11.2841 -11.2636 -11.2615 -11.2565 -11.2509 -11.2414
-11.2402 -11.2317 -11.2289 -11.2204  -8.9813  -8.9469  -6.6622  -6.6617
 -6.6611  -6.6283  -6.6272  -6.6259  -1.1990  -1.1533  -1.0587  -1.0260
 -1.0072  -0.9583  -0.9132  -0.9011  -0.8149  -0.7660  -0.7307  -0.7004
 -0.6618  -0.6422  -0.6106  -0.5877  -0.5801  -0.5728  -0.5673  -0.5516
 -0.5419  -0.5320  -0.5142  -0.5061  -0.4917  -0.4821  -0.4589  -0.4493
 -0.3559  -0.3430  -0.3166  -0.2749
 -- Virtual --
  0.0972   0.1322   0.1429   0.1494   0.1575   0.1697   0.1771   0.1809
  0.1923   0.1986   0.2038   0.2077   0.2281   0.2337   0.2376   0.2442
  0.2533   0.2590   0.2730   0.2945   0.3179   0.3377   0.3476   0.3535
  0.3660   0.3685   0.3793   0.3943   0.3969   0.4015   0.4147   0.4244
  0.4330   0.4489   0.4583   0.4600   0.4672   0.4701   0.4827   0.4934
  0.5033   0.5155   0.5191   0.5290   0.5370   0.5404   0.5438   0.5502
  0.5640   0.5753   0.5824   0.5893   0.5998   0.6061   0.6152   0.6186
  0.6225   0.6257   0.6345   0.6396   0.6434   0.6470   0.6507   0.6571
  0.6648   0.6704   0.6797   0.6887   0.6977   0.7019   0.7053   0.7284
  0.7307   0.7502   0.7534   0.7737   0.7933   0.7985   0.8073   0.8215
  0.8267   0.8374   0.8491   0.8564   0.8714   0.8811   0.8956   0.9131
  0.9224   0.9503   0.9548   0.9719   0.9799   0.9920   0.9990   1.0040
  1.0131   1.0326   1.0342   1.0428   1.0547   1.0736   1.0780   1.0867
  1.0890   1.0960   1.1056   1.1130   1.1361   1.1495   1.1561   1.1653
  1.1754   1.1881   1.2002   1.2086   1.2205   1.2320   1.2378   1.2421
  1.2469   1.2541   1.2701   1.2770   1.2808   1.2924   1.3003   1.3125
  1.3339   1.3343   1.3434   1.3568   1.3680   1.3957   1.4033   1.4193
  1.4244   1.4445   1.4506   1.4532   1.4711   1.4833   1.4921   1.4955
  1.5006   1.5152   1.5225   1.5335   1.5398   1.5446   1.5462   1.5551
  1.5678   1.5770   1.5849   1.6048   1.6054   1.6108   1.6171   1.6372
  1.6415   1.6612   1.6754   1.6871   1.7025   1.7202   1.7336   1.7369
  1.7421   1.7519   1.7881   1.7920   1.8023   1.8186   1.8393   1.8609
  1.8769   1.8900   1.9294   1.9431   1.9586   1.9639   1.9936   1.9981
  2.0183   2.0216   2.0337   2.0627   2.0689   2.1149   2.1376   2.1615
  2.1825   2.1925   2.2144   2.2210   2.2317   2.2641   2.2719   2.2806
  2.3192   2.3363   2.3431   2.3620   2.4084   2.4325   2.4427   2.4716
  2.4818   2.5173   2.5354   2.5491   2.5621   2.5770   2.6107   2.6255
  2.6320   2.6484   2.6579   2.6621   2.6753   2.6924   2.7024   2.7255
  2.7370   2.7478   2.7498   2.7676   2.7735   2.7824   2.7947   2.8127
  2.8273   2.8464   2.8569   2.8775   2.8873   2.8982   2.9105   2.9194
  2.9201   2.9616   2.9698   2.9759   3.0088   3.0154   3.0269   3.0378
  3.0461   3.0742   3.0894   3.0971   3.1123   3.1195   3.1340   3.1365
  3.1502   3.1518   3.1667   3.1683   3.1824   3.1888   3.1997   3.2134
  3.2251   3.2412   3.2548   3.2644   3.2806   3.2889   3.2963   3.3021
  3.3099   3.3226   3.3276   3.3346   3.3391   3.3513   3.3595   3.3793
  3.3808   3.3862   3.3911   3.3980   3.4071   3.4108   3.4201   3.4399
  3.4412   3.4450   3.4492   3.4573   3.4717   3.4878   3.4944   3.5039
  3.5189   3.5214   3.5295   3.5330   3.5435   3.5583   3.5621   3.5770
  3.5941   3.5984   3.6096   3.6156   3.6314   3.6384   3.6457   3.6569
  3.6737   3.6830   3.6893   3.7067   3.7135   3.7192   3.7277   3.7363
  3.7436   3.7586   3.7692   3.7831   3.7884   3.7899   3.8010   3.8060
  3.8324   3.8380   3.8568   3.8602   3.8756   3.8944   3.8995   3.9098
  3.9269   3.9456   3.9546   3.9697   3.9723   3.9906   4.0015   4.0097
  4.0251   4.0402   4.0463   4.0597   4.0747   4.0882   4.0982   4.1145
  4.1277   4.1339   4.1409   4.1570   4.1679   4.1724   4.1763   4.1929
  4.2012   4.2221   4.2394   4.2416   4.2498   4.2682   4.2709   4.2779
  4.2972   4.3042   4.3182   4.3312   4.3373   4.3516   4.3535   4.3652
  4.3825   4.3837   4.4015   4.4084   4.4140   4.4232   4.4321   4.4438
  4.4601   4.4701   4.4760   4.4855   4.4970   4.5151   4.5459   4.5522
  4.5643   4.5956   4.6069   4.6234   4.6394   4.6491   4.6598   4.6652
  4.7105   4.7263   4.7310   4.7571   4.7756   4.8066   4.8220   4.8464
  4.8547   4.8623   4.8843   4.8956   4.9432   4.9586   4.9781   4.9957
  5.0150   5.0393   5.0898   5.0939   5.1139   5.1235   5.1535   5.1778
  5.1879   5.2207   5.2352   5.2713   5.2826   5.2873   5.3097   5.3176
  5.3405   5.3689   5.3835   5.3997   5.4062   5.4263   5.4406   5.4522
  5.4743   5.5159   5.5248   5.5446   5.5468   5.5637   5.5722   5.5895
  5.6238   5.6303   5.6464   5.6696   5.6802   5.6997   5.7067   5.7232
  5.7720   5.7921   5.8336   5.9858   6.0006   6.1139   6.1188   6.1488
  6.2100   6.2172   6.2272   6.2434   6.2475   6.2782   6.3085   6.3282
  6.3892   6.5040   9.5303  10.6309  11.9975  12.9611  13.1807  13.9594
 14.1239  14.2399  14.2934  14.7003
 --------------------------------------------------------------
 
          Ground-State Mulliken Net Atomic Charges

     Atom                 Charge (a.u.)
  ----------------------------------------
      1 C                    -0.078801
      2 C                    -0.325296
      3 C                    -0.026900
      4 H                     0.177253
      5 C                     0.098333
      6 S                    -0.176402
      7 C                    -0.270367
      8 H                     0.114336
      9 H                     0.105189
     10 H                     0.106805
     11 C                    -0.077172
     12 C                    -0.255647
     13 C                     0.024229
     14 H                     0.183944
     15 C                    -0.246084
     16 S                     0.006329
     17 C                    -0.271730
     18 H                     0.102440
     19 H                     0.108707
     20 H                     0.107820
     21 H                     0.196263
     22 H                     0.110928
     23 H                     0.113359
     24 H                     0.172464
  ----------------------------------------
  Sum of atomic charges =     0.000000

 -----------------------------------------------------------------
                    Cartesian Multipole Moments
 -----------------------------------------------------------------
    Charge (ESU x 10^10)
                -0.0000
    Dipole Moment (Debye)
         X       2.5113      Y       0.3208      Z       0.9744
       Tot       2.7127
    Quadrupole Moments (Debye-Ang)
        XX     -91.9534     XY      -3.8884     YY     -73.6226
        XZ      -0.2551     YZ       1.7645     ZZ     -85.7251
    Octopole Moments (Debye-Ang^2)
       XXX       2.3613    XXY      41.4300    XYY       0.2160
       YYY     122.7399    XXZ      -4.7414    XYZ       2.5630
       YYZ      -0.8993    XZZ       0.7941    YZZ      53.3457
       ZZZ       4.8203
    Hexadecapole Moments (Debye-Ang^3)
      XXXX    -569.2879   XXXY     -22.3927   XXYY    -605.1483
      XYYY      -1.9229   YYYY   -2782.7607   XXXZ     118.0596
      XXYZ     -15.3381   XYYZ      26.1794   YYYZ    -111.5332
      XXZZ    -213.0066   XYZZ      -7.1096   YYZZ    -612.0782
      XZZZ     124.8397   YZZZ     -94.9814   ZZZZ    -682.7224
 -----------------------------------------------------------------
 Total job time:  652.24s(wall), 648.17s(cpu) 
 Sun Jul 10 00:42:56 2022

        *************************************************************
        *                                                           *
        *  Thank you very much for using Q-Chem.  Have a nice day.  *
        *                                                           *
        *************************************************************


remove work dirs ./qchem1838487.0 -- ./qchem1838487.-1
rm -rf ./qchem1838487
