You are running Q-Chem version: 5.4.0

#
# job setting
#
local host:  exp-1-02
current dir: /expanse/lustre/scratch/theleonzhang/temp_project/Hydrogenated_Rotation_Test
input file:  Methylthiophene_Phi_0_Theta_160_Methylthiophene_Hydrogenated.qcin
output file: 
nprocs     : 0
nthreads   : 1
#
# qchem installation setting
#
QC:          /cm/shared/apps/spack/cpu/opt/spack/linux-centos8-zen2/gcc-10.2.0/qchem-5.4-akfmr7b3t57bfs6qan3padb2wnb2i7cl
QCAUX:       /cm/shared/apps/spack/cpu/opt/spack/linux-centos8-zen2/gcc-10.2.0/qchem-5.4-akfmr7b3t57bfs6qan3padb2wnb2i7cl/qcaux
QCPROG:      /cm/shared/apps/spack/cpu/opt/spack/linux-centos8-zen2/gcc-10.2.0/qchem-5.4-akfmr7b3t57bfs6qan3padb2wnb2i7cl/exe/qcprog.exe_s
QCPROG_S:    /cm/shared/apps/spack/cpu/opt/spack/linux-centos8-zen2/gcc-10.2.0/qchem-5.4-akfmr7b3t57bfs6qan3padb2wnb2i7cl/exe/qcprog.exe_s
PARALLEL:    -DSERIAL
QCMPI:       mpich
#
# qchem directory setting
#
qcrun:       qchem1145146
QCSCRATCH:   .
QCLOCALSCR:  
QCTMPDIR:    .
QCFILEPREF:  ./qchem1145146
QCSAVEDIR:   
workdirs:    ./qchem1145146
workdir0:    ./qchem1145146
partmpdirs =  
#
# parallel setting
#
QCRSH:           ssh
QCMPI:           mpich
QCMPIRUN:        /cm/shared/apps/spack/cpu/opt/spack/linux-centos8-zen2/gcc-10.2.0/qchem-5.4-akfmr7b3t57bfs6qan3padb2wnb2i7cl/bin/mpi/mpirun_qchem
QCMACHINEFILE:   ./qchem1145146/hostfile

#
# env setting
#
exported envs:   QC QCAUX QCSCRATCH QCRUNNAME QCFILEPREF QCPROG QCPROG_S GUIFILE

Running Job 1 of 1 Methylthiophene_Phi_0_Theta_160_Methylthiophene_Hydrogenated.qcin
qchem Methylthiophene_Phi_0_Theta_160_Methylthiophene_Hydrogenated.qcin_1145146.0 ./qchem1145146/ 0
/cm/shared/apps/spack/cpu/opt/spack/linux-centos8-zen2/gcc-10.2.0/qchem-5.4-akfmr7b3t57bfs6qan3padb2wnb2i7cl/exe/qcprog.exe_s Methylthiophene_Phi_0_Theta_160_Methylthiophene_Hydrogenated.qcin_1145146.0 ./qchem1145146/
                  Welcome to Q-Chem
     A Quantum Leap Into The Future Of Chemistry


 Q-Chem 5.4, Q-Chem, Inc., Pleasanton, CA (2021)

 License issued to: University of California, San Diego (site)

 E. Epifanovsky,  A. T. B. Gilbert,  Xintian Feng,  Joonho Lee,  Yuezhi Mao,  
 N. Mardirossian,  P. Pokhilko,  A. White,  M. Wormit,  M. P. Coons,  
 A. L. Dempwolff,  Zhengting Gan,  D. Hait,  P. R. Horn,  L. D. Jacobson,  
 I. Kaliman,  J. Kussmann,  A. W. Lange,  Ka Un Lao,  D. S. Levine,  Jie Liu,  
 S. C. McKenzie,  A. F. Morrison,  K. Nanda,  F. Plasser,  D. R. Rehn,  
 M. L. Vidal,  Zhi-Qiang You,  Ying Zhu,  B. Alam,  B. Albrecht,  
 A. Aldossary,  E. Alguire,  J. H. Andersen,  D. Barton,  K. Begam,  A. Behn,  
 Y. A. Bernard,  E. J. Berquist,  H. Burton,  A. Carreras,  K. Carter-Fenk,  
 R. Chakraborty,  A. D. Chien,  K. D. Closser,  V. Cofer-Shabica,  
 S. Dasgupta,  Jia Deng,  M. de Wergifosse,  M. Diedenhofen,  Hainam Do,  
 S. Ehlert,  Po-Tung Fang,  S. Fatehi,  Qingguo Feng,  J. Gayvert,  
 Qinghui Ge,  G. Gidofalvi,  M. Goldey,  J. Gomes,  C. Gonzalez-Espinoza,  
 S. Gulania,  A. Gunina,  M. W. D. Hanson-Heine,  P. H. P. Harbach,  
 A. W. Hauser,  M. F. Herbst,  M. Hernandez Vera,  M. Hodecker,  
 Z. C. Holden,  S. Houck,  Xunkun Huang,  Kerwin Hui,  B. C. Huynh,  
 M. Ivanov,  Hyunjun Ji,  Hanjie Jiang,  B. Kaduk,  S. Kaehler,  
 K. Khistyaev,  Jaehoon Kim,  P. Klunzinger,  Z. Koczor-Benda,  
 Joong Hoon Koh,  D. Kosenkov,  L. Koulias,  T. Kowalczyk,  C. M. Krauter,  
 K. Kue,  A. Kunitsa,  T. Kus,  A. Landau,  K. V. Lawler,  D. Lefrancois,  
 S. Lehtola,  Rain Li,  Yi-Pei Li,  Jiashu Liang,  M. Liebenthal,  
 Hung-Hsuan Lin,  You-Sheng Lin,  Fenglai Liu,  Kuan-Yu Liu,  
 M. Loipersberger,  A. Luenser,  A. Manjanath,  P. Manohar,  E. Mansoor,  
 S. F. Manzer,  Shan-Ping Mao,  A. V. Marenich,  T. Markovich,  S. Mason,  
 S. A. Maurer,  P. F. McLaughlin,  M. F. S. J. Menger,  J.-M. Mewes,  
 S. A. Mewes,  P. Morgante,  J. W. Mullinax,  T. S. Nguyen-Beck,  
 K. J. Oosterbaan,  G. Paran,  Alexander C. Paul,  Suranjan K. Paul,  
 F. Pavosevic,  Zheng Pei,  S. Prager,  E. I. Proynov,  E. Ramos,  B. Rana,  
 A. E. Rask,  A. Rettig,  R. M. Richard,  F. Rob,  E. Rossomme,  T. Scheele,  
 M. Scheurer,  M. Schneider,  N. Sergueev,  S. M. Sharada,  W. Skomorowski,  
 D. W. Small,  C. J. Stein,  Yu-Chuan Su,  E. J. Sundstrom,  Zhen Tao,  
 J. Thirman,  T. Tsuchimochi,  N. M. Tubman,  S. P. Veccham,  O. Vydrov,  
 J. Wenzel,  J. Witte,  A. Yamada,  Kun Yao,  S. Yeganeh,  S. R. Yost,  
 A. Zech,  Igor Ying Zhang,  Xing Zhang,  Yu Zhang,  D. Zuev,  
 A. Aspuru-Guzik,  A. T. Bell,  N. A. Besley,  K. B. Bravaya,  B. R. Brooks,  
 D. Casanova,  Jeng-Da Chai,  S. Coriani,  C. J. Cramer,  
 A. E. DePrince, III,  R. A. DiStasio Jr.,  A. Dreuw,  B. D. Dunietz,  
 T. R. Furlani,  W. A. Goddard III,  S. Grimme,  S. Hammes-Schiffer,  
 T. Head-Gordon,  W. J. Hehre,  Chao-Ping Hsu,  T.-C. Jagau,  Yousung Jung,  
 A. Klamt,  Jing Kong,  D. S. Lambrecht,  WanZhen Liang,  N. J. Mayhall,  
 C. W. McCurdy,  J. B. Neaton,  C. Ochsenfeld,  J. A. Parkhill,  R. Peverati,  
 V. A. Rassolov,  Yihan Shao,  L. V. Slipchenko,  T. Stauch,  R. P. Steele,  
 J. E. Subotnik,  A. J. W. Thom,  A. Tkatchenko,  D. G. Truhlar,  
 T. Van Voorhis,  T. A. Wesolowski,  K. B. Whaley,  H. L. Woodcock III,  
 P. M. Zimmerman,  S. Faraji,  P. M. W. Gill,  M. Head-Gordon,  
 J. M. Herbert,  A. I. Krylov

 Contributors to earlier versions of Q-Chem not listed above: 
 R. D. Adamson,  B. Austin,  R. Baer,  J. Baker,  G. J. O. Beran,  
 K. Brandhorst,  S. T. Brown,  E. F. C. Byrd,  A. K. Chakraborty,  
 G. K. L. Chan,  Chun-Min Chang,  Yunqing Chen,  C.-L. Cheng,  
 Siu Hung Chien,  D. M. Chipman,  D. L. Crittenden,  H. Dachsel,  
 R. J. Doerksen,  A. D. Dutoi,  R. G. Edgar,  J. Fosso-Tande,  
 L. Fusti-Molnar,  D. Ghosh,  A. Ghysels,  A. Golubeva-Zadorozhnaya,  
 J. Gonthier,  M. S. Gordon,  S. R. Gwaltney,  G. Hawkins,  J. E. Herr,  
 A. Heyden,  S. Hirata,  E. G. Hohenstein,  G. Kedziora,  F. J. Keil,  
 C. Kelley,  Jihan Kim,  R. A. King,  R. Z. Khaliullin,  P. P. Korambath,  
 W. Kurlancheek,  A. Laurent,  A. M. Lee,  M. S. Lee,  S. V. Levchenko,  
 Ching Yeh Lin,  D. Liotard,  E. Livshits,  R. C. Lochan,  I. Lotan,  
 L. A. Martinez-Martinez,  P. E. Maslen,  N. Nair,  D. P. O'Neill,  
 D. Neuhauser,  E. Neuscamman,  C. M. Oana,  R. Olivares-Amaya,  R. Olson,  
 T. M. Perrine,  B. Peters,  P. A. Pieniazek,  A. Prociuk,  Y. M. Rhee,  
 J. Ritchie,  M. A. Rohrdanz,  E. Rosta,  N. J. Russ,  H. F. Schaefer III,  
 M. W. Schmidt,  N. E. Schultz,  S. Sharma,  N. Shenvi,  C. D. Sherrill,  
 A. C. Simmonett,  A. Sodt,  T. Stein,  D. Stuck,  K. S. Thanthiriwatte,  
 V. Vanovschi,  L. Vogt,  Tao Wang,  A. Warshel,  M. A. Watson,  
 C. F. Williams,  Q. Wu,  X. Xu,  Jun Yang,  W. Zhang,  Yan Zhao

 Please cite Q-Chem as follows:
 Y. Shao et al., Mol. Phys. 113, 184-215 (2015)
 DOI: 10.1080/00268976.2014.952696

 Q-Chem 5.4.0 for Intel X86 EM64T Linux

 Parts of Q-Chem use Armadillo 9.800.1 (Horizon Scraper).
 http://arma.sourceforge.net/

 Q-Chem begins on Sat Jul  9 21:38:59 2022  

 Host: 
0

     Scratch files written to ./qchem1145146//
 May1621 |scratch|qcdevops|jenkins|workspace|build_RNUM    
 Processing $rem in /cm/shared/apps/spack/cpu/opt/spack/linux-centos8-zen2/gcc-10.2.0/qchem-5.4-akfmr7b3t57bfs6qan3padb2wnb2i7cl/config/preferences:
 Processing $rem in /home/theleonzhang/.qchemrc:
 Symmetry turned off for PCM/SM12/SMD calculation
 Core orbitals will be frozen

 Checking the input file for inconsistencies... 	...done.

--------------------------------------------------------------
User input:
--------------------------------------------------------------
$molecule
0 1
C	-0.264439	-3.866725	-0.728625
C	0.209794	-3.703963	0.575519
C	0.364749	-2.357056	1.002336
H	0.446060	-4.561092	1.224165
C	0.000000	-1.440664	0.000000
S	-0.528253	-2.286957	-1.451336
C	0.862253	-1.978743	2.369885
H	1.082953	-2.878678	2.976034
H	0.115513	-1.376015	2.927887
H	1.792797	-1.375728	2.317620
C	0.000000	0.000000	0.000000
C	0.000033	0.863600	1.099446
C	0.000052	2.247508	0.776721
H	0.000026	0.494801	2.136088
C	0.000074	2.468165	-0.612546
S	0.000024	0.942399	-1.486809
C	0.000075	3.335257	1.814609
H	0.000074	2.909620	2.836676
H	-0.892314	3.989552	1.726239
H	0.892483	3.989525	1.726228
H	0.000094	3.417382	-1.161575
H	-1.225465	-4.392713	-0.745219
H	0.461378	-4.392347	-1.359038
H	-1.014907	-1.440937	0.369273
$end

$rem
JOBTYPE		SP
EXCHANGE	HF
CORRELATION	pRIMP2
BASIS		cc-pvtz
METHOD		rimp2
AUX_BASIS	rimp2-cc-pvtz
SOLVENT_METHOD	PCM
PURECART	11111
SYMMETRY	false
MEM_TOTAL	110000
SCF_CONVERGENCE = 6
THRESH=10
$end



$solvent
dielectric 4.90
$end
--------------------------------------------------------------
 ----------------------------------------------------------------
             Standard Nuclear Orientation (Angstroms)
    I     Atom           X                Y                Z
 ----------------------------------------------------------------
    1      C      -0.2644390000    -3.8667250000    -0.7286250000
    2      C       0.2097940000    -3.7039630000     0.5755190000
    3      C       0.3647490000    -2.3570560000     1.0023360000
    4      H       0.4460600000    -4.5610920000     1.2241650000
    5      C       0.0000000000    -1.4406640000     0.0000000000
    6      S      -0.5282530000    -2.2869570000    -1.4513360000
    7      C       0.8622530000    -1.9787430000     2.3698850000
    8      H       1.0829530000    -2.8786780000     2.9760340000
    9      H       0.1155130000    -1.3760150000     2.9278870000
   10      H       1.7927970000    -1.3757280000     2.3176200000
   11      C       0.0000000000     0.0000000000     0.0000000000
   12      C       0.0000330000     0.8636000000     1.0994460000
   13      C       0.0000520000     2.2475080000     0.7767210000
   14      H       0.0000260000     0.4948010000     2.1360880000
   15      C       0.0000740000     2.4681650000    -0.6125460000
   16      S       0.0000240000     0.9423990000    -1.4868090000
   17      C       0.0000750000     3.3352570000     1.8146090000
   18      H       0.0000740000     2.9096200000     2.8366760000
   19      H      -0.8923140000     3.9895520000     1.7262390000
   20      H       0.8924830000     3.9895250000     1.7262280000
   21      H       0.0000940000     3.4173820000    -1.1615750000
   22      H      -1.2254650000    -4.3927130000    -0.7452190000
   23      H       0.4613780000    -4.3923470000    -1.3590380000
   24      H      -1.0149070000    -1.4409370000     0.3692730000
 ----------------------------------------------------------------
 Nuclear Repulsion Energy =         875.34781728 hartrees
 There are       52 alpha and       52 beta electrons

 Q-Chem warning in module forms1/BasisType.C, line 2236:

 You are not using the predefined 5D/6D in this basis set.

 Requested basis set is cc-pVTZ
 There are 196 shells and 536 basis functions

 Total QAlloc Memory Limit 110000 MB
 Mega-Array Size       188 MB
 MEM_STATIC part       192 MB
 Discretize the solute cavity surface with Lebedev spheres
	Using 110 Lebedev grid points for each H atom
	Using 194 Lebedev grid points for other atoms
	Atomic van der Waals radii will be scaled by 1.20
 Remove points where switching function is < 1.0e-08
 Keep 1583 surface tesserae and discard 2065 interior tesserae
 Molecular Surface Area = 232.970 Angst**2
 Requested basis set is rimp2-cc-pVTZ
 There are 414 shells and 1414 basis functions
 A cutoff of  1.0D-10 yielded  14025 shell pairs
 There are    101597 function pairs (    130198 Cartesian)
 Smallest overlap matrix eigenvalue = 4.22E-05

 Scale SEOQF with 1.000000e-01/1.000000e-01/1.000000e-01

 Standard Electronic Orientation quadrupole field applied
 Nucleus-field energy     =     0.0000000230 hartrees
 Guess from superposition of atomic densities
 Warning:  Energy on first SCF cycle will be non-variational
 SAD guess density has 104.000000 electrons

 -----------------------------------------------------------------------
  General SCF calculation program by
  Eric Jon Sundstrom, Paul Horn, Yuezhi Mao, Dmitri Zuev, Alec White,
  David Stuck, Shaama M.S., Shane Yost, Joonho Lee, David Small,
  Daniel Levine, Susi Lehtola, Hugh Burton, Evgeny Epifanovsky,
  Bang C. Huynh
 -----------------------------------------------------------------------
 Hartree-Fock
 A restricted SCF calculation will be
 performed using DIIS
 SCF converges when DIIS error is below 1.0e-06
 ---------------------------------------
  Cycle       Energy         DIIS error
 ---------------------------------------
    1   -1186.0487616757      2.39e-02  
You are running Q-Chem version: 5.4.0

#
# job setting
#
local host:  exp-1-17
current dir: /expanse/lustre/scratch/theleonzhang/temp_project/Hydrogenated_Rotation_Test
input file:  Methylthiophene_Phi_0_Theta_160_Methylthiophene_Hydrogenated.qcin
output file: 
nprocs     : 0
nthreads   : 1
#
# qchem installation setting
#
QC:          /cm/shared/apps/spack/cpu/opt/spack/linux-centos8-zen2/gcc-10.2.0/qchem-5.4-akfmr7b3t57bfs6qan3padb2wnb2i7cl
QCAUX:       /cm/shared/apps/spack/cpu/opt/spack/linux-centos8-zen2/gcc-10.2.0/qchem-5.4-akfmr7b3t57bfs6qan3padb2wnb2i7cl/qcaux
QCPROG:      /cm/shared/apps/spack/cpu/opt/spack/linux-centos8-zen2/gcc-10.2.0/qchem-5.4-akfmr7b3t57bfs6qan3padb2wnb2i7cl/exe/qcprog.exe_s
QCPROG_S:    /cm/shared/apps/spack/cpu/opt/spack/linux-centos8-zen2/gcc-10.2.0/qchem-5.4-akfmr7b3t57bfs6qan3padb2wnb2i7cl/exe/qcprog.exe_s
PARALLEL:    -DSERIAL
QCMPI:       mpich
#
# qchem directory setting
#
qcrun:       qchem3508571
QCSCRATCH:   .
QCLOCALSCR:  
QCTMPDIR:    .
QCFILEPREF:  ./qchem3508571
QCSAVEDIR:   
workdirs:    ./qchem3508571
workdir0:    ./qchem3508571
partmpdirs =  
#
# parallel setting
#
QCRSH:           ssh
QCMPI:           mpich
QCMPIRUN:        /cm/shared/apps/spack/cpu/opt/spack/linux-centos8-zen2/gcc-10.2.0/qchem-5.4-akfmr7b3t57bfs6qan3padb2wnb2i7cl/bin/mpi/mpirun_qchem
QCMACHINEFILE:   ./qchem3508571/hostfile

#
# env setting
#
exported envs:   QC QCAUX QCSCRATCH QCRUNNAME QCFILEPREF QCPROG QCPROG_S GUIFILE

Running Job 1 of 1 Methylthiophene_Phi_0_Theta_160_Methylthiophene_Hydrogenated.qcin
qchem Methylthiophene_Phi_0_Theta_160_Methylthiophene_Hydrogenated.qcin_3508571.0 ./qchem3508571/ 0
/cm/shared/apps/spack/cpu/opt/spack/linux-centos8-zen2/gcc-10.2.0/qchem-5.4-akfmr7b3t57bfs6qan3padb2wnb2i7cl/exe/qcprog.exe_s Methylthiophene_Phi_0_Theta_160_Methylthiophene_Hydrogenated.qcin_3508571.0 ./qchem3508571/
                  Welcome to Q-Chem
     A Quantum Leap Into The Future Of Chemistry


 Q-Chem 5.4, Q-Chem, Inc., Pleasanton, CA (2021)

 License issued to: University of California, San Diego (site)

 E. Epifanovsky,  A. T. B. Gilbert,  Xintian Feng,  Joonho Lee,  Yuezhi Mao,  
 N. Mardirossian,  P. Pokhilko,  A. White,  M. Wormit,  M. P. Coons,  
 A. L. Dempwolff,  Zhengting Gan,  D. Hait,  P. R. Horn,  L. D. Jacobson,  
 I. Kaliman,  J. Kussmann,  A. W. Lange,  Ka Un Lao,  D. S. Levine,  Jie Liu,  
 S. C. McKenzie,  A. F. Morrison,  K. Nanda,  F. Plasser,  D. R. Rehn,  
 M. L. Vidal,  Zhi-Qiang You,  Ying Zhu,  B. Alam,  B. Albrecht,  
 A. Aldossary,  E. Alguire,  J. H. Andersen,  D. Barton,  K. Begam,  A. Behn,  
 Y. A. Bernard,  E. J. Berquist,  H. Burton,  A. Carreras,  K. Carter-Fenk,  
 R. Chakraborty,  A. D. Chien,  K. D. Closser,  V. Cofer-Shabica,  
 S. Dasgupta,  Jia Deng,  M. de Wergifosse,  M. Diedenhofen,  Hainam Do,  
 S. Ehlert,  Po-Tung Fang,  S. Fatehi,  Qingguo Feng,  J. Gayvert,  
 Qinghui Ge,  G. Gidofalvi,  M. Goldey,  J. Gomes,  C. Gonzalez-Espinoza,  
 S. Gulania,  A. Gunina,  M. W. D. Hanson-Heine,  P. H. P. Harbach,  
 A. W. Hauser,  M. F. Herbst,  M. Hernandez Vera,  M. Hodecker,  
 Z. C. Holden,  S. Houck,  Xunkun Huang,  Kerwin Hui,  B. C. Huynh,  
 M. Ivanov,  Hyunjun Ji,  Hanjie Jiang,  B. Kaduk,  S. Kaehler,  
 K. Khistyaev,  Jaehoon Kim,  P. Klunzinger,  Z. Koczor-Benda,  
 Joong Hoon Koh,  D. Kosenkov,  L. Koulias,  T. Kowalczyk,  C. M. Krauter,  
 K. Kue,  A. Kunitsa,  T. Kus,  A. Landau,  K. V. Lawler,  D. Lefrancois,  
 S. Lehtola,  Rain Li,  Yi-Pei Li,  Jiashu Liang,  M. Liebenthal,  
 Hung-Hsuan Lin,  You-Sheng Lin,  Fenglai Liu,  Kuan-Yu Liu,  
 M. Loipersberger,  A. Luenser,  A. Manjanath,  P. Manohar,  E. Mansoor,  
 S. F. Manzer,  Shan-Ping Mao,  A. V. Marenich,  T. Markovich,  S. Mason,  
 S. A. Maurer,  P. F. McLaughlin,  M. F. S. J. Menger,  J.-M. Mewes,  
 S. A. Mewes,  P. Morgante,  J. W. Mullinax,  T. S. Nguyen-Beck,  
 K. J. Oosterbaan,  G. Paran,  Alexander C. Paul,  Suranjan K. Paul,  
 F. Pavosevic,  Zheng Pei,  S. Prager,  E. I. Proynov,  E. Ramos,  B. Rana,  
 A. E. Rask,  A. Rettig,  R. M. Richard,  F. Rob,  E. Rossomme,  T. Scheele,  
 M. Scheurer,  M. Schneider,  N. Sergueev,  S. M. Sharada,  W. Skomorowski,  
 D. W. Small,  C. J. Stein,  Yu-Chuan Su,  E. J. Sundstrom,  Zhen Tao,  
 J. Thirman,  T. Tsuchimochi,  N. M. Tubman,  S. P. Veccham,  O. Vydrov,  
 J. Wenzel,  J. Witte,  A. Yamada,  Kun Yao,  S. Yeganeh,  S. R. Yost,  
 A. Zech,  Igor Ying Zhang,  Xing Zhang,  Yu Zhang,  D. Zuev,  
 A. Aspuru-Guzik,  A. T. Bell,  N. A. Besley,  K. B. Bravaya,  B. R. Brooks,  
 D. Casanova,  Jeng-Da Chai,  S. Coriani,  C. J. Cramer,  
 A. E. DePrince, III,  R. A. DiStasio Jr.,  A. Dreuw,  B. D. Dunietz,  
 T. R. Furlani,  W. A. Goddard III,  S. Grimme,  S. Hammes-Schiffer,  
 T. Head-Gordon,  W. J. Hehre,  Chao-Ping Hsu,  T.-C. Jagau,  Yousung Jung,  
 A. Klamt,  Jing Kong,  D. S. Lambrecht,  WanZhen Liang,  N. J. Mayhall,  
 C. W. McCurdy,  J. B. Neaton,  C. Ochsenfeld,  J. A. Parkhill,  R. Peverati,  
 V. A. Rassolov,  Yihan Shao,  L. V. Slipchenko,  T. Stauch,  R. P. Steele,  
 J. E. Subotnik,  A. J. W. Thom,  A. Tkatchenko,  D. G. Truhlar,  
 T. Van Voorhis,  T. A. Wesolowski,  K. B. Whaley,  H. L. Woodcock III,  
 P. M. Zimmerman,  S. Faraji,  P. M. W. Gill,  M. Head-Gordon,  
 J. M. Herbert,  A. I. Krylov

 Contributors to earlier versions of Q-Chem not listed above: 
 R. D. Adamson,  B. Austin,  R. Baer,  J. Baker,  G. J. O. Beran,  
 K. Brandhorst,  S. T. Brown,  E. F. C. Byrd,  A. K. Chakraborty,  
 G. K. L. Chan,  Chun-Min Chang,  Yunqing Chen,  C.-L. Cheng,  
 Siu Hung Chien,  D. M. Chipman,  D. L. Crittenden,  H. Dachsel,  
 R. J. Doerksen,  A. D. Dutoi,  R. G. Edgar,  J. Fosso-Tande,  
 L. Fusti-Molnar,  D. Ghosh,  A. Ghysels,  A. Golubeva-Zadorozhnaya,  
 J. Gonthier,  M. S. Gordon,  S. R. Gwaltney,  G. Hawkins,  J. E. Herr,  
 A. Heyden,  S. Hirata,  E. G. Hohenstein,  G. Kedziora,  F. J. Keil,  
 C. Kelley,  Jihan Kim,  R. A. King,  R. Z. Khaliullin,  P. P. Korambath,  
 W. Kurlancheek,  A. Laurent,  A. M. Lee,  M. S. Lee,  S. V. Levchenko,  
 Ching Yeh Lin,  D. Liotard,  E. Livshits,  R. C. Lochan,  I. Lotan,  
 L. A. Martinez-Martinez,  P. E. Maslen,  N. Nair,  D. P. O'Neill,  
 D. Neuhauser,  E. Neuscamman,  C. M. Oana,  R. Olivares-Amaya,  R. Olson,  
 T. M. Perrine,  B. Peters,  P. A. Pieniazek,  A. Prociuk,  Y. M. Rhee,  
 J. Ritchie,  M. A. Rohrdanz,  E. Rosta,  N. J. Russ,  H. F. Schaefer III,  
 M. W. Schmidt,  N. E. Schultz,  S. Sharma,  N. Shenvi,  C. D. Sherrill,  
 A. C. Simmonett,  A. Sodt,  T. Stein,  D. Stuck,  K. S. Thanthiriwatte,  
 V. Vanovschi,  L. Vogt,  Tao Wang,  A. Warshel,  M. A. Watson,  
 C. F. Williams,  Q. Wu,  X. Xu,  Jun Yang,  W. Zhang,  Yan Zhao

 Please cite Q-Chem as follows:
 Y. Shao et al., Mol. Phys. 113, 184-215 (2015)
 DOI: 10.1080/00268976.2014.952696

 Q-Chem 5.4.0 for Intel X86 EM64T Linux

 Parts of Q-Chem use Armadillo 9.800.1 (Horizon Scraper).
 http://arma.sourceforge.net/

 Q-Chem begins on Sun Jul 10 01:48:52 2022  

 Host: 
0

     Scratch files written to ./qchem3508571//
 May1621 |scratch|qcdevops|jenkins|workspace|build_RNUM    
 Processing $rem in /cm/shared/apps/spack/cpu/opt/spack/linux-centos8-zen2/gcc-10.2.0/qchem-5.4-akfmr7b3t57bfs6qan3padb2wnb2i7cl/config/preferences:
 Processing $rem in /home/theleonzhang/.qchemrc:
 Symmetry turned off for PCM/SM12/SMD calculation
 Core orbitals will be frozen

 Checking the input file for inconsistencies... 	...done.

--------------------------------------------------------------
User input:
--------------------------------------------------------------
$molecule
0 1
C	-0.264439	-3.866725	-0.728625
C	0.209794	-3.703963	0.575519
C	0.364749	-2.357056	1.002336
H	0.446060	-4.561092	1.224165
C	0.000000	-1.440664	0.000000
S	-0.528253	-2.286957	-1.451336
C	0.862253	-1.978743	2.369885
H	1.082953	-2.878678	2.976034
H	0.115513	-1.376015	2.927887
H	1.792797	-1.375728	2.317620
C	0.000000	0.000000	0.000000
C	0.000033	0.863600	1.099446
C	0.000052	2.247508	0.776721
H	0.000026	0.494801	2.136088
C	0.000074	2.468165	-0.612546
S	0.000024	0.942399	-1.486809
C	0.000075	3.335257	1.814609
H	0.000074	2.909620	2.836676
H	-0.892314	3.989552	1.726239
H	0.892483	3.989525	1.726228
H	0.000094	3.417382	-1.161575
H	-1.225465	-4.392713	-0.745219
H	0.461378	-4.392347	-1.359038
H	-1.014907	-1.440937	0.369273
$end

$rem
JOBTYPE		SP
EXCHANGE	HF
CORRELATION	pRIMP2
BASIS		cc-pvtz
METHOD		rimp2
AUX_BASIS	rimp2-cc-pvtz
SOLVENT_METHOD	PCM
PURECART	11111
SYMMETRY	false
MEM_TOTAL	110000
SCF_CONVERGENCE = 6
THRESH=10
$end



$solvent
dielectric 4.90
$end
--------------------------------------------------------------
 ----------------------------------------------------------------
             Standard Nuclear Orientation (Angstroms)
    I     Atom           X                Y                Z
 ----------------------------------------------------------------
    1      C      -0.2644390000    -3.8667250000    -0.7286250000
    2      C       0.2097940000    -3.7039630000     0.5755190000
    3      C       0.3647490000    -2.3570560000     1.0023360000
    4      H       0.4460600000    -4.5610920000     1.2241650000
    5      C       0.0000000000    -1.4406640000     0.0000000000
    6      S      -0.5282530000    -2.2869570000    -1.4513360000
    7      C       0.8622530000    -1.9787430000     2.3698850000
    8      H       1.0829530000    -2.8786780000     2.9760340000
    9      H       0.1155130000    -1.3760150000     2.9278870000
   10      H       1.7927970000    -1.3757280000     2.3176200000
   11      C       0.0000000000     0.0000000000     0.0000000000
   12      C       0.0000330000     0.8636000000     1.0994460000
   13      C       0.0000520000     2.2475080000     0.7767210000
   14      H       0.0000260000     0.4948010000     2.1360880000
   15      C       0.0000740000     2.4681650000    -0.6125460000
   16      S       0.0000240000     0.9423990000    -1.4868090000
   17      C       0.0000750000     3.3352570000     1.8146090000
   18      H       0.0000740000     2.9096200000     2.8366760000
   19      H      -0.8923140000     3.9895520000     1.7262390000
   20      H       0.8924830000     3.9895250000     1.7262280000
   21      H       0.0000940000     3.4173820000    -1.1615750000
   22      H      -1.2254650000    -4.3927130000    -0.7452190000
   23      H       0.4613780000    -4.3923470000    -1.3590380000
   24      H      -1.0149070000    -1.4409370000     0.3692730000
 ----------------------------------------------------------------
 Nuclear Repulsion Energy =         875.34781728 hartrees
 There are       52 alpha and       52 beta electrons

 Q-Chem warning in module forms1/BasisType.C, line 2236:

 You are not using the predefined 5D/6D in this basis set.

 Requested basis set is cc-pVTZ
 There are 196 shells and 536 basis functions

 Total QAlloc Memory Limit 110000 MB
 Mega-Array Size       188 MB
 MEM_STATIC part       192 MB
 Discretize the solute cavity surface with Lebedev spheres
	Using 110 Lebedev grid points for each H atom
	Using 194 Lebedev grid points for other atoms
	Atomic van der Waals radii will be scaled by 1.20
 Remove points where switching function is < 1.0e-08
 Keep 1583 surface tesserae and discard 2065 interior tesserae
 Molecular Surface Area = 232.970 Angst**2
 Requested basis set is rimp2-cc-pVTZ
 There are 414 shells and 1414 basis functions
 A cutoff of  1.0D-10 yielded  14025 shell pairs
 There are    101597 function pairs (    130198 Cartesian)
 Smallest overlap matrix eigenvalue = 4.22E-05

 Scale SEOQF with 1.000000e-01/1.000000e-01/1.000000e-01

 Standard Electronic Orientation quadrupole field applied
 Nucleus-field energy     =     0.0000000230 hartrees
 Guess from superposition of atomic densities
 Warning:  Energy on first SCF cycle will be non-variational
 SAD guess density has 104.000000 electrons

 -----------------------------------------------------------------------
  General SCF calculation program by
  Eric Jon Sundstrom, Paul Horn, Yuezhi Mao, Dmitri Zuev, Alec White,
  David Stuck, Shaama M.S., Shane Yost, Joonho Lee, David Small,
  Daniel Levine, Susi Lehtola, Hugh Burton, Evgeny Epifanovsky,
  Bang C. Huynh
 -----------------------------------------------------------------------
 Hartree-Fock
 A restricted SCF calculation will be
 performed using DIIS
 SCF converges when DIIS error is below 1.0e-06
 ---------------------------------------
  Cycle       Energy         DIIS error
 ---------------------------------------
    1   -1186.0487616757      2.39e-02  
    2   -1180.6090525395      1.59e-03  
    3   -1180.7354736372      6.63e-04  
    4   -1180.7517916537      3.49e-04  
    5   -1180.7574771336      5.91e-05  
    6   -1180.7577215621      2.46e-05  
    7   -1180.7577782395      8.52e-06  
    8   -1180.7577899679      4.10e-06  
    9   -1180.7577925290      1.39e-06  
   10   -1180.7577929329      5.05e-07  Convergence criterion met
 ---------------------------------------
 SCF time:   CPU 572.79s  wall 576.00s 

************** Final PCM Free Energy Summary **************
 G_electrostatic  =      -0.00959605 hartree =      -6.02161423 kcal/mol
 G_cavitation     =       0.00000000 hartree =       0.00000000 kcal/mol
 G_dispersion     =       0.00000000 hartree =       0.00000000 kcal/mol
 G_repulsion      =       0.00000000 hartree =       0.00000000 kcal/mol
 --------------------------------------------------
 Non-electrostatic Free Energy =       0.00000000 hartree =       0.00000000 kcal/mol
 Total                         =      -0.00959605 hartree =      -6.02161423 kcal/mol
 --------------------------------------------------
 SCF Energy (H0 + V/2)                       =   -1180.75779293 
 Solute Internal Energy (H0)                 =   -1180.74819688 
 Total Free Energy (H0 + V/2 + non-elec)     =   -1180.75779293 hartree
                                             = -740936.69802247 kcal/mol
***********************************************************

 SCF   energy in the final basis set =    -1180.7577929329
 Total energy in the final basis set =    -1180.7577929329


 --------------------------------------------------------------
  Generalized many-body perturbation theory program
  by Joonho Lee, Fazle Rob, Xintian Feng, Evgeny Epifanovsky

 No regularization used 
 (reg. param. = 0.0000e+00)
  (P|Q)^-1/2 Time:  CPU 1.90 s  wall 1.91 s

 In RI-MP2 calculation: 
 # of frozen core orbitals: 20

 Components of the RIMP2 correlation energy:
        aaaa    correlation energy =        -0.2515076451 a.u.
        abab    correlation energy =        -1.5028299692 a.u.
        bbbb    correlation energy =        -0.2515076451 a.u.
        non-Brillouin singles      =        -0.0000000000 a.u.
        total same-spin energy     =        -0.5030152902 a.u.
        total opposite-spin energy =        -1.5028299692 a.u.

 Total  RIMP2   correlation energy =        -2.0058452594 a.u.
        RIMP2         total energy =     -1182.7636381923 a.u.

 RI-MP2 Energy Time:  CPU 79.60 s  wall 79.93 s
 
 --------------------------------------------------------------
 
                    Orbital Energies (a.u.)
 --------------------------------------------------------------
 
 Alpha MOs
 -- Occupied --
-91.9841 -91.9461 -11.2904 -11.2665 -11.2614 -11.2532 -11.2501 -11.2444
-11.2341 -11.2291 -11.2282 -11.2237  -8.9836  -8.9507  -6.6645  -6.6640
 -6.6634  -6.6321  -6.6311  -6.6298  -1.2024  -1.1523  -1.0604  -1.0317
 -1.0019  -0.9613  -0.9158  -0.8997  -0.8187  -0.7633  -0.7261  -0.7066
 -0.6598  -0.6485  -0.6108  -0.5935  -0.5863  -0.5692  -0.5597  -0.5533
 -0.5436  -0.5352  -0.5222  -0.5024  -0.4864  -0.4826  -0.4689  -0.4439
 -0.3602  -0.3439  -0.3234  -0.2651
 -- Virtual --
  0.1063   0.1299   0.1421   0.1499   0.1562   0.1696   0.1716   0.1869
  0.1933   0.2038   0.2066   0.2120   0.2187   0.2351   0.2371   0.2421
  0.2595   0.2764   0.2856   0.3040   0.3164   0.3254   0.3526   0.3553
  0.3719   0.3794   0.3885   0.3894   0.3989   0.4119   0.4162   0.4239
  0.4370   0.4533   0.4663   0.4720   0.4750   0.4780   0.4858   0.4935
  0.5064   0.5197   0.5250   0.5324   0.5416   0.5427   0.5503   0.5580
  0.5641   0.5798   0.5858   0.5965   0.5995   0.6037   0.6131   0.6228
  0.6258   0.6269   0.6333   0.6364   0.6420   0.6460   0.6520   0.6635
  0.6700   0.6800   0.6812   0.6937   0.6971   0.7222   0.7251   0.7299
  0.7388   0.7449   0.7643   0.7736   0.7830   0.8015   0.8096   0.8251
  0.8359   0.8402   0.8564   0.8696   0.8900   0.8952   0.9052   0.9165
  0.9301   0.9502   0.9518   0.9657   0.9797   0.9884   1.0050   1.0119
  1.0293   1.0327   1.0409   1.0438   1.0611   1.0638   1.0688   1.0834
  1.0898   1.0985   1.1045   1.1294   1.1445   1.1489   1.1621   1.1691
  1.1768   1.1904   1.2044   1.2097   1.2138   1.2241   1.2267   1.2416
  1.2467   1.2552   1.2607   1.2793   1.2853   1.3018   1.3082   1.3121
  1.3244   1.3300   1.3498   1.3598   1.3712   1.3793   1.4060   1.4179
  1.4291   1.4360   1.4433   1.4620   1.4671   1.4853   1.4864   1.4973
  1.5111   1.5144   1.5298   1.5318   1.5444   1.5454   1.5519   1.5541
  1.5800   1.5900   1.5962   1.6028   1.6178   1.6262   1.6400   1.6455
  1.6503   1.6652   1.6811   1.6945   1.7065   1.7189   1.7288   1.7452
  1.7590   1.7638   1.7822   1.7931   1.8179   1.8310   1.8477   1.8622
  1.8846   1.8964   1.9257   1.9397   1.9429   1.9793   1.9922   1.9999
  2.0230   2.0447   2.0527   2.0593   2.0913   2.1156   2.1364   2.1695
  2.1789   2.2021   2.2064   2.2208   2.2289   2.2469   2.2647   2.2835
  2.2933   2.3025   2.3304   2.3813   2.4105   2.4438   2.4646   2.4780
  2.4944   2.5168   2.5376   2.5443   2.5604   2.5910   2.5996   2.6084
  2.6350   2.6515   2.6571   2.6738   2.6858   2.6985   2.7250   2.7321
  2.7424   2.7550   2.7681   2.7704   2.7778   2.7809   2.8024   2.8095
  2.8332   2.8571   2.8592   2.8742   2.8910   2.9054   2.9091   2.9251
  2.9370   2.9539   2.9797   2.9937   3.0102   3.0198   3.0373   3.0419
  3.0458   3.0718   3.1009   3.1083   3.1126   3.1175   3.1317   3.1391
  3.1471   3.1596   3.1611   3.1780   3.1934   3.1944   3.2029   3.2163
  3.2312   3.2398   3.2491   3.2594   3.2659   3.2868   3.2903   3.3055
  3.3095   3.3279   3.3336   3.3406   3.3474   3.3612   3.3679   3.3727
  3.3749   3.3879   3.3904   3.3957   3.4027   3.4088   3.4276   3.4330
  3.4455   3.4484   3.4540   3.4670   3.4816   3.4862   3.4940   3.5066
  3.5114   3.5166   3.5248   3.5385   3.5518   3.5583   3.5646   3.5687
  3.5958   3.5973   3.6093   3.6225   3.6326   3.6352   3.6470   3.6574
  3.6721   3.6793   3.6937   3.6999   3.7176   3.7319   3.7350   3.7412
  3.7473   3.7536   3.7591   3.7775   3.7937   3.7945   3.8067   3.8184
  3.8247   3.8415   3.8494   3.8670   3.8844   3.8905   3.8965   3.9067
  3.9255   3.9369   3.9598   3.9703   3.9917   3.9969   4.0098   4.0212
  4.0417   4.0455   4.0552   4.0579   4.0638   4.0826   4.0888   4.1135
  4.1197   4.1368   4.1454   4.1527   4.1589   4.1718   4.1817   4.1941
  4.2093   4.2220   4.2307   4.2386   4.2587   4.2662   4.2759   4.3001
  4.3058   4.3123   4.3301   4.3383   4.3487   4.3561   4.3658   4.3732
  4.3890   4.3996   4.4020   4.4188   4.4249   4.4381   4.4447   4.4550
  4.4641   4.4762   4.4930   4.4978   4.5065   4.5266   4.5597   4.5733
  4.5810   4.5966   4.6017   4.6291   4.6393   4.6475   4.6603   4.6911
  4.7001   4.7244   4.7424   4.7733   4.7837   4.8138   4.8399   4.8467
  4.8571   4.8807   4.8946   4.9136   4.9454   4.9762   4.9841   5.0015
  5.0508   5.0762   5.0937   5.1158   5.1173   5.1287   5.1695   5.1959
  5.2186   5.2341   5.2573   5.2672   5.2859   5.3012   5.3142   5.3267
  5.3539   5.3619   5.3876   5.3929   5.4141   5.4265   5.4361   5.4392
  5.4717   5.5231   5.5258   5.5447   5.5502   5.5741   5.5783   5.5950
  5.6242   5.6245   5.6294   5.6650   5.6752   5.7059   5.7122   5.7379
  5.7735   5.8083   5.8398   5.9605   6.0393   6.0901   6.1421   6.1806
  6.2132   6.2278   6.2325   6.2657   6.2747   6.2908   6.3124   6.4129
  6.4223   6.6001   9.5199  11.0141  12.0928  12.9831  13.1915  13.9140
 14.1023  14.2119  14.4094  15.2574
 --------------------------------------------------------------
 
          Ground-State Mulliken Net Atomic Charges

     Atom                 Charge (a.u.)
  ----------------------------------------
      1 C                    -0.074005
      2 C                    -0.313653
      3 C                    -0.064366
      4 H                     0.178608
      5 C                     0.136999
      6 S                    -0.180413
      7 C                    -0.296410
      8 H                     0.121238
      9 H                     0.100261
     10 H                     0.118314
     11 C                    -0.060315
     12 C                    -0.271417
     13 C                     0.032609
     14 H                     0.188224
     15 C                    -0.280323
     16 S                     0.010282
     17 C                    -0.273495
     18 H                     0.100615
     19 H                     0.108578
     20 H                     0.108459
     21 H                     0.195881
     22 H                     0.112855
     23 H                     0.112790
     24 H                     0.188683
  ----------------------------------------
  Sum of atomic charges =     0.000000

 -----------------------------------------------------------------
                    Cartesian Multipole Moments
 -----------------------------------------------------------------
    Charge (ESU x 10^10)
                -0.0000
    Dipole Moment (Debye)
         X       0.0050      Y      -0.4854      Z       3.9022
       Tot       3.9322
    Quadrupole Moments (Debye-Ang)
        XX     -91.5274     XY       0.2596     YY     -72.9200
        XZ       0.3296     YZ      -2.6321     ZZ     -85.9552
    Octopole Moments (Debye-Ang^2)
       XXX      -1.1716    XXY      42.4374    XYY      -2.3200
       YYY     113.2814    XXZ      -1.6831    XYZ      -2.4548
       YYZ      -3.4219    XZZ       3.0829    YZZ      49.8408
       ZZZ       6.4044
    Hexadecapole Moments (Debye-Ang^3)
      XXXX    -203.7095   XXXY       1.1331   XXYY    -560.7678
      XYYY       4.2365   YYYY   -2762.3542   XXXZ     -93.7026
      XXYZ     -32.3613   XYYZ     -17.8799   YYYZ    -105.4559
      XXZZ    -215.4462   XYZZ     -11.8437   YYZZ    -652.5264
      XZZZ     -84.7955   YZZZ    -126.9245   ZZZZ   -1038.6909
 -----------------------------------------------------------------
 Total job time:  657.78s(wall), 653.30s(cpu) 
 Sun Jul 10 01:59:50 2022

        *************************************************************
        *                                                           *
        *  Thank you very much for using Q-Chem.  Have a nice day.  *
        *                                                           *
        *************************************************************


remove work dirs ./qchem3508571.0 -- ./qchem3508571.-1
rm -rf ./qchem3508571
You are running Q-Chem version: 5.4.0

#
# job setting
#
local host:  exp-2-18
current dir: /expanse/lustre/scratch/theleonzhang/temp_project/Hydrogenated_Rotation_Test
input file:  Methylthiophene_Phi_0_Theta_160_Methylthiophene_Hydrogenated.qcin
output file: 
nprocs     : 0
nthreads   : 1
#
# qchem installation setting
#
QC:          /cm/shared/apps/spack/cpu/opt/spack/linux-centos8-zen2/gcc-10.2.0/qchem-5.4-akfmr7b3t57bfs6qan3padb2wnb2i7cl
QCAUX:       /cm/shared/apps/spack/cpu/opt/spack/linux-centos8-zen2/gcc-10.2.0/qchem-5.4-akfmr7b3t57bfs6qan3padb2wnb2i7cl/qcaux
QCPROG:      /cm/shared/apps/spack/cpu/opt/spack/linux-centos8-zen2/gcc-10.2.0/qchem-5.4-akfmr7b3t57bfs6qan3padb2wnb2i7cl/exe/qcprog.exe_s
QCPROG_S:    /cm/shared/apps/spack/cpu/opt/spack/linux-centos8-zen2/gcc-10.2.0/qchem-5.4-akfmr7b3t57bfs6qan3padb2wnb2i7cl/exe/qcprog.exe_s
PARALLEL:    -DSERIAL
QCMPI:       mpich
#
# qchem directory setting
#
qcrun:       qchem1883848
QCSCRATCH:   .
QCLOCALSCR:  
QCTMPDIR:    .
QCFILEPREF:  ./qchem1883848
QCSAVEDIR:   
workdirs:    ./qchem1883848
workdir0:    ./qchem1883848
partmpdirs =  
#
# parallel setting
#
QCRSH:           ssh
QCMPI:           mpich
QCMPIRUN:        /cm/shared/apps/spack/cpu/opt/spack/linux-centos8-zen2/gcc-10.2.0/qchem-5.4-akfmr7b3t57bfs6qan3padb2wnb2i7cl/bin/mpi/mpirun_qchem
QCMACHINEFILE:   ./qchem1883848/hostfile

#
# env setting
#
exported envs:   QC QCAUX QCSCRATCH QCRUNNAME QCFILEPREF QCPROG QCPROG_S GUIFILE

Running Job 1 of 1 Methylthiophene_Phi_0_Theta_160_Methylthiophene_Hydrogenated.qcin
qchem Methylthiophene_Phi_0_Theta_160_Methylthiophene_Hydrogenated.qcin_1883848.0 ./qchem1883848/ 0
/cm/shared/apps/spack/cpu/opt/spack/linux-centos8-zen2/gcc-10.2.0/qchem-5.4-akfmr7b3t57bfs6qan3padb2wnb2i7cl/exe/qcprog.exe_s Methylthiophene_Phi_0_Theta_160_Methylthiophene_Hydrogenated.qcin_1883848.0 ./qchem1883848/
                  Welcome to Q-Chem
     A Quantum Leap Into The Future Of Chemistry


 Q-Chem 5.4, Q-Chem, Inc., Pleasanton, CA (2021)

 License issued to: University of California, San Diego (site)

 E. Epifanovsky,  A. T. B. Gilbert,  Xintian Feng,  Joonho Lee,  Yuezhi Mao,  
 N. Mardirossian,  P. Pokhilko,  A. White,  M. Wormit,  M. P. Coons,  
 A. L. Dempwolff,  Zhengting Gan,  D. Hait,  P. R. Horn,  L. D. Jacobson,  
 I. Kaliman,  J. Kussmann,  A. W. Lange,  Ka Un Lao,  D. S. Levine,  Jie Liu,  
 S. C. McKenzie,  A. F. Morrison,  K. Nanda,  F. Plasser,  D. R. Rehn,  
 M. L. Vidal,  Zhi-Qiang You,  Ying Zhu,  B. Alam,  B. Albrecht,  
 A. Aldossary,  E. Alguire,  J. H. Andersen,  D. Barton,  K. Begam,  A. Behn,  
 Y. A. Bernard,  E. J. Berquist,  H. Burton,  A. Carreras,  K. Carter-Fenk,  
 R. Chakraborty,  A. D. Chien,  K. D. Closser,  V. Cofer-Shabica,  
 S. Dasgupta,  Jia Deng,  M. de Wergifosse,  M. Diedenhofen,  Hainam Do,  
 S. Ehlert,  Po-Tung Fang,  S. Fatehi,  Qingguo Feng,  J. Gayvert,  
 Qinghui Ge,  G. Gidofalvi,  M. Goldey,  J. Gomes,  C. Gonzalez-Espinoza,  
 S. Gulania,  A. Gunina,  M. W. D. Hanson-Heine,  P. H. P. Harbach,  
 A. W. Hauser,  M. F. Herbst,  M. Hernandez Vera,  M. Hodecker,  
 Z. C. Holden,  S. Houck,  Xunkun Huang,  Kerwin Hui,  B. C. Huynh,  
 M. Ivanov,  Hyunjun Ji,  Hanjie Jiang,  B. Kaduk,  S. Kaehler,  
 K. Khistyaev,  Jaehoon Kim,  P. Klunzinger,  Z. Koczor-Benda,  
 Joong Hoon Koh,  D. Kosenkov,  L. Koulias,  T. Kowalczyk,  C. M. Krauter,  
 K. Kue,  A. Kunitsa,  T. Kus,  A. Landau,  K. V. Lawler,  D. Lefrancois,  
 S. Lehtola,  Rain Li,  Yi-Pei Li,  Jiashu Liang,  M. Liebenthal,  
 Hung-Hsuan Lin,  You-Sheng Lin,  Fenglai Liu,  Kuan-Yu Liu,  
 M. Loipersberger,  A. Luenser,  A. Manjanath,  P. Manohar,  E. Mansoor,  
 S. F. Manzer,  Shan-Ping Mao,  A. V. Marenich,  T. Markovich,  S. Mason,  
 S. A. Maurer,  P. F. McLaughlin,  M. F. S. J. Menger,  J.-M. Mewes,  
 S. A. Mewes,  P. Morgante,  J. W. Mullinax,  T. S. Nguyen-Beck,  
 K. J. Oosterbaan,  G. Paran,  Alexander C. Paul,  Suranjan K. Paul,  
 F. Pavosevic,  Zheng Pei,  S. Prager,  E. I. Proynov,  E. Ramos,  B. Rana,  
 A. E. Rask,  A. Rettig,  R. M. Richard,  F. Rob,  E. Rossomme,  T. Scheele,  
 M. Scheurer,  M. Schneider,  N. Sergueev,  S. M. Sharada,  W. Skomorowski,  
 D. W. Small,  C. J. Stein,  Yu-Chuan Su,  E. J. Sundstrom,  Zhen Tao,  
 J. Thirman,  T. Tsuchimochi,  N. M. Tubman,  S. P. Veccham,  O. Vydrov,  
 J. Wenzel,  J. Witte,  A. Yamada,  Kun Yao,  S. Yeganeh,  S. R. Yost,  
 A. Zech,  Igor Ying Zhang,  Xing Zhang,  Yu Zhang,  D. Zuev,  
 A. Aspuru-Guzik,  A. T. Bell,  N. A. Besley,  K. B. Bravaya,  B. R. Brooks,  
 D. Casanova,  Jeng-Da Chai,  S. Coriani,  C. J. Cramer,  
 A. E. DePrince, III,  R. A. DiStasio Jr.,  A. Dreuw,  B. D. Dunietz,  
 T. R. Furlani,  W. A. Goddard III,  S. Grimme,  S. Hammes-Schiffer,  
 T. Head-Gordon,  W. J. Hehre,  Chao-Ping Hsu,  T.-C. Jagau,  Yousung Jung,  
 A. Klamt,  Jing Kong,  D. S. Lambrecht,  WanZhen Liang,  N. J. Mayhall,  
 C. W. McCurdy,  J. B. Neaton,  C. Ochsenfeld,  J. A. Parkhill,  R. Peverati,  
 V. A. Rassolov,  Yihan Shao,  L. V. Slipchenko,  T. Stauch,  R. P. Steele,  
 J. E. Subotnik,  A. J. W. Thom,  A. Tkatchenko,  D. G. Truhlar,  
 T. Van Voorhis,  T. A. Wesolowski,  K. B. Whaley,  H. L. Woodcock III,  
 P. M. Zimmerman,  S. Faraji,  P. M. W. Gill,  M. Head-Gordon,  
 J. M. Herbert,  A. I. Krylov

 Contributors to earlier versions of Q-Chem not listed above: 
 R. D. Adamson,  B. Austin,  R. Baer,  J. Baker,  G. J. O. Beran,  
 K. Brandhorst,  S. T. Brown,  E. F. C. Byrd,  A. K. Chakraborty,  
 G. K. L. Chan,  Chun-Min Chang,  Yunqing Chen,  C.-L. Cheng,  
 Siu Hung Chien,  D. M. Chipman,  D. L. Crittenden,  H. Dachsel,  
 R. J. Doerksen,  A. D. Dutoi,  R. G. Edgar,  J. Fosso-Tande,  
 L. Fusti-Molnar,  D. Ghosh,  A. Ghysels,  A. Golubeva-Zadorozhnaya,  
 J. Gonthier,  M. S. Gordon,  S. R. Gwaltney,  G. Hawkins,  J. E. Herr,  
 A. Heyden,  S. Hirata,  E. G. Hohenstein,  G. Kedziora,  F. J. Keil,  
 C. Kelley,  Jihan Kim,  R. A. King,  R. Z. Khaliullin,  P. P. Korambath,  
 W. Kurlancheek,  A. Laurent,  A. M. Lee,  M. S. Lee,  S. V. Levchenko,  
 Ching Yeh Lin,  D. Liotard,  E. Livshits,  R. C. Lochan,  I. Lotan,  
 L. A. Martinez-Martinez,  P. E. Maslen,  N. Nair,  D. P. O'Neill,  
 D. Neuhauser,  E. Neuscamman,  C. M. Oana,  R. Olivares-Amaya,  R. Olson,  
 T. M. Perrine,  B. Peters,  P. A. Pieniazek,  A. Prociuk,  Y. M. Rhee,  
 J. Ritchie,  M. A. Rohrdanz,  E. Rosta,  N. J. Russ,  H. F. Schaefer III,  
 M. W. Schmidt,  N. E. Schultz,  S. Sharma,  N. Shenvi,  C. D. Sherrill,  
 A. C. Simmonett,  A. Sodt,  T. Stein,  D. Stuck,  K. S. Thanthiriwatte,  
 V. Vanovschi,  L. Vogt,  Tao Wang,  A. Warshel,  M. A. Watson,  
 C. F. Williams,  Q. Wu,  X. Xu,  Jun Yang,  W. Zhang,  Yan Zhao

 Please cite Q-Chem as follows:
 Y. Shao et al., Mol. Phys. 113, 184-215 (2015)
 DOI: 10.1080/00268976.2014.952696

 Q-Chem 5.4.0 for Intel X86 EM64T Linux

 Parts of Q-Chem use Armadillo 9.800.1 (Horizon Scraper).
 http://arma.sourceforge.net/

 Q-Chem begins on Sun Jul 10 02:21:05 2022  

 Host: 
0

     Scratch files written to ./qchem1883848//
 May1621 |scratch|qcdevops|jenkins|workspace|build_RNUM    
 Processing $rem in /cm/shared/apps/spack/cpu/opt/spack/linux-centos8-zen2/gcc-10.2.0/qchem-5.4-akfmr7b3t57bfs6qan3padb2wnb2i7cl/config/preferences:
 Processing $rem in /home/theleonzhang/.qchemrc:
 Symmetry turned off for PCM/SM12/SMD calculation
 Core orbitals will be frozen

 Checking the input file for inconsistencies... 	...done.

--------------------------------------------------------------
User input:
--------------------------------------------------------------
$molecule
0 1
C	-0.264439	-3.866725	-0.728625
C	0.209794	-3.703963	0.575519
C	0.364749	-2.357056	1.002336
H	0.446060	-4.561092	1.224165
C	0.000000	-1.440664	0.000000
S	-0.528253	-2.286957	-1.451336
C	0.862253	-1.978743	2.369885
H	1.082953	-2.878678	2.976034
H	0.115513	-1.376015	2.927887
H	1.792797	-1.375728	2.317620
C	0.000000	0.000000	0.000000
C	0.000033	0.863600	1.099446
C	0.000052	2.247508	0.776721
H	0.000026	0.494801	2.136088
C	0.000074	2.468165	-0.612546
S	0.000024	0.942399	-1.486809
C	0.000075	3.335257	1.814609
H	0.000074	2.909620	2.836676
H	-0.892314	3.989552	1.726239
H	0.892483	3.989525	1.726228
H	0.000094	3.417382	-1.161575
H	-1.225465	-4.392713	-0.745219
H	0.461378	-4.392347	-1.359038
H	-1.014907	-1.440937	0.369273
$end

$rem
JOBTYPE		SP
EXCHANGE	HF
CORRELATION	pRIMP2
BASIS		cc-pvtz
METHOD		rimp2
AUX_BASIS	rimp2-cc-pvtz
SOLVENT_METHOD	PCM
PURECART	11111
SYMMETRY	false
MEM_TOTAL	110000
SCF_CONVERGENCE = 6
THRESH=10
$end



$solvent
dielectric 4.90
$end
--------------------------------------------------------------
 ----------------------------------------------------------------
             Standard Nuclear Orientation (Angstroms)
    I     Atom           X                Y                Z
 ----------------------------------------------------------------
    1      C      -0.2644390000    -3.8667250000    -0.7286250000
    2      C       0.2097940000    -3.7039630000     0.5755190000
    3      C       0.3647490000    -2.3570560000     1.0023360000
    4      H       0.4460600000    -4.5610920000     1.2241650000
    5      C       0.0000000000    -1.4406640000     0.0000000000
    6      S      -0.5282530000    -2.2869570000    -1.4513360000
    7      C       0.8622530000    -1.9787430000     2.3698850000
    8      H       1.0829530000    -2.8786780000     2.9760340000
    9      H       0.1155130000    -1.3760150000     2.9278870000
   10      H       1.7927970000    -1.3757280000     2.3176200000
   11      C       0.0000000000     0.0000000000     0.0000000000
   12      C       0.0000330000     0.8636000000     1.0994460000
   13      C       0.0000520000     2.2475080000     0.7767210000
   14      H       0.0000260000     0.4948010000     2.1360880000
   15      C       0.0000740000     2.4681650000    -0.6125460000
   16      S       0.0000240000     0.9423990000    -1.4868090000
   17      C       0.0000750000     3.3352570000     1.8146090000
   18      H       0.0000740000     2.9096200000     2.8366760000
   19      H      -0.8923140000     3.9895520000     1.7262390000
   20      H       0.8924830000     3.9895250000     1.7262280000
   21      H       0.0000940000     3.4173820000    -1.1615750000
   22      H      -1.2254650000    -4.3927130000    -0.7452190000
   23      H       0.4613780000    -4.3923470000    -1.3590380000
   24      H      -1.0149070000    -1.4409370000     0.3692730000
 ----------------------------------------------------------------
 Nuclear Repulsion Energy =         875.34781728 hartrees
 There are       52 alpha and       52 beta electrons

 Q-Chem warning in module forms1/BasisType.C, line 2236:

 You are not using the predefined 5D/6D in this basis set.

 Requested basis set is cc-pVTZ
 There are 196 shells and 536 basis functions

 Total QAlloc Memory Limit 110000 MB
 Mega-Array Size       188 MB
 MEM_STATIC part       192 MB
 Discretize the solute cavity surface with Lebedev spheres
	Using 110 Lebedev grid points for each H atom
	Using 194 Lebedev grid points for other atoms
	Atomic van der Waals radii will be scaled by 1.20
 Remove points where switching function is < 1.0e-08
 Keep 1583 surface tesserae and discard 2065 interior tesserae
 Molecular Surface Area = 232.970 Angst**2
 Requested basis set is rimp2-cc-pVTZ
 There are 414 shells and 1414 basis functions
 A cutoff of  1.0D-10 yielded  14025 shell pairs
 There are    101597 function pairs (    130198 Cartesian)
 Smallest overlap matrix eigenvalue = 4.22E-05

 Scale SEOQF with 1.000000e-01/1.000000e-01/1.000000e-01

 Standard Electronic Orientation quadrupole field applied
 Nucleus-field energy     =     0.0000000230 hartrees
 Guess from superposition of atomic densities
 Warning:  Energy on first SCF cycle will be non-variational
 SAD guess density has 104.000000 electrons

 -----------------------------------------------------------------------
  General SCF calculation program by
  Eric Jon Sundstrom, Paul Horn, Yuezhi Mao, Dmitri Zuev, Alec White,
  David Stuck, Shaama M.S., Shane Yost, Joonho Lee, David Small,
  Daniel Levine, Susi Lehtola, Hugh Burton, Evgeny Epifanovsky,
  Bang C. Huynh
 -----------------------------------------------------------------------
 Hartree-Fock
 A restricted SCF calculation will be
 performed using DIIS
 SCF converges when DIIS error is below 1.0e-06
 ---------------------------------------
  Cycle       Energy         DIIS error
 ---------------------------------------
    1   -1186.0487616757      2.39e-02  
    2   -1180.6090525395      1.59e-03  
    3   -1180.7354736372      6.63e-04  
    4   -1180.7517916537      3.49e-04  
    5   -1180.7574771336      5.91e-05  
    6   -1180.7577215621      2.46e-05  
    7   -1180.7577782395      8.52e-06  
    8   -1180.7577899679      4.10e-06  
    9   -1180.7577925290      1.39e-06  
   10   -1180.7577929329      5.05e-07  Convergence criterion met
 ---------------------------------------
 SCF time:   CPU 575.83s  wall 578.00s 

************** Final PCM Free Energy Summary **************
 G_electrostatic  =      -0.00959605 hartree =      -6.02161423 kcal/mol
 G_cavitation     =       0.00000000 hartree =       0.00000000 kcal/mol
 G_dispersion     =       0.00000000 hartree =       0.00000000 kcal/mol
 G_repulsion      =       0.00000000 hartree =       0.00000000 kcal/mol
 --------------------------------------------------
 Non-electrostatic Free Energy =       0.00000000 hartree =       0.00000000 kcal/mol
 Total                         =      -0.00959605 hartree =      -6.02161423 kcal/mol
 --------------------------------------------------
 SCF Energy (H0 + V/2)                       =   -1180.75779293 
 Solute Internal Energy (H0)                 =   -1180.74819688 
 Total Free Energy (H0 + V/2 + non-elec)     =   -1180.75779293 hartree
                                             = -740936.69802247 kcal/mol
***********************************************************

 SCF   energy in the final basis set =    -1180.7577929329
 Total energy in the final basis set =    -1180.7577929329


 --------------------------------------------------------------
  Generalized many-body perturbation theory program
  by Joonho Lee, Fazle Rob, Xintian Feng, Evgeny Epifanovsky

 No regularization used 
 (reg. param. = 0.0000e+00)
  (P|Q)^-1/2 Time:  CPU 1.90 s  wall 1.91 s

 In RI-MP2 calculation: 
 # of frozen core orbitals: 20

 Components of the RIMP2 correlation energy:
        aaaa    correlation energy =        -0.2515076451 a.u.
        abab    correlation energy =        -1.5028299692 a.u.
        bbbb    correlation energy =        -0.2515076451 a.u.
        non-Brillouin singles      =        -0.0000000000 a.u.
        total same-spin energy     =        -0.5030152902 a.u.
        total opposite-spin energy =        -1.5028299692 a.u.

 Total  RIMP2   correlation energy =        -2.0058452594 a.u.
        RIMP2         total energy =     -1182.7636381923 a.u.

 RI-MP2 Energy Time:  CPU 80.61 s  wall 80.91 s
 
 --------------------------------------------------------------
 
                    Orbital Energies (a.u.)
 --------------------------------------------------------------
 
 Alpha MOs
 -- Occupied --
-91.9841 -91.9461 -11.2904 -11.2665 -11.2614 -11.2532 -11.2501 -11.2444
-11.2341 -11.2291 -11.2282 -11.2237  -8.9836  -8.9507  -6.6645  -6.6640
 -6.6634  -6.6321  -6.6311  -6.6298  -1.2024  -1.1523  -1.0604  -1.0317
 -1.0019  -0.9613  -0.9158  -0.8997  -0.8187  -0.7633  -0.7261  -0.7066
 -0.6598  -0.6485  -0.6108  -0.5935  -0.5863  -0.5692  -0.5597  -0.5533
 -0.5436  -0.5352  -0.5222  -0.5024  -0.4864  -0.4826  -0.4689  -0.4439
 -0.3602  -0.3439  -0.3234  -0.2651
 -- Virtual --
  0.1063   0.1299   0.1421   0.1499   0.1562   0.1696   0.1716   0.1869
  0.1933   0.2038   0.2066   0.2120   0.2187   0.2351   0.2371   0.2421
  0.2595   0.2764   0.2856   0.3040   0.3164   0.3254   0.3526   0.3553
  0.3719   0.3794   0.3885   0.3894   0.3989   0.4119   0.4162   0.4239
  0.4370   0.4533   0.4663   0.4720   0.4750   0.4780   0.4858   0.4935
  0.5064   0.5197   0.5250   0.5324   0.5416   0.5427   0.5503   0.5580
  0.5641   0.5798   0.5858   0.5965   0.5995   0.6037   0.6131   0.6228
  0.6258   0.6269   0.6333   0.6364   0.6420   0.6460   0.6520   0.6635
  0.6700   0.6800   0.6812   0.6937   0.6971   0.7222   0.7251   0.7299
  0.7388   0.7449   0.7643   0.7736   0.7830   0.8015   0.8096   0.8251
  0.8359   0.8402   0.8564   0.8696   0.8900   0.8952   0.9052   0.9165
  0.9301   0.9502   0.9518   0.9657   0.9797   0.9884   1.0050   1.0119
  1.0293   1.0327   1.0409   1.0438   1.0611   1.0638   1.0688   1.0834
  1.0898   1.0985   1.1045   1.1294   1.1445   1.1489   1.1621   1.1691
  1.1768   1.1904   1.2044   1.2097   1.2138   1.2241   1.2267   1.2416
  1.2467   1.2552   1.2607   1.2793   1.2853   1.3018   1.3082   1.3121
  1.3244   1.3300   1.3498   1.3598   1.3712   1.3793   1.4060   1.4179
  1.4291   1.4360   1.4433   1.4620   1.4671   1.4853   1.4864   1.4973
  1.5111   1.5144   1.5298   1.5318   1.5444   1.5454   1.5519   1.5541
  1.5800   1.5900   1.5962   1.6028   1.6178   1.6262   1.6400   1.6455
  1.6503   1.6652   1.6811   1.6945   1.7065   1.7189   1.7288   1.7452
  1.7590   1.7638   1.7822   1.7931   1.8179   1.8310   1.8477   1.8622
  1.8846   1.8964   1.9257   1.9397   1.9429   1.9793   1.9922   1.9999
  2.0230   2.0447   2.0527   2.0593   2.0913   2.1156   2.1364   2.1695
  2.1789   2.2021   2.2064   2.2208   2.2289   2.2469   2.2647   2.2835
  2.2933   2.3025   2.3304   2.3813   2.4105   2.4438   2.4646   2.4780
  2.4944   2.5168   2.5376   2.5443   2.5604   2.5910   2.5996   2.6084
  2.6350   2.6515   2.6571   2.6738   2.6858   2.6985   2.7250   2.7321
  2.7424   2.7550   2.7681   2.7704   2.7778   2.7809   2.8024   2.8095
  2.8332   2.8571   2.8592   2.8742   2.8910   2.9054   2.9091   2.9251
  2.9370   2.9539   2.9797   2.9937   3.0102   3.0198   3.0373   3.0419
  3.0458   3.0718   3.1009   3.1083   3.1126   3.1175   3.1317   3.1391
  3.1471   3.1596   3.1611   3.1780   3.1934   3.1944   3.2029   3.2163
  3.2312   3.2398   3.2491   3.2594   3.2659   3.2868   3.2903   3.3055
  3.3095   3.3279   3.3336   3.3406   3.3474   3.3612   3.3679   3.3727
  3.3749   3.3879   3.3904   3.3957   3.4027   3.4088   3.4276   3.4330
  3.4455   3.4484   3.4540   3.4670   3.4816   3.4862   3.4940   3.5066
  3.5114   3.5166   3.5248   3.5385   3.5518   3.5583   3.5646   3.5687
  3.5958   3.5973   3.6093   3.6225   3.6326   3.6352   3.6470   3.6574
  3.6721   3.6793   3.6937   3.6999   3.7176   3.7319   3.7350   3.7412
  3.7473   3.7536   3.7591   3.7775   3.7937   3.7945   3.8067   3.8184
  3.8247   3.8415   3.8494   3.8670   3.8844   3.8905   3.8965   3.9067
  3.9255   3.9369   3.9598   3.9703   3.9917   3.9969   4.0098   4.0212
  4.0417   4.0455   4.0552   4.0579   4.0638   4.0826   4.0888   4.1135
  4.1197   4.1368   4.1454   4.1527   4.1589   4.1718   4.1817   4.1941
  4.2093   4.2220   4.2307   4.2386   4.2587   4.2662   4.2759   4.3001
  4.3058   4.3123   4.3301   4.3383   4.3487   4.3561   4.3658   4.3732
  4.3890   4.3996   4.4020   4.4188   4.4249   4.4381   4.4447   4.4550
  4.4641   4.4762   4.4930   4.4978   4.5065   4.5266   4.5597   4.5733
  4.5810   4.5966   4.6017   4.6291   4.6393   4.6475   4.6603   4.6911
  4.7001   4.7244   4.7424   4.7733   4.7837   4.8138   4.8399   4.8467
  4.8571   4.8807   4.8946   4.9136   4.9454   4.9762   4.9841   5.0015
  5.0508   5.0762   5.0937   5.1158   5.1173   5.1287   5.1695   5.1959
  5.2186   5.2341   5.2573   5.2672   5.2859   5.3012   5.3142   5.3267
  5.3539   5.3619   5.3876   5.3929   5.4141   5.4265   5.4361   5.4392
  5.4717   5.5231   5.5258   5.5447   5.5502   5.5741   5.5783   5.5950
  5.6242   5.6245   5.6294   5.6650   5.6752   5.7059   5.7122   5.7379
  5.7735   5.8083   5.8398   5.9605   6.0393   6.0901   6.1421   6.1806
  6.2132   6.2278   6.2325   6.2657   6.2747   6.2908   6.3124   6.4129
  6.4223   6.6001   9.5199  11.0141  12.0928  12.9831  13.1915  13.9140
 14.1023  14.2119  14.4094  15.2574
 --------------------------------------------------------------
 
          Ground-State Mulliken Net Atomic Charges

     Atom                 Charge (a.u.)
  ----------------------------------------
      1 C                    -0.074005
      2 C                    -0.313653
      3 C                    -0.064366
      4 H                     0.178608
      5 C                     0.136999
      6 S                    -0.180413
      7 C                    -0.296410
      8 H                     0.121238
      9 H                     0.100261
     10 H                     0.118314
     11 C                    -0.060315
     12 C                    -0.271417
     13 C                     0.032609
     14 H                     0.188224
     15 C                    -0.280323
     16 S                     0.010282
     17 C                    -0.273495
     18 H                     0.100615
     19 H                     0.108578
     20 H                     0.108459
     21 H                     0.195881
     22 H                     0.112855
     23 H                     0.112790
     24 H                     0.188683
  ----------------------------------------
  Sum of atomic charges =     0.000000

 -----------------------------------------------------------------
                    Cartesian Multipole Moments
 -----------------------------------------------------------------
    Charge (ESU x 10^10)
                -0.0000
    Dipole Moment (Debye)
         X       0.0050      Y      -0.4854      Z       3.9022
       Tot       3.9322
    Quadrupole Moments (Debye-Ang)
        XX     -91.5274     XY       0.2596     YY     -72.9200
        XZ       0.3296     YZ      -2.6321     ZZ     -85.9552
    Octopole Moments (Debye-Ang^2)
       XXX      -1.1716    XXY      42.4374    XYY      -2.3200
       YYY     113.2814    XXZ      -1.6831    XYZ      -2.4548
       YYZ      -3.4219    XZZ       3.0829    YZZ      49.8408
       ZZZ       6.4044
    Hexadecapole Moments (Debye-Ang^3)
      XXXX    -203.7095   XXXY       1.1331   XXYY    -560.7678
      XYYY       4.2365   YYYY   -2762.3542   XXXZ     -93.7026
      XXYZ     -32.3613   XYYZ     -17.8799   YYYZ    -105.4559
      XXZZ    -215.4462   XYZZ     -11.8437   YYZZ    -652.5264
      XZZZ     -84.7955   YZZZ    -126.9245   ZZZZ   -1038.6909
 -----------------------------------------------------------------
 Total job time:  660.77s(wall), 657.37s(cpu) 
 Sun Jul 10 02:32:05 2022

        *************************************************************
        *                                                           *
        *  Thank you very much for using Q-Chem.  Have a nice day.  *
        *                                                           *
        *************************************************************


remove work dirs ./qchem1883848.0 -- ./qchem1883848.-1
rm -rf ./qchem1883848
