You are running Q-Chem version: 5.4.0

#
# job setting
#
local host:  exp-4-50
current dir: /expanse/lustre/scratch/theleonzhang/temp_project/Hydrogenated_Rotation_Test
input file:  Methylthiophene_Phi_10_Theta_200_Methylthiophene_Hydrogenated_Alternate.qcin
output file: 
nprocs     : 0
nthreads   : 1
#
# qchem installation setting
#
QC:          /cm/shared/apps/spack/cpu/opt/spack/linux-centos8-zen2/gcc-10.2.0/qchem-5.4-akfmr7b3t57bfs6qan3padb2wnb2i7cl
QCAUX:       /cm/shared/apps/spack/cpu/opt/spack/linux-centos8-zen2/gcc-10.2.0/qchem-5.4-akfmr7b3t57bfs6qan3padb2wnb2i7cl/qcaux
QCPROG:      /cm/shared/apps/spack/cpu/opt/spack/linux-centos8-zen2/gcc-10.2.0/qchem-5.4-akfmr7b3t57bfs6qan3padb2wnb2i7cl/exe/qcprog.exe_s
QCPROG_S:    /cm/shared/apps/spack/cpu/opt/spack/linux-centos8-zen2/gcc-10.2.0/qchem-5.4-akfmr7b3t57bfs6qan3padb2wnb2i7cl/exe/qcprog.exe_s
PARALLEL:    -DSERIAL
QCMPI:       mpich
#
# qchem directory setting
#
qcrun:       qchem1826727
QCSCRATCH:   .
QCLOCALSCR:  
QCTMPDIR:    .
QCFILEPREF:  ./qchem1826727
QCSAVEDIR:   
workdirs:    ./qchem1826727
workdir0:    ./qchem1826727
partmpdirs =  
#
# parallel setting
#
QCRSH:           ssh
QCMPI:           mpich
QCMPIRUN:        /cm/shared/apps/spack/cpu/opt/spack/linux-centos8-zen2/gcc-10.2.0/qchem-5.4-akfmr7b3t57bfs6qan3padb2wnb2i7cl/bin/mpi/mpirun_qchem
QCMACHINEFILE:   ./qchem1826727/hostfile

#
# env setting
#
exported envs:   QC QCAUX QCSCRATCH QCRUNNAME QCFILEPREF QCPROG QCPROG_S GUIFILE

Running Job 1 of 1 Methylthiophene_Phi_10_Theta_200_Methylthiophene_Hydrogenated_Alternate.qcin
qchem Methylthiophene_Phi_10_Theta_200_Methylthiophene_Hydrogenated_Alternate.qcin_1826727.0 ./qchem1826727/ 0
/cm/shared/apps/spack/cpu/opt/spack/linux-centos8-zen2/gcc-10.2.0/qchem-5.4-akfmr7b3t57bfs6qan3padb2wnb2i7cl/exe/qcprog.exe_s Methylthiophene_Phi_10_Theta_200_Methylthiophene_Hydrogenated_Alternate.qcin_1826727.0 ./qchem1826727/
                  Welcome to Q-Chem
     A Quantum Leap Into The Future Of Chemistry


 Q-Chem 5.4, Q-Chem, Inc., Pleasanton, CA (2021)

 License issued to: University of California, San Diego (site)

 E. Epifanovsky,  A. T. B. Gilbert,  Xintian Feng,  Joonho Lee,  Yuezhi Mao,  
 N. Mardirossian,  P. Pokhilko,  A. White,  M. Wormit,  M. P. Coons,  
 A. L. Dempwolff,  Zhengting Gan,  D. Hait,  P. R. Horn,  L. D. Jacobson,  
 I. Kaliman,  J. Kussmann,  A. W. Lange,  Ka Un Lao,  D. S. Levine,  Jie Liu,  
 S. C. McKenzie,  A. F. Morrison,  K. Nanda,  F. Plasser,  D. R. Rehn,  
 M. L. Vidal,  Zhi-Qiang You,  Ying Zhu,  B. Alam,  B. Albrecht,  
 A. Aldossary,  E. Alguire,  J. H. Andersen,  D. Barton,  K. Begam,  A. Behn,  
 Y. A. Bernard,  E. J. Berquist,  H. Burton,  A. Carreras,  K. Carter-Fenk,  
 R. Chakraborty,  A. D. Chien,  K. D. Closser,  V. Cofer-Shabica,  
 S. Dasgupta,  Jia Deng,  M. de Wergifosse,  M. Diedenhofen,  Hainam Do,  
 S. Ehlert,  Po-Tung Fang,  S. Fatehi,  Qingguo Feng,  J. Gayvert,  
 Qinghui Ge,  G. Gidofalvi,  M. Goldey,  J. Gomes,  C. Gonzalez-Espinoza,  
 S. Gulania,  A. Gunina,  M. W. D. Hanson-Heine,  P. H. P. Harbach,  
 A. W. Hauser,  M. F. Herbst,  M. Hernandez Vera,  M. Hodecker,  
 Z. C. Holden,  S. Houck,  Xunkun Huang,  Kerwin Hui,  B. C. Huynh,  
 M. Ivanov,  Hyunjun Ji,  Hanjie Jiang,  B. Kaduk,  S. Kaehler,  
 K. Khistyaev,  Jaehoon Kim,  P. Klunzinger,  Z. Koczor-Benda,  
 Joong Hoon Koh,  D. Kosenkov,  L. Koulias,  T. Kowalczyk,  C. M. Krauter,  
 K. Kue,  A. Kunitsa,  T. Kus,  A. Landau,  K. V. Lawler,  D. Lefrancois,  
 S. Lehtola,  Rain Li,  Yi-Pei Li,  Jiashu Liang,  M. Liebenthal,  
 Hung-Hsuan Lin,  You-Sheng Lin,  Fenglai Liu,  Kuan-Yu Liu,  
 M. Loipersberger,  A. Luenser,  A. Manjanath,  P. Manohar,  E. Mansoor,  
 S. F. Manzer,  Shan-Ping Mao,  A. V. Marenich,  T. Markovich,  S. Mason,  
 S. A. Maurer,  P. F. McLaughlin,  M. F. S. J. Menger,  J.-M. Mewes,  
 S. A. Mewes,  P. Morgante,  J. W. Mullinax,  T. S. Nguyen-Beck,  
 K. J. Oosterbaan,  G. Paran,  Alexander C. Paul,  Suranjan K. Paul,  
 F. Pavosevic,  Zheng Pei,  S. Prager,  E. I. Proynov,  E. Ramos,  B. Rana,  
 A. E. Rask,  A. Rettig,  R. M. Richard,  F. Rob,  E. Rossomme,  T. Scheele,  
 M. Scheurer,  M. Schneider,  N. Sergueev,  S. M. Sharada,  W. Skomorowski,  
 D. W. Small,  C. J. Stein,  Yu-Chuan Su,  E. J. Sundstrom,  Zhen Tao,  
 J. Thirman,  T. Tsuchimochi,  N. M. Tubman,  S. P. Veccham,  O. Vydrov,  
 J. Wenzel,  J. Witte,  A. Yamada,  Kun Yao,  S. Yeganeh,  S. R. Yost,  
 A. Zech,  Igor Ying Zhang,  Xing Zhang,  Yu Zhang,  D. Zuev,  
 A. Aspuru-Guzik,  A. T. Bell,  N. A. Besley,  K. B. Bravaya,  B. R. Brooks,  
 D. Casanova,  Jeng-Da Chai,  S. Coriani,  C. J. Cramer,  
 A. E. DePrince, III,  R. A. DiStasio Jr.,  A. Dreuw,  B. D. Dunietz,  
 T. R. Furlani,  W. A. Goddard III,  S. Grimme,  S. Hammes-Schiffer,  
 T. Head-Gordon,  W. J. Hehre,  Chao-Ping Hsu,  T.-C. Jagau,  Yousung Jung,  
 A. Klamt,  Jing Kong,  D. S. Lambrecht,  WanZhen Liang,  N. J. Mayhall,  
 C. W. McCurdy,  J. B. Neaton,  C. Ochsenfeld,  J. A. Parkhill,  R. Peverati,  
 V. A. Rassolov,  Yihan Shao,  L. V. Slipchenko,  T. Stauch,  R. P. Steele,  
 J. E. Subotnik,  A. J. W. Thom,  A. Tkatchenko,  D. G. Truhlar,  
 T. Van Voorhis,  T. A. Wesolowski,  K. B. Whaley,  H. L. Woodcock III,  
 P. M. Zimmerman,  S. Faraji,  P. M. W. Gill,  M. Head-Gordon,  
 J. M. Herbert,  A. I. Krylov

 Contributors to earlier versions of Q-Chem not listed above: 
 R. D. Adamson,  B. Austin,  R. Baer,  J. Baker,  G. J. O. Beran,  
 K. Brandhorst,  S. T. Brown,  E. F. C. Byrd,  A. K. Chakraborty,  
 G. K. L. Chan,  Chun-Min Chang,  Yunqing Chen,  C.-L. Cheng,  
 Siu Hung Chien,  D. M. Chipman,  D. L. Crittenden,  H. Dachsel,  
 R. J. Doerksen,  A. D. Dutoi,  R. G. Edgar,  J. Fosso-Tande,  
 L. Fusti-Molnar,  D. Ghosh,  A. Ghysels,  A. Golubeva-Zadorozhnaya,  
 J. Gonthier,  M. S. Gordon,  S. R. Gwaltney,  G. Hawkins,  J. E. Herr,  
 A. Heyden,  S. Hirata,  E. G. Hohenstein,  G. Kedziora,  F. J. Keil,  
 C. Kelley,  Jihan Kim,  R. A. King,  R. Z. Khaliullin,  P. P. Korambath,  
 W. Kurlancheek,  A. Laurent,  A. M. Lee,  M. S. Lee,  S. V. Levchenko,  
 Ching Yeh Lin,  D. Liotard,  E. Livshits,  R. C. Lochan,  I. Lotan,  
 L. A. Martinez-Martinez,  P. E. Maslen,  N. Nair,  D. P. O'Neill,  
 D. Neuhauser,  E. Neuscamman,  C. M. Oana,  R. Olivares-Amaya,  R. Olson,  
 T. M. Perrine,  B. Peters,  P. A. Pieniazek,  A. Prociuk,  Y. M. Rhee,  
 J. Ritchie,  M. A. Rohrdanz,  E. Rosta,  N. J. Russ,  H. F. Schaefer III,  
 M. W. Schmidt,  N. E. Schultz,  S. Sharma,  N. Shenvi,  C. D. Sherrill,  
 A. C. Simmonett,  A. Sodt,  T. Stein,  D. Stuck,  K. S. Thanthiriwatte,  
 V. Vanovschi,  L. Vogt,  Tao Wang,  A. Warshel,  M. A. Watson,  
 C. F. Williams,  Q. Wu,  X. Xu,  Jun Yang,  W. Zhang,  Yan Zhao

 Please cite Q-Chem as follows:
 Y. Shao et al., Mol. Phys. 113, 184-215 (2015)
 DOI: 10.1080/00268976.2014.952696

 Q-Chem 5.4.0 for Intel X86 EM64T Linux

 Parts of Q-Chem use Armadillo 9.800.1 (Horizon Scraper).
 http://arma.sourceforge.net/

 Q-Chem begins on Sun Jul 10 03:37:54 2022  

 Host: 
0

     Scratch files written to ./qchem1826727//
 May1621 |scratch|qcdevops|jenkins|workspace|build_RNUM    
 Processing $rem in /cm/shared/apps/spack/cpu/opt/spack/linux-centos8-zen2/gcc-10.2.0/qchem-5.4-akfmr7b3t57bfs6qan3padb2wnb2i7cl/config/preferences:
 Processing $rem in /home/theleonzhang/.qchemrc:
 Symmetry turned off for PCM/SM12/SMD calculation
 Core orbitals will be frozen

 Checking the input file for inconsistencies... 	...done.

--------------------------------------------------------------
User input:
--------------------------------------------------------------
$molecule
0 1
C	0.265779	-3.866725	-0.728138
C	-0.209225	-3.703963	0.575726
C	-0.364875	-2.357056	1.002290
H	-0.445176	-4.561092	1.224486
C	-0.000000	-1.440664	-0.000000
S	0.528236	-2.286957	-1.451343
C	-0.862808	-1.978743	2.369683
H	-1.083368	-2.878678	2.975883
H	-1.793522	-1.376015	2.317142
H	-0.116375	-1.375728	2.927787
C	0.000000	0.000000	0.000000
C	0.149995	0.850475	1.099446
C	0.390327	2.213354	0.776721
H	0.085947	0.487279	2.136088
C	0.428665	2.430655	-0.612546
S	0.163670	0.928078	-1.486809
C	0.579235	3.284574	1.814609
H	0.505323	2.865404	2.836676
H	-0.185980	4.083890	1.726239
H	1.571698	3.773937	1.726228
H	0.593515	3.365448	-1.161575
H	-0.459743	-4.392713	-1.358585
H	1.227009	-4.392347	-0.744515
H	1.014829	-1.440391	0.369490
$end

$rem
JOBTYPE		SP
EXCHANGE	HF
CORRELATION	pRIMP2
BASIS		cc-pvtz
METHOD		rimp2
AUX_BASIS	rimp2-cc-pvtz
SOLVENT_METHOD	PCM
PURECART	11111
SYMMETRY	false
MEM_TOTAL	110000
SCF_CONVERGENCE = 6
THRESH=10
$end



$solvent
dielectric 4.90
$end
--------------------------------------------------------------
 ----------------------------------------------------------------
             Standard Nuclear Orientation (Angstroms)
    I     Atom           X                Y                Z
 ----------------------------------------------------------------
    1      C       0.2657790000    -3.8667250000    -0.7281380000
    2      C      -0.2092250000    -3.7039630000     0.5757260000
    3      C      -0.3648750000    -2.3570560000     1.0022900000
    4      H      -0.4451760000    -4.5610920000     1.2244860000
    5      C       0.0000000000    -1.4406640000     0.0000000000
    6      S       0.5282360000    -2.2869570000    -1.4513430000
    7      C      -0.8628080000    -1.9787430000     2.3696830000
    8      H      -1.0833680000    -2.8786780000     2.9758830000
    9      H      -1.7935220000    -1.3760150000     2.3171420000
   10      H      -0.1163750000    -1.3757280000     2.9277870000
   11      C       0.0000000000     0.0000000000     0.0000000000
   12      C       0.1499950000     0.8504750000     1.0994460000
   13      C       0.3903270000     2.2133540000     0.7767210000
   14      H       0.0859470000     0.4872790000     2.1360880000
   15      C       0.4286650000     2.4306550000    -0.6125460000
   16      S       0.1636700000     0.9280780000    -1.4868090000
   17      C       0.5792350000     3.2845740000     1.8146090000
   18      H       0.5053230000     2.8654040000     2.8366760000
   19      H      -0.1859800000     4.0838900000     1.7262390000
   20      H       1.5716980000     3.7739370000     1.7262280000
   21      H       0.5935150000     3.3654480000    -1.1615750000
   22      H      -0.4597430000    -4.3927130000    -1.3585850000
   23      H       1.2270090000    -4.3923470000    -0.7445150000
   24      H       1.0148290000    -1.4403910000     0.3694900000
 ----------------------------------------------------------------
 Nuclear Repulsion Energy =         876.25282557 hartrees
 There are       52 alpha and       52 beta electrons

 Q-Chem warning in module forms1/BasisType.C, line 2236:

 You are not using the predefined 5D/6D in this basis set.

 Requested basis set is cc-pVTZ
 There are 196 shells and 536 basis functions

 Total QAlloc Memory Limit 110000 MB
 Mega-Array Size       188 MB
 MEM_STATIC part       192 MB
 Discretize the solute cavity surface with Lebedev spheres
	Using 110 Lebedev grid points for each H atom
	Using 194 Lebedev grid points for other atoms
	Atomic van der Waals radii will be scaled by 1.20
 Remove points where switching function is < 1.0e-08
 Keep 1586 surface tesserae and discard 2062 interior tesserae
 Molecular Surface Area = 231.999 Angst**2
 Requested basis set is rimp2-cc-pVTZ
 There are 414 shells and 1414 basis functions
 A cutoff of  1.0D-10 yielded  14031 shell pairs
 There are    101581 function pairs (    130163 Cartesian)
 Smallest overlap matrix eigenvalue = 5.34E-05

 Scale SEOQF with 1.000000e-01/1.000000e-01/1.000000e-01

 Standard Electronic Orientation quadrupole field applied
 Nucleus-field energy     =     0.0000000228 hartrees
 Guess from superposition of atomic densities
 Warning:  Energy on first SCF cycle will be non-variational
 SAD guess density has 104.000000 electrons

 -----------------------------------------------------------------------
  General SCF calculation program by
  Eric Jon Sundstrom, Paul Horn, Yuezhi Mao, Dmitri Zuev, Alec White,
  David Stuck, Shaama M.S., Shane Yost, Joonho Lee, David Small,
  Daniel Levine, Susi Lehtola, Hugh Burton, Evgeny Epifanovsky,
  Bang C. Huynh
 -----------------------------------------------------------------------
 Hartree-Fock
 A restricted SCF calculation will be
 performed using DIIS
 SCF converges when DIIS error is below 1.0e-06
 ---------------------------------------
  Cycle       Energy         DIIS error
 ---------------------------------------
    1   -1186.0535725285      2.39e-02  
    2   -1180.6075200690      1.59e-03  
    3   -1180.7340916189      6.64e-04  
    4   -1180.7504474714      3.50e-04  
    5   -1180.7561549180      5.92e-05  
    6   -1180.7564012067      2.47e-05  
    7   -1180.7564585309      8.54e-06  
    8   -1180.7564703495      4.10e-06  
    9   -1180.7564729101      1.38e-06  
   10   -1180.7564733164      4.97e-07  Convergence criterion met
 ---------------------------------------
 SCF time:   CPU 572.70s  wall 575.00s 

************** Final PCM Free Energy Summary **************
 G_electrostatic  =      -0.00955275 hartree =      -5.99444312 kcal/mol
 G_cavitation     =       0.00000000 hartree =       0.00000000 kcal/mol
 G_dispersion     =       0.00000000 hartree =       0.00000000 kcal/mol
 G_repulsion      =       0.00000000 hartree =       0.00000000 kcal/mol
 --------------------------------------------------
 Non-electrostatic Free Energy =       0.00000000 hartree =       0.00000000 kcal/mol
 Total                         =      -0.00955275 hartree =      -5.99444312 kcal/mol
 --------------------------------------------------
 SCF Energy (H0 + V/2)                       =   -1180.75647332 
 Solute Internal Energy (H0)                 =   -1180.74692056 
 Total Free Energy (H0 + V/2 + non-elec)     =   -1180.75647332 hartree
                                             = -740935.86995057 kcal/mol
***********************************************************

 SCF   energy in the final basis set =    -1180.7564733164
 Total energy in the final basis set =    -1180.7564733164


 --------------------------------------------------------------
  Generalized many-body perturbation theory program
  by Joonho Lee, Fazle Rob, Xintian Feng, Evgeny Epifanovsky

 No regularization used 
 (reg. param. = 0.0000e+00)
  (P|Q)^-1/2 Time:  CPU 1.89 s  wall 1.90 s

 In RI-MP2 calculation: 
 # of frozen core orbitals: 20

 Components of the RIMP2 correlation energy:
        aaaa    correlation energy =        -0.2515609873 a.u.
        abab    correlation energy =        -1.5029571008 a.u.
        bbbb    correlation energy =        -0.2515609873 a.u.
        non-Brillouin singles      =        -0.0000000000 a.u.
        total same-spin energy     =        -0.5031219745 a.u.
        total opposite-spin energy =        -1.5029571008 a.u.

 Total  RIMP2   correlation energy =        -2.0060790753 a.u.
        RIMP2         total energy =     -1182.7625523917 a.u.

 RI-MP2 Energy Time:  CPU 79.62 s  wall 79.88 s
 
 --------------------------------------------------------------
 
                    Orbital Energies (a.u.)
 --------------------------------------------------------------
 
 Alpha MOs
 -- Occupied --
-91.9845 -91.9458 -11.2906 -11.2661 -11.2615 -11.2531 -11.2502 -11.2441
-11.2342 -11.2286 -11.2282 -11.2238  -8.9840  -8.9504  -6.6649  -6.6644
 -6.6638  -6.6318  -6.6308  -6.6295  -1.2027  -1.1523  -1.0605  -1.0318
 -1.0016  -0.9612  -0.9156  -0.8997  -0.8185  -0.7631  -0.7260  -0.7059
 -0.6607  -0.6485  -0.6108  -0.5931  -0.5861  -0.5692  -0.5596  -0.5537
 -0.5437  -0.5351  -0.5217  -0.5023  -0.4873  -0.4823  -0.4692  -0.4432
 -0.3603  -0.3442  -0.3234  -0.2646
 -- Virtual --
  0.1036   0.1300   0.1434   0.1507   0.1563   0.1688   0.1717   0.1869
  0.1942   0.2031   0.2071   0.2130   0.2203   0.2350   0.2373   0.2422
  0.2583   0.2772   0.2839   0.3037   0.3162   0.3241   0.3524   0.3563
  0.3736   0.3811   0.3818   0.3884   0.3979   0.4109   0.4172   0.4234
  0.4371   0.4509   0.4658   0.4717   0.4724   0.4789   0.4842   0.4929
  0.5051   0.5193   0.5238   0.5349   0.5396   0.5456   0.5530   0.5603
  0.5680   0.5790   0.5851   0.5951   0.5969   0.6070   0.6125   0.6234
  0.6245   0.6281   0.6322   0.6374   0.6396   0.6466   0.6527   0.6620
  0.6706   0.6767   0.6819   0.6951   0.6993   0.7160   0.7224   0.7282
  0.7355   0.7435   0.7685   0.7745   0.7806   0.7993   0.8043   0.8296
  0.8345   0.8411   0.8556   0.8725   0.8867   0.8979   0.9065   0.9137
  0.9356   0.9492   0.9514   0.9694   0.9712   0.9852   1.0011   1.0078
  1.0225   1.0296   1.0360   1.0492   1.0511   1.0647   1.0729   1.0758
  1.0871   1.0946   1.1019   1.1321   1.1396   1.1544   1.1626   1.1669
  1.1784   1.1919   1.1981   1.2045   1.2157   1.2193   1.2264   1.2395
  1.2452   1.2566   1.2645   1.2777   1.2832   1.2929   1.3045   1.3087
  1.3248   1.3271   1.3393   1.3629   1.3726   1.3850   1.4034   1.4165
  1.4268   1.4339   1.4405   1.4597   1.4680   1.4850   1.4908   1.4988
  1.5102   1.5127   1.5305   1.5328   1.5443   1.5485   1.5514   1.5573
  1.5758   1.5874   1.5980   1.5998   1.6210   1.6246   1.6393   1.6494
  1.6502   1.6657   1.6779   1.6938   1.6980   1.7016   1.7242   1.7388
  1.7498   1.7630   1.7802   1.7954   1.8291   1.8365   1.8414   1.8499
  1.8950   1.8957   1.9288   1.9400   1.9530   1.9837   2.0002   2.0059
  2.0243   2.0324   2.0566   2.0618   2.0966   2.1197   2.1254   2.1602
  2.1759   2.1953   2.2096   2.2193   2.2302   2.2522   2.2582   2.2835
  2.2925   2.2976   2.3226   2.3829   2.4112   2.4482   2.4667   2.4711
  2.4907   2.5133   2.5333   2.5520   2.5575   2.5847   2.5947   2.5993
  2.6306   2.6479   2.6584   2.6737   2.6913   2.7045   2.7228   2.7303
  2.7437   2.7600   2.7633   2.7715   2.7807   2.7876   2.8051   2.8102
  2.8339   2.8531   2.8564   2.8650   2.8913   2.9023   2.9187   2.9257
  2.9452   2.9513   2.9820   2.9897   3.0035   3.0220   3.0403   3.0435
  3.0483   3.0582   3.1026   3.1096   3.1126   3.1154   3.1332   3.1391
  3.1482   3.1613   3.1631   3.1764   3.1917   3.1954   3.2002   3.2127
  3.2309   3.2311   3.2469   3.2559   3.2663   3.2860   3.3024   3.3052
  3.3094   3.3270   3.3335   3.3410   3.3490   3.3544   3.3608   3.3687
  3.3795   3.3864   3.3919   3.3942   3.4011   3.4187   3.4262   3.4366
  3.4436   3.4484   3.4548   3.4726   3.4796   3.4872   3.4906   3.5077
  3.5131   3.5196   3.5269   3.5393   3.5530   3.5603   3.5682   3.5747
  3.5948   3.6023   3.6140   3.6222   3.6324   3.6371   3.6506   3.6604
  3.6711   3.6804   3.6923   3.6989   3.7135   3.7286   3.7358   3.7384
  3.7520   3.7548   3.7617   3.7778   3.7865   3.7917   3.8060   3.8149
  3.8198   3.8402   3.8534   3.8685   3.8843   3.8924   3.8961   3.9057
  3.9288   3.9360   3.9516   3.9679   3.9840   3.9956   4.0028   4.0260
  4.0411   4.0432   4.0566   4.0591   4.0644   4.0781   4.0860   4.1108
  4.1299   4.1337   4.1458   4.1511   4.1573   4.1766   4.1846   4.1962
  4.2080   4.2212   4.2313   4.2334   4.2607   4.2684   4.2807   4.2974
  4.3027   4.3128   4.3313   4.3384   4.3497   4.3566   4.3630   4.3704
  4.3860   4.3974   4.4022   4.4118   4.4201   4.4362   4.4413   4.4571
  4.4623   4.4804   4.4951   4.4993   4.5037   4.5222   4.5487   4.5708
  4.5837   4.5910   4.5996   4.6274   4.6425   4.6500   4.6574   4.6953
  4.6990   4.7318   4.7399   4.7746   4.7799   4.8163   4.8378   4.8503
  4.8603   4.8820   4.8968   4.9171   4.9417   4.9733   4.9860   5.0105
  5.0468   5.0781   5.0966   5.1114   5.1159   5.1251   5.1641   5.1960
  5.2183   5.2275   5.2574   5.2648   5.2851   5.2974   5.3107   5.3264
  5.3535   5.3650   5.3834   5.3921   5.4124   5.4269   5.4321   5.4394
  5.4766   5.5198   5.5295   5.5407   5.5517   5.5733   5.5805   5.5883
  5.6243   5.6280   5.6297   5.6590   5.6798   5.7057   5.7082   5.7361
  5.7744   5.8136   5.8399   5.9507   6.0315   6.0948   6.1417   6.1766
  6.2118   6.2278   6.2315   6.2641   6.2727   6.2883   6.3127   6.3936
  6.4141   6.5680   9.4770  11.0140  12.0897  12.9621  13.1891  13.9040
 14.1009  14.2113  14.4017  15.1383
 --------------------------------------------------------------
 
          Ground-State Mulliken Net Atomic Charges

     Atom                 Charge (a.u.)
  ----------------------------------------
      1 C                    -0.075332
      2 C                    -0.310364
      3 C                    -0.062580
      4 H                     0.178230
      5 C                     0.113557
      6 S                    -0.180942
      7 C                    -0.296700
      8 H                     0.120761
      9 H                     0.118009
     10 H                     0.100532
     11 C                    -0.035041
     12 C                    -0.277984
     13 C                     0.035478
     14 H                     0.185631
     15 C                    -0.281337
     16 S                     0.008568
     17 C                    -0.272827
     18 H                     0.100493
     19 H                     0.108489
     20 H                     0.108530
     21 H                     0.196427
     22 H                     0.112099
     23 H                     0.112890
     24 H                     0.193415
  ----------------------------------------
  Sum of atomic charges =     0.000000

 -----------------------------------------------------------------
                    Cartesian Multipole Moments
 -----------------------------------------------------------------
    Charge (ESU x 10^10)
                -0.0000
    Dipole Moment (Debye)
         X       0.2295      Y      -0.5049      Z       3.8765
       Tot       3.9159
    Quadrupole Moments (Debye-Ang)
        XX     -91.2085     XY       1.4184     YY     -73.2777
        XZ      -0.1082     YZ      -2.7019     ZZ     -85.9419
    Octopole Moments (Debye-Ang^2)
       XXX     -36.9695    XXY      44.6497    XYY      -3.6081
       YYY     115.1317    XXZ      -1.7568    XYZ       2.1910
       YYZ      -3.2541    XZZ     -13.9679    YZZ      50.8579
       ZZZ       6.2293
    Hexadecapole Moments (Debye-Ang^3)
      XXXX    -234.7673   XXXY     -88.9168   XXYY    -556.8731
      XYYY     -70.6330   YYYY   -2740.2207   XXXZ      77.9414
      XXYZ     -32.3769   XYYZ       9.8442   YYYZ    -103.7595
      XXZZ    -219.6072   XYZZ     -11.9753   YYZZ    -648.4612
      XZZZ      67.5938   YZZZ    -125.7418   ZZZZ   -1038.4364
 -----------------------------------------------------------------
 Total job time:  656.40s(wall), 653.20s(cpu) 
 Sun Jul 10 03:48:51 2022

        *************************************************************
        *                                                           *
        *  Thank you very much for using Q-Chem.  Have a nice day.  *
        *                                                           *
        *************************************************************


remove work dirs ./qchem1826727.0 -- ./qchem1826727.-1
rm -rf ./qchem1826727
You are running Q-Chem version: 5.4.0

#
# job setting
#
local host:  exp-6-19
current dir: /expanse/lustre/scratch/theleonzhang/temp_project/Hydrogenated_Rotation_Test
input file:  Methylthiophene_Phi_10_Theta_200_Methylthiophene_Hydrogenated_Alternate.qcin
output file: 
nprocs     : 0
nthreads   : 1
#
# qchem installation setting
#
QC:          /cm/shared/apps/spack/cpu/opt/spack/linux-centos8-zen2/gcc-10.2.0/qchem-5.4-akfmr7b3t57bfs6qan3padb2wnb2i7cl
QCAUX:       /cm/shared/apps/spack/cpu/opt/spack/linux-centos8-zen2/gcc-10.2.0/qchem-5.4-akfmr7b3t57bfs6qan3padb2wnb2i7cl/qcaux
QCPROG:      /cm/shared/apps/spack/cpu/opt/spack/linux-centos8-zen2/gcc-10.2.0/qchem-5.4-akfmr7b3t57bfs6qan3padb2wnb2i7cl/exe/qcprog.exe_s
QCPROG_S:    /cm/shared/apps/spack/cpu/opt/spack/linux-centos8-zen2/gcc-10.2.0/qchem-5.4-akfmr7b3t57bfs6qan3padb2wnb2i7cl/exe/qcprog.exe_s
PARALLEL:    -DSERIAL
QCMPI:       mpich
#
# qchem directory setting
#
qcrun:       qchem2299407
QCSCRATCH:   .
QCLOCALSCR:  
QCTMPDIR:    .
QCFILEPREF:  ./qchem2299407
QCSAVEDIR:   
workdirs:    ./qchem2299407
workdir0:    ./qchem2299407
partmpdirs =  
#
# parallel setting
#
QCRSH:           ssh
QCMPI:           mpich
QCMPIRUN:        /cm/shared/apps/spack/cpu/opt/spack/linux-centos8-zen2/gcc-10.2.0/qchem-5.4-akfmr7b3t57bfs6qan3padb2wnb2i7cl/bin/mpi/mpirun_qchem
QCMACHINEFILE:   ./qchem2299407/hostfile

#
# env setting
#
exported envs:   QC QCAUX QCSCRATCH QCRUNNAME QCFILEPREF QCPROG QCPROG_S GUIFILE

Running Job 1 of 1 Methylthiophene_Phi_10_Theta_200_Methylthiophene_Hydrogenated_Alternate.qcin
qchem Methylthiophene_Phi_10_Theta_200_Methylthiophene_Hydrogenated_Alternate.qcin_2299407.0 ./qchem2299407/ 0
/cm/shared/apps/spack/cpu/opt/spack/linux-centos8-zen2/gcc-10.2.0/qchem-5.4-akfmr7b3t57bfs6qan3padb2wnb2i7cl/exe/qcprog.exe_s Methylthiophene_Phi_10_Theta_200_Methylthiophene_Hydrogenated_Alternate.qcin_2299407.0 ./qchem2299407/
                  Welcome to Q-Chem
     A Quantum Leap Into The Future Of Chemistry


 Q-Chem 5.4, Q-Chem, Inc., Pleasanton, CA (2021)

 License issued to: University of California, San Diego (site)

 E. Epifanovsky,  A. T. B. Gilbert,  Xintian Feng,  Joonho Lee,  Yuezhi Mao,  
 N. Mardirossian,  P. Pokhilko,  A. White,  M. Wormit,  M. P. Coons,  
 A. L. Dempwolff,  Zhengting Gan,  D. Hait,  P. R. Horn,  L. D. Jacobson,  
 I. Kaliman,  J. Kussmann,  A. W. Lange,  Ka Un Lao,  D. S. Levine,  Jie Liu,  
 S. C. McKenzie,  A. F. Morrison,  K. Nanda,  F. Plasser,  D. R. Rehn,  
 M. L. Vidal,  Zhi-Qiang You,  Ying Zhu,  B. Alam,  B. Albrecht,  
 A. Aldossary,  E. Alguire,  J. H. Andersen,  D. Barton,  K. Begam,  A. Behn,  
 Y. A. Bernard,  E. J. Berquist,  H. Burton,  A. Carreras,  K. Carter-Fenk,  
 R. Chakraborty,  A. D. Chien,  K. D. Closser,  V. Cofer-Shabica,  
 S. Dasgupta,  Jia Deng,  M. de Wergifosse,  M. Diedenhofen,  Hainam Do,  
 S. Ehlert,  Po-Tung Fang,  S. Fatehi,  Qingguo Feng,  J. Gayvert,  
 Qinghui Ge,  G. Gidofalvi,  M. Goldey,  J. Gomes,  C. Gonzalez-Espinoza,  
 S. Gulania,  A. Gunina,  M. W. D. Hanson-Heine,  P. H. P. Harbach,  
 A. W. Hauser,  M. F. Herbst,  M. Hernandez Vera,  M. Hodecker,  
 Z. C. Holden,  S. Houck,  Xunkun Huang,  Kerwin Hui,  B. C. Huynh,  
 M. Ivanov,  Hyunjun Ji,  Hanjie Jiang,  B. Kaduk,  S. Kaehler,  
 K. Khistyaev,  Jaehoon Kim,  P. Klunzinger,  Z. Koczor-Benda,  
 Joong Hoon Koh,  D. Kosenkov,  L. Koulias,  T. Kowalczyk,  C. M. Krauter,  
 K. Kue,  A. Kunitsa,  T. Kus,  A. Landau,  K. V. Lawler,  D. Lefrancois,  
 S. Lehtola,  Rain Li,  Yi-Pei Li,  Jiashu Liang,  M. Liebenthal,  
 Hung-Hsuan Lin,  You-Sheng Lin,  Fenglai Liu,  Kuan-Yu Liu,  
 M. Loipersberger,  A. Luenser,  A. Manjanath,  P. Manohar,  E. Mansoor,  
 S. F. Manzer,  Shan-Ping Mao,  A. V. Marenich,  T. Markovich,  S. Mason,  
 S. A. Maurer,  P. F. McLaughlin,  M. F. S. J. Menger,  J.-M. Mewes,  
 S. A. Mewes,  P. Morgante,  J. W. Mullinax,  T. S. Nguyen-Beck,  
 K. J. Oosterbaan,  G. Paran,  Alexander C. Paul,  Suranjan K. Paul,  
 F. Pavosevic,  Zheng Pei,  S. Prager,  E. I. Proynov,  E. Ramos,  B. Rana,  
 A. E. Rask,  A. Rettig,  R. M. Richard,  F. Rob,  E. Rossomme,  T. Scheele,  
 M. Scheurer,  M. Schneider,  N. Sergueev,  S. M. Sharada,  W. Skomorowski,  
 D. W. Small,  C. J. Stein,  Yu-Chuan Su,  E. J. Sundstrom,  Zhen Tao,  
 J. Thirman,  T. Tsuchimochi,  N. M. Tubman,  S. P. Veccham,  O. Vydrov,  
 J. Wenzel,  J. Witte,  A. Yamada,  Kun Yao,  S. Yeganeh,  S. R. Yost,  
 A. Zech,  Igor Ying Zhang,  Xing Zhang,  Yu Zhang,  D. Zuev,  
 A. Aspuru-Guzik,  A. T. Bell,  N. A. Besley,  K. B. Bravaya,  B. R. Brooks,  
 D. Casanova,  Jeng-Da Chai,  S. Coriani,  C. J. Cramer,  
 A. E. DePrince, III,  R. A. DiStasio Jr.,  A. Dreuw,  B. D. Dunietz,  
 T. R. Furlani,  W. A. Goddard III,  S. Grimme,  S. Hammes-Schiffer,  
 T. Head-Gordon,  W. J. Hehre,  Chao-Ping Hsu,  T.-C. Jagau,  Yousung Jung,  
 A. Klamt,  Jing Kong,  D. S. Lambrecht,  WanZhen Liang,  N. J. Mayhall,  
 C. W. McCurdy,  J. B. Neaton,  C. Ochsenfeld,  J. A. Parkhill,  R. Peverati,  
 V. A. Rassolov,  Yihan Shao,  L. V. Slipchenko,  T. Stauch,  R. P. Steele,  
 J. E. Subotnik,  A. J. W. Thom,  A. Tkatchenko,  D. G. Truhlar,  
 T. Van Voorhis,  T. A. Wesolowski,  K. B. Whaley,  H. L. Woodcock III,  
 P. M. Zimmerman,  S. Faraji,  P. M. W. Gill,  M. Head-Gordon,  
 J. M. Herbert,  A. I. Krylov

 Contributors to earlier versions of Q-Chem not listed above: 
 R. D. Adamson,  B. Austin,  R. Baer,  J. Baker,  G. J. O. Beran,  
 K. Brandhorst,  S. T. Brown,  E. F. C. Byrd,  A. K. Chakraborty,  
 G. K. L. Chan,  Chun-Min Chang,  Yunqing Chen,  C.-L. Cheng,  
 Siu Hung Chien,  D. M. Chipman,  D. L. Crittenden,  H. Dachsel,  
 R. J. Doerksen,  A. D. Dutoi,  R. G. Edgar,  J. Fosso-Tande,  
 L. Fusti-Molnar,  D. Ghosh,  A. Ghysels,  A. Golubeva-Zadorozhnaya,  
 J. Gonthier,  M. S. Gordon,  S. R. Gwaltney,  G. Hawkins,  J. E. Herr,  
 A. Heyden,  S. Hirata,  E. G. Hohenstein,  G. Kedziora,  F. J. Keil,  
 C. Kelley,  Jihan Kim,  R. A. King,  R. Z. Khaliullin,  P. P. Korambath,  
 W. Kurlancheek,  A. Laurent,  A. M. Lee,  M. S. Lee,  S. V. Levchenko,  
 Ching Yeh Lin,  D. Liotard,  E. Livshits,  R. C. Lochan,  I. Lotan,  
 L. A. Martinez-Martinez,  P. E. Maslen,  N. Nair,  D. P. O'Neill,  
 D. Neuhauser,  E. Neuscamman,  C. M. Oana,  R. Olivares-Amaya,  R. Olson,  
 T. M. Perrine,  B. Peters,  P. A. Pieniazek,  A. Prociuk,  Y. M. Rhee,  
 J. Ritchie,  M. A. Rohrdanz,  E. Rosta,  N. J. Russ,  H. F. Schaefer III,  
 M. W. Schmidt,  N. E. Schultz,  S. Sharma,  N. Shenvi,  C. D. Sherrill,  
 A. C. Simmonett,  A. Sodt,  T. Stein,  D. Stuck,  K. S. Thanthiriwatte,  
 V. Vanovschi,  L. Vogt,  Tao Wang,  A. Warshel,  M. A. Watson,  
 C. F. Williams,  Q. Wu,  X. Xu,  Jun Yang,  W. Zhang,  Yan Zhao

 Please cite Q-Chem as follows:
 Y. Shao et al., Mol. Phys. 113, 184-215 (2015)
 DOI: 10.1080/00268976.2014.952696

 Q-Chem 5.4.0 for Intel X86 EM64T Linux

 Parts of Q-Chem use Armadillo 9.800.1 (Horizon Scraper).
 http://arma.sourceforge.net/

 Q-Chem begins on Sun Jul 10 04:11:55 2022  

 Host: 
0

     Scratch files written to ./qchem2299407//
 May1621 |scratch|qcdevops|jenkins|workspace|build_RNUM    
 Processing $rem in /cm/shared/apps/spack/cpu/opt/spack/linux-centos8-zen2/gcc-10.2.0/qchem-5.4-akfmr7b3t57bfs6qan3padb2wnb2i7cl/config/preferences:
 Processing $rem in /home/theleonzhang/.qchemrc:
 Symmetry turned off for PCM/SM12/SMD calculation
 Core orbitals will be frozen

 Checking the input file for inconsistencies... 	...done.

--------------------------------------------------------------
User input:
--------------------------------------------------------------
$molecule
0 1
C	0.265779	-3.866725	-0.728138
C	-0.209225	-3.703963	0.575726
C	-0.364875	-2.357056	1.002290
H	-0.445176	-4.561092	1.224486
C	-0.000000	-1.440664	-0.000000
S	0.528236	-2.286957	-1.451343
C	-0.862808	-1.978743	2.369683
H	-1.083368	-2.878678	2.975883
H	-1.793522	-1.376015	2.317142
H	-0.116375	-1.375728	2.927787
C	0.000000	0.000000	0.000000
C	0.149995	0.850475	1.099446
C	0.390327	2.213354	0.776721
H	0.085947	0.487279	2.136088
C	0.428665	2.430655	-0.612546
S	0.163670	0.928078	-1.486809
C	0.579235	3.284574	1.814609
H	0.505323	2.865404	2.836676
H	-0.185980	4.083890	1.726239
H	1.571698	3.773937	1.726228
H	0.593515	3.365448	-1.161575
H	-0.459743	-4.392713	-1.358585
H	1.227009	-4.392347	-0.744515
H	1.014829	-1.440391	0.369490
$end

$rem
JOBTYPE		SP
EXCHANGE	HF
CORRELATION	pRIMP2
BASIS		cc-pvtz
METHOD		rimp2
AUX_BASIS	rimp2-cc-pvtz
SOLVENT_METHOD	PCM
PURECART	11111
SYMMETRY	false
MEM_TOTAL	110000
SCF_CONVERGENCE = 6
THRESH=10
$end



$solvent
dielectric 4.90
$end
--------------------------------------------------------------
 ----------------------------------------------------------------
             Standard Nuclear Orientation (Angstroms)
    I     Atom           X                Y                Z
 ----------------------------------------------------------------
    1      C       0.2657790000    -3.8667250000    -0.7281380000
    2      C      -0.2092250000    -3.7039630000     0.5757260000
    3      C      -0.3648750000    -2.3570560000     1.0022900000
    4      H      -0.4451760000    -4.5610920000     1.2244860000
    5      C       0.0000000000    -1.4406640000     0.0000000000
    6      S       0.5282360000    -2.2869570000    -1.4513430000
    7      C      -0.8628080000    -1.9787430000     2.3696830000
    8      H      -1.0833680000    -2.8786780000     2.9758830000
    9      H      -1.7935220000    -1.3760150000     2.3171420000
   10      H      -0.1163750000    -1.3757280000     2.9277870000
   11      C       0.0000000000     0.0000000000     0.0000000000
   12      C       0.1499950000     0.8504750000     1.0994460000
   13      C       0.3903270000     2.2133540000     0.7767210000
   14      H       0.0859470000     0.4872790000     2.1360880000
   15      C       0.4286650000     2.4306550000    -0.6125460000
   16      S       0.1636700000     0.9280780000    -1.4868090000
   17      C       0.5792350000     3.2845740000     1.8146090000
   18      H       0.5053230000     2.8654040000     2.8366760000
   19      H      -0.1859800000     4.0838900000     1.7262390000
   20      H       1.5716980000     3.7739370000     1.7262280000
   21      H       0.5935150000     3.3654480000    -1.1615750000
   22      H      -0.4597430000    -4.3927130000    -1.3585850000
   23      H       1.2270090000    -4.3923470000    -0.7445150000
   24      H       1.0148290000    -1.4403910000     0.3694900000
 ----------------------------------------------------------------
 Nuclear Repulsion Energy =         876.25282557 hartrees
 There are       52 alpha and       52 beta electrons

 Q-Chem warning in module forms1/BasisType.C, line 2236:

 You are not using the predefined 5D/6D in this basis set.

 Requested basis set is cc-pVTZ
 There are 196 shells and 536 basis functions

 Total QAlloc Memory Limit 110000 MB
 Mega-Array Size       188 MB
 MEM_STATIC part       192 MB
 Discretize the solute cavity surface with Lebedev spheres
	Using 110 Lebedev grid points for each H atom
	Using 194 Lebedev grid points for other atoms
	Atomic van der Waals radii will be scaled by 1.20
 Remove points where switching function is < 1.0e-08
 Keep 1586 surface tesserae and discard 2062 interior tesserae
 Molecular Surface Area = 231.999 Angst**2
 Requested basis set is rimp2-cc-pVTZ
 There are 414 shells and 1414 basis functions
 A cutoff of  1.0D-10 yielded  14031 shell pairs
 There are    101581 function pairs (    130163 Cartesian)
 Smallest overlap matrix eigenvalue = 5.34E-05

 Scale SEOQF with 1.000000e-01/1.000000e-01/1.000000e-01

 Standard Electronic Orientation quadrupole field applied
 Nucleus-field energy     =     0.0000000228 hartrees
 Guess from superposition of atomic densities
 Warning:  Energy on first SCF cycle will be non-variational
 SAD guess density has 104.000000 electrons

 -----------------------------------------------------------------------
  General SCF calculation program by
  Eric Jon Sundstrom, Paul Horn, Yuezhi Mao, Dmitri Zuev, Alec White,
  David Stuck, Shaama M.S., Shane Yost, Joonho Lee, David Small,
  Daniel Levine, Susi Lehtola, Hugh Burton, Evgeny Epifanovsky,
  Bang C. Huynh
 -----------------------------------------------------------------------
 Hartree-Fock
 A restricted SCF calculation will be
 performed using DIIS
 SCF converges when DIIS error is below 1.0e-06
 ---------------------------------------
  Cycle       Energy         DIIS error
 ---------------------------------------
    1   -1186.0535725285      2.39e-02  
    2   -1180.6075200690      1.59e-03  
    3   -1180.7340916189      6.64e-04  
    4   -1180.7504474714      3.50e-04  
    5   -1180.7561549180      5.92e-05  
    6   -1180.7564012067      2.47e-05  
    7   -1180.7564585309      8.54e-06  
    8   -1180.7564703495      4.10e-06  
    9   -1180.7564729101      1.38e-06  
   10   -1180.7564733164      4.97e-07  Convergence criterion met
 ---------------------------------------
 SCF time:   CPU 571.43s  wall 574.00s 

************** Final PCM Free Energy Summary **************
 G_electrostatic  =      -0.00955275 hartree =      -5.99444312 kcal/mol
 G_cavitation     =       0.00000000 hartree =       0.00000000 kcal/mol
 G_dispersion     =       0.00000000 hartree =       0.00000000 kcal/mol
 G_repulsion      =       0.00000000 hartree =       0.00000000 kcal/mol
 --------------------------------------------------
 Non-electrostatic Free Energy =       0.00000000 hartree =       0.00000000 kcal/mol
 Total                         =      -0.00955275 hartree =      -5.99444312 kcal/mol
 --------------------------------------------------
 SCF Energy (H0 + V/2)                       =   -1180.75647332 
 Solute Internal Energy (H0)                 =   -1180.74692056 
 Total Free Energy (H0 + V/2 + non-elec)     =   -1180.75647332 hartree
                                             = -740935.86995057 kcal/mol
***********************************************************

 SCF   energy in the final basis set =    -1180.7564733164
 Total energy in the final basis set =    -1180.7564733164


 --------------------------------------------------------------
  Generalized many-body perturbation theory program
  by Joonho Lee, Fazle Rob, Xintian Feng, Evgeny Epifanovsky

 No regularization used 
 (reg. param. = 0.0000e+00)
  (P|Q)^-1/2 Time:  CPU 1.89 s  wall 1.89 s

 In RI-MP2 calculation: 
 # of frozen core orbitals: 20

 Components of the RIMP2 correlation energy:
        aaaa    correlation energy =        -0.2515609873 a.u.
        abab    correlation energy =        -1.5029571008 a.u.
        bbbb    correlation energy =        -0.2515609873 a.u.
        non-Brillouin singles      =        -0.0000000000 a.u.
        total same-spin energy     =        -0.5031219745 a.u.
        total opposite-spin energy =        -1.5029571008 a.u.

 Total  RIMP2   correlation energy =        -2.0060790753 a.u.
        RIMP2         total energy =     -1182.7625523917 a.u.

 RI-MP2 Energy Time:  CPU 79.15 s  wall 79.30 s
 
 --------------------------------------------------------------
 
                    Orbital Energies (a.u.)
 --------------------------------------------------------------
 
 Alpha MOs
 -- Occupied --
-91.9845 -91.9458 -11.2906 -11.2661 -11.2615 -11.2531 -11.2502 -11.2441
-11.2342 -11.2286 -11.2282 -11.2238  -8.9840  -8.9504  -6.6649  -6.6644
 -6.6638  -6.6318  -6.6308  -6.6295  -1.2027  -1.1523  -1.0605  -1.0318
 -1.0016  -0.9612  -0.9156  -0.8997  -0.8185  -0.7631  -0.7260  -0.7059
 -0.6607  -0.6485  -0.6108  -0.5931  -0.5861  -0.5692  -0.5596  -0.5537
 -0.5437  -0.5351  -0.5217  -0.5023  -0.4873  -0.4823  -0.4692  -0.4432
 -0.3603  -0.3442  -0.3234  -0.2646
 -- Virtual --
  0.1036   0.1300   0.1434   0.1507   0.1563   0.1688   0.1717   0.1869
  0.1942   0.2031   0.2071   0.2130   0.2203   0.2350   0.2373   0.2422
  0.2583   0.2772   0.2839   0.3037   0.3162   0.3241   0.3524   0.3563
  0.3736   0.3811   0.3818   0.3884   0.3979   0.4109   0.4172   0.4234
  0.4371   0.4509   0.4658   0.4717   0.4724   0.4789   0.4842   0.4929
  0.5051   0.5193   0.5238   0.5349   0.5396   0.5456   0.5530   0.5603
  0.5680   0.5790   0.5851   0.5951   0.5969   0.6070   0.6125   0.6234
  0.6245   0.6281   0.6322   0.6374   0.6396   0.6466   0.6527   0.6620
  0.6706   0.6767   0.6819   0.6951   0.6993   0.7160   0.7224   0.7282
  0.7355   0.7435   0.7685   0.7745   0.7806   0.7993   0.8043   0.8296
  0.8345   0.8411   0.8556   0.8725   0.8867   0.8979   0.9065   0.9137
  0.9356   0.9492   0.9514   0.9694   0.9712   0.9852   1.0011   1.0078
  1.0225   1.0296   1.0360   1.0492   1.0511   1.0647   1.0729   1.0758
  1.0871   1.0946   1.1019   1.1321   1.1396   1.1544   1.1626   1.1669
  1.1784   1.1919   1.1981   1.2045   1.2157   1.2193   1.2264   1.2395
  1.2452   1.2566   1.2645   1.2777   1.2832   1.2929   1.3045   1.3087
  1.3248   1.3271   1.3393   1.3629   1.3726   1.3850   1.4034   1.4165
  1.4268   1.4339   1.4405   1.4597   1.4680   1.4850   1.4908   1.4988
  1.5102   1.5127   1.5305   1.5328   1.5443   1.5485   1.5514   1.5573
  1.5758   1.5874   1.5980   1.5998   1.6210   1.6246   1.6393   1.6494
  1.6502   1.6657   1.6779   1.6938   1.6980   1.7016   1.7242   1.7388
  1.7498   1.7630   1.7802   1.7954   1.8291   1.8365   1.8414   1.8499
  1.8950   1.8957   1.9288   1.9400   1.9530   1.9837   2.0002   2.0059
  2.0243   2.0324   2.0566   2.0618   2.0966   2.1197   2.1254   2.1602
  2.1759   2.1953   2.2096   2.2193   2.2302   2.2522   2.2582   2.2835
  2.2925   2.2976   2.3226   2.3829   2.4112   2.4482   2.4667   2.4711
  2.4907   2.5133   2.5333   2.5520   2.5575   2.5847   2.5947   2.5993
  2.6306   2.6479   2.6584   2.6737   2.6913   2.7045   2.7228   2.7303
  2.7437   2.7600   2.7633   2.7715   2.7807   2.7876   2.8051   2.8102
  2.8339   2.8531   2.8564   2.8650   2.8913   2.9023   2.9187   2.9257
  2.9452   2.9513   2.9820   2.9897   3.0035   3.0220   3.0403   3.0435
  3.0483   3.0582   3.1026   3.1096   3.1126   3.1154   3.1332   3.1391
  3.1482   3.1613   3.1631   3.1764   3.1917   3.1954   3.2002   3.2127
  3.2309   3.2311   3.2469   3.2559   3.2663   3.2860   3.3024   3.3052
  3.3094   3.3270   3.3335   3.3410   3.3490   3.3544   3.3608   3.3687
  3.3795   3.3864   3.3919   3.3942   3.4011   3.4187   3.4262   3.4366
  3.4436   3.4484   3.4548   3.4726   3.4796   3.4872   3.4906   3.5077
  3.5131   3.5196   3.5269   3.5393   3.5530   3.5603   3.5682   3.5747
  3.5948   3.6023   3.6140   3.6222   3.6324   3.6371   3.6506   3.6604
  3.6711   3.6804   3.6923   3.6989   3.7135   3.7286   3.7358   3.7384
  3.7520   3.7548   3.7617   3.7778   3.7865   3.7917   3.8060   3.8149
  3.8198   3.8402   3.8534   3.8685   3.8843   3.8924   3.8961   3.9057
  3.9288   3.9360   3.9516   3.9679   3.9840   3.9956   4.0028   4.0260
  4.0411   4.0432   4.0566   4.0591   4.0644   4.0781   4.0860   4.1108
  4.1299   4.1337   4.1458   4.1511   4.1573   4.1766   4.1846   4.1962
  4.2080   4.2212   4.2313   4.2334   4.2607   4.2684   4.2807   4.2974
  4.3027   4.3128   4.3313   4.3384   4.3497   4.3566   4.3630   4.3704
  4.3860   4.3974   4.4022   4.4118   4.4201   4.4362   4.4413   4.4571
  4.4623   4.4804   4.4951   4.4993   4.5037   4.5222   4.5487   4.5708
  4.5837   4.5910   4.5996   4.6274   4.6425   4.6500   4.6574   4.6953
  4.6990   4.7318   4.7399   4.7746   4.7799   4.8163   4.8378   4.8503
  4.8603   4.8820   4.8968   4.9171   4.9417   4.9733   4.9860   5.0105
  5.0468   5.0781   5.0966   5.1114   5.1159   5.1251   5.1641   5.1960
  5.2183   5.2275   5.2574   5.2648   5.2851   5.2974   5.3107   5.3264
  5.3535   5.3650   5.3834   5.3921   5.4124   5.4269   5.4321   5.4394
  5.4766   5.5198   5.5295   5.5407   5.5517   5.5733   5.5805   5.5883
  5.6243   5.6280   5.6297   5.6590   5.6798   5.7057   5.7082   5.7361
  5.7744   5.8136   5.8399   5.9507   6.0315   6.0948   6.1417   6.1766
  6.2118   6.2278   6.2315   6.2641   6.2727   6.2883   6.3127   6.3936
  6.4141   6.5680   9.4770  11.0140  12.0897  12.9621  13.1891  13.9040
 14.1009  14.2113  14.4017  15.1383
 --------------------------------------------------------------
 
          Ground-State Mulliken Net Atomic Charges

     Atom                 Charge (a.u.)
  ----------------------------------------
      1 C                    -0.075332
      2 C                    -0.310364
      3 C                    -0.062580
      4 H                     0.178230
      5 C                     0.113557
      6 S                    -0.180942
      7 C                    -0.296700
      8 H                     0.120761
      9 H                     0.118009
     10 H                     0.100532
     11 C                    -0.035041
     12 C                    -0.277984
     13 C                     0.035478
     14 H                     0.185631
     15 C                    -0.281337
     16 S                     0.008568
     17 C                    -0.272827
     18 H                     0.100493
     19 H                     0.108489
     20 H                     0.108530
     21 H                     0.196427
     22 H                     0.112099
     23 H                     0.112890
     24 H                     0.193415
  ----------------------------------------
  Sum of atomic charges =     0.000000

 -----------------------------------------------------------------
                    Cartesian Multipole Moments
 -----------------------------------------------------------------
    Charge (ESU x 10^10)
                -0.0000
    Dipole Moment (Debye)
         X       0.2295      Y      -0.5049      Z       3.8765
       Tot       3.9159
    Quadrupole Moments (Debye-Ang)
        XX     -91.2085     XY       1.4184     YY     -73.2777
        XZ      -0.1082     YZ      -2.7019     ZZ     -85.9419
    Octopole Moments (Debye-Ang^2)
       XXX     -36.9695    XXY      44.6497    XYY      -3.6081
       YYY     115.1317    XXZ      -1.7568    XYZ       2.1910
       YYZ      -3.2541    XZZ     -13.9679    YZZ      50.8579
       ZZZ       6.2293
    Hexadecapole Moments (Debye-Ang^3)
      XXXX    -234.7673   XXXY     -88.9168   XXYY    -556.8731
      XYYY     -70.6330   YYYY   -2740.2207   XXXZ      77.9414
      XXYZ     -32.3769   XYYZ       9.8442   YYYZ    -103.7595
      XXZZ    -219.6072   XYZZ     -11.9753   YYZZ    -648.4612
      XZZZ      67.5938   YZZZ    -125.7418   ZZZZ   -1038.4364
 -----------------------------------------------------------------
 Total job time:  654.86s(wall), 651.45s(cpu) 
 Sun Jul 10 04:22:50 2022

        *************************************************************
        *                                                           *
        *  Thank you very much for using Q-Chem.  Have a nice day.  *
        *                                                           *
        *************************************************************


remove work dirs ./qchem2299407.0 -- ./qchem2299407.-1
rm -rf ./qchem2299407
