You are running Q-Chem version: 5.4.0

#
# job setting
#
local host:  exp-1-44
current dir: /expanse/lustre/scratch/theleonzhang/temp_project/Hydrogenated_Rotation_Test
input file:  Methylthiophene_Phi_10_Theta_190_Methylthiophene_Hydrogenated.qcin
output file: 
nprocs     : 0
nthreads   : 1
#
# qchem installation setting
#
QC:          /cm/shared/apps/spack/cpu/opt/spack/linux-centos8-zen2/gcc-10.2.0/qchem-5.4-akfmr7b3t57bfs6qan3padb2wnb2i7cl
QCAUX:       /cm/shared/apps/spack/cpu/opt/spack/linux-centos8-zen2/gcc-10.2.0/qchem-5.4-akfmr7b3t57bfs6qan3padb2wnb2i7cl/qcaux
QCPROG:      /cm/shared/apps/spack/cpu/opt/spack/linux-centos8-zen2/gcc-10.2.0/qchem-5.4-akfmr7b3t57bfs6qan3padb2wnb2i7cl/exe/qcprog.exe_s
QCPROG_S:    /cm/shared/apps/spack/cpu/opt/spack/linux-centos8-zen2/gcc-10.2.0/qchem-5.4-akfmr7b3t57bfs6qan3padb2wnb2i7cl/exe/qcprog.exe_s
PARALLEL:    -DSERIAL
QCMPI:       mpich
#
# qchem directory setting
#
qcrun:       qchem1689538
QCSCRATCH:   .
QCLOCALSCR:  
QCTMPDIR:    .
QCFILEPREF:  ./qchem1689538
QCSAVEDIR:   
workdirs:    ./qchem1689538
workdir0:    ./qchem1689538
partmpdirs =  
#
# parallel setting
#
QCRSH:           ssh
QCMPI:           mpich
QCMPIRUN:        /cm/shared/apps/spack/cpu/opt/spack/linux-centos8-zen2/gcc-10.2.0/qchem-5.4-akfmr7b3t57bfs6qan3padb2wnb2i7cl/bin/mpi/mpirun_qchem
QCMACHINEFILE:   ./qchem1689538/hostfile

#
# env setting
#
exported envs:   QC QCAUX QCSCRATCH QCRUNNAME QCFILEPREF QCPROG QCPROG_S GUIFILE

Running Job 1 of 1 Methylthiophene_Phi_10_Theta_190_Methylthiophene_Hydrogenated.qcin
qchem Methylthiophene_Phi_10_Theta_190_Methylthiophene_Hydrogenated.qcin_1689538.0 ./qchem1689538/ 0
/cm/shared/apps/spack/cpu/opt/spack/linux-centos8-zen2/gcc-10.2.0/qchem-5.4-akfmr7b3t57bfs6qan3padb2wnb2i7cl/exe/qcprog.exe_s Methylthiophene_Phi_10_Theta_190_Methylthiophene_Hydrogenated.qcin_1689538.0 ./qchem1689538/
                  Welcome to Q-Chem
     A Quantum Leap Into The Future Of Chemistry


 Q-Chem 5.4, Q-Chem, Inc., Pleasanton, CA (2021)

 License issued to: University of California, San Diego (site)

 E. Epifanovsky,  A. T. B. Gilbert,  Xintian Feng,  Joonho Lee,  Yuezhi Mao,  
 N. Mardirossian,  P. Pokhilko,  A. White,  M. Wormit,  M. P. Coons,  
 A. L. Dempwolff,  Zhengting Gan,  D. Hait,  P. R. Horn,  L. D. Jacobson,  
 I. Kaliman,  J. Kussmann,  A. W. Lange,  Ka Un Lao,  D. S. Levine,  Jie Liu,  
 S. C. McKenzie,  A. F. Morrison,  K. Nanda,  F. Plasser,  D. R. Rehn,  
 M. L. Vidal,  Zhi-Qiang You,  Ying Zhu,  B. Alam,  B. Albrecht,  
 A. Aldossary,  E. Alguire,  J. H. Andersen,  D. Barton,  K. Begam,  A. Behn,  
 Y. A. Bernard,  E. J. Berquist,  H. Burton,  A. Carreras,  K. Carter-Fenk,  
 R. Chakraborty,  A. D. Chien,  K. D. Closser,  V. Cofer-Shabica,  
 S. Dasgupta,  Jia Deng,  M. de Wergifosse,  M. Diedenhofen,  Hainam Do,  
 S. Ehlert,  Po-Tung Fang,  S. Fatehi,  Qingguo Feng,  J. Gayvert,  
 Qinghui Ge,  G. Gidofalvi,  M. Goldey,  J. Gomes,  C. Gonzalez-Espinoza,  
 S. Gulania,  A. Gunina,  M. W. D. Hanson-Heine,  P. H. P. Harbach,  
 A. W. Hauser,  M. F. Herbst,  M. Hernandez Vera,  M. Hodecker,  
 Z. C. Holden,  S. Houck,  Xunkun Huang,  Kerwin Hui,  B. C. Huynh,  
 M. Ivanov,  Hyunjun Ji,  Hanjie Jiang,  B. Kaduk,  S. Kaehler,  
 K. Khistyaev,  Jaehoon Kim,  P. Klunzinger,  Z. Koczor-Benda,  
 Joong Hoon Koh,  D. Kosenkov,  L. Koulias,  T. Kowalczyk,  C. M. Krauter,  
 K. Kue,  A. Kunitsa,  T. Kus,  A. Landau,  K. V. Lawler,  D. Lefrancois,  
 S. Lehtola,  Rain Li,  Yi-Pei Li,  Jiashu Liang,  M. Liebenthal,  
 Hung-Hsuan Lin,  You-Sheng Lin,  Fenglai Liu,  Kuan-Yu Liu,  
 M. Loipersberger,  A. Luenser,  A. Manjanath,  P. Manohar,  E. Mansoor,  
 S. F. Manzer,  Shan-Ping Mao,  A. V. Marenich,  T. Markovich,  S. Mason,  
 S. A. Maurer,  P. F. McLaughlin,  M. F. S. J. Menger,  J.-M. Mewes,  
 S. A. Mewes,  P. Morgante,  J. W. Mullinax,  T. S. Nguyen-Beck,  
 K. J. Oosterbaan,  G. Paran,  Alexander C. Paul,  Suranjan K. Paul,  
 F. Pavosevic,  Zheng Pei,  S. Prager,  E. I. Proynov,  E. Ramos,  B. Rana,  
 A. E. Rask,  A. Rettig,  R. M. Richard,  F. Rob,  E. Rossomme,  T. Scheele,  
 M. Scheurer,  M. Schneider,  N. Sergueev,  S. M. Sharada,  W. Skomorowski,  
 D. W. Small,  C. J. Stein,  Yu-Chuan Su,  E. J. Sundstrom,  Zhen Tao,  
 J. Thirman,  T. Tsuchimochi,  N. M. Tubman,  S. P. Veccham,  O. Vydrov,  
 J. Wenzel,  J. Witte,  A. Yamada,  Kun Yao,  S. Yeganeh,  S. R. Yost,  
 A. Zech,  Igor Ying Zhang,  Xing Zhang,  Yu Zhang,  D. Zuev,  
 A. Aspuru-Guzik,  A. T. Bell,  N. A. Besley,  K. B. Bravaya,  B. R. Brooks,  
 D. Casanova,  Jeng-Da Chai,  S. Coriani,  C. J. Cramer,  
 A. E. DePrince, III,  R. A. DiStasio Jr.,  A. Dreuw,  B. D. Dunietz,  
 T. R. Furlani,  W. A. Goddard III,  S. Grimme,  S. Hammes-Schiffer,  
 T. Head-Gordon,  W. J. Hehre,  Chao-Ping Hsu,  T.-C. Jagau,  Yousung Jung,  
 A. Klamt,  Jing Kong,  D. S. Lambrecht,  WanZhen Liang,  N. J. Mayhall,  
 C. W. McCurdy,  J. B. Neaton,  C. Ochsenfeld,  J. A. Parkhill,  R. Peverati,  
 V. A. Rassolov,  Yihan Shao,  L. V. Slipchenko,  T. Stauch,  R. P. Steele,  
 J. E. Subotnik,  A. J. W. Thom,  A. Tkatchenko,  D. G. Truhlar,  
 T. Van Voorhis,  T. A. Wesolowski,  K. B. Whaley,  H. L. Woodcock III,  
 P. M. Zimmerman,  S. Faraji,  P. M. W. Gill,  M. Head-Gordon,  
 J. M. Herbert,  A. I. Krylov

 Contributors to earlier versions of Q-Chem not listed above: 
 R. D. Adamson,  B. Austin,  R. Baer,  J. Baker,  G. J. O. Beran,  
 K. Brandhorst,  S. T. Brown,  E. F. C. Byrd,  A. K. Chakraborty,  
 G. K. L. Chan,  Chun-Min Chang,  Yunqing Chen,  C.-L. Cheng,  
 Siu Hung Chien,  D. M. Chipman,  D. L. Crittenden,  H. Dachsel,  
 R. J. Doerksen,  A. D. Dutoi,  R. G. Edgar,  J. Fosso-Tande,  
 L. Fusti-Molnar,  D. Ghosh,  A. Ghysels,  A. Golubeva-Zadorozhnaya,  
 J. Gonthier,  M. S. Gordon,  S. R. Gwaltney,  G. Hawkins,  J. E. Herr,  
 A. Heyden,  S. Hirata,  E. G. Hohenstein,  G. Kedziora,  F. J. Keil,  
 C. Kelley,  Jihan Kim,  R. A. King,  R. Z. Khaliullin,  P. P. Korambath,  
 W. Kurlancheek,  A. Laurent,  A. M. Lee,  M. S. Lee,  S. V. Levchenko,  
 Ching Yeh Lin,  D. Liotard,  E. Livshits,  R. C. Lochan,  I. Lotan,  
 L. A. Martinez-Martinez,  P. E. Maslen,  N. Nair,  D. P. O'Neill,  
 D. Neuhauser,  E. Neuscamman,  C. M. Oana,  R. Olivares-Amaya,  R. Olson,  
 T. M. Perrine,  B. Peters,  P. A. Pieniazek,  A. Prociuk,  Y. M. Rhee,  
 J. Ritchie,  M. A. Rohrdanz,  E. Rosta,  N. J. Russ,  H. F. Schaefer III,  
 M. W. Schmidt,  N. E. Schultz,  S. Sharma,  N. Shenvi,  C. D. Sherrill,  
 A. C. Simmonett,  A. Sodt,  T. Stein,  D. Stuck,  K. S. Thanthiriwatte,  
 V. Vanovschi,  L. Vogt,  Tao Wang,  A. Warshel,  M. A. Watson,  
 C. F. Williams,  Q. Wu,  X. Xu,  Jun Yang,  W. Zhang,  Yan Zhao

 Please cite Q-Chem as follows:
 Y. Shao et al., Mol. Phys. 113, 184-215 (2015)
 DOI: 10.1080/00268976.2014.952696

 Q-Chem 5.4.0 for Intel X86 EM64T Linux

 Parts of Q-Chem use Armadillo 9.800.1 (Horizon Scraper).
 http://arma.sourceforge.net/

 Q-Chem begins on Sun Jul 10 02:27:40 2022  

 Host: 
0

     Scratch files written to ./qchem1689538//
 May1621 |scratch|qcdevops|jenkins|workspace|build_RNUM    
 Processing $rem in /cm/shared/apps/spack/cpu/opt/spack/linux-centos8-zen2/gcc-10.2.0/qchem-5.4-akfmr7b3t57bfs6qan3padb2wnb2i7cl/config/preferences:
 Processing $rem in /home/theleonzhang/.qchemrc:
 Symmetry turned off for PCM/SM12/SMD calculation
 Core orbitals will be frozen

 Checking the input file for inconsistencies... 	...done.

--------------------------------------------------------------
User input:
--------------------------------------------------------------
$molecule
0 1
C	0.135301	-3.866725	-0.763228
C	-0.106073	-3.703963	0.603311
C	-0.185286	-2.357056	1.050423
H	-0.225783	-4.561092	1.283188
C	-0.000000	-1.440664	-0.000000
S	0.268187	-2.286957	-1.521021
C	-0.438209	-1.978743	2.483507
H	-0.550153	-2.878678	3.118798
H	-1.363906	-1.376015	2.593381
H	0.393798	-1.375728	2.903516
C	0.000000	0.000000	0.000000
C	0.149995	0.850475	1.099446
C	0.390327	2.213354	0.776721
H	0.085947	0.487279	2.136088
C	0.428665	2.430655	-0.612546
S	0.163670	0.928078	-1.486809
C	0.579235	3.284574	1.814609
H	0.505323	2.865404	2.836676
H	-0.185980	4.083890	1.726239
H	1.571698	3.773937	1.726228
H	0.593515	3.365448	-1.161575
H	-0.688674	-4.392713	-1.258111
H	1.079084	-4.392347	-0.946272
H	-1.063572	-1.440937	-0.187654
$end

$rem
JOBTYPE		SP
EXCHANGE	HF
CORRELATION	pRIMP2
BASIS		cc-pvtz
METHOD		rimp2
AUX_BASIS	rimp2-cc-pvtz
SOLVENT_METHOD	PCM
PURECART	11111
SYMMETRY	false
MEM_TOTAL	110000
SCF_CONVERGENCE = 6
THRESH=10
$end



$solvent
dielectric 4.90
$end
--------------------------------------------------------------
 ----------------------------------------------------------------
             Standard Nuclear Orientation (Angstroms)
    I     Atom           X                Y                Z
 ----------------------------------------------------------------
    1      C       0.1353010000    -3.8667250000    -0.7632280000
    2      C      -0.1060730000    -3.7039630000     0.6033110000
    3      C      -0.1852860000    -2.3570560000     1.0504230000
    4      H      -0.2257830000    -4.5610920000     1.2831880000
    5      C       0.0000000000    -1.4406640000     0.0000000000
    6      S       0.2681870000    -2.2869570000    -1.5210210000
    7      C      -0.4382090000    -1.9787430000     2.4835070000
    8      H      -0.5501530000    -2.8786780000     3.1187980000
    9      H      -1.3639060000    -1.3760150000     2.5933810000
   10      H       0.3937980000    -1.3757280000     2.9035160000
   11      C       0.0000000000     0.0000000000     0.0000000000
   12      C       0.1499950000     0.8504750000     1.0994460000
   13      C       0.3903270000     2.2133540000     0.7767210000
   14      H       0.0859470000     0.4872790000     2.1360880000
   15      C       0.4286650000     2.4306550000    -0.6125460000
   16      S       0.1636700000     0.9280780000    -1.4868090000
   17      C       0.5792350000     3.2845740000     1.8146090000
   18      H       0.5053230000     2.8654040000     2.8366760000
   19      H      -0.1859800000     4.0838900000     1.7262390000
   20      H       1.5716980000     3.7739370000     1.7262280000
   21      H       0.5935150000     3.3654480000    -1.1615750000
   22      H      -0.6886740000    -4.3927130000    -1.2581110000
   23      H       1.0790840000    -4.3923470000    -0.9462720000
   24      H      -1.0635720000    -1.4409370000    -0.1876540000
 ----------------------------------------------------------------
 Nuclear Repulsion Energy =         876.51286192 hartrees
 There are       52 alpha and       52 beta electrons

 Q-Chem warning in module forms1/BasisType.C, line 2236:

 You are not using the predefined 5D/6D in this basis set.

 Requested basis set is cc-pVTZ
 There are 196 shells and 536 basis functions

 Total QAlloc Memory Limit 110000 MB
 Mega-Array Size       188 MB
 MEM_STATIC part       192 MB
 Discretize the solute cavity surface with Lebedev spheres
	Using 110 Lebedev grid points for each H atom
	Using 194 Lebedev grid points for other atoms
	Atomic van der Waals radii will be scaled by 1.20
 Remove points where switching function is < 1.0e-08
 Keep 1587 surface tesserae and discard 2061 interior tesserae
 Molecular Surface Area = 231.079 Angst**2
 Requested basis set is rimp2-cc-pVTZ
 There are 414 shells and 1414 basis functions
 A cutoff of  1.0D-10 yielded  14028 shell pairs
 There are    101562 function pairs (    130125 Cartesian)
 Smallest overlap matrix eigenvalue = 5.30E-05

 Scale SEOQF with 1.000000e-01/1.000000e-01/1.000000e-01

 Standard Electronic Orientation quadrupole field applied
 Nucleus-field energy     =     0.0000000214 hartrees
 Guess from superposition of atomic densities
 Warning:  Energy on first SCF cycle will be non-variational
 SAD guess density has 104.000000 electrons

 -----------------------------------------------------------------------
  General SCF calculation program by
  Eric Jon Sundstrom, Paul Horn, Yuezhi Mao, Dmitri Zuev, Alec White,
  David Stuck, Shaama M.S., Shane Yost, Joonho Lee, David Small,
  Daniel Levine, Susi Lehtola, Hugh Burton, Evgeny Epifanovsky,
  Bang C. Huynh
 -----------------------------------------------------------------------
 Hartree-Fock
 A restricted SCF calculation will be
 performed using DIIS
 SCF converges when DIIS error is below 1.0e-06
 ---------------------------------------
  Cycle       Energy         DIIS error
 ---------------------------------------
    1   -1186.0568251641      2.39e-02  
    2   -1180.6043754447      1.59e-03  
    3   -1180.7313096323      6.65e-04  
    4   -1180.7478037976      3.47e-04  
    5   -1180.7534589524      5.99e-05  
    6   -1180.7537141342      2.51e-05  
    7   -1180.7537754233      8.95e-06  
    8   -1180.7537887023      4.32e-06  
    9   -1180.7537916412      1.44e-06  
   10   -1180.7537920804      5.13e-07  Convergence criterion met
 ---------------------------------------
 SCF time:   CPU 580.67s  wall 584.00s 

************** Final PCM Free Energy Summary **************
 G_electrostatic  =      -0.00960617 hartree =      -6.02796179 kcal/mol
 G_cavitation     =       0.00000000 hartree =       0.00000000 kcal/mol
 G_dispersion     =       0.00000000 hartree =       0.00000000 kcal/mol
 G_repulsion      =       0.00000000 hartree =       0.00000000 kcal/mol
 --------------------------------------------------
 Non-electrostatic Free Energy =       0.00000000 hartree =       0.00000000 kcal/mol
 Total                         =      -0.00960617 hartree =      -6.02796179 kcal/mol
 --------------------------------------------------
 SCF Energy (H0 + V/2)                       =   -1180.75379208 
 Solute Internal Energy (H0)                 =   -1180.74418591 
 Total Free Energy (H0 + V/2 + non-elec)     =   -1180.75379208 hartree
                                             = -740934.18744961 kcal/mol
***********************************************************

 SCF   energy in the final basis set =    -1180.7537920804
 Total energy in the final basis set =    -1180.7537920804


 --------------------------------------------------------------
  Generalized many-body perturbation theory program
  by Joonho Lee, Fazle Rob, Xintian Feng, Evgeny Epifanovsky

 No regularization used 
 (reg. param. = 0.0000e+00)
  (P|Q)^-1/2 Time:  CPU 1.90 s  wall 1.90 s

 In RI-MP2 calculation: 
 # of frozen core orbitals: 20

 Components of the RIMP2 correlation energy:
        aaaa    correlation energy =        -0.2515457666 a.u.
        abab    correlation energy =        -1.5032160253 a.u.
        bbbb    correlation energy =        -0.2515457666 a.u.
        non-Brillouin singles      =        -0.0000000000 a.u.
        total same-spin energy     =        -0.5030915332 a.u.
        total opposite-spin energy =        -1.5032160253 a.u.

 Total  RIMP2   correlation energy =        -2.0063075586 a.u.
        RIMP2         total energy =     -1182.7600996389 a.u.

 RI-MP2 Energy Time:  CPU 80.48 s  wall 80.78 s
 
 --------------------------------------------------------------
 
                    Orbital Energies (a.u.)
 --------------------------------------------------------------
 
 Alpha MOs
 -- Occupied --
-91.9839 -91.9465 -11.2892 -11.2667 -11.2612 -11.2541 -11.2497 -11.2446
-11.2344 -11.2288 -11.2279 -11.2237  -8.9836  -8.9512  -6.6645  -6.6640
 -6.6633  -6.6326  -6.6316  -6.6303  -1.2025  -1.1523  -1.0605  -1.0324
 -1.0009  -0.9621  -0.9165  -0.8994  -0.8185  -0.7633  -0.7303  -0.7053
 -0.6565  -0.6476  -0.6101  -0.5945  -0.5848  -0.5684  -0.5631  -0.5505
 -0.5467  -0.5356  -0.5232  -0.5017  -0.4868  -0.4810  -0.4700  -0.4434
 -0.3611  -0.3436  -0.3241  -0.2638
 -- Virtual --
  0.1042   0.1319   0.1395   0.1473   0.1569   0.1706   0.1773   0.1853
  0.1881   0.2029   0.2088   0.2167   0.2179   0.2309   0.2375   0.2418
  0.2606   0.2743   0.2875   0.3072   0.3138   0.3223   0.3551   0.3650
  0.3674   0.3802   0.3855   0.3929   0.4027   0.4069   0.4149   0.4218
  0.4344   0.4568   0.4648   0.4716   0.4743   0.4812   0.4858   0.4951
  0.5065   0.5167   0.5285   0.5341   0.5345   0.5471   0.5524   0.5658
  0.5720   0.5844   0.5876   0.5974   0.6015   0.6091   0.6143   0.6229
  0.6255   0.6310   0.6318   0.6359   0.6396   0.6496   0.6563   0.6593
  0.6706   0.6762   0.6783   0.6945   0.6958   0.7174   0.7228   0.7276
  0.7442   0.7569   0.7644   0.7709   0.7891   0.7971   0.8034   0.8233
  0.8386   0.8450   0.8536   0.8766   0.8847   0.8965   0.9008   0.9157
  0.9410   0.9471   0.9505   0.9649   0.9753   0.9896   1.0038   1.0078
  1.0242   1.0352   1.0445   1.0474   1.0540   1.0616   1.0754   1.0785
  1.0852   1.0929   1.1068   1.1297   1.1419   1.1484   1.1606   1.1734
  1.1833   1.1878   1.2034   1.2059   1.2139   1.2220   1.2301   1.2389
  1.2450   1.2586   1.2682   1.2711   1.2805   1.2904   1.2980   1.3149
  1.3243   1.3279   1.3418   1.3665   1.3708   1.3752   1.4135   1.4168
  1.4309   1.4366   1.4440   1.4667   1.4774   1.4822   1.4887   1.4974
  1.5094   1.5211   1.5251   1.5330   1.5406   1.5415   1.5507   1.5620
  1.5669   1.5984   1.6026   1.6076   1.6160   1.6261   1.6374   1.6480
  1.6580   1.6725   1.6750   1.6977   1.7017   1.7195   1.7243   1.7312
  1.7541   1.7610   1.7678   1.8042   1.8241   1.8358   1.8571   1.8685
  1.8884   1.8958   1.9060   1.9317   1.9514   1.9610   1.9882   2.0000
  2.0174   2.0400   2.0586   2.0722   2.0909   2.1133   2.1356   2.1675
  2.1885   2.1989   2.2031   2.2194   2.2314   2.2576   2.2733   2.2795
  2.2930   2.2988   2.3263   2.3904   2.4151   2.4493   2.4619   2.4702
  2.5015   2.5166   2.5248   2.5434   2.5641   2.5885   2.5925   2.6021
  2.6393   2.6530   2.6562   2.6736   2.6782   2.7035   2.7164   2.7364
  2.7507   2.7574   2.7700   2.7773   2.7954   2.7972   2.8012   2.8127
  2.8227   2.8525   2.8539   2.8683   2.8901   2.8964   2.9150   2.9336
  2.9441   2.9650   2.9745   2.9892   3.0036   3.0286   3.0386   3.0541
  3.0747   3.0829   3.0930   3.0981   3.1106   3.1147   3.1263   3.1374
  3.1411   3.1589   3.1645   3.1720   3.1810   3.1948   3.2001   3.2149
  3.2224   3.2382   3.2457   3.2628   3.2761   3.2811   3.2978   3.3073
  3.3144   3.3290   3.3356   3.3392   3.3523   3.3612   3.3631   3.3705
  3.3759   3.3835   3.3919   3.3961   3.4087   3.4159   3.4254   3.4353
  3.4402   3.4495   3.4566   3.4593   3.4811   3.4862   3.4952   3.5068
  3.5126   3.5288   3.5317   3.5374   3.5520   3.5594   3.5675   3.5786
  3.5948   3.6030   3.6043   3.6159   3.6275   3.6341   3.6542   3.6600
  3.6714   3.6852   3.6923   3.7042   3.7102   3.7233   3.7333   3.7388
  3.7473   3.7596   3.7687   3.7732   3.7877   3.7915   3.7999   3.8156
  3.8231   3.8387   3.8646   3.8668   3.8744   3.8875   3.8917   3.9138
  3.9215   3.9461   3.9613   3.9684   3.9855   3.9955   4.0166   4.0290
  4.0342   4.0458   4.0563   4.0616   4.0731   4.0790   4.0944   4.0986
  4.1252   4.1418   4.1530   4.1593   4.1624   4.1738   4.1814   4.2008
  4.2144   4.2241   4.2285   4.2432   4.2504   4.2690   4.2705   4.2928
  4.3054   4.3150   4.3278   4.3359   4.3477   4.3575   4.3627   4.3705
  4.3761   4.3940   4.4021   4.4190   4.4258   4.4384   4.4433   4.4540
  4.4616   4.4696   4.4880   4.4956   4.5042   4.5143   4.5451   4.5909
  4.5992   4.6040   4.6192   4.6222   4.6456   4.6486   4.6543   4.6878
  4.6998   4.7381   4.7770   4.7824   4.7908   4.8068   4.8228   4.8537
  4.8597   4.8711   4.8863   4.9192   4.9310   4.9583   4.9924   5.0030
  5.0494   5.0637   5.0965   5.1111   5.1175   5.1282   5.1655   5.2019
  5.2172   5.2364   5.2551   5.2691   5.2952   5.3019   5.3098   5.3302
  5.3556   5.3695   5.3773   5.4031   5.4109   5.4222   5.4376   5.4436
  5.4718   5.5247   5.5316   5.5413   5.5518   5.5644   5.5761   5.6004
  5.6177   5.6235   5.6272   5.6569   5.6893   5.7048   5.7132   5.7376
  5.7723   5.8115   5.8438   5.9780   6.0289   6.0929   6.1362   6.1789
  6.2108   6.2276   6.2405   6.2606   6.2693   6.2897   6.3275   6.4250
  6.4453   6.5777   9.5665  11.0584  12.0387  12.9618  13.1903  13.9690
 14.1185  14.2126  14.3885  15.0831
 --------------------------------------------------------------
 
          Ground-State Mulliken Net Atomic Charges

     Atom                 Charge (a.u.)
  ----------------------------------------
      1 C                    -0.073174
      2 C                    -0.317074
      3 C                    -0.041599
      4 H                     0.179187
      5 C                     0.133999
      6 S                    -0.178007
      7 C                    -0.304559
      8 H                     0.122719
      9 H                     0.111408
     10 H                     0.106311
     11 C                    -0.069335
     12 C                    -0.266350
     13 C                     0.033437
     14 H                     0.190513
     15 C                    -0.278198
     16 S                     0.002064
     17 C                    -0.273053
     18 H                     0.100341
     19 H                     0.108368
     20 H                     0.108644
     21 H                     0.197265
     22 H                     0.111411
     23 H                     0.114634
     24 H                     0.181051
  ----------------------------------------
  Sum of atomic charges =     0.000000

 -----------------------------------------------------------------
                    Cartesian Multipole Moments
 -----------------------------------------------------------------
    Charge (ESU x 10^10)
                -0.0000
    Dipole Moment (Debye)
         X      -1.0471      Y      -0.4806      Z       3.5586
       Tot       3.7405
    Quadrupole Moments (Debye-Ang)
        XX     -91.5894     XY       3.7303     YY     -72.9989
        XZ       0.3370     YZ      -2.0428     ZZ     -85.5925
    Octopole Moments (Debye-Ang^2)
       XXX     -36.6738    XXY      46.0743    XYY      -7.5261
       YYY     114.5336    XXZ      -2.8035    XYZ       0.0933
       YYZ      -4.9159    XZZ     -12.3315    YZZ      49.4931
       ZZZ       7.9935
    Hexadecapole Moments (Debye-Ang^3)
      XXXX    -185.2264   XXXY     -89.0489   XXYY    -553.3383
      XYYY     -63.8511   YYYY   -2736.3853   XXXZ      35.6571
      XXYZ     -29.0777   XYYZ       3.9833   YYYZ    -102.1990
      XXZZ    -223.4647   XYZZ     -16.6651   YYZZ    -650.9354
      XZZZ      29.5876   YZZZ    -129.8806   ZZZZ   -1080.3036
 -----------------------------------------------------------------
 Total job time:  669.53s(wall), 662.07s(cpu) 
 Sun Jul 10 02:38:50 2022

        *************************************************************
        *                                                           *
        *  Thank you very much for using Q-Chem.  Have a nice day.  *
        *                                                           *
        *************************************************************


remove work dirs ./qchem1689538.0 -- ./qchem1689538.-1
rm -rf ./qchem1689538
You are running Q-Chem version: 5.4.0

#
# job setting
#
local host:  exp-1-04
current dir: /expanse/lustre/scratch/theleonzhang/temp_project/Hydrogenated_Rotation_Test
input file:  Methylthiophene_Phi_10_Theta_190_Methylthiophene_Hydrogenated.qcin
output file: 
nprocs     : 0
nthreads   : 1
#
# qchem installation setting
#
QC:          /cm/shared/apps/spack/cpu/opt/spack/linux-centos8-zen2/gcc-10.2.0/qchem-5.4-akfmr7b3t57bfs6qan3padb2wnb2i7cl
QCAUX:       /cm/shared/apps/spack/cpu/opt/spack/linux-centos8-zen2/gcc-10.2.0/qchem-5.4-akfmr7b3t57bfs6qan3padb2wnb2i7cl/qcaux
QCPROG:      /cm/shared/apps/spack/cpu/opt/spack/linux-centos8-zen2/gcc-10.2.0/qchem-5.4-akfmr7b3t57bfs6qan3padb2wnb2i7cl/exe/qcprog.exe_s
QCPROG_S:    /cm/shared/apps/spack/cpu/opt/spack/linux-centos8-zen2/gcc-10.2.0/qchem-5.4-akfmr7b3t57bfs6qan3padb2wnb2i7cl/exe/qcprog.exe_s
PARALLEL:    -DSERIAL
QCMPI:       mpich
#
# qchem directory setting
#
qcrun:       qchem1231426
QCSCRATCH:   .
QCLOCALSCR:  
QCTMPDIR:    .
QCFILEPREF:  ./qchem1231426
QCSAVEDIR:   
workdirs:    ./qchem1231426
workdir0:    ./qchem1231426
partmpdirs =  
#
# parallel setting
#
QCRSH:           ssh
QCMPI:           mpich
QCMPIRUN:        /cm/shared/apps/spack/cpu/opt/spack/linux-centos8-zen2/gcc-10.2.0/qchem-5.4-akfmr7b3t57bfs6qan3padb2wnb2i7cl/bin/mpi/mpirun_qchem
QCMACHINEFILE:   ./qchem1231426/hostfile

#
# env setting
#
exported envs:   QC QCAUX QCSCRATCH QCRUNNAME QCFILEPREF QCPROG QCPROG_S GUIFILE

Running Job 1 of 1 Methylthiophene_Phi_10_Theta_190_Methylthiophene_Hydrogenated.qcin
qchem Methylthiophene_Phi_10_Theta_190_Methylthiophene_Hydrogenated.qcin_1231426.0 ./qchem1231426/ 0
/cm/shared/apps/spack/cpu/opt/spack/linux-centos8-zen2/gcc-10.2.0/qchem-5.4-akfmr7b3t57bfs6qan3padb2wnb2i7cl/exe/qcprog.exe_s Methylthiophene_Phi_10_Theta_190_Methylthiophene_Hydrogenated.qcin_1231426.0 ./qchem1231426/
                  Welcome to Q-Chem
     A Quantum Leap Into The Future Of Chemistry


 Q-Chem 5.4, Q-Chem, Inc., Pleasanton, CA (2021)

 License issued to: University of California, San Diego (site)

 E. Epifanovsky,  A. T. B. Gilbert,  Xintian Feng,  Joonho Lee,  Yuezhi Mao,  
 N. Mardirossian,  P. Pokhilko,  A. White,  M. Wormit,  M. P. Coons,  
 A. L. Dempwolff,  Zhengting Gan,  D. Hait,  P. R. Horn,  L. D. Jacobson,  
 I. Kaliman,  J. Kussmann,  A. W. Lange,  Ka Un Lao,  D. S. Levine,  Jie Liu,  
 S. C. McKenzie,  A. F. Morrison,  K. Nanda,  F. Plasser,  D. R. Rehn,  
 M. L. Vidal,  Zhi-Qiang You,  Ying Zhu,  B. Alam,  B. Albrecht,  
 A. Aldossary,  E. Alguire,  J. H. Andersen,  D. Barton,  K. Begam,  A. Behn,  
 Y. A. Bernard,  E. J. Berquist,  H. Burton,  A. Carreras,  K. Carter-Fenk,  
 R. Chakraborty,  A. D. Chien,  K. D. Closser,  V. Cofer-Shabica,  
 S. Dasgupta,  Jia Deng,  M. de Wergifosse,  M. Diedenhofen,  Hainam Do,  
 S. Ehlert,  Po-Tung Fang,  S. Fatehi,  Qingguo Feng,  J. Gayvert,  
 Qinghui Ge,  G. Gidofalvi,  M. Goldey,  J. Gomes,  C. Gonzalez-Espinoza,  
 S. Gulania,  A. Gunina,  M. W. D. Hanson-Heine,  P. H. P. Harbach,  
 A. W. Hauser,  M. F. Herbst,  M. Hernandez Vera,  M. Hodecker,  
 Z. C. Holden,  S. Houck,  Xunkun Huang,  Kerwin Hui,  B. C. Huynh,  
 M. Ivanov,  Hyunjun Ji,  Hanjie Jiang,  B. Kaduk,  S. Kaehler,  
 K. Khistyaev,  Jaehoon Kim,  P. Klunzinger,  Z. Koczor-Benda,  
 Joong Hoon Koh,  D. Kosenkov,  L. Koulias,  T. Kowalczyk,  C. M. Krauter,  
 K. Kue,  A. Kunitsa,  T. Kus,  A. Landau,  K. V. Lawler,  D. Lefrancois,  
 S. Lehtola,  Rain Li,  Yi-Pei Li,  Jiashu Liang,  M. Liebenthal,  
 Hung-Hsuan Lin,  You-Sheng Lin,  Fenglai Liu,  Kuan-Yu Liu,  
 M. Loipersberger,  A. Luenser,  A. Manjanath,  P. Manohar,  E. Mansoor,  
 S. F. Manzer,  Shan-Ping Mao,  A. V. Marenich,  T. Markovich,  S. Mason,  
 S. A. Maurer,  P. F. McLaughlin,  M. F. S. J. Menger,  J.-M. Mewes,  
 S. A. Mewes,  P. Morgante,  J. W. Mullinax,  T. S. Nguyen-Beck,  
 K. J. Oosterbaan,  G. Paran,  Alexander C. Paul,  Suranjan K. Paul,  
 F. Pavosevic,  Zheng Pei,  S. Prager,  E. I. Proynov,  E. Ramos,  B. Rana,  
 A. E. Rask,  A. Rettig,  R. M. Richard,  F. Rob,  E. Rossomme,  T. Scheele,  
 M. Scheurer,  M. Schneider,  N. Sergueev,  S. M. Sharada,  W. Skomorowski,  
 D. W. Small,  C. J. Stein,  Yu-Chuan Su,  E. J. Sundstrom,  Zhen Tao,  
 J. Thirman,  T. Tsuchimochi,  N. M. Tubman,  S. P. Veccham,  O. Vydrov,  
 J. Wenzel,  J. Witte,  A. Yamada,  Kun Yao,  S. Yeganeh,  S. R. Yost,  
 A. Zech,  Igor Ying Zhang,  Xing Zhang,  Yu Zhang,  D. Zuev,  
 A. Aspuru-Guzik,  A. T. Bell,  N. A. Besley,  K. B. Bravaya,  B. R. Brooks,  
 D. Casanova,  Jeng-Da Chai,  S. Coriani,  C. J. Cramer,  
 A. E. DePrince, III,  R. A. DiStasio Jr.,  A. Dreuw,  B. D. Dunietz,  
 T. R. Furlani,  W. A. Goddard III,  S. Grimme,  S. Hammes-Schiffer,  
 T. Head-Gordon,  W. J. Hehre,  Chao-Ping Hsu,  T.-C. Jagau,  Yousung Jung,  
 A. Klamt,  Jing Kong,  D. S. Lambrecht,  WanZhen Liang,  N. J. Mayhall,  
 C. W. McCurdy,  J. B. Neaton,  C. Ochsenfeld,  J. A. Parkhill,  R. Peverati,  
 V. A. Rassolov,  Yihan Shao,  L. V. Slipchenko,  T. Stauch,  R. P. Steele,  
 J. E. Subotnik,  A. J. W. Thom,  A. Tkatchenko,  D. G. Truhlar,  
 T. Van Voorhis,  T. A. Wesolowski,  K. B. Whaley,  H. L. Woodcock III,  
 P. M. Zimmerman,  S. Faraji,  P. M. W. Gill,  M. Head-Gordon,  
 J. M. Herbert,  A. I. Krylov

 Contributors to earlier versions of Q-Chem not listed above: 
 R. D. Adamson,  B. Austin,  R. Baer,  J. Baker,  G. J. O. Beran,  
 K. Brandhorst,  S. T. Brown,  E. F. C. Byrd,  A. K. Chakraborty,  
 G. K. L. Chan,  Chun-Min Chang,  Yunqing Chen,  C.-L. Cheng,  
 Siu Hung Chien,  D. M. Chipman,  D. L. Crittenden,  H. Dachsel,  
 R. J. Doerksen,  A. D. Dutoi,  R. G. Edgar,  J. Fosso-Tande,  
 L. Fusti-Molnar,  D. Ghosh,  A. Ghysels,  A. Golubeva-Zadorozhnaya,  
 J. Gonthier,  M. S. Gordon,  S. R. Gwaltney,  G. Hawkins,  J. E. Herr,  
 A. Heyden,  S. Hirata,  E. G. Hohenstein,  G. Kedziora,  F. J. Keil,  
 C. Kelley,  Jihan Kim,  R. A. King,  R. Z. Khaliullin,  P. P. Korambath,  
 W. Kurlancheek,  A. Laurent,  A. M. Lee,  M. S. Lee,  S. V. Levchenko,  
 Ching Yeh Lin,  D. Liotard,  E. Livshits,  R. C. Lochan,  I. Lotan,  
 L. A. Martinez-Martinez,  P. E. Maslen,  N. Nair,  D. P. O'Neill,  
 D. Neuhauser,  E. Neuscamman,  C. M. Oana,  R. Olivares-Amaya,  R. Olson,  
 T. M. Perrine,  B. Peters,  P. A. Pieniazek,  A. Prociuk,  Y. M. Rhee,  
 J. Ritchie,  M. A. Rohrdanz,  E. Rosta,  N. J. Russ,  H. F. Schaefer III,  
 M. W. Schmidt,  N. E. Schultz,  S. Sharma,  N. Shenvi,  C. D. Sherrill,  
 A. C. Simmonett,  A. Sodt,  T. Stein,  D. Stuck,  K. S. Thanthiriwatte,  
 V. Vanovschi,  L. Vogt,  Tao Wang,  A. Warshel,  M. A. Watson,  
 C. F. Williams,  Q. Wu,  X. Xu,  Jun Yang,  W. Zhang,  Yan Zhao

 Please cite Q-Chem as follows:
 Y. Shao et al., Mol. Phys. 113, 184-215 (2015)
 DOI: 10.1080/00268976.2014.952696

 Q-Chem 5.4.0 for Intel X86 EM64T Linux

 Parts of Q-Chem use Armadillo 9.800.1 (Horizon Scraper).
 http://arma.sourceforge.net/

 Q-Chem begins on Sun Jul 10 03:02:34 2022  

 Host: 
0

     Scratch files written to ./qchem1231426//
 May1621 |scratch|qcdevops|jenkins|workspace|build_RNUM    
 Processing $rem in /cm/shared/apps/spack/cpu/opt/spack/linux-centos8-zen2/gcc-10.2.0/qchem-5.4-akfmr7b3t57bfs6qan3padb2wnb2i7cl/config/preferences:
 Processing $rem in /home/theleonzhang/.qchemrc:
 Symmetry turned off for PCM/SM12/SMD calculation
 Core orbitals will be frozen

 Checking the input file for inconsistencies... 	...done.

--------------------------------------------------------------
User input:
--------------------------------------------------------------
$molecule
0 1
C	0.135301	-3.866725	-0.763228
C	-0.106073	-3.703963	0.603311
C	-0.185286	-2.357056	1.050423
H	-0.225783	-4.561092	1.283188
C	-0.000000	-1.440664	-0.000000
S	0.268187	-2.286957	-1.521021
C	-0.438209	-1.978743	2.483507
H	-0.550153	-2.878678	3.118798
H	-1.363906	-1.376015	2.593381
H	0.393798	-1.375728	2.903516
C	0.000000	0.000000	0.000000
C	0.149995	0.850475	1.099446
C	0.390327	2.213354	0.776721
H	0.085947	0.487279	2.136088
C	0.428665	2.430655	-0.612546
S	0.163670	0.928078	-1.486809
C	0.579235	3.284574	1.814609
H	0.505323	2.865404	2.836676
H	-0.185980	4.083890	1.726239
H	1.571698	3.773937	1.726228
H	0.593515	3.365448	-1.161575
H	-0.688674	-4.392713	-1.258111
H	1.079084	-4.392347	-0.946272
H	-1.063572	-1.440937	-0.187654
$end

$rem
JOBTYPE		SP
EXCHANGE	HF
CORRELATION	pRIMP2
BASIS		cc-pvtz
METHOD		rimp2
AUX_BASIS	rimp2-cc-pvtz
SOLVENT_METHOD	PCM
PURECART	11111
SYMMETRY	false
MEM_TOTAL	110000
SCF_CONVERGENCE = 6
THRESH=10
$end



$solvent
dielectric 4.90
$end
--------------------------------------------------------------
 ----------------------------------------------------------------
             Standard Nuclear Orientation (Angstroms)
    I     Atom           X                Y                Z
 ----------------------------------------------------------------
    1      C       0.1353010000    -3.8667250000    -0.7632280000
    2      C      -0.1060730000    -3.7039630000     0.6033110000
    3      C      -0.1852860000    -2.3570560000     1.0504230000
    4      H      -0.2257830000    -4.5610920000     1.2831880000
    5      C       0.0000000000    -1.4406640000     0.0000000000
    6      S       0.2681870000    -2.2869570000    -1.5210210000
    7      C      -0.4382090000    -1.9787430000     2.4835070000
    8      H      -0.5501530000    -2.8786780000     3.1187980000
    9      H      -1.3639060000    -1.3760150000     2.5933810000
   10      H       0.3937980000    -1.3757280000     2.9035160000
   11      C       0.0000000000     0.0000000000     0.0000000000
   12      C       0.1499950000     0.8504750000     1.0994460000
   13      C       0.3903270000     2.2133540000     0.7767210000
   14      H       0.0859470000     0.4872790000     2.1360880000
   15      C       0.4286650000     2.4306550000    -0.6125460000
   16      S       0.1636700000     0.9280780000    -1.4868090000
   17      C       0.5792350000     3.2845740000     1.8146090000
   18      H       0.5053230000     2.8654040000     2.8366760000
   19      H      -0.1859800000     4.0838900000     1.7262390000
   20      H       1.5716980000     3.7739370000     1.7262280000
   21      H       0.5935150000     3.3654480000    -1.1615750000
   22      H      -0.6886740000    -4.3927130000    -1.2581110000
   23      H       1.0790840000    -4.3923470000    -0.9462720000
   24      H      -1.0635720000    -1.4409370000    -0.1876540000
 ----------------------------------------------------------------
 Nuclear Repulsion Energy =         876.51286192 hartrees
 There are       52 alpha and       52 beta electrons

 Q-Chem warning in module forms1/BasisType.C, line 2236:

 You are not using the predefined 5D/6D in this basis set.

 Requested basis set is cc-pVTZ
 There are 196 shells and 536 basis functions

 Total QAlloc Memory Limit 110000 MB
 Mega-Array Size       188 MB
 MEM_STATIC part       192 MB
 Discretize the solute cavity surface with Lebedev spheres
	Using 110 Lebedev grid points for each H atom
	Using 194 Lebedev grid points for other atoms
	Atomic van der Waals radii will be scaled by 1.20
 Remove points where switching function is < 1.0e-08
 Keep 1587 surface tesserae and discard 2061 interior tesserae
 Molecular Surface Area = 231.079 Angst**2
 Requested basis set is rimp2-cc-pVTZ
 There are 414 shells and 1414 basis functions
 A cutoff of  1.0D-10 yielded  14028 shell pairs
 There are    101562 function pairs (    130125 Cartesian)
 Smallest overlap matrix eigenvalue = 5.30E-05

 Scale SEOQF with 1.000000e-01/1.000000e-01/1.000000e-01

 Standard Electronic Orientation quadrupole field applied
 Nucleus-field energy     =     0.0000000214 hartrees
 Guess from superposition of atomic densities
 Warning:  Energy on first SCF cycle will be non-variational
 SAD guess density has 104.000000 electrons

 -----------------------------------------------------------------------
  General SCF calculation program by
  Eric Jon Sundstrom, Paul Horn, Yuezhi Mao, Dmitri Zuev, Alec White,
  David Stuck, Shaama M.S., Shane Yost, Joonho Lee, David Small,
  Daniel Levine, Susi Lehtola, Hugh Burton, Evgeny Epifanovsky,
  Bang C. Huynh
 -----------------------------------------------------------------------
 Hartree-Fock
 A restricted SCF calculation will be
 performed using DIIS
 SCF converges when DIIS error is below 1.0e-06
 ---------------------------------------
  Cycle       Energy         DIIS error
 ---------------------------------------
    1   -1186.0568251641      2.39e-02  
    2   -1180.6043754447      1.59e-03  
    3   -1180.7313096323      6.65e-04  
    4   -1180.7478037976      3.47e-04  
    5   -1180.7534589524      5.99e-05  
    6   -1180.7537141342      2.51e-05  
    7   -1180.7537754233      8.95e-06  
    8   -1180.7537887023      4.32e-06  
    9   -1180.7537916412      1.44e-06  
   10   -1180.7537920804      5.13e-07  Convergence criterion met
 ---------------------------------------
 SCF time:   CPU 585.96s  wall 588.00s 

************** Final PCM Free Energy Summary **************
 G_electrostatic  =      -0.00960617 hartree =      -6.02796179 kcal/mol
 G_cavitation     =       0.00000000 hartree =       0.00000000 kcal/mol
 G_dispersion     =       0.00000000 hartree =       0.00000000 kcal/mol
 G_repulsion      =       0.00000000 hartree =       0.00000000 kcal/mol
 --------------------------------------------------
 Non-electrostatic Free Energy =       0.00000000 hartree =       0.00000000 kcal/mol
 Total                         =      -0.00960617 hartree =      -6.02796179 kcal/mol
 --------------------------------------------------
 SCF Energy (H0 + V/2)                       =   -1180.75379208 
 Solute Internal Energy (H0)                 =   -1180.74418591 
 Total Free Energy (H0 + V/2 + non-elec)     =   -1180.75379208 hartree
                                             = -740934.18744961 kcal/mol
***********************************************************

 SCF   energy in the final basis set =    -1180.7537920804
 Total energy in the final basis set =    -1180.7537920804


 --------------------------------------------------------------
  Generalized many-body perturbation theory program
  by Joonho Lee, Fazle Rob, Xintian Feng, Evgeny Epifanovsky

 No regularization used 
 (reg. param. = 0.0000e+00)
  (P|Q)^-1/2 Time:  CPU 1.92 s  wall 1.93 s

 In RI-MP2 calculation: 
 # of frozen core orbitals: 20

 Components of the RIMP2 correlation energy:
        aaaa    correlation energy =        -0.2515457666 a.u.
        abab    correlation energy =        -1.5032160253 a.u.
        bbbb    correlation energy =        -0.2515457666 a.u.
        non-Brillouin singles      =        -0.0000000000 a.u.
        total same-spin energy     =        -0.5030915332 a.u.
        total opposite-spin energy =        -1.5032160253 a.u.

 Total  RIMP2   correlation energy =        -2.0063075586 a.u.
        RIMP2         total energy =     -1182.7600996389 a.u.

 RI-MP2 Energy Time:  CPU 80.59 s  wall 80.94 s
 
 --------------------------------------------------------------
 
                    Orbital Energies (a.u.)
 --------------------------------------------------------------
 
 Alpha MOs
 -- Occupied --
-91.9839 -91.9465 -11.2892 -11.2667 -11.2612 -11.2541 -11.2497 -11.2446
-11.2344 -11.2288 -11.2279 -11.2237  -8.9836  -8.9512  -6.6645  -6.6640
 -6.6633  -6.6326  -6.6316  -6.6303  -1.2025  -1.1523  -1.0605  -1.0324
 -1.0009  -0.9621  -0.9165  -0.8994  -0.8185  -0.7633  -0.7303  -0.7053
 -0.6565  -0.6476  -0.6101  -0.5945  -0.5848  -0.5684  -0.5631  -0.5505
 -0.5467  -0.5356  -0.5232  -0.5017  -0.4868  -0.4810  -0.4700  -0.4434
 -0.3611  -0.3436  -0.3241  -0.2638
 -- Virtual --
  0.1042   0.1319   0.1395   0.1473   0.1569   0.1706   0.1773   0.1853
  0.1881   0.2029   0.2088   0.2167   0.2179   0.2309   0.2375   0.2418
  0.2606   0.2743   0.2875   0.3072   0.3138   0.3223   0.3551   0.3650
  0.3674   0.3802   0.3855   0.3929   0.4027   0.4069   0.4149   0.4218
  0.4344   0.4568   0.4648   0.4716   0.4743   0.4812   0.4858   0.4951
  0.5065   0.5167   0.5285   0.5341   0.5345   0.5471   0.5524   0.5658
  0.5720   0.5844   0.5876   0.5974   0.6015   0.6091   0.6143   0.6229
  0.6255   0.6310   0.6318   0.6359   0.6396   0.6496   0.6563   0.6593
  0.6706   0.6762   0.6783   0.6945   0.6958   0.7174   0.7228   0.7276
  0.7442   0.7569   0.7644   0.7709   0.7891   0.7971   0.8034   0.8233
  0.8386   0.8450   0.8536   0.8766   0.8847   0.8965   0.9008   0.9157
  0.9410   0.9471   0.9505   0.9649   0.9753   0.9896   1.0038   1.0078
  1.0242   1.0352   1.0445   1.0474   1.0540   1.0616   1.0754   1.0785
  1.0852   1.0929   1.1068   1.1297   1.1419   1.1484   1.1606   1.1734
  1.1833   1.1878   1.2034   1.2059   1.2139   1.2220   1.2301   1.2389
  1.2450   1.2586   1.2682   1.2711   1.2805   1.2904   1.2980   1.3149
  1.3243   1.3279   1.3418   1.3665   1.3708   1.3752   1.4135   1.4168
  1.4309   1.4366   1.4440   1.4667   1.4774   1.4822   1.4887   1.4974
  1.5094   1.5211   1.5251   1.5330   1.5406   1.5415   1.5507   1.5620
  1.5669   1.5984   1.6026   1.6076   1.6160   1.6261   1.6374   1.6480
  1.6580   1.6725   1.6750   1.6977   1.7017   1.7195   1.7243   1.7312
  1.7541   1.7610   1.7678   1.8042   1.8241   1.8358   1.8571   1.8685
  1.8884   1.8958   1.9060   1.9317   1.9514   1.9610   1.9882   2.0000
  2.0174   2.0400   2.0586   2.0722   2.0909   2.1133   2.1356   2.1675
  2.1885   2.1989   2.2031   2.2194   2.2314   2.2576   2.2733   2.2795
  2.2930   2.2988   2.3263   2.3904   2.4151   2.4493   2.4619   2.4702
  2.5015   2.5166   2.5248   2.5434   2.5641   2.5885   2.5925   2.6021
  2.6393   2.6530   2.6562   2.6736   2.6782   2.7035   2.7164   2.7364
  2.7507   2.7574   2.7700   2.7773   2.7954   2.7972   2.8012   2.8127
  2.8227   2.8525   2.8539   2.8683   2.8901   2.8964   2.9150   2.9336
  2.9441   2.9650   2.9745   2.9892   3.0036   3.0286   3.0386   3.0541
  3.0747   3.0829   3.0930   3.0981   3.1106   3.1147   3.1263   3.1374
  3.1411   3.1589   3.1645   3.1720   3.1810   3.1948   3.2001   3.2149
  3.2224   3.2382   3.2457   3.2628   3.2761   3.2811   3.2978   3.3073
  3.3144   3.3290   3.3356   3.3392   3.3523   3.3612   3.3631   3.3705
  3.3759   3.3835   3.3919   3.3961   3.4087   3.4159   3.4254   3.4353
  3.4402   3.4495   3.4566   3.4593   3.4811   3.4862   3.4952   3.5068
  3.5126   3.5288   3.5317   3.5374   3.5520   3.5594   3.5675   3.5786
  3.5948   3.6030   3.6043   3.6159   3.6275   3.6341   3.6542   3.6600
  3.6714   3.6852   3.6923   3.7042   3.7102   3.7233   3.7333   3.7388
  3.7473   3.7596   3.7687   3.7732   3.7877   3.7915   3.7999   3.8156
  3.8231   3.8387   3.8646   3.8668   3.8744   3.8875   3.8917   3.9138
  3.9215   3.9461   3.9613   3.9684   3.9855   3.9955   4.0166   4.0290
  4.0342   4.0458   4.0563   4.0616   4.0731   4.0790   4.0944   4.0986
  4.1252   4.1418   4.1530   4.1593   4.1624   4.1738   4.1814   4.2008
  4.2144   4.2241   4.2285   4.2432   4.2504   4.2690   4.2705   4.2928
  4.3054   4.3150   4.3278   4.3359   4.3477   4.3575   4.3627   4.3705
  4.3761   4.3940   4.4021   4.4190   4.4258   4.4384   4.4433   4.4540
  4.4616   4.4696   4.4880   4.4956   4.5042   4.5143   4.5451   4.5909
  4.5992   4.6040   4.6192   4.6222   4.6456   4.6486   4.6543   4.6878
  4.6998   4.7381   4.7770   4.7824   4.7908   4.8068   4.8228   4.8537
  4.8597   4.8711   4.8863   4.9192   4.9310   4.9583   4.9924   5.0030
  5.0494   5.0637   5.0965   5.1111   5.1175   5.1282   5.1655   5.2019
  5.2172   5.2364   5.2551   5.2691   5.2952   5.3019   5.3098   5.3302
  5.3556   5.3695   5.3773   5.4031   5.4109   5.4222   5.4376   5.4436
  5.4718   5.5247   5.5316   5.5413   5.5518   5.5644   5.5761   5.6004
  5.6177   5.6235   5.6272   5.6569   5.6893   5.7048   5.7132   5.7376
  5.7723   5.8115   5.8438   5.9780   6.0289   6.0929   6.1362   6.1789
  6.2108   6.2276   6.2405   6.2606   6.2693   6.2897   6.3275   6.4250
  6.4453   6.5777   9.5665  11.0584  12.0387  12.9618  13.1903  13.9690
 14.1185  14.2126  14.3885  15.0831
 --------------------------------------------------------------
 
          Ground-State Mulliken Net Atomic Charges

     Atom                 Charge (a.u.)
  ----------------------------------------
      1 C                    -0.073174
      2 C                    -0.317074
      3 C                    -0.041599
      4 H                     0.179187
      5 C                     0.133999
      6 S                    -0.178007
      7 C                    -0.304559
      8 H                     0.122719
      9 H                     0.111408
     10 H                     0.106311
     11 C                    -0.069335
     12 C                    -0.266350
     13 C                     0.033437
     14 H                     0.190513
     15 C                    -0.278198
     16 S                     0.002064
     17 C                    -0.273053
     18 H                     0.100341
     19 H                     0.108368
     20 H                     0.108644
     21 H                     0.197265
     22 H                     0.111411
     23 H                     0.114634
     24 H                     0.181051
  ----------------------------------------
  Sum of atomic charges =     0.000000

 -----------------------------------------------------------------
                    Cartesian Multipole Moments
 -----------------------------------------------------------------
    Charge (ESU x 10^10)
                -0.0000
    Dipole Moment (Debye)
         X      -1.0471      Y      -0.4806      Z       3.5586
       Tot       3.7405
    Quadrupole Moments (Debye-Ang)
        XX     -91.5894     XY       3.7303     YY     -72.9989
        XZ       0.3370     YZ      -2.0428     ZZ     -85.5925
    Octopole Moments (Debye-Ang^2)
       XXX     -36.6738    XXY      46.0743    XYY      -7.5261
       YYY     114.5336    XXZ      -2.8035    XYZ       0.0933
       YYZ      -4.9159    XZZ     -12.3315    YZZ      49.4931
       ZZZ       7.9935
    Hexadecapole Moments (Debye-Ang^3)
      XXXX    -185.2264   XXXY     -89.0489   XXYY    -553.3383
      XYYY     -63.8511   YYYY   -2736.3853   XXXZ      35.6571
      XXYZ     -29.0777   XYYZ       3.9833   YYYZ    -102.1990
      XXZZ    -223.4647   XYZZ     -16.6651   YYZZ    -650.9354
      XZZZ      29.5876   YZZZ    -129.8806   ZZZZ   -1080.3036
 -----------------------------------------------------------------
 Total job time:  671.61s(wall), 667.46s(cpu) 
 Sun Jul 10 03:13:46 2022

        *************************************************************
        *                                                           *
        *  Thank you very much for using Q-Chem.  Have a nice day.  *
        *                                                           *
        *************************************************************


remove work dirs ./qchem1231426.0 -- ./qchem1231426.-1
rm -rf ./qchem1231426
