You are running Q-Chem version: 5.4.0

#
# job setting
#
local host:  exp-2-29
current dir: /expanse/lustre/scratch/theleonzhang/temp_project/Hydrogenated_Rotation_Test
input file:  Methylthiophene_Phi_5_Theta_40_Methylthiophene_Hydrogenated.qcin
output file: 
nprocs     : 0
nthreads   : 1
#
# qchem installation setting
#
QC:          /cm/shared/apps/spack/cpu/opt/spack/linux-centos8-zen2/gcc-10.2.0/qchem-5.4-akfmr7b3t57bfs6qan3padb2wnb2i7cl
QCAUX:       /cm/shared/apps/spack/cpu/opt/spack/linux-centos8-zen2/gcc-10.2.0/qchem-5.4-akfmr7b3t57bfs6qan3padb2wnb2i7cl/qcaux
QCPROG:      /cm/shared/apps/spack/cpu/opt/spack/linux-centos8-zen2/gcc-10.2.0/qchem-5.4-akfmr7b3t57bfs6qan3padb2wnb2i7cl/exe/qcprog.exe_s
QCPROG_S:    /cm/shared/apps/spack/cpu/opt/spack/linux-centos8-zen2/gcc-10.2.0/qchem-5.4-akfmr7b3t57bfs6qan3padb2wnb2i7cl/exe/qcprog.exe_s
PARALLEL:    -DSERIAL
QCMPI:       mpich
#
# qchem directory setting
#
qcrun:       qchem286503
QCSCRATCH:   .
QCLOCALSCR:  
QCTMPDIR:    .
QCFILEPREF:  ./qchem286503
QCSAVEDIR:   
workdirs:    ./qchem286503
workdir0:    ./qchem286503
partmpdirs =  
#
# parallel setting
#
QCRSH:           ssh
QCMPI:           mpich
QCMPIRUN:        /cm/shared/apps/spack/cpu/opt/spack/linux-centos8-zen2/gcc-10.2.0/qchem-5.4-akfmr7b3t57bfs6qan3padb2wnb2i7cl/bin/mpi/mpirun_qchem
QCMACHINEFILE:   ./qchem286503/hostfile

#
# env setting
#
exported envs:   QC QCAUX QCSCRATCH QCRUNNAME QCFILEPREF QCPROG QCPROG_S GUIFILE

Running Job 1 of 1 Methylthiophene_Phi_5_Theta_40_Methylthiophene_Hydrogenated.qcin
qchem Methylthiophene_Phi_5_Theta_40_Methylthiophene_Hydrogenated.qcin_286503.0 ./qchem286503/ 0
/cm/shared/apps/spack/cpu/opt/spack/linux-centos8-zen2/gcc-10.2.0/qchem-5.4-akfmr7b3t57bfs6qan3padb2wnb2i7cl/exe/qcprog.exe_s Methylthiophene_Phi_5_Theta_40_Methylthiophene_Hydrogenated.qcin_286503.0 ./qchem286503/
                  Welcome to Q-Chem
     A Quantum Leap Into The Future Of Chemistry


 Q-Chem 5.4, Q-Chem, Inc., Pleasanton, CA (2021)

 License issued to: University of California, San Diego (site)

 E. Epifanovsky,  A. T. B. Gilbert,  Xintian Feng,  Joonho Lee,  Yuezhi Mao,  
 N. Mardirossian,  P. Pokhilko,  A. White,  M. Wormit,  M. P. Coons,  
 A. L. Dempwolff,  Zhengting Gan,  D. Hait,  P. R. Horn,  L. D. Jacobson,  
 I. Kaliman,  J. Kussmann,  A. W. Lange,  Ka Un Lao,  D. S. Levine,  Jie Liu,  
 S. C. McKenzie,  A. F. Morrison,  K. Nanda,  F. Plasser,  D. R. Rehn,  
 M. L. Vidal,  Zhi-Qiang You,  Ying Zhu,  B. Alam,  B. Albrecht,  
 A. Aldossary,  E. Alguire,  J. H. Andersen,  D. Barton,  K. Begam,  A. Behn,  
 Y. A. Bernard,  E. J. Berquist,  H. Burton,  A. Carreras,  K. Carter-Fenk,  
 R. Chakraborty,  A. D. Chien,  K. D. Closser,  V. Cofer-Shabica,  
 S. Dasgupta,  Jia Deng,  M. de Wergifosse,  M. Diedenhofen,  Hainam Do,  
 S. Ehlert,  Po-Tung Fang,  S. Fatehi,  Qingguo Feng,  J. Gayvert,  
 Qinghui Ge,  G. Gidofalvi,  M. Goldey,  J. Gomes,  C. Gonzalez-Espinoza,  
 S. Gulania,  A. Gunina,  M. W. D. Hanson-Heine,  P. H. P. Harbach,  
 A. W. Hauser,  M. F. Herbst,  M. Hernandez Vera,  M. Hodecker,  
 Z. C. Holden,  S. Houck,  Xunkun Huang,  Kerwin Hui,  B. C. Huynh,  
 M. Ivanov,  Hyunjun Ji,  Hanjie Jiang,  B. Kaduk,  S. Kaehler,  
 K. Khistyaev,  Jaehoon Kim,  P. Klunzinger,  Z. Koczor-Benda,  
 Joong Hoon Koh,  D. Kosenkov,  L. Koulias,  T. Kowalczyk,  C. M. Krauter,  
 K. Kue,  A. Kunitsa,  T. Kus,  A. Landau,  K. V. Lawler,  D. Lefrancois,  
 S. Lehtola,  Rain Li,  Yi-Pei Li,  Jiashu Liang,  M. Liebenthal,  
 Hung-Hsuan Lin,  You-Sheng Lin,  Fenglai Liu,  Kuan-Yu Liu,  
 M. Loipersberger,  A. Luenser,  A. Manjanath,  P. Manohar,  E. Mansoor,  
 S. F. Manzer,  Shan-Ping Mao,  A. V. Marenich,  T. Markovich,  S. Mason,  
 S. A. Maurer,  P. F. McLaughlin,  M. F. S. J. Menger,  J.-M. Mewes,  
 S. A. Mewes,  P. Morgante,  J. W. Mullinax,  T. S. Nguyen-Beck,  
 K. J. Oosterbaan,  G. Paran,  Alexander C. Paul,  Suranjan K. Paul,  
 F. Pavosevic,  Zheng Pei,  S. Prager,  E. I. Proynov,  E. Ramos,  B. Rana,  
 A. E. Rask,  A. Rettig,  R. M. Richard,  F. Rob,  E. Rossomme,  T. Scheele,  
 M. Scheurer,  M. Schneider,  N. Sergueev,  S. M. Sharada,  W. Skomorowski,  
 D. W. Small,  C. J. Stein,  Yu-Chuan Su,  E. J. Sundstrom,  Zhen Tao,  
 J. Thirman,  T. Tsuchimochi,  N. M. Tubman,  S. P. Veccham,  O. Vydrov,  
 J. Wenzel,  J. Witte,  A. Yamada,  Kun Yao,  S. Yeganeh,  S. R. Yost,  
 A. Zech,  Igor Ying Zhang,  Xing Zhang,  Yu Zhang,  D. Zuev,  
 A. Aspuru-Guzik,  A. T. Bell,  N. A. Besley,  K. B. Bravaya,  B. R. Brooks,  
 D. Casanova,  Jeng-Da Chai,  S. Coriani,  C. J. Cramer,  
 A. E. DePrince, III,  R. A. DiStasio Jr.,  A. Dreuw,  B. D. Dunietz,  
 T. R. Furlani,  W. A. Goddard III,  S. Grimme,  S. Hammes-Schiffer,  
 T. Head-Gordon,  W. J. Hehre,  Chao-Ping Hsu,  T.-C. Jagau,  Yousung Jung,  
 A. Klamt,  Jing Kong,  D. S. Lambrecht,  WanZhen Liang,  N. J. Mayhall,  
 C. W. McCurdy,  J. B. Neaton,  C. Ochsenfeld,  J. A. Parkhill,  R. Peverati,  
 V. A. Rassolov,  Yihan Shao,  L. V. Slipchenko,  T. Stauch,  R. P. Steele,  
 J. E. Subotnik,  A. J. W. Thom,  A. Tkatchenko,  D. G. Truhlar,  
 T. Van Voorhis,  T. A. Wesolowski,  K. B. Whaley,  H. L. Woodcock III,  
 P. M. Zimmerman,  S. Faraji,  P. M. W. Gill,  M. Head-Gordon,  
 J. M. Herbert,  A. I. Krylov

 Contributors to earlier versions of Q-Chem not listed above: 
 R. D. Adamson,  B. Austin,  R. Baer,  J. Baker,  G. J. O. Beran,  
 K. Brandhorst,  S. T. Brown,  E. F. C. Byrd,  A. K. Chakraborty,  
 G. K. L. Chan,  Chun-Min Chang,  Yunqing Chen,  C.-L. Cheng,  
 Siu Hung Chien,  D. M. Chipman,  D. L. Crittenden,  H. Dachsel,  
 R. J. Doerksen,  A. D. Dutoi,  R. G. Edgar,  J. Fosso-Tande,  
 L. Fusti-Molnar,  D. Ghosh,  A. Ghysels,  A. Golubeva-Zadorozhnaya,  
 J. Gonthier,  M. S. Gordon,  S. R. Gwaltney,  G. Hawkins,  J. E. Herr,  
 A. Heyden,  S. Hirata,  E. G. Hohenstein,  G. Kedziora,  F. J. Keil,  
 C. Kelley,  Jihan Kim,  R. A. King,  R. Z. Khaliullin,  P. P. Korambath,  
 W. Kurlancheek,  A. Laurent,  A. M. Lee,  M. S. Lee,  S. V. Levchenko,  
 Ching Yeh Lin,  D. Liotard,  E. Livshits,  R. C. Lochan,  I. Lotan,  
 L. A. Martinez-Martinez,  P. E. Maslen,  N. Nair,  D. P. O'Neill,  
 D. Neuhauser,  E. Neuscamman,  C. M. Oana,  R. Olivares-Amaya,  R. Olson,  
 T. M. Perrine,  B. Peters,  P. A. Pieniazek,  A. Prociuk,  Y. M. Rhee,  
 J. Ritchie,  M. A. Rohrdanz,  E. Rosta,  N. J. Russ,  H. F. Schaefer III,  
 M. W. Schmidt,  N. E. Schultz,  S. Sharma,  N. Shenvi,  C. D. Sherrill,  
 A. C. Simmonett,  A. Sodt,  T. Stein,  D. Stuck,  K. S. Thanthiriwatte,  
 V. Vanovschi,  L. Vogt,  Tao Wang,  A. Warshel,  M. A. Watson,  
 C. F. Williams,  Q. Wu,  X. Xu,  Jun Yang,  W. Zhang,  Yan Zhao

 Please cite Q-Chem as follows:
 Y. Shao et al., Mol. Phys. 113, 184-215 (2015)
 DOI: 10.1080/00268976.2014.952696

 Q-Chem 5.4.0 for Intel X86 EM64T Linux

 Parts of Q-Chem use Armadillo 9.800.1 (Horizon Scraper).
 http://arma.sourceforge.net/

 Q-Chem begins on Sun Jul 10 00:14:22 2022  

 Host: 
0

     Scratch files written to ./qchem286503//
 May1621 |scratch|qcdevops|jenkins|workspace|build_RNUM    
 Processing $rem in /cm/shared/apps/spack/cpu/opt/spack/linux-centos8-zen2/gcc-10.2.0/qchem-5.4-akfmr7b3t57bfs6qan3padb2wnb2i7cl/config/preferences:
 Processing $rem in /home/theleonzhang/.qchemrc:
 Symmetry turned off for PCM/SM12/SMD calculation
 Core orbitals will be frozen

 Checking the input file for inconsistencies... 	...done.

--------------------------------------------------------------
User input:
--------------------------------------------------------------
$molecule
0 1
C	-0.498788	-3.866725	0.593324
C	0.393517	-3.703963	-0.469446
C	0.685674	-2.357056	-0.817050
H	0.837128	-4.561092	-0.998381
C	-0.000000	-1.440664	-0.000000
S	-0.992768	-2.286957	1.183149
C	1.621254	-1.978743	-1.931676
H	2.035845	-2.878678	-2.425882
H	2.477868	-1.376015	-1.563980
H	1.110719	-1.375728	-2.711417
C	0.000000	0.000000	0.000000
C	0.075300	0.860311	1.099446
C	0.195935	2.238951	0.776721
H	0.043151	0.492916	2.136088
C	0.215188	2.458766	-0.612546
S	0.082160	0.938811	-1.486809
C	0.290762	3.322559	1.814609
H	0.253664	2.898542	2.836676
H	-0.541206	4.052140	1.726239
H	1.236797	3.896558	1.726228
H	0.297938	3.404370	-1.161575
H	-0.032646	-4.392713	1.433894
H	-1.407651	-4.392347	0.279954
H	0.827254	-1.440937	0.694299
$end

$rem
JOBTYPE		SP
EXCHANGE	HF
CORRELATION	pRIMP2
BASIS		cc-pvtz
METHOD		rimp2
AUX_BASIS	rimp2-cc-pvtz
SOLVENT_METHOD	PCM
PURECART	11111
SYMMETRY	false
MEM_TOTAL	110000
SCF_CONVERGENCE = 6
THRESH=10
$end



$solvent
dielectric 4.90
$end
--------------------------------------------------------------
 ----------------------------------------------------------------
             Standard Nuclear Orientation (Angstroms)
    I     Atom           X                Y                Z
 ----------------------------------------------------------------
    1      C      -0.4987880000    -3.8667250000     0.5933240000
    2      C       0.3935170000    -3.7039630000    -0.4694460000
    3      C       0.6856740000    -2.3570560000    -0.8170500000
    4      H       0.8371280000    -4.5610920000    -0.9983810000
    5      C       0.0000000000    -1.4406640000     0.0000000000
    6      S      -0.9927680000    -2.2869570000     1.1831490000
    7      C       1.6212540000    -1.9787430000    -1.9316760000
    8      H       2.0358450000    -2.8786780000    -2.4258820000
    9      H       2.4778680000    -1.3760150000    -1.5639800000
   10      H       1.1107190000    -1.3757280000    -2.7114170000
   11      C       0.0000000000     0.0000000000     0.0000000000
   12      C       0.0753000000     0.8603110000     1.0994460000
   13      C       0.1959350000     2.2389510000     0.7767210000
   14      H       0.0431510000     0.4929160000     2.1360880000
   15      C       0.2151880000     2.4587660000    -0.6125460000
   16      S       0.0821600000     0.9388110000    -1.4868090000
   17      C       0.2907620000     3.3225590000     1.8146090000
   18      H       0.2536640000     2.8985420000     2.8366760000
   19      H      -0.5412060000     4.0521400000     1.7262390000
   20      H       1.2367970000     3.8965580000     1.7262280000
   21      H       0.2979380000     3.4043700000    -1.1615750000
   22      H      -0.0326460000    -4.3927130000     1.4338940000
   23      H      -1.4076510000    -4.3923470000     0.2799540000
   24      H       0.8272540000    -1.4409370000     0.6942990000
 ----------------------------------------------------------------
 Nuclear Repulsion Energy =         874.29752904 hartrees
 There are       52 alpha and       52 beta electrons

 Q-Chem warning in module forms1/BasisType.C, line 2236:

 You are not using the predefined 5D/6D in this basis set.

 Requested basis set is cc-pVTZ
 There are 196 shells and 536 basis functions

 Total QAlloc Memory Limit 110000 MB
 Mega-Array Size       188 MB
 MEM_STATIC part       192 MB
 Discretize the solute cavity surface with Lebedev spheres
	Using 110 Lebedev grid points for each H atom
	Using 194 Lebedev grid points for other atoms
	Atomic van der Waals radii will be scaled by 1.20
 Remove points where switching function is < 1.0e-08
 Keep 1598 surface tesserae and discard 2050 interior tesserae
 Molecular Surface Area = 234.173 Angst**2
 Requested basis set is rimp2-cc-pVTZ
 There are 414 shells and 1414 basis functions
 A cutoff of  1.0D-10 yielded  13889 shell pairs
 There are    100809 function pairs (    129328 Cartesian)
 Smallest overlap matrix eigenvalue = 5.41E-05

 Scale SEOQF with 1.000000e-01/1.000000e-01/1.000000e-01

 Standard Electronic Orientation quadrupole field applied
 Nucleus-field energy     =     0.0000000278 hartrees
 Guess from superposition of atomic densities
 Warning:  Energy on first SCF cycle will be non-variational
 SAD guess density has 104.000000 electrons

 -----------------------------------------------------------------------
  General SCF calculation program by
  Eric Jon Sundstrom, Paul Horn, Yuezhi Mao, Dmitri Zuev, Alec White,
  David Stuck, Shaama M.S., Shane Yost, Joonho Lee, David Small,
  Daniel Levine, Susi Lehtola, Hugh Burton, Evgeny Epifanovsky,
  Bang C. Huynh
 -----------------------------------------------------------------------
 Hartree-Fock
 A restricted SCF calculation will be
 performed using DIIS
 SCF converges when DIIS error is below 1.0e-06
 ---------------------------------------
  Cycle       Energy         DIIS error
 ---------------------------------------
    1   -1186.0336656825      2.39e-02  
    2   -1180.6134828934      1.57e-03  
    3   -1180.7382750943      6.37e-04  
    4   -1180.7534153874      3.49e-04  
    5   -1180.7589697534      5.83e-05  
    6   -1180.7592120650      2.43e-05  
    7   -1180.7592686801      8.58e-06  
    8   -1180.7592810382      4.15e-06  
    9   -1180.7592837744      1.41e-06  
   10   -1180.7592842039      4.91e-07  Convergence criterion met
 ---------------------------------------
 SCF time:   CPU 563.96s  wall 567.00s 

************** Final PCM Free Energy Summary **************
 G_electrostatic  =      -0.00842171 hartree =      -5.28470552 kcal/mol
 G_cavitation     =       0.00000000 hartree =       0.00000000 kcal/mol
 G_dispersion     =       0.00000000 hartree =       0.00000000 kcal/mol
 G_repulsion      =       0.00000000 hartree =       0.00000000 kcal/mol
 --------------------------------------------------
 Non-electrostatic Free Energy =       0.00000000 hartree =       0.00000000 kcal/mol
 Total                         =      -0.00842171 hartree =      -5.28470552 kcal/mol
 --------------------------------------------------
 SCF Energy (H0 + V/2)                       =   -1180.75928420 
 Solute Internal Energy (H0)                 =   -1180.75086249 
 Total Free Energy (H0 + V/2 + non-elec)     =   -1180.75928420 hartree
                                             = -740937.63380916 kcal/mol
***********************************************************

 SCF   energy in the final basis set =    -1180.7592842039
 Total energy in the final basis set =    -1180.7592842039


 --------------------------------------------------------------
  Generalized many-body perturbation theory program
  by Joonho Lee, Fazle Rob, Xintian Feng, Evgeny Epifanovsky

 No regularization used 
 (reg. param. = 0.0000e+00)
  (P|Q)^-1/2 Time:  CPU 1.90 s  wall 1.91 s

 In RI-MP2 calculation: 
 # of frozen core orbitals: 20

 Components of the RIMP2 correlation energy:
        aaaa    correlation energy =        -0.2514774032 a.u.
        abab    correlation energy =        -1.5029290562 a.u.
        bbbb    correlation energy =        -0.2514774032 a.u.
        non-Brillouin singles      =        -0.0000000000 a.u.
        total same-spin energy     =        -0.5029548064 a.u.
        total opposite-spin energy =        -1.5029290562 a.u.

 Total  RIMP2   correlation energy =        -2.0058838625 a.u.
        RIMP2         total energy =     -1182.7651680665 a.u.

 RI-MP2 Energy Time:  CPU 80.30 s  wall 80.55 s
 
 --------------------------------------------------------------
 
                    Orbital Energies (a.u.)
 --------------------------------------------------------------
 
 Alpha MOs
 -- Occupied --
-91.9822 -91.9440 -11.2877 -11.2649 -11.2586 -11.2567 -11.2506 -11.2427
-11.2345 -11.2321 -11.2282 -11.2217  -8.9821  -8.9487  -6.6630  -6.6624
 -6.6618  -6.6301  -6.6290  -6.6277  -1.2007  -1.1526  -1.0597  -1.0269
 -1.0074  -0.9569  -0.9144  -0.9013  -0.8147  -0.7692  -0.7248  -0.7007
 -0.6627  -0.6445  -0.6107  -0.5872  -0.5811  -0.5735  -0.5680  -0.5533
 -0.5423  -0.5330  -0.5146  -0.5074  -0.4912  -0.4822  -0.4580  -0.4488
 -0.3568  -0.3432  -0.3212  -0.2683
 -- Virtual --
  0.1011   0.1321   0.1440   0.1498   0.1582   0.1693   0.1769   0.1811
  0.1960   0.1979   0.2009   0.2053   0.2253   0.2355   0.2385   0.2421
  0.2536   0.2644   0.2752   0.3000   0.3295   0.3361   0.3550   0.3576
  0.3645   0.3699   0.3801   0.3919   0.3973   0.4053   0.4118   0.4288
  0.4397   0.4528   0.4573   0.4664   0.4723   0.4772   0.4823   0.4980
  0.5099   0.5155   0.5217   0.5306   0.5328   0.5417   0.5465   0.5508
  0.5591   0.5772   0.5813   0.5919   0.5959   0.6135   0.6159   0.6200
  0.6229   0.6283   0.6334   0.6397   0.6431   0.6445   0.6504   0.6561
  0.6671   0.6737   0.6884   0.6939   0.6977   0.7049   0.7136   0.7221
  0.7345   0.7461   0.7565   0.7852   0.7916   0.7962   0.8031   0.8251
  0.8287   0.8441   0.8564   0.8672   0.8749   0.8911   0.8944   0.9186
  0.9230   0.9527   0.9616   0.9652   0.9750   0.9909   0.9987   1.0079
  1.0195   1.0212   1.0388   1.0396   1.0616   1.0664   1.0764   1.0803
  1.0858   1.0934   1.1109   1.1226   1.1454   1.1501   1.1561   1.1629
  1.1720   1.1863   1.2006   1.2147   1.2204   1.2254   1.2341   1.2456
  1.2529   1.2661   1.2688   1.2767   1.2802   1.2850   1.2946   1.3057
  1.3301   1.3379   1.3542   1.3623   1.3836   1.3969   1.4010   1.4115
  1.4254   1.4403   1.4458   1.4713   1.4731   1.4780   1.4840   1.4931
  1.5053   1.5170   1.5250   1.5292   1.5332   1.5420   1.5496   1.5622
  1.5627   1.5782   1.5900   1.5962   1.6116   1.6185   1.6292   1.6384
  1.6463   1.6591   1.6722   1.6878   1.7007   1.7194   1.7213   1.7280
  1.7414   1.7566   1.8014   1.8027   1.8096   1.8164   1.8442   1.8586
  1.8894   1.8987   1.9350   1.9433   1.9542   1.9768   1.9954   2.0059
  2.0244   2.0305   2.0449   2.0571   2.0652   2.0808   2.1420   2.1645
  2.1882   2.1967   2.2141   2.2208   2.2349   2.2656   2.2699   2.2804
  2.3203   2.3376   2.3502   2.3586   2.4131   2.4293   2.4538   2.4693
  2.4922   2.5116   2.5435   2.5565   2.5679   2.5871   2.6057   2.6264
  2.6316   2.6469   2.6573   2.6694   2.6851   2.6957   2.7149   2.7270
  2.7357   2.7468   2.7577   2.7686   2.7712   2.7801   2.7991   2.8057
  2.8237   2.8478   2.8556   2.8788   2.8896   2.9062   2.9210   2.9255
  2.9428   2.9452   2.9477   2.9692   3.0001   3.0118   3.0290   3.0350
  3.0596   3.0633   3.0873   3.0991   3.1135   3.1179   3.1288   3.1435
  3.1455   3.1567   3.1623   3.1733   3.1893   3.1976   3.2107   3.2237
  3.2342   3.2401   3.2472   3.2685   3.2821   3.2861   3.2907   3.3082
  3.3122   3.3226   3.3264   3.3357   3.3421   3.3484   3.3509   3.3757
  3.3769   3.3817   3.3918   3.3971   3.3985   3.4098   3.4218   3.4299
  3.4385   3.4499   3.4550   3.4577   3.4695   3.4791   3.4958   3.4975
  3.5166   3.5181   3.5286   3.5376   3.5448   3.5524   3.5633   3.5789
  3.5871   3.5996   3.6117   3.6199   3.6284   3.6393   3.6485   3.6507
  3.6607   3.6846   3.6973   3.7059   3.7161   3.7205   3.7331   3.7372
  3.7435   3.7609   3.7751   3.7774   3.7868   3.7954   3.8046   3.8110
  3.8244   3.8325   3.8522   3.8635   3.8714   3.9022   3.9092   3.9145
  3.9329   3.9456   3.9572   3.9720   3.9748   3.9875   4.0048   4.0178
  4.0241   4.0376   4.0493   4.0595   4.0748   4.0925   4.1046   4.1138
  4.1191   4.1367   4.1470   4.1511   4.1557   4.1693   4.1790   4.1928
  4.2019   4.2137   4.2302   4.2436   4.2554   4.2704   4.2739   4.2846
  4.2888   4.3043   4.3197   4.3328   4.3400   4.3477   4.3595   4.3646
  4.3839   4.3911   4.4021   4.4058   4.4153   4.4252   4.4340   4.4548
  4.4679   4.4726   4.4794   4.4878   4.5071   4.5360   4.5380   4.5519
  4.5752   4.5948   4.6106   4.6233   4.6388   4.6440   4.6582   4.6705
  4.7070   4.7181   4.7317   4.7505   4.7757   4.8073   4.8316   4.8452
  4.8574   4.8687   4.8802   4.8991   4.9387   4.9616   4.9847   4.9975
  5.0188   5.0414   5.0865   5.0941   5.1209   5.1258   5.1628   5.1771
  5.1918   5.2246   5.2426   5.2692   5.2809   5.2891   5.3075   5.3182
  5.3416   5.3697   5.3825   5.3954   5.4051   5.4243   5.4402   5.4486
  5.4766   5.5150   5.5212   5.5456   5.5474   5.5615   5.5712   5.5848
  5.6241   5.6346   5.6464   5.6713   5.6777   5.6978   5.7050   5.7204
  5.7664   5.7870   5.8381   5.9893   5.9982   6.1280   6.1383   6.1512
  6.2182   6.2247   6.2277   6.2479   6.2658   6.2830   6.3148   6.3226
  6.4005   6.5061   9.4951  10.6588  12.0280  12.9686  13.1787  13.9677
 14.1342  14.2794  14.3233  14.7463
 --------------------------------------------------------------
 
          Ground-State Mulliken Net Atomic Charges

     Atom                 Charge (a.u.)
  ----------------------------------------
      1 C                    -0.076343
      2 C                    -0.323258
      3 C                    -0.031519
      4 H                     0.177965
      5 C                     0.094409
      6 S                    -0.176356
      7 C                    -0.287027
      8 H                     0.116005
      9 H                     0.111274
     10 H                     0.109795
     11 C                    -0.041310
     12 C                    -0.281643
     13 C                     0.030058
     14 H                     0.182881
     15 C                    -0.262007
     16 S                     0.007308
     17 C                    -0.272024
     18 H                     0.102577
     19 H                     0.108565
     20 H                     0.107777
     21 H                     0.195730
     22 H                     0.110747
     23 H                     0.113935
     24 H                     0.182461
  ----------------------------------------
  Sum of atomic charges =     0.000000

 -----------------------------------------------------------------
                    Cartesian Multipole Moments
 -----------------------------------------------------------------
    Charge (ESU x 10^10)
                -0.0000
    Dipole Moment (Debye)
         X       2.3620      Y      -0.0876      Z       0.0824
       Tot       2.3650
    Quadrupole Moments (Debye-Ang)
        XX     -91.8763     XY      -2.5373     YY     -73.6572
        XZ      -0.0031     YZ       2.9621     ZZ     -85.5369
    Octopole Moments (Debye-Ang^2)
       XXX     -20.0989    XXY      43.1393    XYY      -2.1990
       YYY     118.9524    XXZ      -3.5732    XYZ       2.3604
       YYZ      -0.6128    XZZ      -2.1991    YZZ      51.3009
       ZZZ       1.7751
    Hexadecapole Moments (Debye-Ang^3)
      XXXX    -387.4001   XXXY     -51.6132   XXYY    -582.7303
      XYYY     -35.2246   YYYY   -2771.3081   XXXZ     133.1146
      XXYZ     -18.3681   XYYZ      27.1248   YYYZ    -109.7574
      XXZZ    -212.6676   XYZZ     -26.9185   YYZZ    -631.6364
      XZZZ     127.9169   YZZZ     -83.4172   ZZZZ    -871.6466
 -----------------------------------------------------------------
 Total job time:  650.42s(wall), 645.15s(cpu) 
 Sun Jul 10 00:25:13 2022

        *************************************************************
        *                                                           *
        *  Thank you very much for using Q-Chem.  Have a nice day.  *
        *                                                           *
        *************************************************************


remove work dirs ./qchem286503.0 -- ./qchem286503.-1
rm -rf ./qchem286503
