You are running Q-Chem version: 5.4.0

#
# job setting
#
local host:  exp-4-50
current dir: /expanse/lustre/scratch/theleonzhang/temp_project/Hydrogenated_Rotation_Test
input file:  Methylthiophene_Phi_10_Theta_90_Methylthiophene_Hydrogenated_Alternate.qcin
output file: 
nprocs     : 0
nthreads   : 1
#
# qchem installation setting
#
QC:          /cm/shared/apps/spack/cpu/opt/spack/linux-centos8-zen2/gcc-10.2.0/qchem-5.4-akfmr7b3t57bfs6qan3padb2wnb2i7cl
QCAUX:       /cm/shared/apps/spack/cpu/opt/spack/linux-centos8-zen2/gcc-10.2.0/qchem-5.4-akfmr7b3t57bfs6qan3padb2wnb2i7cl/qcaux
QCPROG:      /cm/shared/apps/spack/cpu/opt/spack/linux-centos8-zen2/gcc-10.2.0/qchem-5.4-akfmr7b3t57bfs6qan3padb2wnb2i7cl/exe/qcprog.exe_s
QCPROG_S:    /cm/shared/apps/spack/cpu/opt/spack/linux-centos8-zen2/gcc-10.2.0/qchem-5.4-akfmr7b3t57bfs6qan3padb2wnb2i7cl/exe/qcprog.exe_s
PARALLEL:    -DSERIAL
QCMPI:       mpich
#
# qchem directory setting
#
qcrun:       qchem1776985
QCSCRATCH:   .
QCLOCALSCR:  
QCTMPDIR:    .
QCFILEPREF:  ./qchem1776985
QCSAVEDIR:   
workdirs:    ./qchem1776985
workdir0:    ./qchem1776985
partmpdirs =  
#
# parallel setting
#
QCRSH:           ssh
QCMPI:           mpich
QCMPIRUN:        /cm/shared/apps/spack/cpu/opt/spack/linux-centos8-zen2/gcc-10.2.0/qchem-5.4-akfmr7b3t57bfs6qan3padb2wnb2i7cl/bin/mpi/mpirun_qchem
QCMACHINEFILE:   ./qchem1776985/hostfile

#
# env setting
#
exported envs:   QC QCAUX QCSCRATCH QCRUNNAME QCFILEPREF QCPROG QCPROG_S GUIFILE

Running Job 1 of 1 Methylthiophene_Phi_10_Theta_90_Methylthiophene_Hydrogenated_Alternate.qcin
qchem Methylthiophene_Phi_10_Theta_90_Methylthiophene_Hydrogenated_Alternate.qcin_1776985.0 ./qchem1776985/ 0
/cm/shared/apps/spack/cpu/opt/spack/linux-centos8-zen2/gcc-10.2.0/qchem-5.4-akfmr7b3t57bfs6qan3padb2wnb2i7cl/exe/qcprog.exe_s Methylthiophene_Phi_10_Theta_90_Methylthiophene_Hydrogenated_Alternate.qcin_1776985.0 ./qchem1776985/
                  Welcome to Q-Chem
     A Quantum Leap Into The Future Of Chemistry


 Q-Chem 5.4, Q-Chem, Inc., Pleasanton, CA (2021)

 License issued to: University of California, San Diego (site)

 E. Epifanovsky,  A. T. B. Gilbert,  Xintian Feng,  Joonho Lee,  Yuezhi Mao,  
 N. Mardirossian,  P. Pokhilko,  A. White,  M. Wormit,  M. P. Coons,  
 A. L. Dempwolff,  Zhengting Gan,  D. Hait,  P. R. Horn,  L. D. Jacobson,  
 I. Kaliman,  J. Kussmann,  A. W. Lange,  Ka Un Lao,  D. S. Levine,  Jie Liu,  
 S. C. McKenzie,  A. F. Morrison,  K. Nanda,  F. Plasser,  D. R. Rehn,  
 M. L. Vidal,  Zhi-Qiang You,  Ying Zhu,  B. Alam,  B. Albrecht,  
 A. Aldossary,  E. Alguire,  J. H. Andersen,  D. Barton,  K. Begam,  A. Behn,  
 Y. A. Bernard,  E. J. Berquist,  H. Burton,  A. Carreras,  K. Carter-Fenk,  
 R. Chakraborty,  A. D. Chien,  K. D. Closser,  V. Cofer-Shabica,  
 S. Dasgupta,  Jia Deng,  M. de Wergifosse,  M. Diedenhofen,  Hainam Do,  
 S. Ehlert,  Po-Tung Fang,  S. Fatehi,  Qingguo Feng,  J. Gayvert,  
 Qinghui Ge,  G. Gidofalvi,  M. Goldey,  J. Gomes,  C. Gonzalez-Espinoza,  
 S. Gulania,  A. Gunina,  M. W. D. Hanson-Heine,  P. H. P. Harbach,  
 A. W. Hauser,  M. F. Herbst,  M. Hernandez Vera,  M. Hodecker,  
 Z. C. Holden,  S. Houck,  Xunkun Huang,  Kerwin Hui,  B. C. Huynh,  
 M. Ivanov,  Hyunjun Ji,  Hanjie Jiang,  B. Kaduk,  S. Kaehler,  
 K. Khistyaev,  Jaehoon Kim,  P. Klunzinger,  Z. Koczor-Benda,  
 Joong Hoon Koh,  D. Kosenkov,  L. Koulias,  T. Kowalczyk,  C. M. Krauter,  
 K. Kue,  A. Kunitsa,  T. Kus,  A. Landau,  K. V. Lawler,  D. Lefrancois,  
 S. Lehtola,  Rain Li,  Yi-Pei Li,  Jiashu Liang,  M. Liebenthal,  
 Hung-Hsuan Lin,  You-Sheng Lin,  Fenglai Liu,  Kuan-Yu Liu,  
 M. Loipersberger,  A. Luenser,  A. Manjanath,  P. Manohar,  E. Mansoor,  
 S. F. Manzer,  Shan-Ping Mao,  A. V. Marenich,  T. Markovich,  S. Mason,  
 S. A. Maurer,  P. F. McLaughlin,  M. F. S. J. Menger,  J.-M. Mewes,  
 S. A. Mewes,  P. Morgante,  J. W. Mullinax,  T. S. Nguyen-Beck,  
 K. J. Oosterbaan,  G. Paran,  Alexander C. Paul,  Suranjan K. Paul,  
 F. Pavosevic,  Zheng Pei,  S. Prager,  E. I. Proynov,  E. Ramos,  B. Rana,  
 A. E. Rask,  A. Rettig,  R. M. Richard,  F. Rob,  E. Rossomme,  T. Scheele,  
 M. Scheurer,  M. Schneider,  N. Sergueev,  S. M. Sharada,  W. Skomorowski,  
 D. W. Small,  C. J. Stein,  Yu-Chuan Su,  E. J. Sundstrom,  Zhen Tao,  
 J. Thirman,  T. Tsuchimochi,  N. M. Tubman,  S. P. Veccham,  O. Vydrov,  
 J. Wenzel,  J. Witte,  A. Yamada,  Kun Yao,  S. Yeganeh,  S. R. Yost,  
 A. Zech,  Igor Ying Zhang,  Xing Zhang,  Yu Zhang,  D. Zuev,  
 A. Aspuru-Guzik,  A. T. Bell,  N. A. Besley,  K. B. Bravaya,  B. R. Brooks,  
 D. Casanova,  Jeng-Da Chai,  S. Coriani,  C. J. Cramer,  
 A. E. DePrince, III,  R. A. DiStasio Jr.,  A. Dreuw,  B. D. Dunietz,  
 T. R. Furlani,  W. A. Goddard III,  S. Grimme,  S. Hammes-Schiffer,  
 T. Head-Gordon,  W. J. Hehre,  Chao-Ping Hsu,  T.-C. Jagau,  Yousung Jung,  
 A. Klamt,  Jing Kong,  D. S. Lambrecht,  WanZhen Liang,  N. J. Mayhall,  
 C. W. McCurdy,  J. B. Neaton,  C. Ochsenfeld,  J. A. Parkhill,  R. Peverati,  
 V. A. Rassolov,  Yihan Shao,  L. V. Slipchenko,  T. Stauch,  R. P. Steele,  
 J. E. Subotnik,  A. J. W. Thom,  A. Tkatchenko,  D. G. Truhlar,  
 T. Van Voorhis,  T. A. Wesolowski,  K. B. Whaley,  H. L. Woodcock III,  
 P. M. Zimmerman,  S. Faraji,  P. M. W. Gill,  M. Head-Gordon,  
 J. M. Herbert,  A. I. Krylov

 Contributors to earlier versions of Q-Chem not listed above: 
 R. D. Adamson,  B. Austin,  R. Baer,  J. Baker,  G. J. O. Beran,  
 K. Brandhorst,  S. T. Brown,  E. F. C. Byrd,  A. K. Chakraborty,  
 G. K. L. Chan,  Chun-Min Chang,  Yunqing Chen,  C.-L. Cheng,  
 Siu Hung Chien,  D. M. Chipman,  D. L. Crittenden,  H. Dachsel,  
 R. J. Doerksen,  A. D. Dutoi,  R. G. Edgar,  J. Fosso-Tande,  
 L. Fusti-Molnar,  D. Ghosh,  A. Ghysels,  A. Golubeva-Zadorozhnaya,  
 J. Gonthier,  M. S. Gordon,  S. R. Gwaltney,  G. Hawkins,  J. E. Herr,  
 A. Heyden,  S. Hirata,  E. G. Hohenstein,  G. Kedziora,  F. J. Keil,  
 C. Kelley,  Jihan Kim,  R. A. King,  R. Z. Khaliullin,  P. P. Korambath,  
 W. Kurlancheek,  A. Laurent,  A. M. Lee,  M. S. Lee,  S. V. Levchenko,  
 Ching Yeh Lin,  D. Liotard,  E. Livshits,  R. C. Lochan,  I. Lotan,  
 L. A. Martinez-Martinez,  P. E. Maslen,  N. Nair,  D. P. O'Neill,  
 D. Neuhauser,  E. Neuscamman,  C. M. Oana,  R. Olivares-Amaya,  R. Olson,  
 T. M. Perrine,  B. Peters,  P. A. Pieniazek,  A. Prociuk,  Y. M. Rhee,  
 J. Ritchie,  M. A. Rohrdanz,  E. Rosta,  N. J. Russ,  H. F. Schaefer III,  
 M. W. Schmidt,  N. E. Schultz,  S. Sharma,  N. Shenvi,  C. D. Sherrill,  
 A. C. Simmonett,  A. Sodt,  T. Stein,  D. Stuck,  K. S. Thanthiriwatte,  
 V. Vanovschi,  L. Vogt,  Tao Wang,  A. Warshel,  M. A. Watson,  
 C. F. Williams,  Q. Wu,  X. Xu,  Jun Yang,  W. Zhang,  Yan Zhao

 Please cite Q-Chem as follows:
 Y. Shao et al., Mol. Phys. 113, 184-215 (2015)
 DOI: 10.1080/00268976.2014.952696

 Q-Chem 5.4.0 for Intel X86 EM64T Linux

 Parts of Q-Chem use Armadillo 9.800.1 (Horizon Scraper).
 http://arma.sourceforge.net/

 Q-Chem begins on Sun Jul 10 01:37:49 2022  

 Host: 
0

     Scratch files written to ./qchem1776985//
 May1621 |scratch|qcdevops|jenkins|workspace|build_RNUM    
 Processing $rem in /cm/shared/apps/spack/cpu/opt/spack/linux-centos8-zen2/gcc-10.2.0/qchem-5.4-akfmr7b3t57bfs6qan3padb2wnb2i7cl/config/preferences:
 Processing $rem in /home/theleonzhang/.qchemrc:
 Symmetry turned off for PCM/SM12/SMD calculation
 Core orbitals will be frozen

 Checking the input file for inconsistencies... 	...done.

--------------------------------------------------------------
User input:
--------------------------------------------------------------
$molecule
0 1
C	-0.775127	-3.866725	-0.000713
C	0.612565	-3.703963	-0.000302
C	1.066639	-2.357056	0.000067
H	1.302900	-4.561092	-0.000470
C	-0.000000	-1.440664	-0.000000
S	-1.544483	-2.286957	0.000009
C	2.521872	-1.978743	0.000295
H	3.166949	-2.878678	0.000221
H	2.790821	-1.376015	0.892850
H	2.791023	-1.375728	-0.892005
C	0.000000	0.000000	0.000000
C	0.149995	0.850475	1.099446
C	0.390327	2.213354	0.776721
H	0.085947	0.487279	2.136088
C	0.428665	2.430655	-0.612546
S	0.163670	0.928078	-1.486809
C	0.579235	3.284574	1.814609
H	0.505323	2.865404	2.836676
H	-0.185980	4.083890	1.726239
H	1.571698	3.773937	1.726228
H	0.593515	3.365448	-1.161575
H	-1.119411	-4.392713	0.896681
H	-1.119277	-4.392347	-0.898372
H	0.000115	-1.440391	-1.080000
$end

$rem
JOBTYPE		SP
EXCHANGE	HF
CORRELATION	pRIMP2
BASIS		cc-pvtz
METHOD		rimp2
AUX_BASIS	rimp2-cc-pvtz
SOLVENT_METHOD	PCM
PURECART	11111
SYMMETRY	false
MEM_TOTAL	110000
SCF_CONVERGENCE = 6
THRESH=10
$end



$solvent
dielectric 4.90
$end
--------------------------------------------------------------
 ----------------------------------------------------------------
             Standard Nuclear Orientation (Angstroms)
    I     Atom           X                Y                Z
 ----------------------------------------------------------------
    1      C      -0.7751270000    -3.8667250000    -0.0007130000
    2      C       0.6125650000    -3.7039630000    -0.0003020000
    3      C       1.0666390000    -2.3570560000     0.0000670000
    4      H       1.3029000000    -4.5610920000    -0.0004700000
    5      C       0.0000000000    -1.4406640000     0.0000000000
    6      S      -1.5444830000    -2.2869570000     0.0000090000
    7      C       2.5218720000    -1.9787430000     0.0002950000
    8      H       3.1669490000    -2.8786780000     0.0002210000
    9      H       2.7908210000    -1.3760150000     0.8928500000
   10      H       2.7910230000    -1.3757280000    -0.8920050000
   11      C       0.0000000000     0.0000000000     0.0000000000
   12      C       0.1499950000     0.8504750000     1.0994460000
   13      C       0.3903270000     2.2133540000     0.7767210000
   14      H       0.0859470000     0.4872790000     2.1360880000
   15      C       0.4286650000     2.4306550000    -0.6125460000
   16      S       0.1636700000     0.9280780000    -1.4868090000
   17      C       0.5792350000     3.2845740000     1.8146090000
   18      H       0.5053230000     2.8654040000     2.8366760000
   19      H      -0.1859800000     4.0838900000     1.7262390000
   20      H       1.5716980000     3.7739370000     1.7262280000
   21      H       0.5935150000     3.3654480000    -1.1615750000
   22      H      -1.1194110000    -4.3927130000     0.8966810000
   23      H      -1.1192770000    -4.3923470000    -0.8983720000
   24      H       0.0001150000    -1.4403910000    -1.0800000000
 ----------------------------------------------------------------
 Nuclear Repulsion Energy =         872.53302458 hartrees
 There are       52 alpha and       52 beta electrons

 Q-Chem warning in module forms1/BasisType.C, line 2236:

 You are not using the predefined 5D/6D in this basis set.

 Requested basis set is cc-pVTZ
 There are 196 shells and 536 basis functions

 Total QAlloc Memory Limit 110000 MB
 Mega-Array Size       188 MB
 MEM_STATIC part       192 MB
 Discretize the solute cavity surface with Lebedev spheres
	Using 110 Lebedev grid points for each H atom
	Using 194 Lebedev grid points for other atoms
	Atomic van der Waals radii will be scaled by 1.20
 Remove points where switching function is < 1.0e-08
 Keep 1621 surface tesserae and discard 2027 interior tesserae
 Molecular Surface Area = 239.843 Angst**2
 Requested basis set is rimp2-cc-pVTZ
 There are 414 shells and 1414 basis functions
 A cutoff of  1.0D-10 yielded  13963 shell pairs
 There are    101275 function pairs (    129994 Cartesian)
 Smallest overlap matrix eigenvalue = 5.86E-05

 Scale SEOQF with 1.000000e-01/1.000000e-01/1.000000e-01

 Standard Electronic Orientation quadrupole field applied
 Nucleus-field energy     =     0.0000000372 hartrees
 Guess from superposition of atomic densities
 Warning:  Energy on first SCF cycle will be non-variational
 SAD guess density has 104.000000 electrons

 -----------------------------------------------------------------------
  General SCF calculation program by
  Eric Jon Sundstrom, Paul Horn, Yuezhi Mao, Dmitri Zuev, Alec White,
  David Stuck, Shaama M.S., Shane Yost, Joonho Lee, David Small,
  Daniel Levine, Susi Lehtola, Hugh Burton, Evgeny Epifanovsky,
  Bang C. Huynh
 -----------------------------------------------------------------------
 Hartree-Fock
 A restricted SCF calculation will be
 performed using DIIS
 SCF converges when DIIS error is below 1.0e-06
 ---------------------------------------
  Cycle       Energy         DIIS error
 ---------------------------------------
    1   -1186.0216092330      2.39e-02  
    2   -1180.6135763529      1.56e-03  
    3   -1180.7384095426      6.00e-04  
    4   -1180.7524922612      3.26e-04  
    5   -1180.7573660712      6.06e-05  
    6   -1180.7576155946      2.47e-05  
    7   -1180.7576764517      9.33e-06  
    8   -1180.7576906755      4.51e-06  
    9   -1180.7576939953      1.50e-06  
   10   -1180.7576944785      5.03e-07  Convergence criterion met
 ---------------------------------------
 SCF time:   CPU 565.19s  wall 567.00s 

************** Final PCM Free Energy Summary **************
 G_electrostatic  =      -0.00870384 hartree =      -5.46173940 kcal/mol
 G_cavitation     =       0.00000000 hartree =       0.00000000 kcal/mol
 G_dispersion     =       0.00000000 hartree =       0.00000000 kcal/mol
 G_repulsion      =       0.00000000 hartree =       0.00000000 kcal/mol
 --------------------------------------------------
 Non-electrostatic Free Energy =       0.00000000 hartree =       0.00000000 kcal/mol
 Total                         =      -0.00870384 hartree =      -5.46173940 kcal/mol
 --------------------------------------------------
 SCF Energy (H0 + V/2)                       =   -1180.75769448 
 Solute Internal Energy (H0)                 =   -1180.74899064 
 Total Free Energy (H0 + V/2 + non-elec)     =   -1180.75769448 hartree
                                             = -740936.63624140 kcal/mol
***********************************************************

 SCF   energy in the final basis set =    -1180.7576944785
 Total energy in the final basis set =    -1180.7576944785


 --------------------------------------------------------------
  Generalized many-body perturbation theory program
  by Joonho Lee, Fazle Rob, Xintian Feng, Evgeny Epifanovsky

 No regularization used 
 (reg. param. = 0.0000e+00)
  (P|Q)^-1/2 Time:  CPU 1.90 s  wall 1.90 s

 In RI-MP2 calculation: 
 # of frozen core orbitals: 20

 Components of the RIMP2 correlation energy:
        aaaa    correlation energy =        -0.2510422007 a.u.
        abab    correlation energy =        -1.5028059354 a.u.
        bbbb    correlation energy =        -0.2510422007 a.u.
        non-Brillouin singles      =        -0.0000000000 a.u.
        total same-spin energy     =        -0.5020844013 a.u.
        total opposite-spin energy =        -1.5028059354 a.u.

 Total  RIMP2   correlation energy =        -2.0048903367 a.u.
        RIMP2         total energy =     -1182.7625848152 a.u.

 RI-MP2 Energy Time:  CPU 79.66 s  wall 79.90 s
 
 --------------------------------------------------------------
 
                    Orbital Energies (a.u.)
 --------------------------------------------------------------
 
 Alpha MOs
 -- Occupied --
-91.9868 -91.9403 -11.2778 -11.2663 -11.2627 -11.2547 -11.2512 -11.2402
-11.2394 -11.2311 -11.2290 -11.2188  -8.9865  -8.9450  -6.6673  -6.6668
 -6.6662  -6.6264  -6.6253  -6.6241  -1.1979  -1.1537  -1.0587  -1.0256
 -1.0031  -0.9631  -0.9128  -0.9004  -0.8122  -0.7631  -0.7413  -0.7041
 -0.6535  -0.6336  -0.6111  -0.5874  -0.5761  -0.5731  -0.5695  -0.5539
 -0.5427  -0.5292  -0.5147  -0.5050  -0.4913  -0.4800  -0.4642  -0.4475
 -0.3556  -0.3418  -0.3121  -0.2820
 -- Virtual --
  0.0943   0.1281   0.1402   0.1521   0.1596   0.1659   0.1799   0.1835
  0.1855   0.1924   0.2041   0.2112   0.2297   0.2333   0.2410   0.2437
  0.2494   0.2606   0.2675   0.2910   0.2996   0.3385   0.3480   0.3514
  0.3660   0.3748   0.3772   0.3836   0.3925   0.3985   0.4113   0.4211
  0.4404   0.4453   0.4534   0.4606   0.4678   0.4756   0.4814   0.4909
  0.5022   0.5125   0.5233   0.5281   0.5350   0.5425   0.5512   0.5553
  0.5707   0.5747   0.5813   0.5849   0.5999   0.6078   0.6133   0.6177
  0.6212   0.6277   0.6303   0.6390   0.6414   0.6457   0.6482   0.6541
  0.6619   0.6640   0.6754   0.6860   0.6959   0.6996   0.7136   0.7317
  0.7382   0.7448   0.7522   0.7637   0.7787   0.7998   0.8113   0.8200
  0.8247   0.8402   0.8541   0.8591   0.8718   0.8923   0.8989   0.9146
  0.9234   0.9360   0.9487   0.9495   0.9802   0.9905   0.9973   1.0087
  1.0181   1.0224   1.0335   1.0436   1.0522   1.0617   1.0758   1.0812
  1.0839   1.0964   1.1072   1.1215   1.1290   1.1494   1.1607   1.1725
  1.1750   1.1935   1.1958   1.2067   1.2150   1.2210   1.2364   1.2494
  1.2521   1.2573   1.2607   1.2748   1.2797   1.2934   1.3047   1.3170
  1.3220   1.3337   1.3447   1.3605   1.3635   1.3827   1.4075   1.4105
  1.4225   1.4247   1.4470   1.4563   1.4656   1.4757   1.4896   1.4963
  1.5037   1.5068   1.5163   1.5338   1.5364   1.5420   1.5482   1.5534
  1.5630   1.5779   1.5811   1.5975   1.6126   1.6293   1.6320   1.6403
  1.6603   1.6805   1.6846   1.6970   1.7012   1.7111   1.7196   1.7231
  1.7400   1.7481   1.7584   1.7867   1.8073   1.8152   1.8538   1.8636
  1.8957   1.8989   1.9162   1.9289   1.9476   1.9732   1.9877   1.9974
  2.0140   2.0330   2.0400   2.0516   2.0896   2.1274   2.1388   2.1495
  2.1819   2.1982   2.2003   2.2165   2.2221   2.2400   2.2696   2.2848
  2.3103   2.3207   2.3464   2.3771   2.4004   2.4090   2.4563   2.4639
  2.4986   2.5036   2.5315   2.5380   2.5591   2.5982   2.6125   2.6212
  2.6244   2.6289   2.6464   2.6582   2.6760   2.6840   2.7071   2.7163
  2.7352   2.7454   2.7604   2.7707   2.7770   2.7795   2.7939   2.8281
  2.8341   2.8516   2.8569   2.8744   2.8890   2.9113   2.9181   2.9257
  2.9404   2.9517   2.9683   2.9892   3.0102   3.0215   3.0362   3.0472
  3.0676   3.0738   3.0995   3.1077   3.1111   3.1187   3.1346   3.1414
  3.1421   3.1549   3.1593   3.1655   3.1781   3.1962   3.2063   3.2138
  3.2321   3.2400   3.2492   3.2688   3.2707   3.2806   3.2925   3.3017
  3.3170   3.3251   3.3291   3.3368   3.3444   3.3548   3.3580   3.3597
  3.3805   3.3868   3.3970   3.3980   3.4113   3.4132   3.4233   3.4348
  3.4412   3.4446   3.4621   3.4673   3.4811   3.4948   3.5052   3.5106
  3.5183   3.5264   3.5296   3.5348   3.5501   3.5561   3.5703   3.5767
  3.5803   3.6001   3.6139   3.6196   3.6289   3.6350   3.6436   3.6582
  3.6613   3.6829   3.6932   3.6957   3.7045   3.7240   3.7317   3.7330
  3.7473   3.7511   3.7687   3.7777   3.7825   3.7871   3.8127   3.8234
  3.8288   3.8322   3.8582   3.8695   3.8758   3.8830   3.9036   3.9118
  3.9222   3.9384   3.9499   3.9605   3.9748   3.9835   3.9953   4.0072
  4.0325   4.0476   4.0532   4.0559   4.0767   4.0818   4.0965   4.0997
  4.1214   4.1359   4.1504   4.1574   4.1625   4.1716   4.1773   4.2050
  4.2099   4.2192   4.2356   4.2458   4.2497   4.2620   4.2722   4.2856
  4.2865   4.2913   4.3197   4.3260   4.3391   4.3495   4.3618   4.3750
  4.3845   4.3941   4.3976   4.4010   4.4155   4.4211   4.4422   4.4521
  4.4662   4.4696   4.4765   4.4807   4.4867   4.5119   4.5360   4.5609
  4.5727   4.5771   4.6077   4.6214   4.6259   4.6482   4.6501   4.6709
  4.6774   4.6999   4.7434   4.7518   4.7669   4.7982   4.8159   4.8409
  4.8581   4.8847   4.8887   4.8999   4.9310   4.9573   4.9800   4.9941
  5.0221   5.0468   5.0807   5.1003   5.1128   5.1264   5.1436   5.1877
  5.1980   5.2231   5.2292   5.2623   5.2782   5.2872   5.3094   5.3220
  5.3534   5.3659   5.3763   5.4020   5.4108   5.4200   5.4427   5.4592
  5.4638   5.5214   5.5295   5.5365   5.5503   5.5575   5.5715   5.5948
  5.6179   5.6245   5.6333   5.6660   5.6882   5.6918   5.7044   5.7399
  5.7653   5.7852   5.8330   5.9620   5.9922   6.0639   6.1229   6.1464
  6.2041   6.2186   6.2243   6.2332   6.2554   6.2820   6.3103   6.3192
  6.3869   6.5147   9.4034  10.5188  12.1065  12.9255  13.1598  14.0094
 14.0699  14.2163  14.3397  14.7740
 --------------------------------------------------------------
 
          Ground-State Mulliken Net Atomic Charges

     Atom                 Charge (a.u.)
  ----------------------------------------
      1 C                    -0.078677
      2 C                    -0.331340
      3 C                    -0.012315
      4 H                     0.176028
      5 C                     0.096648
      6 S                    -0.178569
      7 C                    -0.265675
      8 H                     0.113505
      9 H                     0.105926
     10 H                     0.102501
     11 C                    -0.109151
     12 C                    -0.228928
     13 C                     0.022844
     14 H                     0.185899
     15 C                    -0.245032
     16 S                     0.015791
     17 C                    -0.272291
     18 H                     0.102956
     19 H                     0.108422
     20 H                     0.107458
     21 H                     0.199016
     22 H                     0.113018
     23 H                     0.110419
     24 H                     0.161549
  ----------------------------------------
  Sum of atomic charges =     0.000000

 -----------------------------------------------------------------
                    Cartesian Multipole Moments
 -----------------------------------------------------------------
    Charge (ESU x 10^10)
                -0.0000
    Dipole Moment (Debye)
         X       2.7910      Y       0.7843      Z       0.7205
       Tot       2.9873
    Quadrupole Moments (Debye-Ang)
        XX     -91.5005     XY      -1.7954     YY     -74.0164
        XZ       0.4688     YZ       2.3028     ZZ     -85.8718
    Octopole Moments (Debye-Ang^2)
       XXX     -31.8734    XXY      42.7192    XYY      -6.1762
       YYY     128.6010    XXZ      -1.0135    XYZ      -1.2882
       YYZ      -5.9964    XZZ     -12.8327    YZZ      57.1356
       ZZZ       4.4518
    Hexadecapole Moments (Debye-Ang^3)
      XXXX    -733.6629   XXXY    -123.2161   XXYY    -616.2944
      XYYY     -65.0384   YYYY   -2766.5657   XXXZ     -13.9378
      XXYZ     -30.0363   XYYZ      -6.4265   YYYZ    -105.5970
      XXZZ    -224.5722   XYZZ     -21.2656   YYZZ    -593.8729
      XZZZ     -16.4225   YZZZ     -96.7441   ZZZZ    -535.6312
 -----------------------------------------------------------------
 Total job time:  649.06s(wall), 645.73s(cpu) 
 Sun Jul 10 01:48:39 2022

        *************************************************************
        *                                                           *
        *  Thank you very much for using Q-Chem.  Have a nice day.  *
        *                                                           *
        *************************************************************


remove work dirs ./qchem1776985.0 -- ./qchem1776985.-1
rm -rf ./qchem1776985
You are running Q-Chem version: 5.4.0

#
# job setting
#
local host:  exp-6-19
current dir: /expanse/lustre/scratch/theleonzhang/temp_project/Hydrogenated_Rotation_Test
input file:  Methylthiophene_Phi_10_Theta_90_Methylthiophene_Hydrogenated_Alternate.qcin
output file: 
nprocs     : 0
nthreads   : 1
#
# qchem installation setting
#
QC:          /cm/shared/apps/spack/cpu/opt/spack/linux-centos8-zen2/gcc-10.2.0/qchem-5.4-akfmr7b3t57bfs6qan3padb2wnb2i7cl
QCAUX:       /cm/shared/apps/spack/cpu/opt/spack/linux-centos8-zen2/gcc-10.2.0/qchem-5.4-akfmr7b3t57bfs6qan3padb2wnb2i7cl/qcaux
QCPROG:      /cm/shared/apps/spack/cpu/opt/spack/linux-centos8-zen2/gcc-10.2.0/qchem-5.4-akfmr7b3t57bfs6qan3padb2wnb2i7cl/exe/qcprog.exe_s
QCPROG_S:    /cm/shared/apps/spack/cpu/opt/spack/linux-centos8-zen2/gcc-10.2.0/qchem-5.4-akfmr7b3t57bfs6qan3padb2wnb2i7cl/exe/qcprog.exe_s
PARALLEL:    -DSERIAL
QCMPI:       mpich
#
# qchem directory setting
#
qcrun:       qchem2249275
QCSCRATCH:   .
QCLOCALSCR:  
QCTMPDIR:    .
QCFILEPREF:  ./qchem2249275
QCSAVEDIR:   
workdirs:    ./qchem2249275
workdir0:    ./qchem2249275
partmpdirs =  
#
# parallel setting
#
QCRSH:           ssh
QCMPI:           mpich
QCMPIRUN:        /cm/shared/apps/spack/cpu/opt/spack/linux-centos8-zen2/gcc-10.2.0/qchem-5.4-akfmr7b3t57bfs6qan3padb2wnb2i7cl/bin/mpi/mpirun_qchem
QCMACHINEFILE:   ./qchem2249275/hostfile

#
# env setting
#
exported envs:   QC QCAUX QCSCRATCH QCRUNNAME QCFILEPREF QCPROG QCPROG_S GUIFILE

Running Job 1 of 1 Methylthiophene_Phi_10_Theta_90_Methylthiophene_Hydrogenated_Alternate.qcin
qchem Methylthiophene_Phi_10_Theta_90_Methylthiophene_Hydrogenated_Alternate.qcin_2249275.0 ./qchem2249275/ 0
/cm/shared/apps/spack/cpu/opt/spack/linux-centos8-zen2/gcc-10.2.0/qchem-5.4-akfmr7b3t57bfs6qan3padb2wnb2i7cl/exe/qcprog.exe_s Methylthiophene_Phi_10_Theta_90_Methylthiophene_Hydrogenated_Alternate.qcin_2249275.0 ./qchem2249275/
                  Welcome to Q-Chem
     A Quantum Leap Into The Future Of Chemistry


 Q-Chem 5.4, Q-Chem, Inc., Pleasanton, CA (2021)

 License issued to: University of California, San Diego (site)

 E. Epifanovsky,  A. T. B. Gilbert,  Xintian Feng,  Joonho Lee,  Yuezhi Mao,  
 N. Mardirossian,  P. Pokhilko,  A. White,  M. Wormit,  M. P. Coons,  
 A. L. Dempwolff,  Zhengting Gan,  D. Hait,  P. R. Horn,  L. D. Jacobson,  
 I. Kaliman,  J. Kussmann,  A. W. Lange,  Ka Un Lao,  D. S. Levine,  Jie Liu,  
 S. C. McKenzie,  A. F. Morrison,  K. Nanda,  F. Plasser,  D. R. Rehn,  
 M. L. Vidal,  Zhi-Qiang You,  Ying Zhu,  B. Alam,  B. Albrecht,  
 A. Aldossary,  E. Alguire,  J. H. Andersen,  D. Barton,  K. Begam,  A. Behn,  
 Y. A. Bernard,  E. J. Berquist,  H. Burton,  A. Carreras,  K. Carter-Fenk,  
 R. Chakraborty,  A. D. Chien,  K. D. Closser,  V. Cofer-Shabica,  
 S. Dasgupta,  Jia Deng,  M. de Wergifosse,  M. Diedenhofen,  Hainam Do,  
 S. Ehlert,  Po-Tung Fang,  S. Fatehi,  Qingguo Feng,  J. Gayvert,  
 Qinghui Ge,  G. Gidofalvi,  M. Goldey,  J. Gomes,  C. Gonzalez-Espinoza,  
 S. Gulania,  A. Gunina,  M. W. D. Hanson-Heine,  P. H. P. Harbach,  
 A. W. Hauser,  M. F. Herbst,  M. Hernandez Vera,  M. Hodecker,  
 Z. C. Holden,  S. Houck,  Xunkun Huang,  Kerwin Hui,  B. C. Huynh,  
 M. Ivanov,  Hyunjun Ji,  Hanjie Jiang,  B. Kaduk,  S. Kaehler,  
 K. Khistyaev,  Jaehoon Kim,  P. Klunzinger,  Z. Koczor-Benda,  
 Joong Hoon Koh,  D. Kosenkov,  L. Koulias,  T. Kowalczyk,  C. M. Krauter,  
 K. Kue,  A. Kunitsa,  T. Kus,  A. Landau,  K. V. Lawler,  D. Lefrancois,  
 S. Lehtola,  Rain Li,  Yi-Pei Li,  Jiashu Liang,  M. Liebenthal,  
 Hung-Hsuan Lin,  You-Sheng Lin,  Fenglai Liu,  Kuan-Yu Liu,  
 M. Loipersberger,  A. Luenser,  A. Manjanath,  P. Manohar,  E. Mansoor,  
 S. F. Manzer,  Shan-Ping Mao,  A. V. Marenich,  T. Markovich,  S. Mason,  
 S. A. Maurer,  P. F. McLaughlin,  M. F. S. J. Menger,  J.-M. Mewes,  
 S. A. Mewes,  P. Morgante,  J. W. Mullinax,  T. S. Nguyen-Beck,  
 K. J. Oosterbaan,  G. Paran,  Alexander C. Paul,  Suranjan K. Paul,  
 F. Pavosevic,  Zheng Pei,  S. Prager,  E. I. Proynov,  E. Ramos,  B. Rana,  
 A. E. Rask,  A. Rettig,  R. M. Richard,  F. Rob,  E. Rossomme,  T. Scheele,  
 M. Scheurer,  M. Schneider,  N. Sergueev,  S. M. Sharada,  W. Skomorowski,  
 D. W. Small,  C. J. Stein,  Yu-Chuan Su,  E. J. Sundstrom,  Zhen Tao,  
 J. Thirman,  T. Tsuchimochi,  N. M. Tubman,  S. P. Veccham,  O. Vydrov,  
 J. Wenzel,  J. Witte,  A. Yamada,  Kun Yao,  S. Yeganeh,  S. R. Yost,  
 A. Zech,  Igor Ying Zhang,  Xing Zhang,  Yu Zhang,  D. Zuev,  
 A. Aspuru-Guzik,  A. T. Bell,  N. A. Besley,  K. B. Bravaya,  B. R. Brooks,  
 D. Casanova,  Jeng-Da Chai,  S. Coriani,  C. J. Cramer,  
 A. E. DePrince, III,  R. A. DiStasio Jr.,  A. Dreuw,  B. D. Dunietz,  
 T. R. Furlani,  W. A. Goddard III,  S. Grimme,  S. Hammes-Schiffer,  
 T. Head-Gordon,  W. J. Hehre,  Chao-Ping Hsu,  T.-C. Jagau,  Yousung Jung,  
 A. Klamt,  Jing Kong,  D. S. Lambrecht,  WanZhen Liang,  N. J. Mayhall,  
 C. W. McCurdy,  J. B. Neaton,  C. Ochsenfeld,  J. A. Parkhill,  R. Peverati,  
 V. A. Rassolov,  Yihan Shao,  L. V. Slipchenko,  T. Stauch,  R. P. Steele,  
 J. E. Subotnik,  A. J. W. Thom,  A. Tkatchenko,  D. G. Truhlar,  
 T. Van Voorhis,  T. A. Wesolowski,  K. B. Whaley,  H. L. Woodcock III,  
 P. M. Zimmerman,  S. Faraji,  P. M. W. Gill,  M. Head-Gordon,  
 J. M. Herbert,  A. I. Krylov

 Contributors to earlier versions of Q-Chem not listed above: 
 R. D. Adamson,  B. Austin,  R. Baer,  J. Baker,  G. J. O. Beran,  
 K. Brandhorst,  S. T. Brown,  E. F. C. Byrd,  A. K. Chakraborty,  
 G. K. L. Chan,  Chun-Min Chang,  Yunqing Chen,  C.-L. Cheng,  
 Siu Hung Chien,  D. M. Chipman,  D. L. Crittenden,  H. Dachsel,  
 R. J. Doerksen,  A. D. Dutoi,  R. G. Edgar,  J. Fosso-Tande,  
 L. Fusti-Molnar,  D. Ghosh,  A. Ghysels,  A. Golubeva-Zadorozhnaya,  
 J. Gonthier,  M. S. Gordon,  S. R. Gwaltney,  G. Hawkins,  J. E. Herr,  
 A. Heyden,  S. Hirata,  E. G. Hohenstein,  G. Kedziora,  F. J. Keil,  
 C. Kelley,  Jihan Kim,  R. A. King,  R. Z. Khaliullin,  P. P. Korambath,  
 W. Kurlancheek,  A. Laurent,  A. M. Lee,  M. S. Lee,  S. V. Levchenko,  
 Ching Yeh Lin,  D. Liotard,  E. Livshits,  R. C. Lochan,  I. Lotan,  
 L. A. Martinez-Martinez,  P. E. Maslen,  N. Nair,  D. P. O'Neill,  
 D. Neuhauser,  E. Neuscamman,  C. M. Oana,  R. Olivares-Amaya,  R. Olson,  
 T. M. Perrine,  B. Peters,  P. A. Pieniazek,  A. Prociuk,  Y. M. Rhee,  
 J. Ritchie,  M. A. Rohrdanz,  E. Rosta,  N. J. Russ,  H. F. Schaefer III,  
 M. W. Schmidt,  N. E. Schultz,  S. Sharma,  N. Shenvi,  C. D. Sherrill,  
 A. C. Simmonett,  A. Sodt,  T. Stein,  D. Stuck,  K. S. Thanthiriwatte,  
 V. Vanovschi,  L. Vogt,  Tao Wang,  A. Warshel,  M. A. Watson,  
 C. F. Williams,  Q. Wu,  X. Xu,  Jun Yang,  W. Zhang,  Yan Zhao

 Please cite Q-Chem as follows:
 Y. Shao et al., Mol. Phys. 113, 184-215 (2015)
 DOI: 10.1080/00268976.2014.952696

 Q-Chem 5.4.0 for Intel X86 EM64T Linux

 Parts of Q-Chem use Armadillo 9.800.1 (Horizon Scraper).
 http://arma.sourceforge.net/

 Q-Chem begins on Sun Jul 10 02:12:12 2022  

 Host: 
0

     Scratch files written to ./qchem2249275//
 May1621 |scratch|qcdevops|jenkins|workspace|build_RNUM    
 Processing $rem in /cm/shared/apps/spack/cpu/opt/spack/linux-centos8-zen2/gcc-10.2.0/qchem-5.4-akfmr7b3t57bfs6qan3padb2wnb2i7cl/config/preferences:
 Processing $rem in /home/theleonzhang/.qchemrc:
 Symmetry turned off for PCM/SM12/SMD calculation
 Core orbitals will be frozen

 Checking the input file for inconsistencies... 	...done.

--------------------------------------------------------------
User input:
--------------------------------------------------------------
$molecule
0 1
C	-0.775127	-3.866725	-0.000713
C	0.612565	-3.703963	-0.000302
C	1.066639	-2.357056	0.000067
H	1.302900	-4.561092	-0.000470
C	-0.000000	-1.440664	-0.000000
S	-1.544483	-2.286957	0.000009
C	2.521872	-1.978743	0.000295
H	3.166949	-2.878678	0.000221
H	2.790821	-1.376015	0.892850
H	2.791023	-1.375728	-0.892005
C	0.000000	0.000000	0.000000
C	0.149995	0.850475	1.099446
C	0.390327	2.213354	0.776721
H	0.085947	0.487279	2.136088
C	0.428665	2.430655	-0.612546
S	0.163670	0.928078	-1.486809
C	0.579235	3.284574	1.814609
H	0.505323	2.865404	2.836676
H	-0.185980	4.083890	1.726239
H	1.571698	3.773937	1.726228
H	0.593515	3.365448	-1.161575
H	-1.119411	-4.392713	0.896681
H	-1.119277	-4.392347	-0.898372
H	0.000115	-1.440391	-1.080000
$end

$rem
JOBTYPE		SP
EXCHANGE	HF
CORRELATION	pRIMP2
BASIS		cc-pvtz
METHOD		rimp2
AUX_BASIS	rimp2-cc-pvtz
SOLVENT_METHOD	PCM
PURECART	11111
SYMMETRY	false
MEM_TOTAL	110000
SCF_CONVERGENCE = 6
THRESH=10
$end



$solvent
dielectric 4.90
$end
--------------------------------------------------------------
 ----------------------------------------------------------------
             Standard Nuclear Orientation (Angstroms)
    I     Atom           X                Y                Z
 ----------------------------------------------------------------
    1      C      -0.7751270000    -3.8667250000    -0.0007130000
    2      C       0.6125650000    -3.7039630000    -0.0003020000
    3      C       1.0666390000    -2.3570560000     0.0000670000
    4      H       1.3029000000    -4.5610920000    -0.0004700000
    5      C       0.0000000000    -1.4406640000     0.0000000000
    6      S      -1.5444830000    -2.2869570000     0.0000090000
    7      C       2.5218720000    -1.9787430000     0.0002950000
    8      H       3.1669490000    -2.8786780000     0.0002210000
    9      H       2.7908210000    -1.3760150000     0.8928500000
   10      H       2.7910230000    -1.3757280000    -0.8920050000
   11      C       0.0000000000     0.0000000000     0.0000000000
   12      C       0.1499950000     0.8504750000     1.0994460000
   13      C       0.3903270000     2.2133540000     0.7767210000
   14      H       0.0859470000     0.4872790000     2.1360880000
   15      C       0.4286650000     2.4306550000    -0.6125460000
   16      S       0.1636700000     0.9280780000    -1.4868090000
   17      C       0.5792350000     3.2845740000     1.8146090000
   18      H       0.5053230000     2.8654040000     2.8366760000
   19      H      -0.1859800000     4.0838900000     1.7262390000
   20      H       1.5716980000     3.7739370000     1.7262280000
   21      H       0.5935150000     3.3654480000    -1.1615750000
   22      H      -1.1194110000    -4.3927130000     0.8966810000
   23      H      -1.1192770000    -4.3923470000    -0.8983720000
   24      H       0.0001150000    -1.4403910000    -1.0800000000
 ----------------------------------------------------------------
 Nuclear Repulsion Energy =         872.53302458 hartrees
 There are       52 alpha and       52 beta electrons

 Q-Chem warning in module forms1/BasisType.C, line 2236:

 You are not using the predefined 5D/6D in this basis set.

 Requested basis set is cc-pVTZ
 There are 196 shells and 536 basis functions

 Total QAlloc Memory Limit 110000 MB
 Mega-Array Size       188 MB
 MEM_STATIC part       192 MB
 Discretize the solute cavity surface with Lebedev spheres
	Using 110 Lebedev grid points for each H atom
	Using 194 Lebedev grid points for other atoms
	Atomic van der Waals radii will be scaled by 1.20
 Remove points where switching function is < 1.0e-08
 Keep 1621 surface tesserae and discard 2027 interior tesserae
 Molecular Surface Area = 239.843 Angst**2
 Requested basis set is rimp2-cc-pVTZ
 There are 414 shells and 1414 basis functions
 A cutoff of  1.0D-10 yielded  13963 shell pairs
 There are    101275 function pairs (    129994 Cartesian)
 Smallest overlap matrix eigenvalue = 5.86E-05

 Scale SEOQF with 1.000000e-01/1.000000e-01/1.000000e-01

 Standard Electronic Orientation quadrupole field applied
 Nucleus-field energy     =     0.0000000372 hartrees
 Guess from superposition of atomic densities
 Warning:  Energy on first SCF cycle will be non-variational
 SAD guess density has 104.000000 electrons

 -----------------------------------------------------------------------
  General SCF calculation program by
  Eric Jon Sundstrom, Paul Horn, Yuezhi Mao, Dmitri Zuev, Alec White,
  David Stuck, Shaama M.S., Shane Yost, Joonho Lee, David Small,
  Daniel Levine, Susi Lehtola, Hugh Burton, Evgeny Epifanovsky,
  Bang C. Huynh
 -----------------------------------------------------------------------
 Hartree-Fock
 A restricted SCF calculation will be
 performed using DIIS
 SCF converges when DIIS error is below 1.0e-06
 ---------------------------------------
  Cycle       Energy         DIIS error
 ---------------------------------------
    1   -1186.0216092330      2.39e-02  
    2   -1180.6135763529      1.56e-03  
    3   -1180.7384095426      6.00e-04  
    4   -1180.7524922612      3.26e-04  
    5   -1180.7573660712      6.06e-05  
    6   -1180.7576155946      2.47e-05  
    7   -1180.7576764517      9.33e-06  
    8   -1180.7576906755      4.51e-06  
    9   -1180.7576939953      1.50e-06  
   10   -1180.7576944785      5.03e-07  Convergence criterion met
 ---------------------------------------
 SCF time:   CPU 563.65s  wall 566.00s 

************** Final PCM Free Energy Summary **************
 G_electrostatic  =      -0.00870384 hartree =      -5.46173940 kcal/mol
 G_cavitation     =       0.00000000 hartree =       0.00000000 kcal/mol
 G_dispersion     =       0.00000000 hartree =       0.00000000 kcal/mol
 G_repulsion      =       0.00000000 hartree =       0.00000000 kcal/mol
 --------------------------------------------------
 Non-electrostatic Free Energy =       0.00000000 hartree =       0.00000000 kcal/mol
 Total                         =      -0.00870384 hartree =      -5.46173940 kcal/mol
 --------------------------------------------------
 SCF Energy (H0 + V/2)                       =   -1180.75769448 
 Solute Internal Energy (H0)                 =   -1180.74899064 
 Total Free Energy (H0 + V/2 + non-elec)     =   -1180.75769448 hartree
                                             = -740936.63624140 kcal/mol
***********************************************************

 SCF   energy in the final basis set =    -1180.7576944785
 Total energy in the final basis set =    -1180.7576944785


 --------------------------------------------------------------
  Generalized many-body perturbation theory program
  by Joonho Lee, Fazle Rob, Xintian Feng, Evgeny Epifanovsky

 No regularization used 
 (reg. param. = 0.0000e+00)
  (P|Q)^-1/2 Time:  CPU 1.88 s  wall 1.89 s

 In RI-MP2 calculation: 
 # of frozen core orbitals: 20

 Components of the RIMP2 correlation energy:
        aaaa    correlation energy =        -0.2510422007 a.u.
        abab    correlation energy =        -1.5028059354 a.u.
        bbbb    correlation energy =        -0.2510422007 a.u.
        non-Brillouin singles      =        -0.0000000000 a.u.
        total same-spin energy     =        -0.5020844013 a.u.
        total opposite-spin energy =        -1.5028059354 a.u.

 Total  RIMP2   correlation energy =        -2.0048903367 a.u.
        RIMP2         total energy =     -1182.7625848152 a.u.

 RI-MP2 Energy Time:  CPU 78.91 s  wall 79.06 s
 
 --------------------------------------------------------------
 
                    Orbital Energies (a.u.)
 --------------------------------------------------------------
 
 Alpha MOs
 -- Occupied --
-91.9868 -91.9403 -11.2778 -11.2663 -11.2627 -11.2547 -11.2512 -11.2402
-11.2394 -11.2311 -11.2290 -11.2188  -8.9865  -8.9450  -6.6673  -6.6668
 -6.6662  -6.6264  -6.6253  -6.6241  -1.1979  -1.1537  -1.0587  -1.0256
 -1.0031  -0.9631  -0.9128  -0.9004  -0.8122  -0.7631  -0.7413  -0.7041
 -0.6535  -0.6336  -0.6111  -0.5874  -0.5761  -0.5731  -0.5695  -0.5539
 -0.5427  -0.5292  -0.5147  -0.5050  -0.4913  -0.4800  -0.4642  -0.4475
 -0.3556  -0.3418  -0.3121  -0.2820
 -- Virtual --
  0.0943   0.1281   0.1402   0.1521   0.1596   0.1659   0.1799   0.1835
  0.1855   0.1924   0.2041   0.2112   0.2297   0.2333   0.2410   0.2437
  0.2494   0.2606   0.2675   0.2910   0.2996   0.3385   0.3480   0.3514
  0.3660   0.3748   0.3772   0.3836   0.3925   0.3985   0.4113   0.4211
  0.4404   0.4453   0.4534   0.4606   0.4678   0.4756   0.4814   0.4909
  0.5022   0.5125   0.5233   0.5281   0.5350   0.5425   0.5512   0.5553
  0.5707   0.5747   0.5813   0.5849   0.5999   0.6078   0.6133   0.6177
  0.6212   0.6277   0.6303   0.6390   0.6414   0.6457   0.6482   0.6541
  0.6619   0.6640   0.6754   0.6860   0.6959   0.6996   0.7136   0.7317
  0.7382   0.7448   0.7522   0.7637   0.7787   0.7998   0.8113   0.8200
  0.8247   0.8402   0.8541   0.8591   0.8718   0.8923   0.8989   0.9146
  0.9234   0.9360   0.9487   0.9495   0.9802   0.9905   0.9973   1.0087
  1.0181   1.0224   1.0335   1.0436   1.0522   1.0617   1.0758   1.0812
  1.0839   1.0964   1.1072   1.1215   1.1290   1.1494   1.1607   1.1725
  1.1750   1.1935   1.1958   1.2067   1.2150   1.2210   1.2364   1.2494
  1.2521   1.2573   1.2607   1.2748   1.2797   1.2934   1.3047   1.3170
  1.3220   1.3337   1.3447   1.3605   1.3635   1.3827   1.4075   1.4105
  1.4225   1.4247   1.4470   1.4563   1.4656   1.4757   1.4896   1.4963
  1.5037   1.5068   1.5163   1.5338   1.5364   1.5420   1.5482   1.5534
  1.5630   1.5779   1.5811   1.5975   1.6126   1.6293   1.6320   1.6403
  1.6603   1.6805   1.6846   1.6970   1.7012   1.7111   1.7196   1.7231
  1.7400   1.7481   1.7584   1.7867   1.8073   1.8152   1.8538   1.8636
  1.8957   1.8989   1.9162   1.9289   1.9476   1.9732   1.9877   1.9974
  2.0140   2.0330   2.0400   2.0516   2.0896   2.1274   2.1388   2.1495
  2.1819   2.1982   2.2003   2.2165   2.2221   2.2400   2.2696   2.2848
  2.3103   2.3207   2.3464   2.3771   2.4004   2.4090   2.4563   2.4639
  2.4986   2.5036   2.5315   2.5380   2.5591   2.5982   2.6125   2.6212
  2.6244   2.6289   2.6464   2.6582   2.6760   2.6840   2.7071   2.7163
  2.7352   2.7454   2.7604   2.7707   2.7770   2.7795   2.7939   2.8281
  2.8341   2.8516   2.8569   2.8744   2.8890   2.9113   2.9181   2.9257
  2.9404   2.9517   2.9683   2.9892   3.0102   3.0215   3.0362   3.0472
  3.0676   3.0738   3.0995   3.1077   3.1111   3.1187   3.1346   3.1414
  3.1421   3.1549   3.1593   3.1655   3.1781   3.1962   3.2063   3.2138
  3.2321   3.2400   3.2492   3.2688   3.2707   3.2806   3.2925   3.3017
  3.3170   3.3251   3.3291   3.3368   3.3444   3.3548   3.3580   3.3597
  3.3805   3.3868   3.3970   3.3980   3.4113   3.4132   3.4233   3.4348
  3.4412   3.4446   3.4621   3.4673   3.4811   3.4948   3.5052   3.5106
  3.5183   3.5264   3.5296   3.5348   3.5501   3.5561   3.5703   3.5767
  3.5803   3.6001   3.6139   3.6196   3.6289   3.6350   3.6436   3.6582
  3.6613   3.6829   3.6932   3.6957   3.7045   3.7240   3.7317   3.7330
  3.7473   3.7511   3.7687   3.7777   3.7825   3.7871   3.8127   3.8234
  3.8288   3.8322   3.8582   3.8695   3.8758   3.8830   3.9036   3.9118
  3.9222   3.9384   3.9499   3.9605   3.9748   3.9835   3.9953   4.0072
  4.0325   4.0476   4.0532   4.0559   4.0767   4.0818   4.0965   4.0997
  4.1214   4.1359   4.1504   4.1574   4.1625   4.1716   4.1773   4.2050
  4.2099   4.2192   4.2356   4.2458   4.2497   4.2620   4.2722   4.2856
  4.2865   4.2913   4.3197   4.3260   4.3391   4.3495   4.3618   4.3750
  4.3845   4.3941   4.3976   4.4010   4.4155   4.4211   4.4422   4.4521
  4.4662   4.4696   4.4765   4.4807   4.4867   4.5119   4.5360   4.5609
  4.5727   4.5771   4.6077   4.6214   4.6259   4.6482   4.6501   4.6709
  4.6774   4.6999   4.7434   4.7518   4.7669   4.7982   4.8159   4.8409
  4.8581   4.8847   4.8887   4.8999   4.9310   4.9573   4.9800   4.9941
  5.0221   5.0468   5.0807   5.1003   5.1128   5.1264   5.1436   5.1877
  5.1980   5.2231   5.2292   5.2623   5.2782   5.2872   5.3094   5.3220
  5.3534   5.3659   5.3763   5.4020   5.4108   5.4200   5.4427   5.4592
  5.4638   5.5214   5.5295   5.5365   5.5503   5.5575   5.5715   5.5948
  5.6179   5.6245   5.6333   5.6660   5.6882   5.6918   5.7044   5.7399
  5.7653   5.7852   5.8330   5.9620   5.9922   6.0639   6.1229   6.1464
  6.2041   6.2186   6.2243   6.2332   6.2554   6.2820   6.3103   6.3192
  6.3869   6.5147   9.4034  10.5188  12.1065  12.9255  13.1598  14.0094
 14.0699  14.2163  14.3397  14.7740
 --------------------------------------------------------------
 
          Ground-State Mulliken Net Atomic Charges

     Atom                 Charge (a.u.)
  ----------------------------------------
      1 C                    -0.078677
      2 C                    -0.331340
      3 C                    -0.012315
      4 H                     0.176028
      5 C                     0.096648
      6 S                    -0.178569
      7 C                    -0.265675
      8 H                     0.113505
      9 H                     0.105926
     10 H                     0.102501
     11 C                    -0.109151
     12 C                    -0.228928
     13 C                     0.022844
     14 H                     0.185899
     15 C                    -0.245032
     16 S                     0.015791
     17 C                    -0.272291
     18 H                     0.102956
     19 H                     0.108422
     20 H                     0.107458
     21 H                     0.199016
     22 H                     0.113018
     23 H                     0.110419
     24 H                     0.161549
  ----------------------------------------
  Sum of atomic charges =     0.000000

 -----------------------------------------------------------------
                    Cartesian Multipole Moments
 -----------------------------------------------------------------
    Charge (ESU x 10^10)
                -0.0000
    Dipole Moment (Debye)
         X       2.7910      Y       0.7843      Z       0.7205
       Tot       2.9873
    Quadrupole Moments (Debye-Ang)
        XX     -91.5005     XY      -1.7954     YY     -74.0164
        XZ       0.4688     YZ       2.3028     ZZ     -85.8718
    Octopole Moments (Debye-Ang^2)
       XXX     -31.8734    XXY      42.7192    XYY      -6.1762
       YYY     128.6010    XXZ      -1.0135    XYZ      -1.2882
       YYZ      -5.9964    XZZ     -12.8327    YZZ      57.1356
       ZZZ       4.4518
    Hexadecapole Moments (Debye-Ang^3)
      XXXX    -733.6629   XXXY    -123.2161   XXYY    -616.2944
      XYYY     -65.0384   YYYY   -2766.5657   XXXZ     -13.9378
      XXYZ     -30.0363   XYYZ      -6.4265   YYYZ    -105.5970
      XXZZ    -224.5722   XYZZ     -21.2656   YYZZ    -593.8729
      XZZZ     -16.4225   YZZZ     -96.7441   ZZZZ    -535.6312
 -----------------------------------------------------------------
 Total job time:  647.56s(wall), 643.43s(cpu) 
 Sun Jul 10 02:23:00 2022

        *************************************************************
        *                                                           *
        *  Thank you very much for using Q-Chem.  Have a nice day.  *
        *                                                           *
        *************************************************************


remove work dirs ./qchem2249275.0 -- ./qchem2249275.-1
rm -rf ./qchem2249275
