You are running Q-Chem version: 5.4.0

#
# job setting
#
local host:  exp-4-15
current dir: /expanse/lustre/scratch/theleonzhang/temp_project/Hydrogenated_Rotation_Test
input file:  Methylthiophene_Phi_60_Theta_210_Methylthiophene_Hydrogenated_Alternate.qcin
output file: 
nprocs     : 0
nthreads   : 1
#
# qchem installation setting
#
QC:          /cm/shared/apps/spack/cpu/opt/spack/linux-centos8-zen2/gcc-10.2.0/qchem-5.4-akfmr7b3t57bfs6qan3padb2wnb2i7cl
QCAUX:       /cm/shared/apps/spack/cpu/opt/spack/linux-centos8-zen2/gcc-10.2.0/qchem-5.4-akfmr7b3t57bfs6qan3padb2wnb2i7cl/qcaux
QCPROG:      /cm/shared/apps/spack/cpu/opt/spack/linux-centos8-zen2/gcc-10.2.0/qchem-5.4-akfmr7b3t57bfs6qan3padb2wnb2i7cl/exe/qcprog.exe_s
QCPROG_S:    /cm/shared/apps/spack/cpu/opt/spack/linux-centos8-zen2/gcc-10.2.0/qchem-5.4-akfmr7b3t57bfs6qan3padb2wnb2i7cl/exe/qcprog.exe_s
PARALLEL:    -DSERIAL
QCMPI:       mpich
#
# qchem directory setting
#
qcrun:       qchem264230
QCSCRATCH:   .
QCLOCALSCR:  
QCTMPDIR:    .
QCFILEPREF:  ./qchem264230
QCSAVEDIR:   
workdirs:    ./qchem264230
workdir0:    ./qchem264230
partmpdirs =  
#
# parallel setting
#
QCRSH:           ssh
QCMPI:           mpich
QCMPIRUN:        /cm/shared/apps/spack/cpu/opt/spack/linux-centos8-zen2/gcc-10.2.0/qchem-5.4-akfmr7b3t57bfs6qan3padb2wnb2i7cl/bin/mpi/mpirun_qchem
QCMACHINEFILE:   ./qchem264230/hostfile

#
# env setting
#
exported envs:   QC QCAUX QCSCRATCH QCRUNNAME QCFILEPREF QCPROG QCPROG_S GUIFILE

Running Job 1 of 1 Methylthiophene_Phi_60_Theta_210_Methylthiophene_Hydrogenated_Alternate.qcin
qchem Methylthiophene_Phi_60_Theta_210_Methylthiophene_Hydrogenated_Alternate.qcin_264230.0 ./qchem264230/ 0
/cm/shared/apps/spack/cpu/opt/spack/linux-centos8-zen2/gcc-10.2.0/qchem-5.4-akfmr7b3t57bfs6qan3padb2wnb2i7cl/exe/qcprog.exe_s Methylthiophene_Phi_60_Theta_210_Methylthiophene_Hydrogenated_Alternate.qcin_264230.0 ./qchem264230/
                  Welcome to Q-Chem
     A Quantum Leap Into The Future Of Chemistry


 Q-Chem 5.4, Q-Chem, Inc., Pleasanton, CA (2021)

 License issued to: University of California, San Diego (site)

 E. Epifanovsky,  A. T. B. Gilbert,  Xintian Feng,  Joonho Lee,  Yuezhi Mao,  
 N. Mardirossian,  P. Pokhilko,  A. White,  M. Wormit,  M. P. Coons,  
 A. L. Dempwolff,  Zhengting Gan,  D. Hait,  P. R. Horn,  L. D. Jacobson,  
 I. Kaliman,  J. Kussmann,  A. W. Lange,  Ka Un Lao,  D. S. Levine,  Jie Liu,  
 S. C. McKenzie,  A. F. Morrison,  K. Nanda,  F. Plasser,  D. R. Rehn,  
 M. L. Vidal,  Zhi-Qiang You,  Ying Zhu,  B. Alam,  B. Albrecht,  
 A. Aldossary,  E. Alguire,  J. H. Andersen,  D. Barton,  K. Begam,  A. Behn,  
 Y. A. Bernard,  E. J. Berquist,  H. Burton,  A. Carreras,  K. Carter-Fenk,  
 R. Chakraborty,  A. D. Chien,  K. D. Closser,  V. Cofer-Shabica,  
 S. Dasgupta,  Jia Deng,  M. de Wergifosse,  M. Diedenhofen,  Hainam Do,  
 S. Ehlert,  Po-Tung Fang,  S. Fatehi,  Qingguo Feng,  J. Gayvert,  
 Qinghui Ge,  G. Gidofalvi,  M. Goldey,  J. Gomes,  C. Gonzalez-Espinoza,  
 S. Gulania,  A. Gunina,  M. W. D. Hanson-Heine,  P. H. P. Harbach,  
 A. W. Hauser,  M. F. Herbst,  M. Hernandez Vera,  M. Hodecker,  
 Z. C. Holden,  S. Houck,  Xunkun Huang,  Kerwin Hui,  B. C. Huynh,  
 M. Ivanov,  Hyunjun Ji,  Hanjie Jiang,  B. Kaduk,  S. Kaehler,  
 K. Khistyaev,  Jaehoon Kim,  P. Klunzinger,  Z. Koczor-Benda,  
 Joong Hoon Koh,  D. Kosenkov,  L. Koulias,  T. Kowalczyk,  C. M. Krauter,  
 K. Kue,  A. Kunitsa,  T. Kus,  A. Landau,  K. V. Lawler,  D. Lefrancois,  
 S. Lehtola,  Rain Li,  Yi-Pei Li,  Jiashu Liang,  M. Liebenthal,  
 Hung-Hsuan Lin,  You-Sheng Lin,  Fenglai Liu,  Kuan-Yu Liu,  
 M. Loipersberger,  A. Luenser,  A. Manjanath,  P. Manohar,  E. Mansoor,  
 S. F. Manzer,  Shan-Ping Mao,  A. V. Marenich,  T. Markovich,  S. Mason,  
 S. A. Maurer,  P. F. McLaughlin,  M. F. S. J. Menger,  J.-M. Mewes,  
 S. A. Mewes,  P. Morgante,  J. W. Mullinax,  T. S. Nguyen-Beck,  
 K. J. Oosterbaan,  G. Paran,  Alexander C. Paul,  Suranjan K. Paul,  
 F. Pavosevic,  Zheng Pei,  S. Prager,  E. I. Proynov,  E. Ramos,  B. Rana,  
 A. E. Rask,  A. Rettig,  R. M. Richard,  F. Rob,  E. Rossomme,  T. Scheele,  
 M. Scheurer,  M. Schneider,  N. Sergueev,  S. M. Sharada,  W. Skomorowski,  
 D. W. Small,  C. J. Stein,  Yu-Chuan Su,  E. J. Sundstrom,  Zhen Tao,  
 J. Thirman,  T. Tsuchimochi,  N. M. Tubman,  S. P. Veccham,  O. Vydrov,  
 J. Wenzel,  J. Witte,  A. Yamada,  Kun Yao,  S. Yeganeh,  S. R. Yost,  
 A. Zech,  Igor Ying Zhang,  Xing Zhang,  Yu Zhang,  D. Zuev,  
 A. Aspuru-Guzik,  A. T. Bell,  N. A. Besley,  K. B. Bravaya,  B. R. Brooks,  
 D. Casanova,  Jeng-Da Chai,  S. Coriani,  C. J. Cramer,  
 A. E. DePrince, III,  R. A. DiStasio Jr.,  A. Dreuw,  B. D. Dunietz,  
 T. R. Furlani,  W. A. Goddard III,  S. Grimme,  S. Hammes-Schiffer,  
 T. Head-Gordon,  W. J. Hehre,  Chao-Ping Hsu,  T.-C. Jagau,  Yousung Jung,  
 A. Klamt,  Jing Kong,  D. S. Lambrecht,  WanZhen Liang,  N. J. Mayhall,  
 C. W. McCurdy,  J. B. Neaton,  C. Ochsenfeld,  J. A. Parkhill,  R. Peverati,  
 V. A. Rassolov,  Yihan Shao,  L. V. Slipchenko,  T. Stauch,  R. P. Steele,  
 J. E. Subotnik,  A. J. W. Thom,  A. Tkatchenko,  D. G. Truhlar,  
 T. Van Voorhis,  T. A. Wesolowski,  K. B. Whaley,  H. L. Woodcock III,  
 P. M. Zimmerman,  S. Faraji,  P. M. W. Gill,  M. Head-Gordon,  
 J. M. Herbert,  A. I. Krylov

 Contributors to earlier versions of Q-Chem not listed above: 
 R. D. Adamson,  B. Austin,  R. Baer,  J. Baker,  G. J. O. Beran,  
 K. Brandhorst,  S. T. Brown,  E. F. C. Byrd,  A. K. Chakraborty,  
 G. K. L. Chan,  Chun-Min Chang,  Yunqing Chen,  C.-L. Cheng,  
 Siu Hung Chien,  D. M. Chipman,  D. L. Crittenden,  H. Dachsel,  
 R. J. Doerksen,  A. D. Dutoi,  R. G. Edgar,  J. Fosso-Tande,  
 L. Fusti-Molnar,  D. Ghosh,  A. Ghysels,  A. Golubeva-Zadorozhnaya,  
 J. Gonthier,  M. S. Gordon,  S. R. Gwaltney,  G. Hawkins,  J. E. Herr,  
 A. Heyden,  S. Hirata,  E. G. Hohenstein,  G. Kedziora,  F. J. Keil,  
 C. Kelley,  Jihan Kim,  R. A. King,  R. Z. Khaliullin,  P. P. Korambath,  
 W. Kurlancheek,  A. Laurent,  A. M. Lee,  M. S. Lee,  S. V. Levchenko,  
 Ching Yeh Lin,  D. Liotard,  E. Livshits,  R. C. Lochan,  I. Lotan,  
 L. A. Martinez-Martinez,  P. E. Maslen,  N. Nair,  D. P. O'Neill,  
 D. Neuhauser,  E. Neuscamman,  C. M. Oana,  R. Olivares-Amaya,  R. Olson,  
 T. M. Perrine,  B. Peters,  P. A. Pieniazek,  A. Prociuk,  Y. M. Rhee,  
 J. Ritchie,  M. A. Rohrdanz,  E. Rosta,  N. J. Russ,  H. F. Schaefer III,  
 M. W. Schmidt,  N. E. Schultz,  S. Sharma,  N. Shenvi,  C. D. Sherrill,  
 A. C. Simmonett,  A. Sodt,  T. Stein,  D. Stuck,  K. S. Thanthiriwatte,  
 V. Vanovschi,  L. Vogt,  Tao Wang,  A. Warshel,  M. A. Watson,  
 C. F. Williams,  Q. Wu,  X. Xu,  Jun Yang,  W. Zhang,  Yan Zhao

 Please cite Q-Chem as follows:
 Y. Shao et al., Mol. Phys. 113, 184-215 (2015)
 DOI: 10.1080/00268976.2014.952696

 Q-Chem 5.4.0 for Intel X86 EM64T Linux

 Parts of Q-Chem use Armadillo 9.800.1 (Horizon Scraper).
 http://arma.sourceforge.net/

 Q-Chem begins on Sun Jul 10 04:51:42 2022  

 Host: 
0

     Scratch files written to ./qchem264230//
 May1621 |scratch|qcdevops|jenkins|workspace|build_RNUM    
 Processing $rem in /cm/shared/apps/spack/cpu/opt/spack/linux-centos8-zen2/gcc-10.2.0/qchem-5.4-akfmr7b3t57bfs6qan3padb2wnb2i7cl/config/preferences:
 Processing $rem in /home/theleonzhang/.qchemrc:
 Symmetry turned off for PCM/SM12/SMD calculation
 Core orbitals will be frozen

 Checking the input file for inconsistencies... 	...done.

--------------------------------------------------------------
User input:
--------------------------------------------------------------
$molecule
0 1
C	0.388181	-3.866725	-0.670924
C	-0.306020	-3.703963	0.530648
C	-0.533378	-2.357056	0.923703
H	-0.651043	-4.561092	1.128579
C	0.000000	-1.440664	0.000000
S	0.772234	-2.286957	-1.337567
C	-1.261192	-1.978743	2.183857
H	-1.583666	-2.878678	2.742548
H	-2.168641	-1.376015	1.970497
H	-0.623012	-1.375728	2.863099
C	0.000000	0.000000	0.000000
C	0.747916	0.431772	1.099446
C	1.946425	1.123709	0.776721
H	0.428523	0.247378	2.136088
C	2.137531	1.234018	-0.612546
S	0.816154	0.471179	-1.486809
C	2.888455	1.667564	1.814609
H	2.519842	1.454746	2.836676
H	3.008896	2.767543	1.726239
H	3.901271	1.221850	1.726228
H	2.959587	1.708609	-1.161575
H	-0.216843	-4.392713	-1.417779
H	1.337652	-4.392347	-0.520136
H	0.935250	-1.440391	0.540100
$end

$rem
JOBTYPE		SP
EXCHANGE	HF
CORRELATION	pRIMP2
BASIS		cc-pvtz
METHOD		rimp2
AUX_BASIS	rimp2-cc-pvtz
SOLVENT_METHOD	PCM
PURECART	11111
SYMMETRY	false
MEM_TOTAL	110000
SCF_CONVERGENCE = 6
THRESH=10
$end



$solvent
dielectric 4.90
$end
--------------------------------------------------------------
 ----------------------------------------------------------------
             Standard Nuclear Orientation (Angstroms)
    I     Atom           X                Y                Z
 ----------------------------------------------------------------
    1      C       0.3881810000    -3.8667250000    -0.6709240000
    2      C      -0.3060200000    -3.7039630000     0.5306480000
    3      C      -0.5333780000    -2.3570560000     0.9237030000
    4      H      -0.6510430000    -4.5610920000     1.1285790000
    5      C       0.0000000000    -1.4406640000     0.0000000000
    6      S       0.7722340000    -2.2869570000    -1.3375670000
    7      C      -1.2611920000    -1.9787430000     2.1838570000
    8      H      -1.5836660000    -2.8786780000     2.7425480000
    9      H      -2.1686410000    -1.3760150000     1.9704970000
   10      H      -0.6230120000    -1.3757280000     2.8630990000
   11      C       0.0000000000     0.0000000000     0.0000000000
   12      C       0.7479160000     0.4317720000     1.0994460000
   13      C       1.9464250000     1.1237090000     0.7767210000
   14      H       0.4285230000     0.2473780000     2.1360880000
   15      C       2.1375310000     1.2340180000    -0.6125460000
   16      S       0.8161540000     0.4711790000    -1.4868090000
   17      C       2.8884550000     1.6675640000     1.8146090000
   18      H       2.5198420000     1.4547460000     2.8366760000
   19      H       3.0088960000     2.7675430000     1.7262390000
   20      H       3.9012710000     1.2218500000     1.7262280000
   21      H       2.9595870000     1.7086090000    -1.1615750000
   22      H      -0.2168430000    -4.3927130000    -1.4177790000
   23      H       1.3376520000    -4.3923470000    -0.5201360000
   24      H       0.9352500000    -1.4403910000     0.5401000000
 ----------------------------------------------------------------
 Nuclear Repulsion Energy =         906.05413095 hartrees
 There are       52 alpha and       52 beta electrons

 Q-Chem warning in module forms1/BasisType.C, line 2236:

 You are not using the predefined 5D/6D in this basis set.

 Requested basis set is cc-pVTZ
 There are 196 shells and 536 basis functions

 Total QAlloc Memory Limit 110000 MB
 Mega-Array Size       188 MB
 MEM_STATIC part       192 MB
 Discretize the solute cavity surface with Lebedev spheres
	Using 110 Lebedev grid points for each H atom
	Using 194 Lebedev grid points for other atoms
	Atomic van der Waals radii will be scaled by 1.20
 Remove points where switching function is < 1.0e-08
 Keep 1553 surface tesserae and discard 2095 interior tesserae
 Molecular Surface Area = 227.553 Angst**2
 Requested basis set is rimp2-cc-pVTZ
 There are 414 shells and 1414 basis functions
 A cutoff of  1.0D-10 yielded  14626 shell pairs
 There are    105878 function pairs (    135637 Cartesian)
 Smallest overlap matrix eigenvalue = 6.76E-05

 Scale SEOQF with 1.000000e-01/1.000000e-01/1.000000e-01

 Standard Electronic Orientation quadrupole field applied
 Nucleus-field energy     =     0.0000000198 hartrees
 Guess from superposition of atomic densities
 Warning:  Energy on first SCF cycle will be non-variational
 SAD guess density has 104.000000 electrons

 -----------------------------------------------------------------------
  General SCF calculation program by
  Eric Jon Sundstrom, Paul Horn, Yuezhi Mao, Dmitri Zuev, Alec White,
  David Stuck, Shaama M.S., Shane Yost, Joonho Lee, David Small,
  Daniel Levine, Susi Lehtola, Hugh Burton, Evgeny Epifanovsky,
  Bang C. Huynh
 -----------------------------------------------------------------------
 Hartree-Fock
 A restricted SCF calculation will be
 performed using DIIS
 SCF converges when DIIS error is below 1.0e-06
 ---------------------------------------
  Cycle       Energy         DIIS error
 ---------------------------------------
    1   -1186.2590508205      2.42e-02  
    2   -1180.5149375683      1.55e-03  
    3   -1180.6436124414      5.51e-04  
    4   -1180.6576134494      2.94e-04  
    5   -1180.6618379988      6.56e-05  
    6   -1180.6622030277      2.96e-05  
    7   -1180.6623390007      1.64e-05  
    8   -1180.6623944317      8.53e-06  
    9   -1180.6624162122      4.26e-06  
   10   -1180.6624211633      1.77e-06  
   11   -1180.6624220054      8.81e-07  Convergence criterion met
 ---------------------------------------
 SCF time:   CPU 683.17s  wall 685.00s 

************** Final PCM Free Energy Summary **************
 G_electrostatic  =      -0.01041289 hartree =      -6.53418757 kcal/mol
 G_cavitation     =       0.00000000 hartree =       0.00000000 kcal/mol
 G_dispersion     =       0.00000000 hartree =       0.00000000 kcal/mol
 G_repulsion      =       0.00000000 hartree =       0.00000000 kcal/mol
 --------------------------------------------------
 Non-electrostatic Free Energy =       0.00000000 hartree =       0.00000000 kcal/mol
 Total                         =      -0.01041289 hartree =      -6.53418757 kcal/mol
 --------------------------------------------------
 SCF Energy (H0 + V/2)                       =   -1180.66242201 
 Solute Internal Energy (H0)                 =   -1180.65200911 
 Total Free Energy (H0 + V/2 + non-elec)     =   -1180.66242201 hartree
                                             = -740876.85186218 kcal/mol
***********************************************************

 SCF   energy in the final basis set =    -1180.6624220054
 Total energy in the final basis set =    -1180.6624220054


 --------------------------------------------------------------
  Generalized many-body perturbation theory program
  by Joonho Lee, Fazle Rob, Xintian Feng, Evgeny Epifanovsky

 No regularization used 
 (reg. param. = 0.0000e+00)
  (P|Q)^-1/2 Time:  CPU 1.88 s  wall 1.89 s

 In RI-MP2 calculation: 
 # of frozen core orbitals: 20

 Components of the RIMP2 correlation energy:
        aaaa    correlation energy =        -0.2562560328 a.u.
        abab    correlation energy =        -1.5174490746 a.u.
        bbbb    correlation energy =        -0.2562560328 a.u.
        non-Brillouin singles      =        -0.0000000000 a.u.
        total same-spin energy     =        -0.5125120657 a.u.
        total opposite-spin energy =        -1.5174490746 a.u.

 Total  RIMP2   correlation energy =        -2.0299611403 a.u.
        RIMP2         total energy =     -1182.6923831457 a.u.

 RI-MP2 Energy Time:  CPU 80.55 s  wall 80.73 s
 
 --------------------------------------------------------------
 
                    Orbital Energies (a.u.)
 --------------------------------------------------------------
 
 Alpha MOs
 -- Occupied --
-91.9860 -91.9366 -11.2826 -11.2599 -11.2559 -11.2547 -11.2511 -11.2481
-11.2320 -11.2313 -11.2312 -11.2121  -8.9865  -8.9413  -6.6672  -6.6664
 -6.6662  -6.6225  -6.6214  -6.6200  -1.2115  -1.1521  -1.0597  -1.0317
 -1.0009  -0.9628  -0.9089  -0.9030  -0.8138  -0.7583  -0.7336  -0.7028
 -0.6645  -0.6424  -0.6100  -0.5932  -0.5843  -0.5717  -0.5588  -0.5564
 -0.5398  -0.5352  -0.5179  -0.5063  -0.4889  -0.4811  -0.4535  -0.4284
 -0.3555  -0.3406  -0.3237  -0.2498
 -- Virtual --
  0.0539   0.1306   0.1488   0.1556   0.1606   0.1643   0.1761   0.1833
  0.1946   0.2014   0.2078   0.2141   0.2255   0.2356   0.2393   0.2448
  0.2530   0.2645   0.2789   0.2971   0.3045   0.3287   0.3468   0.3513
  0.3638   0.3650   0.3771   0.3895   0.3917   0.4060   0.4111   0.4157
  0.4308   0.4460   0.4505   0.4643   0.4702   0.4813   0.4831   0.4938
  0.5009   0.5123   0.5208   0.5293   0.5301   0.5402   0.5584   0.5604
  0.5707   0.5867   0.5888   0.5912   0.5981   0.6061   0.6133   0.6207
  0.6232   0.6272   0.6323   0.6369   0.6378   0.6497   0.6584   0.6654
  0.6747   0.6818   0.6880   0.6961   0.7069   0.7075   0.7193   0.7277
  0.7358   0.7545   0.7726   0.7759   0.7807   0.7967   0.8156   0.8204
  0.8345   0.8422   0.8477   0.8701   0.8764   0.8793   0.9067   0.9199
  0.9248   0.9314   0.9446   0.9657   0.9717   0.9828   1.0112   1.0207
  1.0290   1.0351   1.0471   1.0570   1.0621   1.0660   1.0748   1.0864
  1.0919   1.1126   1.1245   1.1363   1.1491   1.1556   1.1677   1.1729
  1.1863   1.1936   1.2008   1.2087   1.2226   1.2252   1.2373   1.2450
  1.2500   1.2583   1.2665   1.2710   1.2839   1.2891   1.3051   1.3170
  1.3209   1.3300   1.3554   1.3731   1.3839   1.3923   1.4056   1.4089
  1.4260   1.4404   1.4538   1.4623   1.4679   1.4741   1.4854   1.4974
  1.5125   1.5226   1.5239   1.5332   1.5414   1.5442   1.5530   1.5563
  1.5665   1.5761   1.5928   1.6093   1.6292   1.6350   1.6379   1.6544
  1.6665   1.6775   1.6874   1.6932   1.7051   1.7116   1.7122   1.7362
  1.7504   1.7639   1.7727   1.7808   1.7955   1.8087   1.8346   1.8712
  1.8821   1.8916   1.9091   1.9273   1.9625   1.9665   2.0005   2.0045
  2.0219   2.0475   2.0641   2.0769   2.0905   2.1184   2.1377   2.1759
  2.1968   2.1977   2.2098   2.2187   2.2309   2.2487   2.2668   2.2733
  2.3108   2.3276   2.3471   2.4047   2.4308   2.4490   2.4615   2.4757
  2.5055   2.5118   2.5205   2.5598   2.5686   2.5896   2.6141   2.6351
  2.6483   2.6584   2.6680   2.6716   2.6836   2.7047   2.7147   2.7273
  2.7341   2.7453   2.7726   2.7797   2.7903   2.8016   2.8207   2.8339
  2.8398   2.8521   2.8641   2.8821   2.8921   2.9027   2.9171   2.9344
  2.9358   2.9548   2.9690   3.0034   3.0075   3.0197   3.0367   3.0512
  3.0515   3.0886   3.1069   3.1088   3.1213   3.1354   3.1466   3.1562
  3.1615   3.1636   3.1680   3.1733   3.1911   3.1967   3.2077   3.2155
  3.2240   3.2367   3.2546   3.2601   3.2655   3.2814   3.2886   3.3002
  3.3141   3.3250   3.3383   3.3412   3.3455   3.3668   3.3678   3.3696
  3.3788   3.3824   3.3945   3.4092   3.4146   3.4170   3.4282   3.4321
  3.4455   3.4529   3.4646   3.4736   3.4799   3.4929   3.5088   3.5206
  3.5245   3.5307   3.5394   3.5527   3.5585   3.5681   3.5803   3.5877
  3.6079   3.6134   3.6304   3.6373   3.6413   3.6488   3.6563   3.6725
  3.6879   3.6947   3.7161   3.7209   3.7274   3.7403   3.7449   3.7506
  3.7587   3.7724   3.7865   3.7889   3.8009   3.8089   3.8320   3.8364
  3.8489   3.8534   3.8604   3.8658   3.8937   3.9070   3.9191   3.9271
  3.9384   3.9570   3.9647   3.9691   3.9904   4.0074   4.0279   4.0365
  4.0481   4.0503   4.0559   4.0655   4.0719   4.0966   4.1035   4.1164
  4.1320   4.1420   4.1507   4.1650   4.1752   4.1833   4.2082   4.2132
  4.2203   4.2342   4.2498   4.2578   4.2664   4.2786   4.2893   4.2973
  4.3027   4.3075   4.3149   4.3388   4.3605   4.3709   4.3765   4.3915
  4.3992   4.4037   4.4086   4.4219   4.4337   4.4377   4.4466   4.4561
  4.4688   4.4741   4.4817   4.4856   4.5257   4.5332   4.5577   4.5866
  4.5969   4.6153   4.6278   4.6383   4.6450   4.6693   4.6807   4.6830
  4.7112   4.7335   4.7476   4.7849   4.7970   4.8213   4.8356   4.8670
  4.8929   4.9066   4.9124   4.9343   4.9510   4.9670   4.9790   5.0062
  5.0417   5.0607   5.0957   5.1135   5.1196   5.1309   5.1478   5.1754
  5.1966   5.2181   5.2451   5.2640   5.2837   5.2953   5.3141   5.3224
  5.3570   5.3694   5.3896   5.4016   5.4122   5.4428   5.4463   5.4537
  5.4764   5.5122   5.5360   5.5421   5.5538   5.5726   5.5740   5.5996
  5.6208   5.6252   5.6484   5.6613   5.6912   5.7006   5.7170   5.7237
  5.7722   5.8005   5.8262   5.9776   6.0297   6.0652   6.1032   6.1742
  6.2082   6.2227   6.2349   6.2382   6.2586   6.2933   6.3009   6.3214
  6.3819   6.3994   9.4687  10.4954  12.7131  12.8725  13.1750  13.9503
 14.1184  14.2197  14.3660  14.8663
 --------------------------------------------------------------
 
          Ground-State Mulliken Net Atomic Charges

     Atom                 Charge (a.u.)
  ----------------------------------------
      1 C                    -0.090364
      2 C                    -0.327530
      3 C                    -0.071565
      4 H                     0.171058
      5 C                     0.108950
      6 S                    -0.181760
      7 C                    -0.282238
      8 H                     0.115565
      9 H                     0.111874
     10 H                     0.094962
     11 C                    -0.138245
     12 C                    -0.155671
     13 C                    -0.019081
     14 H                     0.197911
     15 C                    -0.206715
     16 S                     0.049277
     17 C                    -0.268232
     18 H                     0.102248
     19 H                     0.108759
     20 H                     0.105526
     21 H                     0.202879
     22 H                     0.105083
     23 H                     0.104780
     24 H                     0.162528
  ----------------------------------------
  Sum of atomic charges =     0.000000

 -----------------------------------------------------------------
                    Cartesian Multipole Moments
 -----------------------------------------------------------------
    Charge (ESU x 10^10)
                -0.0000
    Dipole Moment (Debye)
         X       2.0685      Y       0.6879      Z       3.6699
       Tot       4.2685
    Quadrupole Moments (Debye-Ang)
        XX     -82.1391     XY       5.9689     YY     -84.8215
        XZ       0.1256     YZ      -3.4316     ZZ     -85.0174
    Octopole Moments (Debye-Ang^2)
       XXX    -156.2554    XXY      97.6103    XYY     -50.2551
       YYY     215.6904    XXZ      -4.1303    XYZ       0.7852
       YYZ      -1.6680    XZZ     -56.1643    YZZ      85.3725
       ZZZ       4.0671
    Hexadecapole Moments (Debye-Ang^3)
      XXXX    -960.8454   XXXY    -171.2924   XXYY    -545.1015
      XYYY    -207.5116   YYYY   -2213.0246   XXXZ      28.8210
      XXYZ     -30.1710   XYYZ      -3.9258   YYYZ     -51.0848
      XXZZ    -314.4895   XYZZ     -45.5529   YYZZ    -550.0621
      XZZZ      32.8273   YZZZ     -69.1729   ZZZZ    -962.7789
 -----------------------------------------------------------------
 Total job time:  768.01s(wall), 764.61s(cpu) 
 Sun Jul 10 05:04:30 2022

        *************************************************************
        *                                                           *
        *  Thank you very much for using Q-Chem.  Have a nice day.  *
        *                                                           *
        *************************************************************


remove work dirs ./qchem264230.0 -- ./qchem264230.-1
rm -rf ./qchem264230
