You are running Q-Chem version: 5.4.0

#
# job setting
#
local host:  exp-2-23
current dir: /expanse/lustre/scratch/theleonzhang/temp_project/Hydrogenated_Rotation_Test
input file:  Methylthiophene_Phi_25_Theta_350_Methylthiophene_Hydrogenated_Alternate.qcin
output file: 
nprocs     : 0
nthreads   : 1
#
# qchem installation setting
#
QC:          /cm/shared/apps/spack/cpu/opt/spack/linux-centos8-zen2/gcc-10.2.0/qchem-5.4-akfmr7b3t57bfs6qan3padb2wnb2i7cl
QCAUX:       /cm/shared/apps/spack/cpu/opt/spack/linux-centos8-zen2/gcc-10.2.0/qchem-5.4-akfmr7b3t57bfs6qan3padb2wnb2i7cl/qcaux
QCPROG:      /cm/shared/apps/spack/cpu/opt/spack/linux-centos8-zen2/gcc-10.2.0/qchem-5.4-akfmr7b3t57bfs6qan3padb2wnb2i7cl/exe/qcprog.exe_s
QCPROG_S:    /cm/shared/apps/spack/cpu/opt/spack/linux-centos8-zen2/gcc-10.2.0/qchem-5.4-akfmr7b3t57bfs6qan3padb2wnb2i7cl/exe/qcprog.exe_s
PARALLEL:    -DSERIAL
QCMPI:       mpich
#
# qchem directory setting
#
qcrun:       qchem428489
QCSCRATCH:   .
QCLOCALSCR:  
QCTMPDIR:    .
QCFILEPREF:  ./qchem428489
QCSAVEDIR:   
workdirs:    ./qchem428489
workdir0:    ./qchem428489
partmpdirs =  
#
# parallel setting
#
QCRSH:           ssh
QCMPI:           mpich
QCMPIRUN:        /cm/shared/apps/spack/cpu/opt/spack/linux-centos8-zen2/gcc-10.2.0/qchem-5.4-akfmr7b3t57bfs6qan3padb2wnb2i7cl/bin/mpi/mpirun_qchem
QCMACHINEFILE:   ./qchem428489/hostfile

#
# env setting
#
exported envs:   QC QCAUX QCSCRATCH QCRUNNAME QCFILEPREF QCPROG QCPROG_S GUIFILE

Running Job 1 of 1 Methylthiophene_Phi_25_Theta_350_Methylthiophene_Hydrogenated_Alternate.qcin
qchem Methylthiophene_Phi_25_Theta_350_Methylthiophene_Hydrogenated_Alternate.qcin_428489.0 ./qchem428489/ 0
/cm/shared/apps/spack/cpu/opt/spack/linux-centos8-zen2/gcc-10.2.0/qchem-5.4-akfmr7b3t57bfs6qan3padb2wnb2i7cl/exe/qcprog.exe_s Methylthiophene_Phi_25_Theta_350_Methylthiophene_Hydrogenated_Alternate.qcin_428489.0 ./qchem428489/
                  Welcome to Q-Chem
     A Quantum Leap Into The Future Of Chemistry


 Q-Chem 5.4, Q-Chem, Inc., Pleasanton, CA (2021)

 License issued to: University of California, San Diego (site)

 E. Epifanovsky,  A. T. B. Gilbert,  Xintian Feng,  Joonho Lee,  Yuezhi Mao,  
 N. Mardirossian,  P. Pokhilko,  A. White,  M. Wormit,  M. P. Coons,  
 A. L. Dempwolff,  Zhengting Gan,  D. Hait,  P. R. Horn,  L. D. Jacobson,  
 I. Kaliman,  J. Kussmann,  A. W. Lange,  Ka Un Lao,  D. S. Levine,  Jie Liu,  
 S. C. McKenzie,  A. F. Morrison,  K. Nanda,  F. Plasser,  D. R. Rehn,  
 M. L. Vidal,  Zhi-Qiang You,  Ying Zhu,  B. Alam,  B. Albrecht,  
 A. Aldossary,  E. Alguire,  J. H. Andersen,  D. Barton,  K. Begam,  A. Behn,  
 Y. A. Bernard,  E. J. Berquist,  H. Burton,  A. Carreras,  K. Carter-Fenk,  
 R. Chakraborty,  A. D. Chien,  K. D. Closser,  V. Cofer-Shabica,  
 S. Dasgupta,  Jia Deng,  M. de Wergifosse,  M. Diedenhofen,  Hainam Do,  
 S. Ehlert,  Po-Tung Fang,  S. Fatehi,  Qingguo Feng,  J. Gayvert,  
 Qinghui Ge,  G. Gidofalvi,  M. Goldey,  J. Gomes,  C. Gonzalez-Espinoza,  
 S. Gulania,  A. Gunina,  M. W. D. Hanson-Heine,  P. H. P. Harbach,  
 A. W. Hauser,  M. F. Herbst,  M. Hernandez Vera,  M. Hodecker,  
 Z. C. Holden,  S. Houck,  Xunkun Huang,  Kerwin Hui,  B. C. Huynh,  
 M. Ivanov,  Hyunjun Ji,  Hanjie Jiang,  B. Kaduk,  S. Kaehler,  
 K. Khistyaev,  Jaehoon Kim,  P. Klunzinger,  Z. Koczor-Benda,  
 Joong Hoon Koh,  D. Kosenkov,  L. Koulias,  T. Kowalczyk,  C. M. Krauter,  
 K. Kue,  A. Kunitsa,  T. Kus,  A. Landau,  K. V. Lawler,  D. Lefrancois,  
 S. Lehtola,  Rain Li,  Yi-Pei Li,  Jiashu Liang,  M. Liebenthal,  
 Hung-Hsuan Lin,  You-Sheng Lin,  Fenglai Liu,  Kuan-Yu Liu,  
 M. Loipersberger,  A. Luenser,  A. Manjanath,  P. Manohar,  E. Mansoor,  
 S. F. Manzer,  Shan-Ping Mao,  A. V. Marenich,  T. Markovich,  S. Mason,  
 S. A. Maurer,  P. F. McLaughlin,  M. F. S. J. Menger,  J.-M. Mewes,  
 S. A. Mewes,  P. Morgante,  J. W. Mullinax,  T. S. Nguyen-Beck,  
 K. J. Oosterbaan,  G. Paran,  Alexander C. Paul,  Suranjan K. Paul,  
 F. Pavosevic,  Zheng Pei,  S. Prager,  E. I. Proynov,  E. Ramos,  B. Rana,  
 A. E. Rask,  A. Rettig,  R. M. Richard,  F. Rob,  E. Rossomme,  T. Scheele,  
 M. Scheurer,  M. Schneider,  N. Sergueev,  S. M. Sharada,  W. Skomorowski,  
 D. W. Small,  C. J. Stein,  Yu-Chuan Su,  E. J. Sundstrom,  Zhen Tao,  
 J. Thirman,  T. Tsuchimochi,  N. M. Tubman,  S. P. Veccham,  O. Vydrov,  
 J. Wenzel,  J. Witte,  A. Yamada,  Kun Yao,  S. Yeganeh,  S. R. Yost,  
 A. Zech,  Igor Ying Zhang,  Xing Zhang,  Yu Zhang,  D. Zuev,  
 A. Aspuru-Guzik,  A. T. Bell,  N. A. Besley,  K. B. Bravaya,  B. R. Brooks,  
 D. Casanova,  Jeng-Da Chai,  S. Coriani,  C. J. Cramer,  
 A. E. DePrince, III,  R. A. DiStasio Jr.,  A. Dreuw,  B. D. Dunietz,  
 T. R. Furlani,  W. A. Goddard III,  S. Grimme,  S. Hammes-Schiffer,  
 T. Head-Gordon,  W. J. Hehre,  Chao-Ping Hsu,  T.-C. Jagau,  Yousung Jung,  
 A. Klamt,  Jing Kong,  D. S. Lambrecht,  WanZhen Liang,  N. J. Mayhall,  
 C. W. McCurdy,  J. B. Neaton,  C. Ochsenfeld,  J. A. Parkhill,  R. Peverati,  
 V. A. Rassolov,  Yihan Shao,  L. V. Slipchenko,  T. Stauch,  R. P. Steele,  
 J. E. Subotnik,  A. J. W. Thom,  A. Tkatchenko,  D. G. Truhlar,  
 T. Van Voorhis,  T. A. Wesolowski,  K. B. Whaley,  H. L. Woodcock III,  
 P. M. Zimmerman,  S. Faraji,  P. M. W. Gill,  M. Head-Gordon,  
 J. M. Herbert,  A. I. Krylov

 Contributors to earlier versions of Q-Chem not listed above: 
 R. D. Adamson,  B. Austin,  R. Baer,  J. Baker,  G. J. O. Beran,  
 K. Brandhorst,  S. T. Brown,  E. F. C. Byrd,  A. K. Chakraborty,  
 G. K. L. Chan,  Chun-Min Chang,  Yunqing Chen,  C.-L. Cheng,  
 Siu Hung Chien,  D. M. Chipman,  D. L. Crittenden,  H. Dachsel,  
 R. J. Doerksen,  A. D. Dutoi,  R. G. Edgar,  J. Fosso-Tande,  
 L. Fusti-Molnar,  D. Ghosh,  A. Ghysels,  A. Golubeva-Zadorozhnaya,  
 J. Gonthier,  M. S. Gordon,  S. R. Gwaltney,  G. Hawkins,  J. E. Herr,  
 A. Heyden,  S. Hirata,  E. G. Hohenstein,  G. Kedziora,  F. J. Keil,  
 C. Kelley,  Jihan Kim,  R. A. King,  R. Z. Khaliullin,  P. P. Korambath,  
 W. Kurlancheek,  A. Laurent,  A. M. Lee,  M. S. Lee,  S. V. Levchenko,  
 Ching Yeh Lin,  D. Liotard,  E. Livshits,  R. C. Lochan,  I. Lotan,  
 L. A. Martinez-Martinez,  P. E. Maslen,  N. Nair,  D. P. O'Neill,  
 D. Neuhauser,  E. Neuscamman,  C. M. Oana,  R. Olivares-Amaya,  R. Olson,  
 T. M. Perrine,  B. Peters,  P. A. Pieniazek,  A. Prociuk,  Y. M. Rhee,  
 J. Ritchie,  M. A. Rohrdanz,  E. Rosta,  N. J. Russ,  H. F. Schaefer III,  
 M. W. Schmidt,  N. E. Schultz,  S. Sharma,  N. Shenvi,  C. D. Sherrill,  
 A. C. Simmonett,  A. Sodt,  T. Stein,  D. Stuck,  K. S. Thanthiriwatte,  
 V. Vanovschi,  L. Vogt,  Tao Wang,  A. Warshel,  M. A. Watson,  
 C. F. Williams,  Q. Wu,  X. Xu,  Jun Yang,  W. Zhang,  Yan Zhao

 Please cite Q-Chem as follows:
 Y. Shao et al., Mol. Phys. 113, 184-215 (2015)
 DOI: 10.1080/00268976.2014.952696

 Q-Chem 5.4.0 for Intel X86 EM64T Linux

 Parts of Q-Chem use Armadillo 9.800.1 (Horizon Scraper).
 http://arma.sourceforge.net/

 Q-Chem begins on Sun Jul 10 07:11:32 2022  

 Host: 
0

     Scratch files written to ./qchem428489//
 May1621 |scratch|qcdevops|jenkins|workspace|build_RNUM    
 Processing $rem in /cm/shared/apps/spack/cpu/opt/spack/linux-centos8-zen2/gcc-10.2.0/qchem-5.4-akfmr7b3t57bfs6qan3padb2wnb2i7cl/config/preferences:
 Processing $rem in /home/theleonzhang/.qchemrc:
 Symmetry turned off for PCM/SM12/SMD calculation
 Core orbitals will be frozen

 Checking the input file for inconsistencies... 	...done.

--------------------------------------------------------------
User input:
--------------------------------------------------------------
$molecule
0 1
C	0.133897	-3.866725	0.763475
C	-0.106669	-3.703963	-0.603206
C	-0.185154	-2.357056	-1.050446
H	-0.226709	-4.561092	-1.283024
C	-0.000000	-1.440664	-0.000000
S	0.268206	-2.286957	1.521018
C	-0.437628	-1.978743	-2.483610
H	-0.549717	-2.878678	-3.118875
H	0.394664	-1.376015	-2.903464
H	-1.363110	-1.375728	-2.593726
C	0.000000	0.000000	0.000000
C	0.365003	0.782674	1.099446
C	0.949885	2.036912	0.776721
H	0.209135	0.448431	2.136088
C	1.043159	2.236886	-0.612546
S	0.398297	0.854094	-1.486809
C	1.409609	3.022738	1.814609
H	1.229726	2.636980	2.836676
H	0.877346	3.992870	1.726239
H	2.494910	3.238558	1.726228
H	1.444334	3.097160	-1.161575
H	1.077442	-4.392713	0.946698
H	-0.690363	-4.392347	1.258274
H	1.063612	-1.440937	-0.187427
$end

$rem
JOBTYPE		SP
EXCHANGE	HF
CORRELATION	pRIMP2
BASIS		cc-pvtz
METHOD		rimp2
AUX_BASIS	rimp2-cc-pvtz
SOLVENT_METHOD	PCM
PURECART	11111
SYMMETRY	false
MEM_TOTAL	110000
SCF_CONVERGENCE = 6
THRESH=10
$end



$solvent
dielectric 4.90
$end
--------------------------------------------------------------
 ----------------------------------------------------------------
             Standard Nuclear Orientation (Angstroms)
    I     Atom           X                Y                Z
 ----------------------------------------------------------------
    1      C       0.1338970000    -3.8667250000     0.7634750000
    2      C      -0.1066690000    -3.7039630000    -0.6032060000
    3      C      -0.1851540000    -2.3570560000    -1.0504460000
    4      H      -0.2267090000    -4.5610920000    -1.2830240000
    5      C       0.0000000000    -1.4406640000     0.0000000000
    6      S       0.2682060000    -2.2869570000     1.5210180000
    7      C      -0.4376280000    -1.9787430000    -2.4836100000
    8      H      -0.5497170000    -2.8786780000    -3.1188750000
    9      H       0.3946640000    -1.3760150000    -2.9034640000
   10      H      -1.3631100000    -1.3757280000    -2.5937260000
   11      C       0.0000000000     0.0000000000     0.0000000000
   12      C       0.3650030000     0.7826740000     1.0994460000
   13      C       0.9498850000     2.0369120000     0.7767210000
   14      H       0.2091350000     0.4484310000     2.1360880000
   15      C       1.0431590000     2.2368860000    -0.6125460000
   16      S       0.3982970000     0.8540940000    -1.4868090000
   17      C       1.4096090000     3.0227380000     1.8146090000
   18      H       1.2297260000     2.6369800000     2.8366760000
   19      H       0.8773460000     3.9928700000     1.7262390000
   20      H       2.4949100000     3.2385580000     1.7262280000
   21      H       1.4443340000     3.0971600000    -1.1615750000
   22      H       1.0774420000    -4.3927130000     0.9466980000
   23      H      -0.6903630000    -4.3923470000     1.2582740000
   24      H       1.0636120000    -1.4409370000    -0.1874270000
 ----------------------------------------------------------------
 Nuclear Repulsion Energy =         881.05959547 hartrees
 There are       52 alpha and       52 beta electrons

 Q-Chem warning in module forms1/BasisType.C, line 2236:

 You are not using the predefined 5D/6D in this basis set.

 Requested basis set is cc-pVTZ
 There are 196 shells and 536 basis functions

 Total QAlloc Memory Limit 110000 MB
 Mega-Array Size       188 MB
 MEM_STATIC part       192 MB
 Discretize the solute cavity surface with Lebedev spheres
	Using 110 Lebedev grid points for each H atom
	Using 194 Lebedev grid points for other atoms
	Atomic van der Waals radii will be scaled by 1.20
 Remove points where switching function is < 1.0e-08
 Keep 1587 surface tesserae and discard 2061 interior tesserae
 Molecular Surface Area = 229.322 Angst**2
 Requested basis set is rimp2-cc-pVTZ
 There are 414 shells and 1414 basis functions
 A cutoff of  1.0D-10 yielded  13987 shell pairs
 There are    101325 function pairs (    129914 Cartesian)
 Smallest overlap matrix eigenvalue = 6.08E-05

 Scale SEOQF with 1.000000e-01/1.000000e-01/1.000000e-01

 Standard Electronic Orientation quadrupole field applied
 Nucleus-field energy     =     0.0000000203 hartrees
 Guess from superposition of atomic densities
 Warning:  Energy on first SCF cycle will be non-variational
 SAD guess density has 104.000000 electrons

 -----------------------------------------------------------------------
  General SCF calculation program by
  Eric Jon Sundstrom, Paul Horn, Yuezhi Mao, Dmitri Zuev, Alec White,
  David Stuck, Shaama M.S., Shane Yost, Joonho Lee, David Small,
  Daniel Levine, Susi Lehtola, Hugh Burton, Evgeny Epifanovsky,
  Bang C. Huynh
 -----------------------------------------------------------------------
 Hartree-Fock
 A restricted SCF calculation will be
 performed using DIIS
 SCF converges when DIIS error is below 1.0e-06
 ---------------------------------------
  Cycle       Energy         DIIS error
 ---------------------------------------
    1   -1186.0798899044      2.39e-02  
    2   -1180.6009635933      1.58e-03  
    3   -1180.7273622354      6.58e-04  
    4   -1180.7434091914      3.54e-04  
    5   -1180.7491920927      5.95e-05  
    6   -1180.7494422111      2.48e-05  
    7   -1180.7494994345      8.45e-06  
    8   -1180.7495107273      4.00e-06  
    9   -1180.7495130645      1.33e-06  
   10   -1180.7495134443      4.86e-07  Convergence criterion met
 ---------------------------------------
 SCF time:   CPU 573.94s  wall 576.00s 

************** Final PCM Free Energy Summary **************
 G_electrostatic  =      -0.00798582 hartree =      -5.01117901 kcal/mol
 G_cavitation     =       0.00000000 hartree =       0.00000000 kcal/mol
 G_dispersion     =       0.00000000 hartree =       0.00000000 kcal/mol
 G_repulsion      =       0.00000000 hartree =       0.00000000 kcal/mol
 --------------------------------------------------
 Non-electrostatic Free Energy =       0.00000000 hartree =       0.00000000 kcal/mol
 Total                         =      -0.00798582 hartree =      -5.01117901 kcal/mol
 --------------------------------------------------
 SCF Energy (H0 + V/2)                       =   -1180.74951344 
 Solute Internal Energy (H0)                 =   -1180.74152762 
 Total Free Energy (H0 + V/2 + non-elec)     =   -1180.74951344 hartree
                                             = -740931.50256492 kcal/mol
***********************************************************

 SCF   energy in the final basis set =    -1180.7495134443
 Total energy in the final basis set =    -1180.7495134443


 --------------------------------------------------------------
  Generalized many-body perturbation theory program
  by Joonho Lee, Fazle Rob, Xintian Feng, Evgeny Epifanovsky

 No regularization used 
 (reg. param. = 0.0000e+00)
  (P|Q)^-1/2 Time:  CPU 1.90 s  wall 1.91 s

 In RI-MP2 calculation: 
 # of frozen core orbitals: 20

 Components of the RIMP2 correlation energy:
        aaaa    correlation energy =        -0.2519448082 a.u.
        abab    correlation energy =        -1.5043551697 a.u.
        bbbb    correlation energy =        -0.2519448082 a.u.
        non-Brillouin singles      =        -0.0000000000 a.u.
        total same-spin energy     =        -0.5038896164 a.u.
        total opposite-spin energy =        -1.5043551697 a.u.

 Total  RIMP2   correlation energy =        -2.0082447861 a.u.
        RIMP2         total energy =     -1182.7577582304 a.u.

 RI-MP2 Energy Time:  CPU 79.48 s  wall 79.85 s
 
 --------------------------------------------------------------
 
                    Orbital Energies (a.u.)
 --------------------------------------------------------------
 
 Alpha MOs
 -- Occupied --
-91.9797 -91.9459 -11.2880 -11.2642 -11.2623 -11.2566 -11.2504 -11.2435
-11.2325 -11.2323 -11.2277 -11.2229  -8.9802  -8.9504  -6.6611  -6.6605
 -6.6598  -6.6318  -6.6307  -6.6295  -1.2041  -1.1527  -1.0614  -1.0286
 -1.0062  -0.9564  -0.9162  -0.9019  -0.8132  -0.7729  -0.7184  -0.7037
 -0.6601  -0.6484  -0.6118  -0.5916  -0.5823  -0.5720  -0.5690  -0.5537
 -0.5426  -0.5348  -0.5159  -0.5111  -0.4887  -0.4807  -0.4581  -0.4437
 -0.3589  -0.3423  -0.3274  -0.2646
 -- Virtual --
  0.0945   0.1355   0.1450   0.1528   0.1605   0.1734   0.1773   0.1844
  0.1919   0.1989   0.2008   0.2050   0.2260   0.2327   0.2399   0.2435
  0.2524   0.2628   0.2778   0.3052   0.3184   0.3326   0.3567   0.3638
  0.3678   0.3732   0.3746   0.4012   0.4084   0.4125   0.4207   0.4290
  0.4434   0.4566   0.4585   0.4648   0.4736   0.4811   0.4856   0.4958
  0.5087   0.5173   0.5197   0.5277   0.5359   0.5493   0.5504   0.5550
  0.5648   0.5795   0.5877   0.6009   0.6076   0.6152   0.6162   0.6208
  0.6222   0.6243   0.6331   0.6396   0.6402   0.6443   0.6504   0.6541
  0.6631   0.6750   0.6785   0.6920   0.6956   0.7131   0.7220   0.7273
  0.7329   0.7502   0.7700   0.7825   0.7888   0.7993   0.8087   0.8151
  0.8395   0.8452   0.8567   0.8643   0.8810   0.9000   0.9016   0.9243
  0.9274   0.9312   0.9580   0.9628   0.9679   0.9788   1.0005   1.0064
  1.0138   1.0255   1.0438   1.0469   1.0507   1.0651   1.0758   1.0814
  1.0891   1.0979   1.1005   1.1259   1.1461   1.1506   1.1588   1.1677
  1.1755   1.1866   1.1986   1.2108   1.2172   1.2267   1.2364   1.2409
  1.2579   1.2618   1.2751   1.2789   1.2822   1.2853   1.2945   1.3051
  1.3125   1.3283   1.3367   1.3685   1.3803   1.3996   1.4014   1.4197
  1.4234   1.4329   1.4500   1.4556   1.4624   1.4787   1.4823   1.4974
  1.5024   1.5118   1.5213   1.5266   1.5410   1.5417   1.5497   1.5533
  1.5687   1.5728   1.5808   1.5902   1.6146   1.6243   1.6311   1.6431
  1.6516   1.6697   1.6826   1.6915   1.7072   1.7114   1.7214   1.7289
  1.7511   1.7648   1.7715   1.8014   1.8079   1.8282   1.8318   1.8543
  1.8877   1.9021   1.9391   1.9489   1.9705   1.9735   1.9827   2.0128
  2.0290   2.0386   2.0500   2.0552   2.0972   2.1005   2.1410   2.1469
  2.1854   2.1967   2.2063   2.2197   2.2322   2.2541   2.2784   2.2972
  2.3020   2.3207   2.3372   2.3737   2.4192   2.4435   2.4488   2.4593
  2.4935   2.5187   2.5295   2.5443   2.5577   2.5843   2.5942   2.6040
  2.6421   2.6460   2.6610   2.6680   2.6789   2.6990   2.7011   2.7259
  2.7468   2.7509   2.7617   2.7705   2.7798   2.7846   2.8092   2.8264
  2.8327   2.8414   2.8548   2.8694   2.8882   2.9059   2.9264   2.9601
  2.9633   2.9699   2.9813   2.9920   2.9973   3.0203   3.0302   3.0376
  3.0568   3.0771   3.0774   3.1101   3.1128   3.1253   3.1357   3.1486
  3.1571   3.1613   3.1688   3.1722   3.1824   3.1936   3.2043   3.2221
  3.2291   3.2388   3.2521   3.2564   3.2616   3.2726   3.2880   3.2987
  3.3017   3.3205   3.3324   3.3396   3.3491   3.3531   3.3604   3.3640
  3.3661   3.3785   3.3870   3.3931   3.4108   3.4223   3.4250   3.4329
  3.4415   3.4460   3.4585   3.4660   3.4767   3.4846   3.4959   3.5086
  3.5122   3.5286   3.5354   3.5411   3.5502   3.5558   3.5659   3.5855
  3.6003   3.6023   3.6197   3.6293   3.6341   3.6470   3.6521   3.6692
  3.6800   3.6926   3.7046   3.7114   3.7203   3.7223   3.7376   3.7386
  3.7525   3.7630   3.7659   3.7713   3.7864   3.7956   3.8017   3.8212
  3.8271   3.8365   3.8489   3.8576   3.8781   3.8893   3.9078   3.9172
  3.9193   3.9462   3.9598   3.9690   3.9774   3.9877   4.0043   4.0156
  4.0249   4.0413   4.0480   4.0509   4.0696   4.0805   4.1010   4.1128
  4.1265   4.1328   4.1371   4.1556   4.1722   4.1807   4.1902   4.2020
  4.2127   4.2181   4.2313   4.2393   4.2430   4.2627   4.2676   4.2837
  4.2967   4.3009   4.3253   4.3432   4.3485   4.3541   4.3579   4.3663
  4.3782   4.3969   4.4025   4.4119   4.4123   4.4274   4.4354   4.4577
  4.4625   4.4710   4.4898   4.4994   4.5057   4.5161   4.5481   4.5619
  4.5914   4.6033   4.6119   4.6328   4.6410   4.6502   4.6723   4.6871
  4.7044   4.7175   4.7465   4.7652   4.7873   4.7979   4.8190   4.8346
  4.8585   4.8709   4.9014   4.9109   4.9210   4.9523   4.9622   5.0056
  5.0334   5.0679   5.0823   5.0975   5.1153   5.1259   5.1462   5.1799
  5.1970   5.2163   5.2345   5.2677   5.2866   5.2915   5.3088   5.3201
  5.3452   5.3646   5.3749   5.3902   5.4110   5.4141   5.4385   5.4549
  5.4947   5.5081   5.5253   5.5429   5.5538   5.5610   5.5668   5.5817
  5.6220   5.6367   5.6427   5.6630   5.6875   5.6941   5.7079   5.7168
  5.7640   5.7906   5.8408   5.9563   5.9990   6.0824   6.1348   6.1504
  6.2218   6.2286   6.2315   6.2467   6.2718   6.2865   6.3086   6.3097
  6.4242   6.4719   9.5087  10.6654  12.0686  12.9141  13.1793  13.9047
 14.1340  14.2713  14.3823  14.7647
 --------------------------------------------------------------
 
          Ground-State Mulliken Net Atomic Charges

     Atom                 Charge (a.u.)
  ----------------------------------------
      1 C                    -0.075061
      2 C                    -0.313049
      3 C                    -0.060379
      4 H                     0.178102
      5 C                     0.123593
      6 S                    -0.190333
      7 C                    -0.306221
      8 H                     0.119973
      9 H                     0.108657
     10 H                     0.119172
     11 C                     0.018563
     12 C                    -0.348385
     13 C                     0.062003
     14 H                     0.177267
     15 C                    -0.280673
     16 S                     0.004524
     17 C                    -0.270042
     18 H                     0.102956
     19 H                     0.108544
     20 H                     0.108603
     21 H                     0.196113
     22 H                     0.112158
     23 H                     0.112469
     24 H                     0.191446
  ----------------------------------------
  Sum of atomic charges =     0.000000

 -----------------------------------------------------------------
                    Cartesian Multipole Moments
 -----------------------------------------------------------------
    Charge (ESU x 10^10)
                -0.0000
    Dipole Moment (Debye)
         X       1.0489      Y      -0.4471      Z      -1.1221
       Tot       1.5998
    Quadrupole Moments (Debye-Ang)
        XX     -89.8323     XY       3.0186     YY     -74.7643
        XZ       0.8502     YZ       4.8076     ZZ     -85.7040
    Octopole Moments (Debye-Ang^2)
       XXX     -89.5640    XXY      56.7366    XYY     -14.5244
       YYY     126.1124    XXZ       0.1314    XYZ      -2.2908
       YYZ      -1.7594    XZZ     -28.2565    YZZ      55.1819
       ZZZ      -2.9918
    Hexadecapole Moments (Debye-Ang^3)
      XXXX    -333.0313   XXXY    -189.6076   XXYY    -536.1869
      XYYY    -159.5592   YYYY   -2625.1536   XXXZ     -89.6908
      XXYZ     -31.6426   XYYZ     -27.0470   YYYZ     -96.6459
      XXZZ    -243.0832   XYZZ     -46.7814   YYZZ    -633.0236
      XZZZ     -85.0843   YZZZ     -52.6948   ZZZZ   -1081.0068
 -----------------------------------------------------------------
 Total job time:  658.40s(wall), 654.33s(cpu) 
 Sun Jul 10 07:22:30 2022

        *************************************************************
        *                                                           *
        *  Thank you very much for using Q-Chem.  Have a nice day.  *
        *                                                           *
        *************************************************************


remove work dirs ./qchem428489.0 -- ./qchem428489.-1
rm -rf ./qchem428489
