You are running Q-Chem version: 5.4.0

#
# job setting
#
local host:  exp-6-05
current dir: /expanse/lustre/scratch/theleonzhang/temp_project/Hydrogenated_Rotation_Test
input file:  Methylthiophene_Phi_40_Theta_320_Methylthiophene_Hydrogenated_Alternate.qcin
output file: 
nprocs     : 0
nthreads   : 1
#
# qchem installation setting
#
QC:          /cm/shared/apps/spack/cpu/opt/spack/linux-centos8-zen2/gcc-10.2.0/qchem-5.4-akfmr7b3t57bfs6qan3padb2wnb2i7cl
QCAUX:       /cm/shared/apps/spack/cpu/opt/spack/linux-centos8-zen2/gcc-10.2.0/qchem-5.4-akfmr7b3t57bfs6qan3padb2wnb2i7cl/qcaux
QCPROG:      /cm/shared/apps/spack/cpu/opt/spack/linux-centos8-zen2/gcc-10.2.0/qchem-5.4-akfmr7b3t57bfs6qan3padb2wnb2i7cl/exe/qcprog.exe_s
QCPROG_S:    /cm/shared/apps/spack/cpu/opt/spack/linux-centos8-zen2/gcc-10.2.0/qchem-5.4-akfmr7b3t57bfs6qan3padb2wnb2i7cl/exe/qcprog.exe_s
PARALLEL:    -DSERIAL
QCMPI:       mpich
#
# qchem directory setting
#
qcrun:       qchem2609277
QCSCRATCH:   .
QCLOCALSCR:  
QCTMPDIR:    .
QCFILEPREF:  ./qchem2609277
QCSAVEDIR:   
workdirs:    ./qchem2609277
workdir0:    ./qchem2609277
partmpdirs =  
#
# parallel setting
#
QCRSH:           ssh
QCMPI:           mpich
QCMPIRUN:        /cm/shared/apps/spack/cpu/opt/spack/linux-centos8-zen2/gcc-10.2.0/qchem-5.4-akfmr7b3t57bfs6qan3padb2wnb2i7cl/bin/mpi/mpirun_qchem
QCMACHINEFILE:   ./qchem2609277/hostfile

#
# env setting
#
exported envs:   QC QCAUX QCSCRATCH QCRUNNAME QCFILEPREF QCPROG QCPROG_S GUIFILE

Running Job 1 of 1 Methylthiophene_Phi_40_Theta_320_Methylthiophene_Hydrogenated_Alternate.qcin
qchem Methylthiophene_Phi_40_Theta_320_Methylthiophene_Hydrogenated_Alternate.qcin_2609277.0 ./qchem2609277/ 0
/cm/shared/apps/spack/cpu/opt/spack/linux-centos8-zen2/gcc-10.2.0/qchem-5.4-akfmr7b3t57bfs6qan3padb2wnb2i7cl/exe/qcprog.exe_s Methylthiophene_Phi_40_Theta_320_Methylthiophene_Hydrogenated_Alternate.qcin_2609277.0 ./qchem2609277/
                  Welcome to Q-Chem
     A Quantum Leap Into The Future Of Chemistry


 Q-Chem 5.4, Q-Chem, Inc., Pleasanton, CA (2021)

 License issued to: University of California, San Diego (site)

 E. Epifanovsky,  A. T. B. Gilbert,  Xintian Feng,  Joonho Lee,  Yuezhi Mao,  
 N. Mardirossian,  P. Pokhilko,  A. White,  M. Wormit,  M. P. Coons,  
 A. L. Dempwolff,  Zhengting Gan,  D. Hait,  P. R. Horn,  L. D. Jacobson,  
 I. Kaliman,  J. Kussmann,  A. W. Lange,  Ka Un Lao,  D. S. Levine,  Jie Liu,  
 S. C. McKenzie,  A. F. Morrison,  K. Nanda,  F. Plasser,  D. R. Rehn,  
 M. L. Vidal,  Zhi-Qiang You,  Ying Zhu,  B. Alam,  B. Albrecht,  
 A. Aldossary,  E. Alguire,  J. H. Andersen,  D. Barton,  K. Begam,  A. Behn,  
 Y. A. Bernard,  E. J. Berquist,  H. Burton,  A. Carreras,  K. Carter-Fenk,  
 R. Chakraborty,  A. D. Chien,  K. D. Closser,  V. Cofer-Shabica,  
 S. Dasgupta,  Jia Deng,  M. de Wergifosse,  M. Diedenhofen,  Hainam Do,  
 S. Ehlert,  Po-Tung Fang,  S. Fatehi,  Qingguo Feng,  J. Gayvert,  
 Qinghui Ge,  G. Gidofalvi,  M. Goldey,  J. Gomes,  C. Gonzalez-Espinoza,  
 S. Gulania,  A. Gunina,  M. W. D. Hanson-Heine,  P. H. P. Harbach,  
 A. W. Hauser,  M. F. Herbst,  M. Hernandez Vera,  M. Hodecker,  
 Z. C. Holden,  S. Houck,  Xunkun Huang,  Kerwin Hui,  B. C. Huynh,  
 M. Ivanov,  Hyunjun Ji,  Hanjie Jiang,  B. Kaduk,  S. Kaehler,  
 K. Khistyaev,  Jaehoon Kim,  P. Klunzinger,  Z. Koczor-Benda,  
 Joong Hoon Koh,  D. Kosenkov,  L. Koulias,  T. Kowalczyk,  C. M. Krauter,  
 K. Kue,  A. Kunitsa,  T. Kus,  A. Landau,  K. V. Lawler,  D. Lefrancois,  
 S. Lehtola,  Rain Li,  Yi-Pei Li,  Jiashu Liang,  M. Liebenthal,  
 Hung-Hsuan Lin,  You-Sheng Lin,  Fenglai Liu,  Kuan-Yu Liu,  
 M. Loipersberger,  A. Luenser,  A. Manjanath,  P. Manohar,  E. Mansoor,  
 S. F. Manzer,  Shan-Ping Mao,  A. V. Marenich,  T. Markovich,  S. Mason,  
 S. A. Maurer,  P. F. McLaughlin,  M. F. S. J. Menger,  J.-M. Mewes,  
 S. A. Mewes,  P. Morgante,  J. W. Mullinax,  T. S. Nguyen-Beck,  
 K. J. Oosterbaan,  G. Paran,  Alexander C. Paul,  Suranjan K. Paul,  
 F. Pavosevic,  Zheng Pei,  S. Prager,  E. I. Proynov,  E. Ramos,  B. Rana,  
 A. E. Rask,  A. Rettig,  R. M. Richard,  F. Rob,  E. Rossomme,  T. Scheele,  
 M. Scheurer,  M. Schneider,  N. Sergueev,  S. M. Sharada,  W. Skomorowski,  
 D. W. Small,  C. J. Stein,  Yu-Chuan Su,  E. J. Sundstrom,  Zhen Tao,  
 J. Thirman,  T. Tsuchimochi,  N. M. Tubman,  S. P. Veccham,  O. Vydrov,  
 J. Wenzel,  J. Witte,  A. Yamada,  Kun Yao,  S. Yeganeh,  S. R. Yost,  
 A. Zech,  Igor Ying Zhang,  Xing Zhang,  Yu Zhang,  D. Zuev,  
 A. Aspuru-Guzik,  A. T. Bell,  N. A. Besley,  K. B. Bravaya,  B. R. Brooks,  
 D. Casanova,  Jeng-Da Chai,  S. Coriani,  C. J. Cramer,  
 A. E. DePrince, III,  R. A. DiStasio Jr.,  A. Dreuw,  B. D. Dunietz,  
 T. R. Furlani,  W. A. Goddard III,  S. Grimme,  S. Hammes-Schiffer,  
 T. Head-Gordon,  W. J. Hehre,  Chao-Ping Hsu,  T.-C. Jagau,  Yousung Jung,  
 A. Klamt,  Jing Kong,  D. S. Lambrecht,  WanZhen Liang,  N. J. Mayhall,  
 C. W. McCurdy,  J. B. Neaton,  C. Ochsenfeld,  J. A. Parkhill,  R. Peverati,  
 V. A. Rassolov,  Yihan Shao,  L. V. Slipchenko,  T. Stauch,  R. P. Steele,  
 J. E. Subotnik,  A. J. W. Thom,  A. Tkatchenko,  D. G. Truhlar,  
 T. Van Voorhis,  T. A. Wesolowski,  K. B. Whaley,  H. L. Woodcock III,  
 P. M. Zimmerman,  S. Faraji,  P. M. W. Gill,  M. Head-Gordon,  
 J. M. Herbert,  A. I. Krylov

 Contributors to earlier versions of Q-Chem not listed above: 
 R. D. Adamson,  B. Austin,  R. Baer,  J. Baker,  G. J. O. Beran,  
 K. Brandhorst,  S. T. Brown,  E. F. C. Byrd,  A. K. Chakraborty,  
 G. K. L. Chan,  Chun-Min Chang,  Yunqing Chen,  C.-L. Cheng,  
 Siu Hung Chien,  D. M. Chipman,  D. L. Crittenden,  H. Dachsel,  
 R. J. Doerksen,  A. D. Dutoi,  R. G. Edgar,  J. Fosso-Tande,  
 L. Fusti-Molnar,  D. Ghosh,  A. Ghysels,  A. Golubeva-Zadorozhnaya,  
 J. Gonthier,  M. S. Gordon,  S. R. Gwaltney,  G. Hawkins,  J. E. Herr,  
 A. Heyden,  S. Hirata,  E. G. Hohenstein,  G. Kedziora,  F. J. Keil,  
 C. Kelley,  Jihan Kim,  R. A. King,  R. Z. Khaliullin,  P. P. Korambath,  
 W. Kurlancheek,  A. Laurent,  A. M. Lee,  M. S. Lee,  S. V. Levchenko,  
 Ching Yeh Lin,  D. Liotard,  E. Livshits,  R. C. Lochan,  I. Lotan,  
 L. A. Martinez-Martinez,  P. E. Maslen,  N. Nair,  D. P. O'Neill,  
 D. Neuhauser,  E. Neuscamman,  C. M. Oana,  R. Olivares-Amaya,  R. Olson,  
 T. M. Perrine,  B. Peters,  P. A. Pieniazek,  A. Prociuk,  Y. M. Rhee,  
 J. Ritchie,  M. A. Rohrdanz,  E. Rosta,  N. J. Russ,  H. F. Schaefer III,  
 M. W. Schmidt,  N. E. Schultz,  S. Sharma,  N. Shenvi,  C. D. Sherrill,  
 A. C. Simmonett,  A. Sodt,  T. Stein,  D. Stuck,  K. S. Thanthiriwatte,  
 V. Vanovschi,  L. Vogt,  Tao Wang,  A. Warshel,  M. A. Watson,  
 C. F. Williams,  Q. Wu,  X. Xu,  Jun Yang,  W. Zhang,  Yan Zhao

 Please cite Q-Chem as follows:
 Y. Shao et al., Mol. Phys. 113, 184-215 (2015)
 DOI: 10.1080/00268976.2014.952696

 Q-Chem 5.4.0 for Intel X86 EM64T Linux

 Parts of Q-Chem use Armadillo 9.800.1 (Horizon Scraper).
 http://arma.sourceforge.net/

 Q-Chem begins on Sun Jul 10 06:12:16 2022  

 Host: 
0

     Scratch files written to ./qchem2609277//
 May1621 |scratch|qcdevops|jenkins|workspace|build_RNUM    
 Processing $rem in /cm/shared/apps/spack/cpu/opt/spack/linux-centos8-zen2/gcc-10.2.0/qchem-5.4-akfmr7b3t57bfs6qan3padb2wnb2i7cl/config/preferences:
 Processing $rem in /home/theleonzhang/.qchemrc:
 Symmetry turned off for PCM/SM12/SMD calculation
 Core orbitals will be frozen

 Checking the input file for inconsistencies... 	...done.

--------------------------------------------------------------
User input:
--------------------------------------------------------------
$molecule
0 1
C	0.497696	-3.866725	0.594240
C	-0.393981	-3.703963	-0.469057
C	-0.685571	-2.357056	-0.817136
H	-0.837848	-4.561092	-0.997777
C	-0.000000	-1.440664	-0.000000
S	0.992782	-2.286957	1.183137
C	-1.620802	-1.978743	-1.932056
H	-2.035506	-2.878678	-2.426166
H	-1.109943	-1.376015	-2.711806
H	-2.477350	-1.375728	-1.564678
C	0.000000	0.000000	0.000000
C	0.555137	0.661535	1.099446
C	1.444710	1.721658	0.776721
H	0.318072	0.379023	2.136088
C	1.586563	1.890676	-0.612546
S	0.605781	0.721904	-1.486809
C	2.143920	2.554907	1.814609
H	1.870325	2.228851	2.836676
H	1.880882	3.629742	1.726239
H	3.248098	2.482476	1.726228
H	2.196723	2.617806	-1.161575
H	1.406441	-4.392713	0.281143
H	0.031265	-4.392347	1.434879
H	0.827402	-1.440937	-0.694122
$end

$rem
JOBTYPE		SP
EXCHANGE	HF
CORRELATION	pRIMP2
BASIS		cc-pvtz
METHOD		rimp2
AUX_BASIS	rimp2-cc-pvtz
SOLVENT_METHOD	PCM
PURECART	11111
SYMMETRY	false
MEM_TOTAL	110000
SCF_CONVERGENCE = 6
THRESH=10
$end



$solvent
dielectric 4.90
$end
--------------------------------------------------------------
 ----------------------------------------------------------------
             Standard Nuclear Orientation (Angstroms)
    I     Atom           X                Y                Z
 ----------------------------------------------------------------
    1      C       0.4976960000    -3.8667250000     0.5942400000
    2      C      -0.3939810000    -3.7039630000    -0.4690570000
    3      C      -0.6855710000    -2.3570560000    -0.8171360000
    4      H      -0.8378480000    -4.5610920000    -0.9977770000
    5      C       0.0000000000    -1.4406640000     0.0000000000
    6      S       0.9927820000    -2.2869570000     1.1831370000
    7      C      -1.6208020000    -1.9787430000    -1.9320560000
    8      H      -2.0355060000    -2.8786780000    -2.4261660000
    9      H      -1.1099430000    -1.3760150000    -2.7118060000
   10      H      -2.4773500000    -1.3757280000    -1.5646780000
   11      C       0.0000000000     0.0000000000     0.0000000000
   12      C       0.5551370000     0.6615350000     1.0994460000
   13      C       1.4447100000     1.7216580000     0.7767210000
   14      H       0.3180720000     0.3790230000     2.1360880000
   15      C       1.5865630000     1.8906760000    -0.6125460000
   16      S       0.6057810000     0.7219040000    -1.4868090000
   17      C       2.1439200000     2.5549070000     1.8146090000
   18      H       1.8703250000     2.2288510000     2.8366760000
   19      H       1.8808820000     3.6297420000     1.7262390000
   20      H       3.2480980000     2.4824760000     1.7262280000
   21      H       2.1967230000     2.6178060000    -1.1615750000
   22      H       1.4064410000    -4.3927130000     0.2811430000
   23      H       0.0312650000    -4.3923470000     1.4348790000
   24      H       0.8274020000    -1.4409370000    -0.6941220000
 ----------------------------------------------------------------
 Nuclear Repulsion Energy =         886.88452000 hartrees
 There are       52 alpha and       52 beta electrons

 Q-Chem warning in module forms1/BasisType.C, line 2236:

 You are not using the predefined 5D/6D in this basis set.

 Requested basis set is cc-pVTZ
 There are 196 shells and 536 basis functions

 Total QAlloc Memory Limit 110000 MB
 Mega-Array Size       188 MB
 MEM_STATIC part       192 MB
 Discretize the solute cavity surface with Lebedev spheres
	Using 110 Lebedev grid points for each H atom
	Using 194 Lebedev grid points for other atoms
	Atomic van der Waals radii will be scaled by 1.20
 Remove points where switching function is < 1.0e-08
 Keep 1579 surface tesserae and discard 2069 interior tesserae
 Molecular Surface Area = 232.009 Angst**2
 Requested basis set is rimp2-cc-pVTZ
 There are 414 shells and 1414 basis functions
 A cutoff of  1.0D-10 yielded  14126 shell pairs
 There are    102586 function pairs (    131643 Cartesian)
 Smallest overlap matrix eigenvalue = 6.92E-05

 Scale SEOQF with 1.000000e-01/1.000000e-01/1.000000e-01

 Standard Electronic Orientation quadrupole field applied
 Nucleus-field energy     =     0.0000000249 hartrees
 Guess from superposition of atomic densities
 Warning:  Energy on first SCF cycle will be non-variational
 SAD guess density has 104.000000 electrons

 -----------------------------------------------------------------------
  General SCF calculation program by
  Eric Jon Sundstrom, Paul Horn, Yuezhi Mao, Dmitri Zuev, Alec White,
  David Stuck, Shaama M.S., Shane Yost, Joonho Lee, David Small,
  Daniel Levine, Susi Lehtola, Hugh Burton, Evgeny Epifanovsky,
  Bang C. Huynh
 -----------------------------------------------------------------------
 Hartree-Fock
 A restricted SCF calculation will be
 performed using DIIS
 SCF converges when DIIS error is below 1.0e-06
 ---------------------------------------
  Cycle       Energy         DIIS error
 ---------------------------------------
    1   -1186.1019702691      2.40e-02  
    2   -1180.5831699830      1.55e-03  
    3   -1180.7089672081      5.90e-04  
    4   -1180.7229303275      3.30e-04  
    5   -1180.7279045443      6.05e-05  
    6   -1180.7281642323      2.50e-05  
    7   -1180.7282276769      9.44e-06  
    8   -1180.7282418765      4.41e-06  
    9   -1180.7282450822      1.62e-06  
   10   -1180.7282456612      5.74e-07  Convergence criterion met
 ---------------------------------------
 SCF time:   CPU 570.11s  wall 573.00s 

************** Final PCM Free Energy Summary **************
 G_electrostatic  =      -0.00802150 hartree =      -5.03356708 kcal/mol
 G_cavitation     =       0.00000000 hartree =       0.00000000 kcal/mol
 G_dispersion     =       0.00000000 hartree =       0.00000000 kcal/mol
 G_repulsion      =       0.00000000 hartree =       0.00000000 kcal/mol
 --------------------------------------------------
 Non-electrostatic Free Energy =       0.00000000 hartree =       0.00000000 kcal/mol
 Total                         =      -0.00802150 hartree =      -5.03356708 kcal/mol
 --------------------------------------------------
 SCF Energy (H0 + V/2)                       =   -1180.72824566 
 Solute Internal Energy (H0)                 =   -1180.72022416 
 Total Free Energy (H0 + V/2 + non-elec)     =   -1180.72824566 hartree
                                             = -740918.15682961 kcal/mol
***********************************************************

 SCF   energy in the final basis set =    -1180.7282456612
 Total energy in the final basis set =    -1180.7282456612


 --------------------------------------------------------------
  Generalized many-body perturbation theory program
  by Joonho Lee, Fazle Rob, Xintian Feng, Evgeny Epifanovsky

 No regularization used 
 (reg. param. = 0.0000e+00)
  (P|Q)^-1/2 Time:  CPU 1.90 s  wall 1.91 s

 In RI-MP2 calculation: 
 # of frozen core orbitals: 20

 Components of the RIMP2 correlation energy:
        aaaa    correlation energy =        -0.2524704501 a.u.
        abab    correlation energy =        -1.5071243391 a.u.
        bbbb    correlation energy =        -0.2524704501 a.u.
        non-Brillouin singles      =        -0.0000000000 a.u.
        total same-spin energy     =        -0.5049409001 a.u.
        total opposite-spin energy =        -1.5071243391 a.u.

 Total  RIMP2   correlation energy =        -2.0120652392 a.u.
        RIMP2         total energy =     -1182.7403109004 a.u.

 RI-MP2 Energy Time:  CPU 79.83 s  wall 80.13 s
 
 --------------------------------------------------------------
 
                    Orbital Energies (a.u.)
 --------------------------------------------------------------
 
 Alpha MOs
 -- Occupied --
-91.9781 -91.9419 -11.2766 -11.2687 -11.2590 -11.2541 -11.2515 -11.2436
-11.2395 -11.2320 -11.2288 -11.2185  -8.9792  -8.9464  -6.6602  -6.6595
 -6.6589  -6.6278  -6.6267  -6.6255  -1.2037  -1.1535  -1.0603  -1.0265
 -1.0047  -0.9590  -0.9145  -0.9009  -0.8104  -0.7708  -0.7281  -0.7030
 -0.6545  -0.6407  -0.6122  -0.5904  -0.5781  -0.5759  -0.5689  -0.5526
 -0.5422  -0.5349  -0.5146  -0.5088  -0.4865  -0.4736  -0.4619  -0.4428
 -0.3553  -0.3444  -0.3250  -0.2642
 -- Virtual --
  0.0768   0.1368   0.1425   0.1509   0.1612   0.1695   0.1829   0.1851
  0.1877   0.2006   0.2034   0.2089   0.2163   0.2352   0.2406   0.2419
  0.2466   0.2664   0.2755   0.2948   0.3143   0.3297   0.3473   0.3599
  0.3673   0.3751   0.3775   0.3890   0.4031   0.4115   0.4160   0.4196
  0.4393   0.4407   0.4552   0.4637   0.4726   0.4791   0.4826   0.4899
  0.5008   0.5051   0.5153   0.5230   0.5378   0.5460   0.5528   0.5616
  0.5637   0.5733   0.5785   0.6012   0.6036   0.6103   0.6150   0.6176
  0.6234   0.6310   0.6325   0.6376   0.6408   0.6455   0.6486   0.6545
  0.6604   0.6749   0.6819   0.6959   0.6996   0.7130   0.7163   0.7218
  0.7390   0.7534   0.7579   0.7687   0.7732   0.7972   0.8050   0.8200
  0.8313   0.8410   0.8460   0.8599   0.8729   0.8930   0.8964   0.9188
  0.9247   0.9296   0.9548   0.9709   0.9776   0.9801   0.9985   1.0102
  1.0250   1.0341   1.0422   1.0492   1.0571   1.0634   1.0727   1.0803
  1.0902   1.0998   1.1088   1.1243   1.1423   1.1480   1.1614   1.1706
  1.1825   1.1878   1.1947   1.2023   1.2198   1.2236   1.2314   1.2494
  1.2593   1.2648   1.2691   1.2774   1.2806   1.2900   1.3009   1.3115
  1.3192   1.3343   1.3513   1.3634   1.3865   1.3948   1.4081   1.4235
  1.4251   1.4308   1.4524   1.4633   1.4649   1.4776   1.4791   1.4999
  1.5003   1.5087   1.5161   1.5223   1.5379   1.5458   1.5497   1.5516
  1.5643   1.5731   1.5868   1.5937   1.6002   1.6179   1.6254   1.6409
  1.6487   1.6693   1.6716   1.6758   1.7053   1.7208   1.7218   1.7375
  1.7530   1.7636   1.7690   1.7930   1.8041   1.8253   1.8383   1.8535
  1.8607   1.9093   1.9350   1.9427   1.9630   1.9692   1.9828   2.0192
  2.0361   2.0391   2.0593   2.0607   2.0781   2.1140   2.1242   2.1533
  2.1709   2.1868   2.2063   2.2171   2.2343   2.2418   2.2593   2.2832
  2.2920   2.3174   2.3221   2.3563   2.4048   2.4210   2.4555   2.4678
  2.4977   2.5144   2.5290   2.5449   2.5704   2.5786   2.6003   2.6148
  2.6323   2.6426   2.6522   2.6634   2.6680   2.6771   2.7074   2.7357
  2.7423   2.7564   2.7654   2.7757   2.7860   2.7965   2.8058   2.8181
  2.8338   2.8424   2.8637   2.8742   2.8928   2.9111   2.9262   2.9308
  2.9513   2.9728   2.9743   2.9896   2.9986   3.0097   3.0254   3.0414
  3.0597   3.0807   3.0928   3.1059   3.1125   3.1253   3.1272   3.1401
  3.1558   3.1629   3.1655   3.1770   3.1827   3.2038   3.2135   3.2239
  3.2342   3.2372   3.2491   3.2531   3.2562   3.2794   3.2896   3.2936
  3.3206   3.3225   3.3302   3.3359   3.3440   3.3468   3.3562   3.3651
  3.3708   3.3865   3.3892   3.4013   3.4082   3.4162   3.4218   3.4275
  3.4372   3.4546   3.4563   3.4652   3.4745   3.4928   3.5032   3.5108
  3.5127   3.5232   3.5416   3.5523   3.5541   3.5620   3.5685   3.5868
  3.5911   3.6074   3.6220   3.6327   3.6362   3.6518   3.6549   3.6713
  3.6802   3.6927   3.7022   3.7158   3.7186   3.7226   3.7307   3.7410
  3.7509   3.7664   3.7695   3.7805   3.7923   3.8068   3.8170   3.8222
  3.8332   3.8443   3.8489   3.8663   3.8786   3.8919   3.9041   3.9133
  3.9237   3.9439   3.9617   3.9671   3.9788   3.9845   4.0064   4.0266
  4.0305   4.0441   4.0522   4.0554   4.0685   4.0917   4.0974   4.1047
  4.1193   4.1406   4.1483   4.1568   4.1763   4.1916   4.1948   4.1977
  4.2134   4.2230   4.2264   4.2451   4.2488   4.2601   4.2716   4.2863
  4.2917   4.2959   4.3259   4.3329   4.3355   4.3520   4.3607   4.3663
  4.3741   4.3876   4.4021   4.4031   4.4154   4.4213   4.4349   4.4514
  4.4520   4.4652   4.4837   4.4933   4.5008   4.5297   4.5504   4.5648
  4.5824   4.5988   4.6109   4.6274   4.6416   4.6574   4.6687   4.6814
  4.6986   4.7175   4.7492   4.7709   4.7836   4.8057   4.8310   4.8357
  4.8621   4.8797   4.8917   4.9095   4.9173   4.9251   4.9498   4.9825
  5.0312   5.0548   5.0873   5.1130   5.1239   5.1301   5.1338   5.1749
  5.1839   5.2180   5.2300   5.2712   5.2742   5.2991   5.3121   5.3180
  5.3462   5.3632   5.3802   5.3886   5.4104   5.4173   5.4406   5.4509
  5.4879   5.5094   5.5266   5.5402   5.5530   5.5597   5.5715   5.5869
  5.6224   5.6308   5.6384   5.6555   5.6832   5.6996   5.7093   5.7228
  5.7621   5.7898   5.8230   5.9622   6.0037   6.0546   6.1014   6.1452
  6.2074   6.2228   6.2252   6.2322   6.2487   6.2817   6.2908   6.3413
  6.3924   6.4426   9.5081  10.5495  12.2529  12.8478  13.1742  13.8735
 14.1147  14.2416  14.3176  14.6609
 --------------------------------------------------------------
 
          Ground-State Mulliken Net Atomic Charges

     Atom                 Charge (a.u.)
  ----------------------------------------
      1 C                    -0.079971
      2 C                    -0.318512
      3 C                    -0.060943
      4 H                     0.174979
      5 C                     0.103384
      6 S                    -0.185444
      7 C                    -0.283928
      8 H                     0.115987
      9 H                     0.105163
     10 H                     0.110679
     11 C                    -0.031009
     12 C                    -0.300405
     13 C                     0.050914
     14 H                     0.188708
     15 C                    -0.237921
     16 S                    -0.000416
     17 C                    -0.268291
     18 H                     0.103244
     19 H                     0.108758
     20 H                     0.108463
     21 H                     0.197448
     22 H                     0.110158
     23 H                     0.108638
     24 H                     0.180317
  ----------------------------------------
  Sum of atomic charges =     0.000000

 -----------------------------------------------------------------
                    Cartesian Multipole Moments
 -----------------------------------------------------------------
    Charge (ESU x 10^10)
                -0.0000
    Dipole Moment (Debye)
         X       0.3971      Y       0.2739      Z      -0.6745
       Tot       0.8293
    Quadrupole Moments (Debye-Ang)
        XX     -86.7245     XY       6.6911     YY     -78.2761
        XZ       0.8332     YZ       4.6224     ZZ     -86.0581
    Octopole Moments (Debye-Ang^2)
       XXX    -128.7202    XXY      72.6432    XYY     -28.2798
       YYY     155.7045    XXZ      -4.2681    XYZ      -4.0944
       YYZ      -3.4557    XZZ     -43.4238    YZZ      68.1925
       ZZZ       4.3564
    Hexadecapole Moments (Debye-Ang^3)
      XXXX    -773.1839   XXXY    -217.1210   XXYY    -545.2137
      XYYY    -216.5879   YYYY   -2459.3522   XXXZ    -203.3698
      XXYZ     -18.0640   XYYZ     -58.0809   YYYZ     -76.6482
      XXZZ    -268.0844   XYZZ     -52.4324   YYZZ    -581.4367
      XZZZ    -200.4572   YZZZ     -57.7879   ZZZZ    -878.2272
 -----------------------------------------------------------------
 Total job time:  655.44s(wall), 650.82s(cpu) 
 Sun Jul 10 06:23:12 2022

        *************************************************************
        *                                                           *
        *  Thank you very much for using Q-Chem.  Have a nice day.  *
        *                                                           *
        *************************************************************


remove work dirs ./qchem2609277.0 -- ./qchem2609277.-1
rm -rf ./qchem2609277
