You are running Q-Chem version: 5.4.0

#
# job setting
#
local host:  exp-2-27
current dir: /expanse/lustre/scratch/theleonzhang/temp_project/Hydrogenated_Rotation_Test
input file:  Methylthiophene_Phi_15_Theta_90_Methylthiophene_Hydrogenated.qcin
output file: 
nprocs     : 0
nthreads   : 1
#
# qchem installation setting
#
QC:          /cm/shared/apps/spack/cpu/opt/spack/linux-centos8-zen2/gcc-10.2.0/qchem-5.4-akfmr7b3t57bfs6qan3padb2wnb2i7cl
QCAUX:       /cm/shared/apps/spack/cpu/opt/spack/linux-centos8-zen2/gcc-10.2.0/qchem-5.4-akfmr7b3t57bfs6qan3padb2wnb2i7cl/qcaux
QCPROG:      /cm/shared/apps/spack/cpu/opt/spack/linux-centos8-zen2/gcc-10.2.0/qchem-5.4-akfmr7b3t57bfs6qan3padb2wnb2i7cl/exe/qcprog.exe_s
QCPROG_S:    /cm/shared/apps/spack/cpu/opt/spack/linux-centos8-zen2/gcc-10.2.0/qchem-5.4-akfmr7b3t57bfs6qan3padb2wnb2i7cl/exe/qcprog.exe_s
PARALLEL:    -DSERIAL
QCMPI:       mpich
#
# qchem directory setting
#
qcrun:       qchem1588597
QCSCRATCH:   .
QCLOCALSCR:  
QCTMPDIR:    .
QCFILEPREF:  ./qchem1588597
QCSAVEDIR:   
workdirs:    ./qchem1588597
workdir0:    ./qchem1588597
partmpdirs =  
#
# parallel setting
#
QCRSH:           ssh
QCMPI:           mpich
QCMPIRUN:        /cm/shared/apps/spack/cpu/opt/spack/linux-centos8-zen2/gcc-10.2.0/qchem-5.4-akfmr7b3t57bfs6qan3padb2wnb2i7cl/bin/mpi/mpirun_qchem
QCMACHINEFILE:   ./qchem1588597/hostfile

#
# env setting
#
exported envs:   QC QCAUX QCSCRATCH QCRUNNAME QCFILEPREF QCPROG QCPROG_S GUIFILE

Running Job 1 of 1 Methylthiophene_Phi_15_Theta_90_Methylthiophene_Hydrogenated.qcin
qchem Methylthiophene_Phi_15_Theta_90_Methylthiophene_Hydrogenated.qcin_1588597.0 ./qchem1588597/ 0
/cm/shared/apps/spack/cpu/opt/spack/linux-centos8-zen2/gcc-10.2.0/qchem-5.4-akfmr7b3t57bfs6qan3padb2wnb2i7cl/exe/qcprog.exe_s Methylthiophene_Phi_15_Theta_90_Methylthiophene_Hydrogenated.qcin_1588597.0 ./qchem1588597/
                  Welcome to Q-Chem
     A Quantum Leap Into The Future Of Chemistry


 Q-Chem 5.4, Q-Chem, Inc., Pleasanton, CA (2021)

 License issued to: University of California, San Diego (site)

 E. Epifanovsky,  A. T. B. Gilbert,  Xintian Feng,  Joonho Lee,  Yuezhi Mao,  
 N. Mardirossian,  P. Pokhilko,  A. White,  M. Wormit,  M. P. Coons,  
 A. L. Dempwolff,  Zhengting Gan,  D. Hait,  P. R. Horn,  L. D. Jacobson,  
 I. Kaliman,  J. Kussmann,  A. W. Lange,  Ka Un Lao,  D. S. Levine,  Jie Liu,  
 S. C. McKenzie,  A. F. Morrison,  K. Nanda,  F. Plasser,  D. R. Rehn,  
 M. L. Vidal,  Zhi-Qiang You,  Ying Zhu,  B. Alam,  B. Albrecht,  
 A. Aldossary,  E. Alguire,  J. H. Andersen,  D. Barton,  K. Begam,  A. Behn,  
 Y. A. Bernard,  E. J. Berquist,  H. Burton,  A. Carreras,  K. Carter-Fenk,  
 R. Chakraborty,  A. D. Chien,  K. D. Closser,  V. Cofer-Shabica,  
 S. Dasgupta,  Jia Deng,  M. de Wergifosse,  M. Diedenhofen,  Hainam Do,  
 S. Ehlert,  Po-Tung Fang,  S. Fatehi,  Qingguo Feng,  J. Gayvert,  
 Qinghui Ge,  G. Gidofalvi,  M. Goldey,  J. Gomes,  C. Gonzalez-Espinoza,  
 S. Gulania,  A. Gunina,  M. W. D. Hanson-Heine,  P. H. P. Harbach,  
 A. W. Hauser,  M. F. Herbst,  M. Hernandez Vera,  M. Hodecker,  
 Z. C. Holden,  S. Houck,  Xunkun Huang,  Kerwin Hui,  B. C. Huynh,  
 M. Ivanov,  Hyunjun Ji,  Hanjie Jiang,  B. Kaduk,  S. Kaehler,  
 K. Khistyaev,  Jaehoon Kim,  P. Klunzinger,  Z. Koczor-Benda,  
 Joong Hoon Koh,  D. Kosenkov,  L. Koulias,  T. Kowalczyk,  C. M. Krauter,  
 K. Kue,  A. Kunitsa,  T. Kus,  A. Landau,  K. V. Lawler,  D. Lefrancois,  
 S. Lehtola,  Rain Li,  Yi-Pei Li,  Jiashu Liang,  M. Liebenthal,  
 Hung-Hsuan Lin,  You-Sheng Lin,  Fenglai Liu,  Kuan-Yu Liu,  
 M. Loipersberger,  A. Luenser,  A. Manjanath,  P. Manohar,  E. Mansoor,  
 S. F. Manzer,  Shan-Ping Mao,  A. V. Marenich,  T. Markovich,  S. Mason,  
 S. A. Maurer,  P. F. McLaughlin,  M. F. S. J. Menger,  J.-M. Mewes,  
 S. A. Mewes,  P. Morgante,  J. W. Mullinax,  T. S. Nguyen-Beck,  
 K. J. Oosterbaan,  G. Paran,  Alexander C. Paul,  Suranjan K. Paul,  
 F. Pavosevic,  Zheng Pei,  S. Prager,  E. I. Proynov,  E. Ramos,  B. Rana,  
 A. E. Rask,  A. Rettig,  R. M. Richard,  F. Rob,  E. Rossomme,  T. Scheele,  
 M. Scheurer,  M. Schneider,  N. Sergueev,  S. M. Sharada,  W. Skomorowski,  
 D. W. Small,  C. J. Stein,  Yu-Chuan Su,  E. J. Sundstrom,  Zhen Tao,  
 J. Thirman,  T. Tsuchimochi,  N. M. Tubman,  S. P. Veccham,  O. Vydrov,  
 J. Wenzel,  J. Witte,  A. Yamada,  Kun Yao,  S. Yeganeh,  S. R. Yost,  
 A. Zech,  Igor Ying Zhang,  Xing Zhang,  Yu Zhang,  D. Zuev,  
 A. Aspuru-Guzik,  A. T. Bell,  N. A. Besley,  K. B. Bravaya,  B. R. Brooks,  
 D. Casanova,  Jeng-Da Chai,  S. Coriani,  C. J. Cramer,  
 A. E. DePrince, III,  R. A. DiStasio Jr.,  A. Dreuw,  B. D. Dunietz,  
 T. R. Furlani,  W. A. Goddard III,  S. Grimme,  S. Hammes-Schiffer,  
 T. Head-Gordon,  W. J. Hehre,  Chao-Ping Hsu,  T.-C. Jagau,  Yousung Jung,  
 A. Klamt,  Jing Kong,  D. S. Lambrecht,  WanZhen Liang,  N. J. Mayhall,  
 C. W. McCurdy,  J. B. Neaton,  C. Ochsenfeld,  J. A. Parkhill,  R. Peverati,  
 V. A. Rassolov,  Yihan Shao,  L. V. Slipchenko,  T. Stauch,  R. P. Steele,  
 J. E. Subotnik,  A. J. W. Thom,  A. Tkatchenko,  D. G. Truhlar,  
 T. Van Voorhis,  T. A. Wesolowski,  K. B. Whaley,  H. L. Woodcock III,  
 P. M. Zimmerman,  S. Faraji,  P. M. W. Gill,  M. Head-Gordon,  
 J. M. Herbert,  A. I. Krylov

 Contributors to earlier versions of Q-Chem not listed above: 
 R. D. Adamson,  B. Austin,  R. Baer,  J. Baker,  G. J. O. Beran,  
 K. Brandhorst,  S. T. Brown,  E. F. C. Byrd,  A. K. Chakraborty,  
 G. K. L. Chan,  Chun-Min Chang,  Yunqing Chen,  C.-L. Cheng,  
 Siu Hung Chien,  D. M. Chipman,  D. L. Crittenden,  H. Dachsel,  
 R. J. Doerksen,  A. D. Dutoi,  R. G. Edgar,  J. Fosso-Tande,  
 L. Fusti-Molnar,  D. Ghosh,  A. Ghysels,  A. Golubeva-Zadorozhnaya,  
 J. Gonthier,  M. S. Gordon,  S. R. Gwaltney,  G. Hawkins,  J. E. Herr,  
 A. Heyden,  S. Hirata,  E. G. Hohenstein,  G. Kedziora,  F. J. Keil,  
 C. Kelley,  Jihan Kim,  R. A. King,  R. Z. Khaliullin,  P. P. Korambath,  
 W. Kurlancheek,  A. Laurent,  A. M. Lee,  M. S. Lee,  S. V. Levchenko,  
 Ching Yeh Lin,  D. Liotard,  E. Livshits,  R. C. Lochan,  I. Lotan,  
 L. A. Martinez-Martinez,  P. E. Maslen,  N. Nair,  D. P. O'Neill,  
 D. Neuhauser,  E. Neuscamman,  C. M. Oana,  R. Olivares-Amaya,  R. Olson,  
 T. M. Perrine,  B. Peters,  P. A. Pieniazek,  A. Prociuk,  Y. M. Rhee,  
 J. Ritchie,  M. A. Rohrdanz,  E. Rosta,  N. J. Russ,  H. F. Schaefer III,  
 M. W. Schmidt,  N. E. Schultz,  S. Sharma,  N. Shenvi,  C. D. Sherrill,  
 A. C. Simmonett,  A. Sodt,  T. Stein,  D. Stuck,  K. S. Thanthiriwatte,  
 V. Vanovschi,  L. Vogt,  Tao Wang,  A. Warshel,  M. A. Watson,  
 C. F. Williams,  Q. Wu,  X. Xu,  Jun Yang,  W. Zhang,  Yan Zhao

 Please cite Q-Chem as follows:
 Y. Shao et al., Mol. Phys. 113, 184-215 (2015)
 DOI: 10.1080/00268976.2014.952696

 Q-Chem 5.4.0 for Intel X86 EM64T Linux

 Parts of Q-Chem use Armadillo 9.800.1 (Horizon Scraper).
 http://arma.sourceforge.net/

 Q-Chem begins on Sun Jul 10 01:18:01 2022  

 Host: 
0

     Scratch files written to ./qchem1588597//
 May1621 |scratch|qcdevops|jenkins|workspace|build_RNUM    
 Processing $rem in /cm/shared/apps/spack/cpu/opt/spack/linux-centos8-zen2/gcc-10.2.0/qchem-5.4-akfmr7b3t57bfs6qan3padb2wnb2i7cl/config/preferences:
 Processing $rem in /home/theleonzhang/.qchemrc:
 Symmetry turned off for PCM/SM12/SMD calculation
 Core orbitals will be frozen

 Checking the input file for inconsistencies... 	...done.

--------------------------------------------------------------
User input:
--------------------------------------------------------------
$molecule
0 1
C	-0.775127	-3.866725	-0.000713
C	0.612565	-3.703963	-0.000302
C	1.066639	-2.357056	0.000067
H	1.302900	-4.561092	-0.000470
C	0.000000	-1.440664	0.000000
S	-1.544483	-2.286957	0.000009
C	2.521872	-1.978743	0.000295
H	3.166949	-2.878678	0.000221
H	2.790821	-1.376015	0.892850
H	2.791023	-1.375728	-0.892005
C	0.000000	0.000000	0.000000
C	0.223548	0.834165	1.099446
C	0.581748	2.170912	0.776721
H	0.128089	0.477934	2.136088
C	0.638880	2.384045	-0.612546
S	0.243934	0.910282	-1.486809
C	0.863301	3.221592	1.814609
H	0.753137	2.810458	2.836676
H	0.170663	4.084559	1.726239
H	1.894637	3.622593	1.726228
H	0.884575	3.300913	-1.161575
H	-1.119411	-4.392713	0.896681
H	-1.119277	-4.392347	-0.898372
H	-0.000115	-1.440937	1.080000
$end

$rem
JOBTYPE		SP
EXCHANGE	HF
CORRELATION	pRIMP2
BASIS		cc-pvtz
METHOD		rimp2
AUX_BASIS	rimp2-cc-pvtz
SOLVENT_METHOD	PCM
PURECART	11111
SYMMETRY	false
MEM_TOTAL	110000
SCF_CONVERGENCE = 6
THRESH=10
$end



$solvent
dielectric 4.90
$end
--------------------------------------------------------------
 ----------------------------------------------------------------
             Standard Nuclear Orientation (Angstroms)
    I     Atom           X                Y                Z
 ----------------------------------------------------------------
    1      C      -0.7751270000    -3.8667250000    -0.0007130000
    2      C       0.6125650000    -3.7039630000    -0.0003020000
    3      C       1.0666390000    -2.3570560000     0.0000670000
    4      H       1.3029000000    -4.5610920000    -0.0004700000
    5      C       0.0000000000    -1.4406640000     0.0000000000
    6      S      -1.5444830000    -2.2869570000     0.0000090000
    7      C       2.5218720000    -1.9787430000     0.0002950000
    8      H       3.1669490000    -2.8786780000     0.0002210000
    9      H       2.7908210000    -1.3760150000     0.8928500000
   10      H       2.7910230000    -1.3757280000    -0.8920050000
   11      C       0.0000000000     0.0000000000     0.0000000000
   12      C       0.2235480000     0.8341650000     1.0994460000
   13      C       0.5817480000     2.1709120000     0.7767210000
   14      H       0.1280890000     0.4779340000     2.1360880000
   15      C       0.6388800000     2.3840450000    -0.6125460000
   16      S       0.2439340000     0.9102820000    -1.4868090000
   17      C       0.8633010000     3.2215920000     1.8146090000
   18      H       0.7531370000     2.8104580000     2.8366760000
   19      H       0.1706630000     4.0845590000     1.7262390000
   20      H       1.8946370000     3.6225930000     1.7262280000
   21      H       0.8845750000     3.3009130000    -1.1615750000
   22      H      -1.1194110000    -4.3927130000     0.8966810000
   23      H      -1.1192770000    -4.3923470000    -0.8983720000
   24      H      -0.0001150000    -1.4409370000     1.0800000000
 ----------------------------------------------------------------
 Nuclear Repulsion Energy =         873.20533841 hartrees
 There are       52 alpha and       52 beta electrons

 Q-Chem warning in module forms1/BasisType.C, line 2236:

 You are not using the predefined 5D/6D in this basis set.

 Requested basis set is cc-pVTZ
 There are 196 shells and 536 basis functions

 Total QAlloc Memory Limit 110000 MB
 Mega-Array Size       188 MB
 MEM_STATIC part       192 MB
 Discretize the solute cavity surface with Lebedev spheres
	Using 110 Lebedev grid points for each H atom
	Using 194 Lebedev grid points for other atoms
	Atomic van der Waals radii will be scaled by 1.20
 Remove points where switching function is < 1.0e-08
 Keep 1612 surface tesserae and discard 2036 interior tesserae
 Molecular Surface Area = 239.430 Angst**2
 Requested basis set is rimp2-cc-pVTZ
 There are 414 shells and 1414 basis functions
 A cutoff of  1.0D-10 yielded  14075 shell pairs
 There are    102171 function pairs (    131147 Cartesian)
 Smallest overlap matrix eigenvalue = 6.03E-05

 Scale SEOQF with 1.000000e-01/1.000000e-01/1.000000e-01

 Standard Electronic Orientation quadrupole field applied
 Nucleus-field energy     =     0.0000000370 hartrees
 Guess from superposition of atomic densities
 Warning:  Energy on first SCF cycle will be non-variational
 SAD guess density has 104.000000 electrons

 -----------------------------------------------------------------------
  General SCF calculation program by
  Eric Jon Sundstrom, Paul Horn, Yuezhi Mao, Dmitri Zuev, Alec White,
  David Stuck, Shaama M.S., Shane Yost, Joonho Lee, David Small,
  Daniel Levine, Susi Lehtola, Hugh Burton, Evgeny Epifanovsky,
  Bang C. Huynh
 -----------------------------------------------------------------------
 Hartree-Fock
 A restricted SCF calculation will be
 performed using DIIS
 SCF converges when DIIS error is below 1.0e-06
 ---------------------------------------
  Cycle       Energy         DIIS error
 ---------------------------------------
    1   -1186.0230830956      2.39e-02  
    2   -1180.6180199260      1.54e-03  
    3   -1180.7415976683      5.77e-04  
    4   -1180.7548743872      3.25e-04  
    5   -1180.7596108553      5.85e-05  
    6   -1180.7598492237      2.39e-05  
    7   -1180.7599065787      9.04e-06  
    8   -1180.7599204924      4.30e-06  
    9   -1180.7599236640      1.53e-06  
   10   -1180.7599241578      5.15e-07  Convergence criterion met
 ---------------------------------------
 SCF time:   CPU 571.63s  wall 577.00s 

************** Final PCM Free Energy Summary **************
 G_electrostatic  =      -0.00922682 hartree =      -5.78991474 kcal/mol
 G_cavitation     =       0.00000000 hartree =       0.00000000 kcal/mol
 G_dispersion     =       0.00000000 hartree =       0.00000000 kcal/mol
 G_repulsion      =       0.00000000 hartree =       0.00000000 kcal/mol
 --------------------------------------------------
 Non-electrostatic Free Energy =       0.00000000 hartree =       0.00000000 kcal/mol
 Total                         =      -0.00922682 hartree =      -5.78991474 kcal/mol
 --------------------------------------------------
 SCF Energy (H0 + V/2)                       =   -1180.75992416 
 Solute Internal Energy (H0)                 =   -1180.75069734 
 Total Free Energy (H0 + V/2 + non-elec)     =   -1180.75992416 hartree
                                             = -740938.03538623 kcal/mol
***********************************************************

 SCF   energy in the final basis set =    -1180.7599241578
 Total energy in the final basis set =    -1180.7599241578


 --------------------------------------------------------------
  Generalized many-body perturbation theory program
  by Joonho Lee, Fazle Rob, Xintian Feng, Evgeny Epifanovsky

 No regularization used 
 (reg. param. = 0.0000e+00)
  (P|Q)^-1/2 Time:  CPU 1.92 s  wall 1.92 s

 In RI-MP2 calculation: 
 # of frozen core orbitals: 20

 Components of the RIMP2 correlation energy:
        aaaa    correlation energy =        -0.2513017700 a.u.
        abab    correlation energy =        -1.5032015098 a.u.
        bbbb    correlation energy =        -0.2513017700 a.u.
        non-Brillouin singles      =        -0.0000000000 a.u.
        total same-spin energy     =        -0.5026035400 a.u.
        total opposite-spin energy =        -1.5032015098 a.u.

 Total  RIMP2   correlation energy =        -2.0058050498 a.u.
        RIMP2         total energy =     -1182.7657292076 a.u.

 RI-MP2 Energy Time:  CPU 80.33 s  wall 80.55 s
 
 --------------------------------------------------------------
 
                    Orbital Energies (a.u.)
 --------------------------------------------------------------
 
 Alpha MOs
 -- Occupied --
-91.9805 -91.9395 -11.2796 -11.2668 -11.2629 -11.2549 -11.2512 -11.2456
-11.2401 -11.2311 -11.2297 -11.2193  -8.9805  -8.9443  -6.6614  -6.6608
 -6.6603  -6.6257  -6.6246  -6.6233  -1.1981  -1.1540  -1.0581  -1.0252
 -1.0064  -0.9604  -0.9116  -0.9014  -0.8142  -0.7615  -0.7365  -0.7026
 -0.6605  -0.6406  -0.6106  -0.5893  -0.5799  -0.5722  -0.5661  -0.5508
 -0.5417  -0.5291  -0.5161  -0.5053  -0.4924  -0.4782  -0.4599  -0.4475
 -0.3550  -0.3421  -0.3125  -0.2816
 -- Virtual --
  0.0926   0.1335   0.1400   0.1510   0.1586   0.1715   0.1786   0.1825
  0.1863   0.1923   0.2040   0.2137   0.2285   0.2339   0.2372   0.2429
  0.2516   0.2550   0.2642   0.2955   0.3023   0.3370   0.3479   0.3543
  0.3660   0.3730   0.3784   0.3937   0.3985   0.4037   0.4117   0.4188
  0.4298   0.4452   0.4521   0.4555   0.4665   0.4730   0.4796   0.4897
  0.4990   0.5099   0.5197   0.5270   0.5343   0.5454   0.5558   0.5577
  0.5674   0.5715   0.5788   0.5847   0.6024   0.6072   0.6117   0.6185
  0.6253   0.6279   0.6323   0.6407   0.6414   0.6469   0.6490   0.6544
  0.6603   0.6669   0.6779   0.6829   0.6915   0.7022   0.7224   0.7260
  0.7324   0.7483   0.7580   0.7613   0.7822   0.7987   0.8071   0.8156
  0.8231   0.8429   0.8506   0.8614   0.8806   0.8873   0.8942   0.9071
  0.9305   0.9448   0.9476   0.9532   0.9839   0.9884   0.9922   1.0072
  1.0156   1.0225   1.0341   1.0431   1.0494   1.0649   1.0721   1.0838
  1.0850   1.0973   1.1103   1.1238   1.1278   1.1524   1.1684   1.1734
  1.1781   1.1916   1.2003   1.2087   1.2110   1.2166   1.2281   1.2443
  1.2506   1.2609   1.2640   1.2715   1.2802   1.2866   1.2941   1.2976
  1.3293   1.3342   1.3447   1.3508   1.3684   1.3955   1.4071   1.4150
  1.4237   1.4260   1.4355   1.4591   1.4725   1.4778   1.4817   1.5030
  1.5086   1.5140   1.5220   1.5320   1.5364   1.5434   1.5478   1.5554
  1.5698   1.5757   1.5784   1.5924   1.6108   1.6203   1.6268   1.6355
  1.6530   1.6703   1.6771   1.6898   1.6951   1.7081   1.7227   1.7382
  1.7418   1.7498   1.7765   1.7871   1.8102   1.8242   1.8518   1.8553
  1.8876   1.9129   1.9237   1.9281   1.9450   1.9698   1.9894   2.0059
  2.0153   2.0220   2.0472   2.0511   2.0846   2.1397   2.1456   2.1519
  2.1829   2.1983   2.2036   2.2135   2.2303   2.2441   2.2670   2.2733
  2.2975   2.3067   2.3432   2.3554   2.3997   2.4150   2.4568   2.4651
  2.4869   2.5062   2.5338   2.5435   2.5750   2.5850   2.6096   2.6153
  2.6325   2.6375   2.6621   2.6629   2.6788   2.6863   2.7077   2.7157
  2.7357   2.7513   2.7580   2.7656   2.7777   2.7828   2.7910   2.8185
  2.8377   2.8444   2.8619   2.8804   2.8885   2.9044   2.9189   2.9291
  2.9448   2.9521   2.9684   2.9794   3.0102   3.0201   3.0310   3.0385
  3.0467   3.0821   3.0852   3.1042   3.1106   3.1138   3.1258   3.1462
  3.1492   3.1552   3.1666   3.1705   3.1755   3.1993   3.2015   3.2102
  3.2323   3.2413   3.2508   3.2675   3.2725   3.2908   3.3001   3.3062
  3.3116   3.3177   3.3260   3.3355   3.3497   3.3563   3.3617   3.3641
  3.3707   3.3845   3.3934   3.3954   3.4092   3.4172   3.4243   3.4287
  3.4448   3.4517   3.4626   3.4759   3.4805   3.4866   3.5019   3.5056
  3.5158   3.5193   3.5356   3.5412   3.5448   3.5574   3.5657   3.5778
  3.5970   3.6058   3.6179   3.6259   3.6300   3.6383   3.6556   3.6571
  3.6744   3.6774   3.6861   3.6945   3.7059   3.7151   3.7337   3.7372
  3.7459   3.7513   3.7603   3.7736   3.7900   3.7978   3.8029   3.8099
  3.8286   3.8330   3.8510   3.8635   3.8796   3.8864   3.9005   3.9115
  3.9362   3.9422   3.9481   3.9663   3.9680   3.9884   3.9936   4.0122
  4.0280   4.0357   4.0438   4.0513   4.0767   4.0774   4.0871   4.0939
  4.1207   4.1259   4.1379   4.1547   4.1628   4.1786   4.1928   4.2023
  4.2121   4.2166   4.2280   4.2484   4.2511   4.2565   4.2753   4.2777
  4.2916   4.2992   4.3128   4.3299   4.3373   4.3508   4.3580   4.3604
  4.3782   4.3938   4.4008   4.4136   4.4152   4.4194   4.4367   4.4443
  4.4614   4.4698   4.4788   4.4825   4.5086   4.5208   4.5280   4.5482
  4.5638   4.5908   4.6155   4.6248   4.6355   4.6468   4.6667   4.6752
  4.6847   4.7186   4.7404   4.7696   4.7716   4.7999   4.8121   4.8402
  4.8607   4.8677   4.8939   4.9043   4.9371   4.9545   4.9745   4.9909
  5.0244   5.0440   5.0900   5.1063   5.1179   5.1346   5.1435   5.1797
  5.1882   5.2055   5.2346   5.2696   5.2850   5.2892   5.3099   5.3266
  5.3384   5.3620   5.3782   5.3959   5.4139   5.4317   5.4381   5.4543
  5.4670   5.5202   5.5232   5.5361   5.5482   5.5590   5.5714   5.6099
  5.6135   5.6265   5.6296   5.6486   5.6746   5.6940   5.7122   5.7375
  5.7760   5.8068   5.8390   5.9736   5.9963   6.0608   6.1288   6.1423
  6.2051   6.2191   6.2264   6.2350   6.2495   6.2863   6.2950   6.3243
  6.3855   6.4905   9.4842  10.4539  12.0956  12.9292  13.1578  13.9420
 14.0896  14.1987  14.3536  14.8116
 --------------------------------------------------------------
 
          Ground-State Mulliken Net Atomic Charges

     Atom                 Charge (a.u.)
  ----------------------------------------
      1 C                    -0.078680
      2 C                    -0.328094
      3 C                    -0.011778
      4 H                     0.176207
      5 C                     0.071275
      6 S                    -0.179472
      7 C                    -0.266689
      8 H                     0.113984
      9 H                     0.101691
     10 H                     0.108016
     11 C                    -0.070140
     12 C                    -0.251597
     13 C                     0.027268
     14 H                     0.182466
     15 C                    -0.235672
     16 S                     0.005382
     17 C                    -0.271505
     18 H                     0.102132
     19 H                     0.108697
     20 H                     0.107980
     21 H                     0.197241
     22 H                     0.110639
     23 H                     0.111725
     24 H                     0.168925
  ----------------------------------------
  Sum of atomic charges =     0.000000

 -----------------------------------------------------------------
                    Cartesian Multipole Moments
 -----------------------------------------------------------------
    Charge (ESU x 10^10)
                -0.0000
    Dipole Moment (Debye)
         X       2.9678      Y       0.6737      Z       2.3157
       Tot       3.8242
    Quadrupole Moments (Debye-Ang)
        XX     -91.1191     XY      -1.0036     YY     -74.4279
        XZ      -0.0414     YZ      -0.2957     ZZ     -86.0264
    Octopole Moments (Debye-Ang^2)
       XXX     -49.8710    XXY      45.6701    XYY      -8.9916
       YYY     130.2338    XXZ      -1.4691    XYZ       0.1391
       YYZ      -1.2374    XZZ     -18.2119    YZZ      57.7622
       ZZZ       3.6454
    Hexadecapole Moments (Debye-Ang^3)
      XXXX    -771.1218   XXXY    -162.2969   XXYY    -611.6870
      XYYY     -97.2033   YYYY   -2737.3074   XXXZ     -26.4426
      XXYZ     -31.1898   XYYZ     -15.0923   YYYZ    -108.5116
      XXZZ    -229.7618   XYZZ     -32.2989   YYZZ    -589.3633
      XZZZ     -25.9913   YZZZ     -92.6150   ZZZZ    -537.1979
 -----------------------------------------------------------------
 Total job time:  660.42s(wall), 652.87s(cpu) 
 Sun Jul 10 01:29:02 2022

        *************************************************************
        *                                                           *
        *  Thank you very much for using Q-Chem.  Have a nice day.  *
        *                                                           *
        *************************************************************


remove work dirs ./qchem1588597.0 -- ./qchem1588597.-1
rm -rf ./qchem1588597
