You are running Q-Chem version: 5.4.0

#
# job setting
#
local host:  exp-2-29
current dir: /expanse/lustre/scratch/theleonzhang/temp_project/Hydrogenated_Rotation_Test
input file:  Methylthiophene_Phi_5_Theta_350_Methylthiophene_Hydrogenated.qcin
output file: 
nprocs     : 0
nthreads   : 1
#
# qchem installation setting
#
QC:          /cm/shared/apps/spack/cpu/opt/spack/linux-centos8-zen2/gcc-10.2.0/qchem-5.4-akfmr7b3t57bfs6qan3padb2wnb2i7cl
QCAUX:       /cm/shared/apps/spack/cpu/opt/spack/linux-centos8-zen2/gcc-10.2.0/qchem-5.4-akfmr7b3t57bfs6qan3padb2wnb2i7cl/qcaux
QCPROG:      /cm/shared/apps/spack/cpu/opt/spack/linux-centos8-zen2/gcc-10.2.0/qchem-5.4-akfmr7b3t57bfs6qan3padb2wnb2i7cl/exe/qcprog.exe_s
QCPROG_S:    /cm/shared/apps/spack/cpu/opt/spack/linux-centos8-zen2/gcc-10.2.0/qchem-5.4-akfmr7b3t57bfs6qan3padb2wnb2i7cl/exe/qcprog.exe_s
PARALLEL:    -DSERIAL
QCMPI:       mpich
#
# qchem directory setting
#
qcrun:       qchem435009
QCSCRATCH:   .
QCLOCALSCR:  
QCTMPDIR:    .
QCFILEPREF:  ./qchem435009
QCSAVEDIR:   
workdirs:    ./qchem435009
workdir0:    ./qchem435009
partmpdirs =  
#
# parallel setting
#
QCRSH:           ssh
QCMPI:           mpich
QCMPIRUN:        /cm/shared/apps/spack/cpu/opt/spack/linux-centos8-zen2/gcc-10.2.0/qchem-5.4-akfmr7b3t57bfs6qan3padb2wnb2i7cl/bin/mpi/mpirun_qchem
QCMACHINEFILE:   ./qchem435009/hostfile

#
# env setting
#
exported envs:   QC QCAUX QCSCRATCH QCRUNNAME QCFILEPREF QCPROG QCPROG_S GUIFILE

Running Job 1 of 1 Methylthiophene_Phi_5_Theta_350_Methylthiophene_Hydrogenated.qcin
qchem Methylthiophene_Phi_5_Theta_350_Methylthiophene_Hydrogenated.qcin_435009.0 ./qchem435009/ 0
/cm/shared/apps/spack/cpu/opt/spack/linux-centos8-zen2/gcc-10.2.0/qchem-5.4-akfmr7b3t57bfs6qan3padb2wnb2i7cl/exe/qcprog.exe_s Methylthiophene_Phi_5_Theta_350_Methylthiophene_Hydrogenated.qcin_435009.0 ./qchem435009/
                  Welcome to Q-Chem
     A Quantum Leap Into The Future Of Chemistry


 Q-Chem 5.4, Q-Chem, Inc., Pleasanton, CA (2021)

 License issued to: University of California, San Diego (site)

 E. Epifanovsky,  A. T. B. Gilbert,  Xintian Feng,  Joonho Lee,  Yuezhi Mao,  
 N. Mardirossian,  P. Pokhilko,  A. White,  M. Wormit,  M. P. Coons,  
 A. L. Dempwolff,  Zhengting Gan,  D. Hait,  P. R. Horn,  L. D. Jacobson,  
 I. Kaliman,  J. Kussmann,  A. W. Lange,  Ka Un Lao,  D. S. Levine,  Jie Liu,  
 S. C. McKenzie,  A. F. Morrison,  K. Nanda,  F. Plasser,  D. R. Rehn,  
 M. L. Vidal,  Zhi-Qiang You,  Ying Zhu,  B. Alam,  B. Albrecht,  
 A. Aldossary,  E. Alguire,  J. H. Andersen,  D. Barton,  K. Begam,  A. Behn,  
 Y. A. Bernard,  E. J. Berquist,  H. Burton,  A. Carreras,  K. Carter-Fenk,  
 R. Chakraborty,  A. D. Chien,  K. D. Closser,  V. Cofer-Shabica,  
 S. Dasgupta,  Jia Deng,  M. de Wergifosse,  M. Diedenhofen,  Hainam Do,  
 S. Ehlert,  Po-Tung Fang,  S. Fatehi,  Qingguo Feng,  J. Gayvert,  
 Qinghui Ge,  G. Gidofalvi,  M. Goldey,  J. Gomes,  C. Gonzalez-Espinoza,  
 S. Gulania,  A. Gunina,  M. W. D. Hanson-Heine,  P. H. P. Harbach,  
 A. W. Hauser,  M. F. Herbst,  M. Hernandez Vera,  M. Hodecker,  
 Z. C. Holden,  S. Houck,  Xunkun Huang,  Kerwin Hui,  B. C. Huynh,  
 M. Ivanov,  Hyunjun Ji,  Hanjie Jiang,  B. Kaduk,  S. Kaehler,  
 K. Khistyaev,  Jaehoon Kim,  P. Klunzinger,  Z. Koczor-Benda,  
 Joong Hoon Koh,  D. Kosenkov,  L. Koulias,  T. Kowalczyk,  C. M. Krauter,  
 K. Kue,  A. Kunitsa,  T. Kus,  A. Landau,  K. V. Lawler,  D. Lefrancois,  
 S. Lehtola,  Rain Li,  Yi-Pei Li,  Jiashu Liang,  M. Liebenthal,  
 Hung-Hsuan Lin,  You-Sheng Lin,  Fenglai Liu,  Kuan-Yu Liu,  
 M. Loipersberger,  A. Luenser,  A. Manjanath,  P. Manohar,  E. Mansoor,  
 S. F. Manzer,  Shan-Ping Mao,  A. V. Marenich,  T. Markovich,  S. Mason,  
 S. A. Maurer,  P. F. McLaughlin,  M. F. S. J. Menger,  J.-M. Mewes,  
 S. A. Mewes,  P. Morgante,  J. W. Mullinax,  T. S. Nguyen-Beck,  
 K. J. Oosterbaan,  G. Paran,  Alexander C. Paul,  Suranjan K. Paul,  
 F. Pavosevic,  Zheng Pei,  S. Prager,  E. I. Proynov,  E. Ramos,  B. Rana,  
 A. E. Rask,  A. Rettig,  R. M. Richard,  F. Rob,  E. Rossomme,  T. Scheele,  
 M. Scheurer,  M. Schneider,  N. Sergueev,  S. M. Sharada,  W. Skomorowski,  
 D. W. Small,  C. J. Stein,  Yu-Chuan Su,  E. J. Sundstrom,  Zhen Tao,  
 J. Thirman,  T. Tsuchimochi,  N. M. Tubman,  S. P. Veccham,  O. Vydrov,  
 J. Wenzel,  J. Witte,  A. Yamada,  Kun Yao,  S. Yeganeh,  S. R. Yost,  
 A. Zech,  Igor Ying Zhang,  Xing Zhang,  Yu Zhang,  D. Zuev,  
 A. Aspuru-Guzik,  A. T. Bell,  N. A. Besley,  K. B. Bravaya,  B. R. Brooks,  
 D. Casanova,  Jeng-Da Chai,  S. Coriani,  C. J. Cramer,  
 A. E. DePrince, III,  R. A. DiStasio Jr.,  A. Dreuw,  B. D. Dunietz,  
 T. R. Furlani,  W. A. Goddard III,  S. Grimme,  S. Hammes-Schiffer,  
 T. Head-Gordon,  W. J. Hehre,  Chao-Ping Hsu,  T.-C. Jagau,  Yousung Jung,  
 A. Klamt,  Jing Kong,  D. S. Lambrecht,  WanZhen Liang,  N. J. Mayhall,  
 C. W. McCurdy,  J. B. Neaton,  C. Ochsenfeld,  J. A. Parkhill,  R. Peverati,  
 V. A. Rassolov,  Yihan Shao,  L. V. Slipchenko,  T. Stauch,  R. P. Steele,  
 J. E. Subotnik,  A. J. W. Thom,  A. Tkatchenko,  D. G. Truhlar,  
 T. Van Voorhis,  T. A. Wesolowski,  K. B. Whaley,  H. L. Woodcock III,  
 P. M. Zimmerman,  S. Faraji,  P. M. W. Gill,  M. Head-Gordon,  
 J. M. Herbert,  A. I. Krylov

 Contributors to earlier versions of Q-Chem not listed above: 
 R. D. Adamson,  B. Austin,  R. Baer,  J. Baker,  G. J. O. Beran,  
 K. Brandhorst,  S. T. Brown,  E. F. C. Byrd,  A. K. Chakraborty,  
 G. K. L. Chan,  Chun-Min Chang,  Yunqing Chen,  C.-L. Cheng,  
 Siu Hung Chien,  D. M. Chipman,  D. L. Crittenden,  H. Dachsel,  
 R. J. Doerksen,  A. D. Dutoi,  R. G. Edgar,  J. Fosso-Tande,  
 L. Fusti-Molnar,  D. Ghosh,  A. Ghysels,  A. Golubeva-Zadorozhnaya,  
 J. Gonthier,  M. S. Gordon,  S. R. Gwaltney,  G. Hawkins,  J. E. Herr,  
 A. Heyden,  S. Hirata,  E. G. Hohenstein,  G. Kedziora,  F. J. Keil,  
 C. Kelley,  Jihan Kim,  R. A. King,  R. Z. Khaliullin,  P. P. Korambath,  
 W. Kurlancheek,  A. Laurent,  A. M. Lee,  M. S. Lee,  S. V. Levchenko,  
 Ching Yeh Lin,  D. Liotard,  E. Livshits,  R. C. Lochan,  I. Lotan,  
 L. A. Martinez-Martinez,  P. E. Maslen,  N. Nair,  D. P. O'Neill,  
 D. Neuhauser,  E. Neuscamman,  C. M. Oana,  R. Olivares-Amaya,  R. Olson,  
 T. M. Perrine,  B. Peters,  P. A. Pieniazek,  A. Prociuk,  Y. M. Rhee,  
 J. Ritchie,  M. A. Rohrdanz,  E. Rosta,  N. J. Russ,  H. F. Schaefer III,  
 M. W. Schmidt,  N. E. Schultz,  S. Sharma,  N. Shenvi,  C. D. Sherrill,  
 A. C. Simmonett,  A. Sodt,  T. Stein,  D. Stuck,  K. S. Thanthiriwatte,  
 V. Vanovschi,  L. Vogt,  Tao Wang,  A. Warshel,  M. A. Watson,  
 C. F. Williams,  Q. Wu,  X. Xu,  Jun Yang,  W. Zhang,  Yan Zhao

 Please cite Q-Chem as follows:
 Y. Shao et al., Mol. Phys. 113, 184-215 (2015)
 DOI: 10.1080/00268976.2014.952696

 Q-Chem 5.4.0 for Intel X86 EM64T Linux

 Parts of Q-Chem use Armadillo 9.800.1 (Horizon Scraper).
 http://arma.sourceforge.net/

 Q-Chem begins on Sun Jul 10 05:51:43 2022  

 Host: 
0

     Scratch files written to ./qchem435009//
 May1621 |scratch|qcdevops|jenkins|workspace|build_RNUM    
 Processing $rem in /cm/shared/apps/spack/cpu/opt/spack/linux-centos8-zen2/gcc-10.2.0/qchem-5.4-akfmr7b3t57bfs6qan3padb2wnb2i7cl/config/preferences:
 Processing $rem in /home/theleonzhang/.qchemrc:
 Symmetry turned off for PCM/SM12/SMD calculation
 Core orbitals will be frozen

 Checking the input file for inconsistencies... 	...done.

--------------------------------------------------------------
User input:
--------------------------------------------------------------
$molecule
0 1
C	0.133897	-3.866725	0.763475
C	-0.106669	-3.703963	-0.603206
C	-0.185154	-2.357056	-1.050446
H	-0.226709	-4.561092	-1.283024
C	-0.000000	-1.440664	-0.000000
S	0.268206	-2.286957	1.521018
C	-0.437628	-1.978743	-2.483610
H	-0.549717	-2.878678	-3.118875
H	0.394664	-1.376015	-2.903464
H	-1.363110	-1.375728	-2.593726
C	0.000000	0.000000	0.000000
C	0.075300	0.860311	1.099446
C	0.195935	2.238951	0.776721
H	0.043151	0.492916	2.136088
C	0.215188	2.458766	-0.612546
S	0.082160	0.938811	-1.486809
C	0.290762	3.322559	1.814609
H	0.253664	2.898542	2.836676
H	-0.541206	4.052140	1.726239
H	1.236797	3.896558	1.726228
H	0.297938	3.404370	-1.161575
H	1.077442	-4.392713	0.946698
H	-0.690363	-4.392347	1.258274
H	-1.063612	-1.440391	0.187427
$end

$rem
JOBTYPE		SP
EXCHANGE	HF
CORRELATION	pRIMP2
BASIS		cc-pvtz
METHOD		rimp2
AUX_BASIS	rimp2-cc-pvtz
SOLVENT_METHOD	PCM
PURECART	11111
SYMMETRY	false
MEM_TOTAL	110000
SCF_CONVERGENCE = 6
THRESH=10
$end



$solvent
dielectric 4.90
$end
--------------------------------------------------------------
 ----------------------------------------------------------------
             Standard Nuclear Orientation (Angstroms)
    I     Atom           X                Y                Z
 ----------------------------------------------------------------
    1      C       0.1338970000    -3.8667250000     0.7634750000
    2      C      -0.1066690000    -3.7039630000    -0.6032060000
    3      C      -0.1851540000    -2.3570560000    -1.0504460000
    4      H      -0.2267090000    -4.5610920000    -1.2830240000
    5      C       0.0000000000    -1.4406640000     0.0000000000
    6      S       0.2682060000    -2.2869570000     1.5210180000
    7      C      -0.4376280000    -1.9787430000    -2.4836100000
    8      H      -0.5497170000    -2.8786780000    -3.1188750000
    9      H       0.3946640000    -1.3760150000    -2.9034640000
   10      H      -1.3631100000    -1.3757280000    -2.5937260000
   11      C       0.0000000000     0.0000000000     0.0000000000
   12      C       0.0753000000     0.8603110000     1.0994460000
   13      C       0.1959350000     2.2389510000     0.7767210000
   14      H       0.0431510000     0.4929160000     2.1360880000
   15      C       0.2151880000     2.4587660000    -0.6125460000
   16      S       0.0821600000     0.9388110000    -1.4868090000
   17      C       0.2907620000     3.3225590000     1.8146090000
   18      H       0.2536640000     2.8985420000     2.8366760000
   19      H      -0.5412060000     4.0521400000     1.7262390000
   20      H       1.2367970000     3.8965580000     1.7262280000
   21      H       0.2979380000     3.4043700000    -1.1615750000
   22      H       1.0774420000    -4.3927130000     0.9466980000
   23      H      -0.6903630000    -4.3923470000     1.2582740000
   24      H      -1.0636120000    -1.4403910000     0.1874270000
 ----------------------------------------------------------------
 Nuclear Repulsion Energy =         876.09589643 hartrees
 There are       52 alpha and       52 beta electrons

 Q-Chem warning in module forms1/BasisType.C, line 2236:

 You are not using the predefined 5D/6D in this basis set.

 Requested basis set is cc-pVTZ
 There are 196 shells and 536 basis functions

 Total QAlloc Memory Limit 110000 MB
 Mega-Array Size       188 MB
 MEM_STATIC part       192 MB
 Discretize the solute cavity surface with Lebedev spheres
	Using 110 Lebedev grid points for each H atom
	Using 194 Lebedev grid points for other atoms
	Atomic van der Waals radii will be scaled by 1.20
 Remove points where switching function is < 1.0e-08
 Keep 1594 surface tesserae and discard 2054 interior tesserae
 Molecular Surface Area = 230.730 Angst**2
 Requested basis set is rimp2-cc-pVTZ
 There are 414 shells and 1414 basis functions
 A cutoff of  1.0D-10 yielded  13847 shell pairs
 There are    100375 function pairs (    128685 Cartesian)
 Smallest overlap matrix eigenvalue = 4.42E-05

 Scale SEOQF with 1.000000e+00/1.000000e-01/1.000000e-01

 Standard Electronic Orientation quadrupole field applied
 Nucleus-field energy     =     0.0000000251 hartrees
 Guess from superposition of atomic densities
 Warning:  Energy on first SCF cycle will be non-variational
 SAD guess density has 104.000000 electrons

 -----------------------------------------------------------------------
  General SCF calculation program by
  Eric Jon Sundstrom, Paul Horn, Yuezhi Mao, Dmitri Zuev, Alec White,
  David Stuck, Shaama M.S., Shane Yost, Joonho Lee, David Small,
  Daniel Levine, Susi Lehtola, Hugh Burton, Evgeny Epifanovsky,
  Bang C. Huynh
 -----------------------------------------------------------------------
 Hartree-Fock
 A restricted SCF calculation will be
 performed using DIIS
 SCF converges when DIIS error is below 1.0e-06
 ---------------------------------------
  Cycle       Energy         DIIS error
 ---------------------------------------
    1   -1186.0505016800      2.39e-02  
    2   -1180.6090011622      1.59e-03  
    3   -1180.7350819622      6.72e-04  
    4   -1180.7516530455      3.55e-04  
    5   -1180.7574914102      5.87e-05  
    6   -1180.7577361734      2.44e-05  
    7   -1180.7577919877      8.39e-06  
    8   -1180.7578033207      4.05e-06  
    9   -1180.7578057473      1.35e-06  
   10   -1180.7578061265      5.13e-07  Convergence criterion met
 ---------------------------------------
 SCF time:   CPU 571.30s  wall 573.00s 

************** Final PCM Free Energy Summary **************
 G_electrostatic  =      -0.00829547 hartree =      -5.20548716 kcal/mol
 G_cavitation     =       0.00000000 hartree =       0.00000000 kcal/mol
 G_dispersion     =       0.00000000 hartree =       0.00000000 kcal/mol
 G_repulsion      =       0.00000000 hartree =       0.00000000 kcal/mol
 --------------------------------------------------
 Non-electrostatic Free Energy =       0.00000000 hartree =       0.00000000 kcal/mol
 Total                         =      -0.00829547 hartree =      -5.20548716 kcal/mol
 --------------------------------------------------
 SCF Energy (H0 + V/2)                       =   -1180.75780613 
 Solute Internal Energy (H0)                 =   -1180.74951065 
 Total Free Energy (H0 + V/2 + non-elec)     =   -1180.75780613 hartree
                                             = -740936.70630159 kcal/mol
***********************************************************

 SCF   energy in the final basis set =    -1180.7578061265
 Total energy in the final basis set =    -1180.7578061265


 --------------------------------------------------------------
  Generalized many-body perturbation theory program
  by Joonho Lee, Fazle Rob, Xintian Feng, Evgeny Epifanovsky

 No regularization used 
 (reg. param. = 0.0000e+00)
  (P|Q)^-1/2 Time:  CPU 1.89 s  wall 1.90 s

 In RI-MP2 calculation: 
 # of frozen core orbitals: 20

 Components of the RIMP2 correlation energy:
        aaaa    correlation energy =        -0.2515470569 a.u.
        abab    correlation energy =        -1.5028690646 a.u.
        bbbb    correlation energy =        -0.2515470569 a.u.
        non-Brillouin singles      =        -0.0000000000 a.u.
        total same-spin energy     =        -0.5030941139 a.u.
        total opposite-spin energy =        -1.5028690646 a.u.

 Total  RIMP2   correlation energy =        -2.0059631785 a.u.
        RIMP2         total energy =     -1182.7637693051 a.u.

 RI-MP2 Energy Time:  CPU 80.18 s  wall 80.49 s
 
 --------------------------------------------------------------
 
                    Orbital Energies (a.u.)
 --------------------------------------------------------------
 
 Alpha MOs
 -- Occupied --
-91.9815 -91.9469 -11.2908 -11.2665 -11.2620 -11.2527 -11.2500 -11.2444
-11.2332 -11.2305 -11.2274 -11.2232  -8.9815  -8.9515  -6.6624  -6.6619
 -6.6612  -6.6328  -6.6318  -6.6305  -1.2027  -1.1522  -1.0610  -1.0288
 -1.0071  -0.9562  -0.9167  -0.9015  -0.8155  -0.7723  -0.7175  -0.7039
 -0.6614  -0.6484  -0.6110  -0.5911  -0.5827  -0.5723  -0.5680  -0.5544
 -0.5423  -0.5344  -0.5161  -0.5095  -0.4876  -0.4858  -0.4579  -0.4462
 -0.3592  -0.3418  -0.3264  -0.2645
 -- Virtual --
  0.1061   0.1324   0.1443   0.1509   0.1592   0.1710   0.1766   0.1829
  0.1915   0.1962   0.2044   0.2086   0.2286   0.2329   0.2386   0.2421
  0.2539   0.2596   0.2740   0.3041   0.3209   0.3365   0.3572   0.3592
  0.3722   0.3767   0.3832   0.3982   0.4070   0.4138   0.4215   0.4373
  0.4433   0.4483   0.4600   0.4619   0.4786   0.4817   0.4916   0.5021
  0.5096   0.5128   0.5297   0.5341   0.5446   0.5467   0.5526   0.5547
  0.5714   0.5757   0.5904   0.5995   0.6112   0.6123   0.6159   0.6173
  0.6231   0.6277   0.6309   0.6355   0.6392   0.6464   0.6498   0.6555
  0.6611   0.6673   0.6844   0.6888   0.6944   0.7111   0.7233   0.7319
  0.7399   0.7585   0.7626   0.7858   0.7959   0.8010   0.8116   0.8237
  0.8466   0.8561   0.8691   0.8742   0.8802   0.8966   0.9066   0.9151
  0.9324   0.9471   0.9489   0.9717   0.9791   0.9861   1.0003   1.0054
  1.0222   1.0270   1.0378   1.0569   1.0645   1.0708   1.0802   1.0827
  1.0928   1.0997   1.1095   1.1212   1.1390   1.1521   1.1584   1.1627
  1.1723   1.1856   1.1993   1.2090   1.2205   1.2223   1.2321   1.2388
  1.2622   1.2690   1.2707   1.2758   1.2822   1.2888   1.2933   1.3140
  1.3253   1.3417   1.3466   1.3705   1.3817   1.3930   1.4092   1.4130
  1.4181   1.4254   1.4467   1.4614   1.4740   1.4778   1.4878   1.4901
  1.5051   1.5171   1.5247   1.5296   1.5363   1.5403   1.5515   1.5587
  1.5708   1.5793   1.5925   1.5986   1.6051   1.6308   1.6373   1.6525
  1.6537   1.6617   1.6803   1.6920   1.7051   1.7163   1.7269   1.7362
  1.7477   1.7547   1.7742   1.8131   1.8229   1.8276   1.8412   1.8639
  1.9004   1.9160   1.9320   1.9510   1.9606   1.9741   1.9905   2.0024
  2.0154   2.0247   2.0505   2.0602   2.0658   2.1008   2.1484   2.1544
  2.1944   2.1975   2.2055   2.2177   2.2351   2.2577   2.2850   2.2979
  2.3088   2.3355   2.3505   2.3707   2.4154   2.4266   2.4561   2.4702
  2.4939   2.5232   2.5341   2.5419   2.5609   2.5928   2.6068   2.6099
  2.6465   2.6541   2.6577   2.6746   2.6866   2.6999   2.7048   2.7303
  2.7349   2.7470   2.7597   2.7660   2.7740   2.7835   2.8069   2.8207
  2.8317   2.8410   2.8562   2.8882   2.8976   2.9028   2.9157   2.9239
  2.9436   2.9529   2.9683   2.9930   2.9958   3.0130   3.0364   3.0451
  3.0564   3.0697   3.0972   3.0999   3.1138   3.1171   3.1294   3.1396
  3.1500   3.1550   3.1737   3.1751   3.1790   3.1949   3.2191   3.2217
  3.2317   3.2406   3.2521   3.2582   3.2702   3.2763   3.2903   3.3047
  3.3134   3.3260   3.3339   3.3363   3.3424   3.3488   3.3601   3.3715
  3.3814   3.3848   3.3924   3.3997   3.4045   3.4106   3.4223   3.4342
  3.4399   3.4456   3.4549   3.4583   3.4802   3.4970   3.4980   3.5061
  3.5102   3.5160   3.5298   3.5350   3.5486   3.5557   3.5665   3.5741
  3.5838   3.5999   3.6106   3.6243   3.6318   3.6391   3.6416   3.6597
  3.6698   3.6824   3.6938   3.7070   3.7157   3.7179   3.7368   3.7395
  3.7491   3.7528   3.7754   3.7809   3.7904   3.7949   3.8022   3.8129
  3.8260   3.8434   3.8454   3.8654   3.8754   3.8895   3.9013   3.9158
  3.9277   3.9382   3.9541   3.9629   3.9810   3.9913   4.0036   4.0144
  4.0274   4.0305   4.0467   4.0537   4.0719   4.0877   4.0957   4.1039
  4.1245   4.1404   4.1467   4.1544   4.1662   4.1753   4.1849   4.2023
  4.2107   4.2185   4.2230   4.2452   4.2505   4.2648   4.2748   4.2806
  4.2866   4.2992   4.3325   4.3420   4.3453   4.3537   4.3612   4.3655
  4.3745   4.3829   4.4027   4.4125   4.4221   4.4271   4.4373   4.4488
  4.4547   4.4611   4.4832   4.4947   4.5240   4.5285   4.5587   4.5777
  4.5873   4.5992   4.6045   4.6303   4.6360   4.6417   4.6736   4.6875
  4.7147   4.7205   4.7488   4.7762   4.7877   4.8064   4.8152   4.8308
  4.8523   4.8658   4.8901   4.8990   4.9316   4.9535   4.9768   4.9840
  5.0378   5.0639   5.0873   5.1082   5.1166   5.1241   5.1596   5.1960
  5.2014   5.2203   5.2556   5.2639   5.2907   5.2945   5.3047   5.3312
  5.3574   5.3676   5.3795   5.3897   5.4087   5.4195   5.4394   5.4537
  5.4717   5.5173   5.5218   5.5450   5.5524   5.5564   5.5697   5.5840
  5.6198   5.6358   5.6510   5.6790   5.6818   5.7019   5.7061   5.7263
  5.7616   5.7918   5.8507   6.0001   6.0137   6.1303   6.1523   6.1655
  6.2204   6.2275   6.2409   6.2523   6.2780   6.2838   6.3076   6.3491
  6.4280   6.5151   9.5816  10.9128  12.0566  13.0101  13.2130  13.9990
 14.1420  14.3204  14.4272  14.8713
 --------------------------------------------------------------
 
          Ground-State Mulliken Net Atomic Charges

     Atom                 Charge (a.u.)
  ----------------------------------------
      1 C                    -0.073262
      2 C                    -0.320260
      3 C                    -0.045615
      4 H                     0.179524
      5 C                     0.149202
      6 S                    -0.183813
      7 C                    -0.310382
      8 H                     0.122210
      9 H                     0.112837
     10 H                     0.114264
     11 C                    -0.030410
     12 C                    -0.323255
     13 C                     0.048501
     14 H                     0.176736
     15 C                    -0.281546
     16 S                     0.009782
     17 C                    -0.272704
     18 H                     0.102654
     19 H                     0.108108
     20 H                     0.108759
     21 H                     0.195615
     22 H                     0.113917
     23 H                     0.111163
     24 H                     0.187977
  ----------------------------------------
  Sum of atomic charges =     0.000000

 -----------------------------------------------------------------
                    Cartesian Multipole Moments
 -----------------------------------------------------------------
    Charge (ESU x 10^10)
                -0.0000
    Dipole Moment (Debye)
         X      -1.1963      Y      -0.5211      Z      -0.8821
       Tot       1.5751
    Quadrupole Moments (Debye-Ang)
        XX     -91.8005     XY       2.9172     YY     -73.1130
        XZ      -0.0773     YZ       4.4080     ZZ     -85.4436
    Octopole Moments (Debye-Ang^2)
       XXX     -17.8949    XXY      44.2607    XYY      -4.5259
       YYY     113.7059    XXZ       0.3323    XYZ      -0.5548
       YYZ      -0.8994    XZZ      -7.0048    YZZ      48.5512
       ZZZ      -3.5880
    Hexadecapole Moments (Debye-Ang^3)
      XXXX    -161.8971   XXXY     -46.1871   XXYY    -556.5489
      XYYY     -30.6551   YYYY   -2758.6633   XXXZ     -59.4775
      XXYZ     -31.4722   XYYZ     -16.1463   YYYZ    -108.8557
      XXZZ    -220.2073   XYZZ      -4.8353   YYZZ    -654.2852
      XZZZ     -55.5035   YZZZ     -62.3143   ZZZZ   -1077.6111
 -----------------------------------------------------------------
 Total job time:  656.03s(wall), 652.36s(cpu) 
 Sun Jul 10 06:02:39 2022

        *************************************************************
        *                                                           *
        *  Thank you very much for using Q-Chem.  Have a nice day.  *
        *                                                           *
        *************************************************************


remove work dirs ./qchem435009.0 -- ./qchem435009.-1
rm -rf ./qchem435009
