You are running Q-Chem version: 5.4.0

#
# job setting
#
local host:  exp-7-31
current dir: /expanse/lustre/scratch/theleonzhang/temp_project/Hydrogenated_Rotation_Test
input file:  Methylthiophene_Phi_50_Theta_240_Methylthiophene_Hydrogenated_Alternate.qcin
output file: 
nprocs     : 0
nthreads   : 1
#
# qchem installation setting
#
QC:          /cm/shared/apps/spack/cpu/opt/spack/linux-centos8-zen2/gcc-10.2.0/qchem-5.4-akfmr7b3t57bfs6qan3padb2wnb2i7cl
QCAUX:       /cm/shared/apps/spack/cpu/opt/spack/linux-centos8-zen2/gcc-10.2.0/qchem-5.4-akfmr7b3t57bfs6qan3padb2wnb2i7cl/qcaux
QCPROG:      /cm/shared/apps/spack/cpu/opt/spack/linux-centos8-zen2/gcc-10.2.0/qchem-5.4-akfmr7b3t57bfs6qan3padb2wnb2i7cl/exe/qcprog.exe_s
QCPROG_S:    /cm/shared/apps/spack/cpu/opt/spack/linux-centos8-zen2/gcc-10.2.0/qchem-5.4-akfmr7b3t57bfs6qan3padb2wnb2i7cl/exe/qcprog.exe_s
PARALLEL:    -DSERIAL
QCMPI:       mpich
#
# qchem directory setting
#
qcrun:       qchem2596813
QCSCRATCH:   .
QCLOCALSCR:  
QCTMPDIR:    .
QCFILEPREF:  ./qchem2596813
QCSAVEDIR:   
workdirs:    ./qchem2596813
workdir0:    ./qchem2596813
partmpdirs =  
#
# parallel setting
#
QCRSH:           ssh
QCMPI:           mpich
QCMPIRUN:        /cm/shared/apps/spack/cpu/opt/spack/linux-centos8-zen2/gcc-10.2.0/qchem-5.4-akfmr7b3t57bfs6qan3padb2wnb2i7cl/bin/mpi/mpirun_qchem
QCMACHINEFILE:   ./qchem2596813/hostfile

#
# env setting
#
exported envs:   QC QCAUX QCSCRATCH QCRUNNAME QCFILEPREF QCPROG QCPROG_S GUIFILE

Running Job 1 of 1 Methylthiophene_Phi_50_Theta_240_Methylthiophene_Hydrogenated_Alternate.qcin
qchem Methylthiophene_Phi_50_Theta_240_Methylthiophene_Hydrogenated_Alternate.qcin_2596813.0 ./qchem2596813/ 0
/cm/shared/apps/spack/cpu/opt/spack/linux-centos8-zen2/gcc-10.2.0/qchem-5.4-akfmr7b3t57bfs6qan3padb2wnb2i7cl/exe/qcprog.exe_s Methylthiophene_Phi_50_Theta_240_Methylthiophene_Hydrogenated_Alternate.qcin_2596813.0 ./qchem2596813/
                  Welcome to Q-Chem
     A Quantum Leap Into The Future Of Chemistry


 Q-Chem 5.4, Q-Chem, Inc., Pleasanton, CA (2021)

 License issued to: University of California, San Diego (site)

 E. Epifanovsky,  A. T. B. Gilbert,  Xintian Feng,  Joonho Lee,  Yuezhi Mao,  
 N. Mardirossian,  P. Pokhilko,  A. White,  M. Wormit,  M. P. Coons,  
 A. L. Dempwolff,  Zhengting Gan,  D. Hait,  P. R. Horn,  L. D. Jacobson,  
 I. Kaliman,  J. Kussmann,  A. W. Lange,  Ka Un Lao,  D. S. Levine,  Jie Liu,  
 S. C. McKenzie,  A. F. Morrison,  K. Nanda,  F. Plasser,  D. R. Rehn,  
 M. L. Vidal,  Zhi-Qiang You,  Ying Zhu,  B. Alam,  B. Albrecht,  
 A. Aldossary,  E. Alguire,  J. H. Andersen,  D. Barton,  K. Begam,  A. Behn,  
 Y. A. Bernard,  E. J. Berquist,  H. Burton,  A. Carreras,  K. Carter-Fenk,  
 R. Chakraborty,  A. D. Chien,  K. D. Closser,  V. Cofer-Shabica,  
 S. Dasgupta,  Jia Deng,  M. de Wergifosse,  M. Diedenhofen,  Hainam Do,  
 S. Ehlert,  Po-Tung Fang,  S. Fatehi,  Qingguo Feng,  J. Gayvert,  
 Qinghui Ge,  G. Gidofalvi,  M. Goldey,  J. Gomes,  C. Gonzalez-Espinoza,  
 S. Gulania,  A. Gunina,  M. W. D. Hanson-Heine,  P. H. P. Harbach,  
 A. W. Hauser,  M. F. Herbst,  M. Hernandez Vera,  M. Hodecker,  
 Z. C. Holden,  S. Houck,  Xunkun Huang,  Kerwin Hui,  B. C. Huynh,  
 M. Ivanov,  Hyunjun Ji,  Hanjie Jiang,  B. Kaduk,  S. Kaehler,  
 K. Khistyaev,  Jaehoon Kim,  P. Klunzinger,  Z. Koczor-Benda,  
 Joong Hoon Koh,  D. Kosenkov,  L. Koulias,  T. Kowalczyk,  C. M. Krauter,  
 K. Kue,  A. Kunitsa,  T. Kus,  A. Landau,  K. V. Lawler,  D. Lefrancois,  
 S. Lehtola,  Rain Li,  Yi-Pei Li,  Jiashu Liang,  M. Liebenthal,  
 Hung-Hsuan Lin,  You-Sheng Lin,  Fenglai Liu,  Kuan-Yu Liu,  
 M. Loipersberger,  A. Luenser,  A. Manjanath,  P. Manohar,  E. Mansoor,  
 S. F. Manzer,  Shan-Ping Mao,  A. V. Marenich,  T. Markovich,  S. Mason,  
 S. A. Maurer,  P. F. McLaughlin,  M. F. S. J. Menger,  J.-M. Mewes,  
 S. A. Mewes,  P. Morgante,  J. W. Mullinax,  T. S. Nguyen-Beck,  
 K. J. Oosterbaan,  G. Paran,  Alexander C. Paul,  Suranjan K. Paul,  
 F. Pavosevic,  Zheng Pei,  S. Prager,  E. I. Proynov,  E. Ramos,  B. Rana,  
 A. E. Rask,  A. Rettig,  R. M. Richard,  F. Rob,  E. Rossomme,  T. Scheele,  
 M. Scheurer,  M. Schneider,  N. Sergueev,  S. M. Sharada,  W. Skomorowski,  
 D. W. Small,  C. J. Stein,  Yu-Chuan Su,  E. J. Sundstrom,  Zhen Tao,  
 J. Thirman,  T. Tsuchimochi,  N. M. Tubman,  S. P. Veccham,  O. Vydrov,  
 J. Wenzel,  J. Witte,  A. Yamada,  Kun Yao,  S. Yeganeh,  S. R. Yost,  
 A. Zech,  Igor Ying Zhang,  Xing Zhang,  Yu Zhang,  D. Zuev,  
 A. Aspuru-Guzik,  A. T. Bell,  N. A. Besley,  K. B. Bravaya,  B. R. Brooks,  
 D. Casanova,  Jeng-Da Chai,  S. Coriani,  C. J. Cramer,  
 A. E. DePrince, III,  R. A. DiStasio Jr.,  A. Dreuw,  B. D. Dunietz,  
 T. R. Furlani,  W. A. Goddard III,  S. Grimme,  S. Hammes-Schiffer,  
 T. Head-Gordon,  W. J. Hehre,  Chao-Ping Hsu,  T.-C. Jagau,  Yousung Jung,  
 A. Klamt,  Jing Kong,  D. S. Lambrecht,  WanZhen Liang,  N. J. Mayhall,  
 C. W. McCurdy,  J. B. Neaton,  C. Ochsenfeld,  J. A. Parkhill,  R. Peverati,  
 V. A. Rassolov,  Yihan Shao,  L. V. Slipchenko,  T. Stauch,  R. P. Steele,  
 J. E. Subotnik,  A. J. W. Thom,  A. Tkatchenko,  D. G. Truhlar,  
 T. Van Voorhis,  T. A. Wesolowski,  K. B. Whaley,  H. L. Woodcock III,  
 P. M. Zimmerman,  S. Faraji,  P. M. W. Gill,  M. Head-Gordon,  
 J. M. Herbert,  A. I. Krylov

 Contributors to earlier versions of Q-Chem not listed above: 
 R. D. Adamson,  B. Austin,  R. Baer,  J. Baker,  G. J. O. Beran,  
 K. Brandhorst,  S. T. Brown,  E. F. C. Byrd,  A. K. Chakraborty,  
 G. K. L. Chan,  Chun-Min Chang,  Yunqing Chen,  C.-L. Cheng,  
 Siu Hung Chien,  D. M. Chipman,  D. L. Crittenden,  H. Dachsel,  
 R. J. Doerksen,  A. D. Dutoi,  R. G. Edgar,  J. Fosso-Tande,  
 L. Fusti-Molnar,  D. Ghosh,  A. Ghysels,  A. Golubeva-Zadorozhnaya,  
 J. Gonthier,  M. S. Gordon,  S. R. Gwaltney,  G. Hawkins,  J. E. Herr,  
 A. Heyden,  S. Hirata,  E. G. Hohenstein,  G. Kedziora,  F. J. Keil,  
 C. Kelley,  Jihan Kim,  R. A. King,  R. Z. Khaliullin,  P. P. Korambath,  
 W. Kurlancheek,  A. Laurent,  A. M. Lee,  M. S. Lee,  S. V. Levchenko,  
 Ching Yeh Lin,  D. Liotard,  E. Livshits,  R. C. Lochan,  I. Lotan,  
 L. A. Martinez-Martinez,  P. E. Maslen,  N. Nair,  D. P. O'Neill,  
 D. Neuhauser,  E. Neuscamman,  C. M. Oana,  R. Olivares-Amaya,  R. Olson,  
 T. M. Perrine,  B. Peters,  P. A. Pieniazek,  A. Prociuk,  Y. M. Rhee,  
 J. Ritchie,  M. A. Rohrdanz,  E. Rosta,  N. J. Russ,  H. F. Schaefer III,  
 M. W. Schmidt,  N. E. Schultz,  S. Sharma,  N. Shenvi,  C. D. Sherrill,  
 A. C. Simmonett,  A. Sodt,  T. Stein,  D. Stuck,  K. S. Thanthiriwatte,  
 V. Vanovschi,  L. Vogt,  Tao Wang,  A. Warshel,  M. A. Watson,  
 C. F. Williams,  Q. Wu,  X. Xu,  Jun Yang,  W. Zhang,  Yan Zhao

 Please cite Q-Chem as follows:
 Y. Shao et al., Mol. Phys. 113, 184-215 (2015)
 DOI: 10.1080/00268976.2014.952696

 Q-Chem 5.4.0 for Intel X86 EM64T Linux

 Parts of Q-Chem use Armadillo 9.800.1 (Horizon Scraper).
 http://arma.sourceforge.net/

 Q-Chem begins on Sun Jul 10 05:07:50 2022  

 Host: 
0

     Scratch files written to ./qchem2596813//
 May1621 |scratch|qcdevops|jenkins|workspace|build_RNUM    
 Processing $rem in /cm/shared/apps/spack/cpu/opt/spack/linux-centos8-zen2/gcc-10.2.0/qchem-5.4-akfmr7b3t57bfs6qan3padb2wnb2i7cl/config/preferences:
 Processing $rem in /home/theleonzhang/.qchemrc:
 Symmetry turned off for PCM/SM12/SMD calculation
 Core orbitals will be frozen

 Checking the input file for inconsistencies... 	...done.

--------------------------------------------------------------
User input:
--------------------------------------------------------------
$molecule
0 1
C	0.671636	-3.866725	-0.386946
C	-0.530345	-3.703963	0.306544
C	-0.923770	-2.357056	0.533261
H	-1.128109	-4.561092	0.651857
C	0.000000	-1.440664	0.000000
S	1.337557	-2.286957	-0.772250
C	-2.184153	-1.978743	1.260680
H	-2.742769	-2.878678	1.583283
H	-2.863347	-1.376015	0.622180
H	-1.971094	-1.375728	2.168011
C	0.000000	0.000000	0.000000
C	0.661577	0.555087	1.099446
C	1.721724	1.444630	0.776721
H	0.379056	0.318032	2.136088
C	1.890772	1.586449	-0.612546
S	0.721935	0.605744	-1.486809
C	2.555004	2.143805	1.814609
H	2.228946	1.870211	2.836676
H	2.482605	3.247987	1.726239
H	3.629830	1.880735	1.726228
H	2.617927	2.196579	-1.161575
H	0.521098	-4.392713	-1.336254
H	1.418509	-4.392347	0.218374
H	0.539900	-1.440391	0.935365
$end

$rem
JOBTYPE		SP
EXCHANGE	HF
CORRELATION	pRIMP2
BASIS		cc-pvtz
METHOD		rimp2
AUX_BASIS	rimp2-cc-pvtz
SOLVENT_METHOD	PCM
PURECART	11111
SYMMETRY	false
MEM_TOTAL	110000
SCF_CONVERGENCE = 6
THRESH=10
$end



$solvent
dielectric 4.90
$end
--------------------------------------------------------------
 ----------------------------------------------------------------
             Standard Nuclear Orientation (Angstroms)
    I     Atom           X                Y                Z
 ----------------------------------------------------------------
    1      C       0.6716360000    -3.8667250000    -0.3869460000
    2      C      -0.5303450000    -3.7039630000     0.3065440000
    3      C      -0.9237700000    -2.3570560000     0.5332610000
    4      H      -1.1281090000    -4.5610920000     0.6518570000
    5      C       0.0000000000    -1.4406640000     0.0000000000
    6      S       1.3375570000    -2.2869570000    -0.7722500000
    7      C      -2.1841530000    -1.9787430000     1.2606800000
    8      H      -2.7427690000    -2.8786780000     1.5832830000
    9      H      -2.8633470000    -1.3760150000     0.6221800000
   10      H      -1.9710940000    -1.3757280000     2.1680110000
   11      C       0.0000000000     0.0000000000     0.0000000000
   12      C       0.6615770000     0.5550870000     1.0994460000
   13      C       1.7217240000     1.4446300000     0.7767210000
   14      H       0.3790560000     0.3180320000     2.1360880000
   15      C       1.8907720000     1.5864490000    -0.6125460000
   16      S       0.7219350000     0.6057440000    -1.4868090000
   17      C       2.5550040000     2.1438050000     1.8146090000
   18      H       2.2289460000     1.8702110000     2.8366760000
   19      H       2.4826050000     3.2479870000     1.7262390000
   20      H       3.6298300000     1.8807350000     1.7262280000
   21      H       2.6179270000     2.1965790000    -1.1615750000
   22      H       0.5210980000    -4.3927130000    -1.3362540000
   23      H       1.4185090000    -4.3923470000     0.2183740000
   24      H       0.5399000000    -1.4403910000     0.9353650000
 ----------------------------------------------------------------
 Nuclear Repulsion Energy =         894.20636752 hartrees
 There are       52 alpha and       52 beta electrons

 Q-Chem warning in module forms1/BasisType.C, line 2236:

 You are not using the predefined 5D/6D in this basis set.

 Requested basis set is cc-pVTZ
 There are 196 shells and 536 basis functions

 Total QAlloc Memory Limit 110000 MB
 Mega-Array Size       188 MB
 MEM_STATIC part       192 MB
 Discretize the solute cavity surface with Lebedev spheres
	Using 110 Lebedev grid points for each H atom
	Using 194 Lebedev grid points for other atoms
	Atomic van der Waals radii will be scaled by 1.20
 Remove points where switching function is < 1.0e-08
 Keep 1593 surface tesserae and discard 2055 interior tesserae
 Molecular Surface Area = 233.340 Angst**2
 Requested basis set is rimp2-cc-pVTZ
 There are 414 shells and 1414 basis functions
 A cutoff of  1.0D-10 yielded  14331 shell pairs
 There are    103879 function pairs (    133240 Cartesian)
 Smallest overlap matrix eigenvalue = 6.73E-05

 Scale SEOQF with 1.000000e-01/1.000000e-01/1.000000e-01

 Standard Electronic Orientation quadrupole field applied
 Nucleus-field energy     =     0.0000000291 hartrees
 Guess from superposition of atomic densities
 Warning:  Energy on first SCF cycle will be non-variational
 SAD guess density has 104.000000 electrons

 -----------------------------------------------------------------------
  General SCF calculation program by
  Eric Jon Sundstrom, Paul Horn, Yuezhi Mao, Dmitri Zuev, Alec White,
  David Stuck, Shaama M.S., Shane Yost, Joonho Lee, David Small,
  Daniel Levine, Susi Lehtola, Hugh Burton, Evgeny Epifanovsky,
  Bang C. Huynh
 -----------------------------------------------------------------------
 Hartree-Fock
 A restricted SCF calculation will be
 performed using DIIS
 SCF converges when DIIS error is below 1.0e-06
 ---------------------------------------
  Cycle       Energy         DIIS error
 ---------------------------------------
    1   -1186.1418729296      2.41e-02  
    2   -1180.5564589021      1.54e-03  
    3   -1180.6825680847      5.40e-04  
    4   -1180.6957115991      2.88e-04  
    5   -1180.6995613755      6.13e-05  
    6   -1180.6998296397      2.55e-05  
    7   -1180.6999068282      1.18e-05  
    8   -1180.6999304542      5.64e-06  
    9   -1180.6999375949      2.46e-06  
   10   -1180.6999389505      9.02e-07  Convergence criterion met
 ---------------------------------------
 SCF time:   CPU 588.16s  wall 591.00s 

************** Final PCM Free Energy Summary **************
 G_electrostatic  =      -0.01014359 hartree =      -6.36519833 kcal/mol
 G_cavitation     =       0.00000000 hartree =       0.00000000 kcal/mol
 G_dispersion     =       0.00000000 hartree =       0.00000000 kcal/mol
 G_repulsion      =       0.00000000 hartree =       0.00000000 kcal/mol
 --------------------------------------------------
 Non-electrostatic Free Energy =       0.00000000 hartree =       0.00000000 kcal/mol
 Total                         =      -0.01014359 hartree =      -6.36519833 kcal/mol
 --------------------------------------------------
 SCF Energy (H0 + V/2)                       =   -1180.69993895 
 Solute Internal Energy (H0)                 =   -1180.68979536 
 Total Free Energy (H0 + V/2 + non-elec)     =   -1180.69993895 hartree
                                             = -740900.39410055 kcal/mol
***********************************************************

 SCF   energy in the final basis set =    -1180.6999389505
 Total energy in the final basis set =    -1180.6999389505


 --------------------------------------------------------------
  Generalized many-body perturbation theory program
  by Joonho Lee, Fazle Rob, Xintian Feng, Evgeny Epifanovsky

 No regularization used 
 (reg. param. = 0.0000e+00)
  (P|Q)^-1/2 Time:  CPU 1.90 s  wall 1.90 s

 In RI-MP2 calculation: 
 # of frozen core orbitals: 20

 Components of the RIMP2 correlation energy:
        aaaa    correlation energy =        -0.2539601742 a.u.
        abab    correlation energy =        -1.5113316786 a.u.
        bbbb    correlation energy =        -0.2539601742 a.u.
        non-Brillouin singles      =        -0.0000000000 a.u.
        total same-spin energy     =        -0.5079203485 a.u.
        total opposite-spin energy =        -1.5113316786 a.u.

 Total  RIMP2   correlation energy =        -2.0192520271 a.u.
        RIMP2         total energy =     -1182.7191909776 a.u.

 RI-MP2 Energy Time:  CPU 80.42 s  wall 80.66 s
 
 --------------------------------------------------------------
 
                    Orbital Energies (a.u.)
 --------------------------------------------------------------
 
 Alpha MOs
 -- Occupied --
-91.9816 -91.9378 -11.2777 -11.2633 -11.2555 -11.2525 -11.2514 -11.2470
-11.2357 -11.2302 -11.2301 -11.2103  -8.9819  -8.9425  -6.6627  -6.6620
 -6.6617  -6.6238  -6.6227  -6.6214  -1.2035  -1.1525  -1.0577  -1.0269
 -1.0031  -0.9599  -0.9076  -0.9025  -0.8127  -0.7554  -0.7397  -0.6991
 -0.6604  -0.6389  -0.6097  -0.5883  -0.5829  -0.5712  -0.5630  -0.5516
 -0.5390  -0.5322  -0.5103  -0.5059  -0.4906  -0.4729  -0.4576  -0.4408
 -0.3563  -0.3357  -0.3185  -0.2638
 -- Virtual --
  0.0632   0.1358   0.1418   0.1558   0.1609   0.1696   0.1755   0.1809
  0.1928   0.1981   0.2052   0.2174   0.2216   0.2291   0.2368   0.2419
  0.2500   0.2540   0.2743   0.2935   0.3114   0.3313   0.3468   0.3484
  0.3684   0.3749   0.3762   0.3836   0.3871   0.3932   0.4135   0.4205
  0.4245   0.4367   0.4474   0.4558   0.4731   0.4767   0.4862   0.4954
  0.5058   0.5120   0.5180   0.5230   0.5350   0.5393   0.5515   0.5572
  0.5701   0.5809   0.5836   0.5951   0.6078   0.6111   0.6145   0.6171
  0.6273   0.6323   0.6336   0.6392   0.6461   0.6483   0.6506   0.6564
  0.6653   0.6754   0.6830   0.6954   0.6998   0.7035   0.7152   0.7265
  0.7383   0.7434   0.7499   0.7815   0.7896   0.7978   0.8031   0.8137
  0.8327   0.8363   0.8548   0.8644   0.8747   0.8845   0.8932   0.9053
  0.9222   0.9444   0.9533   0.9650   0.9705   0.9850   1.0004   1.0188
  1.0213   1.0385   1.0430   1.0493   1.0576   1.0586   1.0811   1.0831
  1.1006   1.1038   1.1139   1.1240   1.1402   1.1564   1.1640   1.1779
  1.1822   1.1860   1.2036   1.2121   1.2164   1.2240   1.2306   1.2481
  1.2552   1.2621   1.2659   1.2667   1.2836   1.2913   1.2980   1.3191
  1.3283   1.3468   1.3507   1.3719   1.3759   1.3924   1.4052   1.4133
  1.4278   1.4391   1.4477   1.4694   1.4711   1.4768   1.4851   1.4978
  1.4994   1.5200   1.5242   1.5385   1.5418   1.5460   1.5530   1.5612
  1.5645   1.5725   1.5754   1.6003   1.6098   1.6222   1.6279   1.6509
  1.6566   1.6612   1.6786   1.6931   1.7037   1.7214   1.7305   1.7353
  1.7437   1.7546   1.7642   1.7845   1.7990   1.8029   1.8329   1.8564
  1.8765   1.8893   1.9100   1.9446   1.9579   1.9752   1.9936   2.0054
  2.0223   2.0329   2.0460   2.0569   2.1030   2.1156   2.1216   2.1680
  2.1754   2.2003   2.2182   2.2251   2.2274   2.2396   2.2640   2.2793
  2.3132   2.3140   2.3614   2.3645   2.4074   2.4534   2.4625   2.4711
  2.4867   2.4970   2.5191   2.5400   2.5565   2.5998   2.6078   2.6290
  2.6396   2.6513   2.6522   2.6700   2.6789   2.6988   2.7182   2.7320
  2.7420   2.7644   2.7692   2.7779   2.7854   2.7975   2.8092   2.8243
  2.8371   2.8468   2.8669   2.8876   2.8901   2.8973   2.9091   2.9174
  2.9436   2.9619   2.9736   2.9881   3.0119   3.0134   3.0371   3.0441
  3.0526   3.0680   3.0881   3.1104   3.1145   3.1251   3.1379   3.1554
  3.1622   3.1651   3.1693   3.1782   3.1819   3.1961   3.2033   3.2068
  3.2315   3.2492   3.2534   3.2541   3.2721   3.2844   3.2891   3.3142
  3.3176   3.3227   3.3424   3.3443   3.3484   3.3605   3.3635   3.3779
  3.3829   3.3853   3.3917   3.4017   3.4090   3.4168   3.4215   3.4297
  3.4354   3.4440   3.4586   3.4711   3.4853   3.5006   3.5095   3.5154
  3.5194   3.5293   3.5378   3.5501   3.5615   3.5747   3.5803   3.5837
  3.6015   3.6196   3.6303   3.6335   3.6422   3.6461   3.6582   3.6635
  3.6779   3.6824   3.6883   3.7142   3.7205   3.7241   3.7370   3.7443
  3.7523   3.7640   3.7674   3.7780   3.7979   3.7987   3.8149   3.8332
  3.8424   3.8478   3.8551   3.8750   3.8850   3.9081   3.9120   3.9205
  3.9285   3.9453   3.9619   3.9707   3.9798   3.9991   4.0078   4.0204
  4.0216   4.0367   4.0573   4.0695   4.0793   4.0947   4.1071   4.1168
  4.1224   4.1351   4.1447   4.1640   4.1708   4.1747   4.2020   4.2101
  4.2135   4.2254   4.2394   4.2572   4.2598   4.2664   4.2743   4.2916
  4.3032   4.3077   4.3188   4.3328   4.3433   4.3506   4.3621   4.3728
  4.3882   4.3951   4.4013   4.4036   4.4134   4.4293   4.4399   4.4489
  4.4624   4.4690   4.4844   4.4911   4.5035   4.5264   4.5315   4.5723
  4.5920   4.6019   4.6191   4.6341   4.6377   4.6607   4.6691   4.6795
  4.6886   4.7297   4.7415   4.7621   4.7992   4.8337   4.8393   4.8485
  4.8754   4.8999   4.9054   4.9239   4.9408   4.9630   4.9907   5.0012
  5.0367   5.0592   5.0761   5.1082   5.1131   5.1371   5.1392   5.1603
  5.1785   5.2141   5.2345   5.2729   5.2793   5.2808   5.3099   5.3236
  5.3375   5.3554   5.3880   5.3972   5.4101   5.4389   5.4438   5.4588
  5.4812   5.5095   5.5155   5.5440   5.5511   5.5565   5.5675   5.5949
  5.6219   5.6281   5.6385   5.6550   5.6943   5.7030   5.7129   5.7264
  5.7734   5.7978   5.8126   5.9821   6.0117   6.0725   6.0991   6.1561
  6.2166   6.2186   6.2282   6.2312   6.2518   6.2699   6.2961   6.3255
  6.3814   6.3972   9.3781  10.4685  12.5381  12.8738  13.1723  13.9193
 14.1280  14.2258  14.3162  14.6163
 --------------------------------------------------------------
 
          Ground-State Mulliken Net Atomic Charges

     Atom                 Charge (a.u.)
  ----------------------------------------
      1 C                    -0.084763
      2 C                    -0.340808
      3 C                    -0.050773
      4 H                     0.171859
      5 C                     0.066103
      6 S                    -0.173454
      7 C                    -0.274542
      8 H                     0.113248
      9 H                     0.107374
     10 H                     0.099375
     11 C                    -0.116711
     12 C                    -0.165096
     13 C                    -0.004148
     14 H                     0.187585
     15 C                    -0.200209
     16 S                     0.022887
     17 C                    -0.268559
     18 H                     0.101683
     19 H                     0.107915
     20 H                     0.107082
     21 H                     0.199491
     22 H                     0.108180
     23 H                     0.107295
     24 H                     0.178989
  ----------------------------------------
  Sum of atomic charges =     0.000000

 -----------------------------------------------------------------
                    Cartesian Multipole Moments
 -----------------------------------------------------------------
    Charge (ESU x 10^10)
                -0.0000
    Dipole Moment (Debye)
         X       0.4066      Y       0.9187      Z       3.2705
       Tot       3.4214
    Quadrupole Moments (Debye-Ang)
        XX     -84.5576     XY       8.0006     YY     -82.6000
        XZ       0.6890     YZ      -2.1444     ZZ     -85.4328
    Octopole Moments (Debye-Ang^2)
       XXX    -148.0971    XXY      84.9453    XYY     -38.7804
       YYY     188.7317    XXZ      -0.6704    XYZ      -0.2941
       YYZ      -1.8766    XZZ     -47.9869    YZZ      78.0656
       ZZZ       1.3310
    Hexadecapole Moments (Debye-Ang^3)
      XXXX   -1112.3653   XXXY    -189.0559   XXYY    -571.6433
      XYYY    -228.1188   YYYY   -2357.3946   XXXZ      38.5274
      XXYZ     -42.5206   XYYZ      -0.6047   YYYZ     -63.9717
      XXZZ    -294.8755   XYZZ     -61.3813   YYZZ    -538.4002
      XZZZ      52.5376   YZZZ     -61.8148   ZZZZ    -681.8939
 -----------------------------------------------------------------
 Total job time:  673.02s(wall), 669.47s(cpu) 
 Sun Jul 10 05:19:03 2022

        *************************************************************
        *                                                           *
        *  Thank you very much for using Q-Chem.  Have a nice day.  *
        *                                                           *
        *************************************************************


remove work dirs ./qchem2596813.0 -- ./qchem2596813.-1
rm -rf ./qchem2596813
