
                                 *****************
                                 * O   R   C   A *
                                 *****************

           --- An Ab Initio, DFT and Semiempirical electronic structure package ---

                  #######################################################
                  #                        -***-                        #
                  #  Department of molecular theory and spectroscopy    #
                  #              Directorship: Frank Neese              #
                  # Max Planck Institute for Chemical Energy Conversion #
                  #                  D-45470 Muelheim/Ruhr              #
                  #                       Germany                       #
                  #                                                     #
                  #                  All rights reserved                #
                  #                        -***-                        #
                  #######################################################


                         Program Version 3.0.3 - RELEASE   -


 With contributions from (in alphabetic order):
   Ute Becker             : Parallelization
   Dmytro Bykov           : SCF Hessian
   Dmitry Ganyushin       : Spin-Orbit,Spin-Spin,Magnetic field MRCI
   Andreas Hansen         : Spin unrestricted coupled pair/coupled cluster methods
   Dimitrios Liakos       : Extrapolation schemes; parallel MDCI
   Robert Izsak           : Overlap fitted RIJCOSX, COSX-SCS-MP3
   Christian Kollmar      : KDIIS, OOCD, Brueckner-CCSD(T), CCSD density
   Simone Kossmann        : Meta GGA functionals, TD-DFT gradient, OOMP2, MP2 Hessian
   Taras Petrenko         : DFT Hessian,TD-DFT gradient, ASA and ECA modules, normal mode analysis, Resonance Raman, ABS, FL, XAS/XES, NRVS
   Christoph Reimann      : Effective Core Potentials
   Michael Roemelt        : Restricted open shell CIS
   Christoph Riplinger    : Improved optimizer, TS searches, QM/MM, DLPNO-CCSD
   Barbara Sandhoefer     : DKH picture change effects
   Igor Schapiro          : Molecular dynamics
   Kantharuban Sivalingam : CASSCF convergence, NEVPT2
   Boris Wezisla          : Elementary symmetry handling
   Frank Wennmohs         : Technical directorship


 We gratefully acknowledge several colleagues who have allowed us to
 interface, adapt or use parts of their codes:
   Stefan Grimme, W. Hujo, H. Kruse, T. Risthaus : VdW corrections, initial TS optimization,
                                                   DFT functionals, gCP
   Ed Valeev                                     : LibInt (2-el integral package), F12 methods
   Garnet Chan, S. Sharma, R. Olivares           : DMRG
   Ulf Ekstrom                                   : XCFun DFT Library
   Mihaly Kallay                                 : mrcc  (arbitrary order and MRCC methods)
   Andreas Klamt, Michael Diedenhofen            : otool_cosmo (COSMO solvation model)
   Frank Weinhold                                : gennbo (NPA and NBO analysis)
   Christopher J. Cramer and Donald G. Truhlar   : smd solvation model


 Your calculation uses the libint2 library for the computation of 2-el integrals
 For citations please refer to: http://libint.valeyev.net

 This ORCA versions uses:
   CBLAS   interface :  Fast vector & matrix operations
   LAPACKE interface :  Fast linear algebra routines
   SCALAPACK package :  Parallel linear algebra routines


Your calculation utilizes the basis: 6-31G
Cite in your paper:
H - He: W.J. Hehre, R. Ditchfield and J.A. Pople, J. Chem. Phys. 56,
Li - Ne: 2257 (1972).  Note: Li and B come from J.D. Dill and J.A.
         Pople, J. Chem. Phys. 62, 2921 (1975).
Na - Ar: M.M. Francl, W.J. Pietro, W.J. Hehre, J.S. Binkley, M.S. Gordon,
         D.J. DeFrees and J.A. Pople, J. Chem. Phys. 77, 3654 (1982)
K  - Zn: V. Rassolov, J.A. Pople, M. Ratner and T.L. Windus, J. Chem. Phys.
         (accepted, 1998)
Note: He and Ne are unpublished basis sets taken from the Gaussian program

Your calculation utilizes diff. fcns from basis: 6-311++G(2d,2p)
Cite in your paper:
H, Li - Ne: R. Krishnan, J.S. Binkley, R. Seeger and J.A. Pople,
            J. Chem. Phys. 72, 650 (1980)
Na - Ar:    A.D. McLean and G.S. Chandler J. Chem. Phys. 72, 5639, (1980).
K  - Ca:    J-P. Blaudeau, M. P. McGrath, L.A. Curtiss and L. Radom,
            J. Chem. Phys. 107, 5016 (1997).
Ga - Kr:    L. A. Curtiss, M. P. McGrath, J-P. Blandeau, N. E. Davis,
            R. C. Binning, Jr. L. Radom, J. Chem. Phys. 103, 6104 (1995).
H - Ar:  R. Krishnan, J.S. Binkley, R. Seeger, J.A. Pople, J. Chem. Phys. 72,650 (1980)
H, Li-Cl: T. Clark, J. Chandrasekhar, P.V.R. Schleyer, J. Comp. Chem. 4, 294 (1983)

================================================================================
                                        WARNINGS
                       Please study these warnings very carefully!
================================================================================
Now building the actual basis set

WARNING: Geometry Optimization
  ===> : Switching off AutoStart
         For restart on a previous wavefunction, please use MOREAD


INFO   : the flag for use of LIBINT has been found!

================================================================================
                                       INPUT FILE
================================================================================
NAME = Test_Block.inp
|  1> ! RKS B3LYP 6-31+G** NormalSCF Opt NOSOSCF CHELPG PAL8
|  2> 
|  3> *xyz 0 1
|  4> H -35.61947 0.11697 0.01574
|  5> C -28.18145 0.20820 0.00963
|  6> C -28.61803 1.50583 -0.04402
|  7> C -30.05798 1.63676 -0.04963
|  8> H -27.92090 2.33382 -0.07819
|  9> S -29.47364 -0.88022 0.05474
| 10> C -30.67409 0.37634 0.00232
| 11> C -30.75606 2.98500 -0.10468
| 12> C -29.82398 4.20290 -0.16983
| 13> H -31.38629 3.08646 0.78702
| 14> H -31.40284 3.00622 -0.98994
| 15> C -30.59766 5.52063 -0.21580
| 16> H -29.18576 4.13301 -1.05978
| 17> H -29.16233 4.21081 0.70554
| 18> C -29.64866 6.70830 -0.28828
| 19> H -31.22699 5.61600 0.67641
| 20> H -31.26141 5.53562 -1.08773
| 21> H -28.98554 6.73443 0.58266
| 22> H -30.21186 7.64610 -0.31467
| 23> H -29.02770 6.65934 -1.18882
| 24> C -32.08479 -0.02032 0.01797
| 25> S -33.39481 1.08714 -0.01422
| 26> C -32.58891 -1.31663 0.06088
| 27> C -34.02193 -1.41064 0.06444
| 28> H -31.94843 -2.18947 0.08832
| 29> C -34.56995 -0.14505 0.02432
| 30> C -34.84433 -2.67443 0.10311
| 31> C -34.03811 -3.97516 0.16062
| 32> H -35.48868 -2.69119 -0.78549
| 33> H -35.50727 -2.62598 0.97682
| 34> C -34.94995 -5.20264 0.18407
| 35> H -33.40257 -3.97909 1.05517
| 36> H -33.37154 -4.03907 -0.70868
| 37> C -34.14449 -6.49115 0.25299
| 38> H -35.57633 -5.21824 -0.71535
| 39> H -35.62222 -5.15238 1.04831
| 40> H -33.47789 -6.58451 -0.61040
| 41> H -34.81352 -7.35731 0.26057
| 42> H -33.53539 -6.52478 1.16205
| 43> C -20.77146 0.20820 0.00963
| 44> C -21.20804 1.50583 -0.04402
| 45> C -22.64799 1.63676 -0.04963
| 46> H -20.51091 2.33382 -0.07819
| 47> S -22.06365 -0.88022 0.05474
| 48> C -23.26410 0.37634 0.00232
| 49> C -23.34607 2.98500 -0.10468
| 50> C -22.41399 4.20290 -0.16983
| 51> H -23.97630 3.08646 0.78702
| 52> H -23.99285 3.00622 -0.98994
| 53> C -23.18767 5.52063 -0.21580
| 54> H -21.77577 4.13301 -1.05978
| 55> H -21.75234 4.21081 0.70554
| 56> C -22.23867 6.70830 -0.28828
| 57> H -23.81700 5.61600 0.67641
| 58> H -23.85142 5.53562 -1.08773
| 59> H -21.57555 6.73443 0.58266
| 60> H -22.80187 7.64610 -0.31467
| 61> H -21.61771 6.65934 -1.18882
| 62> C -24.67480 -0.02032 0.01797
| 63> S -25.98482 1.08714 -0.01422
| 64> C -25.17892 -1.31663 0.06088
| 65> C -26.61194 -1.41064 0.06444
| 66> H -24.53844 -2.18947 0.08832
| 67> C -27.15996 -0.14505 0.02432
| 68> C -27.43434 -2.67443 0.10311
| 69> C -26.62812 -3.97516 0.16062
| 70> H -28.07869 -2.69119 -0.78549
| 71> H -28.09728 -2.62598 0.97682
| 72> C -27.53996 -5.20264 0.18407
| 73> H -25.99258 -3.97909 1.05517
| 74> H -25.96155 -4.03907 -0.70868
| 75> C -26.73450 -6.49115 0.25299
| 76> H -28.16634 -5.21824 -0.71535
| 77> H -28.21223 -5.15238 1.04831
| 78> H -26.06790 -6.58451 -0.61040
| 79> H -27.40353 -7.35731 0.26057
| 80> H -26.12540 -6.52478 1.16205
| 81> C -13.36147 0.20820 0.00963
| 82> C -13.79805 1.50583 -0.04402
| 83> C -15.23800 1.63676 -0.04963
| 84> H -13.10092 2.33382 -0.07819
| 85> S -14.65366 -0.88022 0.05474
| 86> C -15.85411 0.37634 0.00232
| 87> C -15.93608 2.98500 -0.10468
| 88> C -15.00400 4.20290 -0.16983
| 89> H -16.56631 3.08646 0.78702
| 90> H -16.58286 3.00622 -0.98994
| 91> C -15.77768 5.52063 -0.21580
| 92> H -14.36578 4.13301 -1.05978
| 93> H -14.34235 4.21081 0.70554
| 94> C -14.82868 6.70830 -0.28828
| 95> H -16.40701 5.61600 0.67641
| 96> H -16.44143 5.53562 -1.08773
| 97> H -14.16556 6.73443 0.58266
| 98> H -15.39188 7.64610 -0.31467
| 99> H -14.20772 6.65934 -1.18882
|100> C -17.26481 -0.02032 0.01797
|101> S -18.57483 1.08714 -0.01422
|102> C -17.76893 -1.31663 0.06088
|103> C -19.20195 -1.41064 0.06444
|104> H -17.12845 -2.18947 0.08832
|105> C -19.74997 -0.14505 0.02432
|106> C -20.02435 -2.67443 0.10311
|107> C -19.21813 -3.97516 0.16062
|108> H -20.66870 -2.69119 -0.78549
|109> H -20.68729 -2.62598 0.97682
|110> C -20.12997 -5.20264 0.18407
|111> H -18.58259 -3.97909 1.05517
|112> H -18.55156 -4.03907 -0.70868
|113> C -19.32451 -6.49115 0.25299
|114> H -20.75635 -5.21824 -0.71535
|115> H -20.80224 -5.15238 1.04831
|116> H -18.65791 -6.58451 -0.61040
|117> H -19.99354 -7.35731 0.26057
|118> H -18.71541 -6.52478 1.16205
|119> C -5.95148 0.20820 0.00963
|120> C -6.38806 1.50583 -0.04402
|121> C -7.82801 1.63676 -0.04963
|122> H -5.69093 2.33382 -0.07819
|123> S -7.24367 -0.88022 0.05474
|124> C -8.44412 0.37634 0.00232
|125> C -8.52609 2.98500 -0.10468
|126> C -7.59401 4.20290 -0.16983
|127> H -9.15632 3.08646 0.78702
|128> H -9.17287 3.00622 -0.98994
|129> C -8.36769 5.52063 -0.21580
|130> H -6.95579 4.13301 -1.05978
|131> H -6.93236 4.21081 0.70554
|132> C -7.41869 6.70830 -0.28828
|133> H -8.99702 5.61600 0.67641
|134> H -9.03144 5.53562 -1.08773
|135> H -6.75557 6.73443 0.58266
|136> H -7.98189 7.64610 -0.31467
|137> H -6.79773 6.65934 -1.18882
|138> C -9.85482 -0.02032 0.01797
|139> S -11.16484 1.08714 -0.01422
|140> C -10.35894 -1.31663 0.06088
|141> C -11.79196 -1.41064 0.06444
|142> H -9.71846 -2.18947 0.08832
|143> C -12.33998 -0.14505 0.02432
|144> C -12.61436 -2.67443 0.10311
|145> C -11.80814 -3.97516 0.16062
|146> H -13.25871 -2.69119 -0.78549
|147> H -13.27730 -2.62598 0.97682
|148> C -12.71998 -5.20264 0.18407
|149> H -11.17260 -3.97909 1.05517
|150> H -11.14157 -4.03907 -0.70868
|151> C -11.91452 -6.49115 0.25299
|152> H -13.34636 -5.21824 -0.71535
|153> H -13.39225 -5.15238 1.04831
|154> H -11.24792 -6.58451 -0.61040
|155> H -12.58355 -7.35731 0.26057
|156> H -11.30542 -6.52478 1.16205
|157> C 1.45851 0.20820 0.00963
|158> C 1.02193 1.50583 -0.04402
|159> C -0.41802 1.63676 -0.04963
|160> H 1.71906 2.33382 -0.07819
|161> S 0.16632 -0.88022 0.05474
|162> C -1.03413 0.37634 0.00232
|163> C -1.11610 2.98500 -0.10468
|164> C -0.18402 4.20290 -0.16983
|165> H -1.74633 3.08646 0.78702
|166> H -1.76288 3.00622 -0.98994
|167> C -0.95770 5.52063 -0.21580
|168> H 0.45420 4.13301 -1.05978
|169> H 0.47763 4.21081 0.70554
|170> C -0.00870 6.70830 -0.28828
|171> H -1.58703 5.61600 0.67641
|172> H -1.62145 5.53562 -1.08773
|173> H 0.65442 6.73443 0.58266
|174> H -0.57190 7.64610 -0.31467
|175> H 0.61226 6.65934 -1.18882
|176> C -2.44483 -0.02032 0.01797
|177> S -3.75485 1.08714 -0.01422
|178> C -2.94895 -1.31663 0.06088
|179> C -4.38197 -1.41064 0.06444
|180> H -2.30847 -2.18947 0.08832
|181> C -4.92999 -0.14505 0.02432
|182> C -5.20437 -2.67443 0.10311
|183> C -4.39815 -3.97516 0.16062
|184> H -5.84872 -2.69119 -0.78549
|185> H -5.86731 -2.62598 0.97682
|186> C -5.30999 -5.20264 0.18407
|187> H -3.76261 -3.97909 1.05517
|188> H -3.73158 -4.03907 -0.70868
|189> C -4.50453 -6.49115 0.25299
|190> H -5.93637 -5.21824 -0.71535
|191> H -5.98226 -5.15238 1.04831
|192> H -3.83793 -6.58451 -0.61040
|193> H -5.17356 -7.35731 0.26057
|194> H -3.89543 -6.52478 1.16205
|195> C 8.86850 0.20820 0.00963
|196> C 8.43192 1.50583 -0.04402
|197> C 6.99197 1.63676 -0.04963
|198> H 9.12905 2.33382 -0.07819
|199> S 7.57631 -0.88022 0.05474
|200> C 6.37586 0.37634 0.00232
|201> C 6.29389 2.98500 -0.10468
|202> C 7.22597 4.20290 -0.16983
|203> H 5.66366 3.08646 0.78702
|204> H 5.64711 3.00622 -0.98994
|205> C 6.45229 5.52063 -0.21580
|206> H 7.86419 4.13301 -1.05978
|207> H 7.88762 4.21081 0.70554
|208> C 7.40129 6.70830 -0.28828
|209> H 5.82296 5.61600 0.67641
|210> H 5.78854 5.53562 -1.08773
|211> H 8.06441 6.73443 0.58266
|212> H 6.83809 7.64610 -0.31467
|213> H 8.02225 6.65934 -1.18882
|214> C 4.96516 -0.02032 0.01797
|215> S 3.65514 1.08714 -0.01422
|216> C 4.46104 -1.31663 0.06088
|217> C 3.02802 -1.41064 0.06444
|218> H 5.10152 -2.18947 0.08832
|219> C 2.48000 -0.14505 0.02432
|220> C 2.20562 -2.67443 0.10311
|221> C 3.01184 -3.97516 0.16062
|222> H 1.56127 -2.69119 -0.78549
|223> H 1.54268 -2.62598 0.97682
|224> C 2.10000 -5.20264 0.18407
|225> H 3.64738 -3.97909 1.05517
|226> H 3.67841 -4.03907 -0.70868
|227> C 2.90546 -6.49115 0.25299
|228> H 1.47362 -5.21824 -0.71535
|229> H 1.42773 -5.15238 1.04831
|230> H 3.57206 -6.58451 -0.61040
|231> H 2.23643 -7.35731 0.26057
|232> H 3.51456 -6.52478 1.16205
|233> C 16.27849 0.20820 0.00963
|234> C 15.84191 1.50583 -0.04402
|235> C 14.40196 1.63676 -0.04963
|236> H 16.53904 2.33382 -0.07819
|237> S 14.98630 -0.88022 0.05474
|238> C 13.78585 0.37634 0.00232
|239> C 13.70388 2.98500 -0.10468
|240> C 14.63596 4.20290 -0.16983
|241> H 13.07365 3.08646 0.78702
|242> H 13.05710 3.00622 -0.98994
|243> C 13.86228 5.52063 -0.21580
|244> H 15.27418 4.13301 -1.05978
|245> H 15.29761 4.21081 0.70554
|246> C 14.81128 6.70830 -0.28828
|247> H 13.23295 5.61600 0.67641
|248> H 13.19853 5.53562 -1.08773
|249> H 15.47440 6.73443 0.58266
|250> H 14.24808 7.64610 -0.31467
|251> H 15.43224 6.65934 -1.18882
|252> C 12.37515 -0.02032 0.01797
|253> S 11.06513 1.08714 -0.01422
|254> C 11.87103 -1.31663 0.06088
|255> C 10.43801 -1.41064 0.06444
|256> H 12.51151 -2.18947 0.08832
|257> C 9.88999 -0.14505 0.02432
|258> C 9.61561 -2.67443 0.10311
|259> C 10.42183 -3.97516 0.16062
|260> H 8.97126 -2.69119 -0.78549
|261> H 8.95267 -2.62598 0.97682
|262> C 9.50999 -5.20264 0.18407
|263> H 11.05737 -3.97909 1.05517
|264> H 11.08840 -4.03907 -0.70868
|265> C 10.31545 -6.49115 0.25299
|266> H 8.88361 -5.21824 -0.71535
|267> H 8.83772 -5.15238 1.04831
|268> H 10.98205 -6.58451 -0.61040
|269> H 9.64642 -7.35731 0.26057
|270> H 10.92455 -6.52478 1.16205
|271> C 23.68848 0.20820 0.00963
|272> C 23.25190 1.50583 -0.04402
|273> C 21.81195 1.63676 -0.04963
|274> H 23.94903 2.33382 -0.07819
|275> S 22.39629 -0.88022 0.05474
|276> C 21.19584 0.37634 0.00232
|277> C 21.11387 2.98500 -0.10468
|278> C 22.04595 4.20290 -0.16983
|279> H 20.48364 3.08646 0.78702
|280> H 20.46709 3.00622 -0.98994
|281> C 21.27227 5.52063 -0.21580
|282> H 22.68417 4.13301 -1.05978
|283> H 22.70760 4.21081 0.70554
|284> C 22.22127 6.70830 -0.28828
|285> H 20.64294 5.61600 0.67641
|286> H 20.60852 5.53562 -1.08773
|287> H 22.88439 6.73443 0.58266
|288> H 21.65807 7.64610 -0.31467
|289> H 22.84223 6.65934 -1.18882
|290> C 19.78514 -0.02032 0.01797
|291> S 18.47512 1.08714 -0.01422
|292> C 19.28102 -1.31663 0.06088
|293> C 17.84800 -1.41064 0.06444
|294> H 19.92150 -2.18947 0.08832
|295> C 17.29998 -0.14505 0.02432
|296> C 17.02560 -2.67443 0.10311
|297> C 17.83182 -3.97516 0.16062
|298> H 16.38125 -2.69119 -0.78549
|299> H 16.36266 -2.62598 0.97682
|300> C 16.91998 -5.20264 0.18407
|301> H 18.46736 -3.97909 1.05517
|302> H 18.49839 -4.03907 -0.70868
|303> C 17.72544 -6.49115 0.25299
|304> H 16.29360 -5.21824 -0.71535
|305> H 16.24771 -5.15238 1.04831
|306> H 18.39204 -6.58451 -0.61040
|307> H 17.05641 -7.35731 0.26057
|308> H 18.33454 -6.52478 1.16205
|309> C 31.09847 0.20820 0.00963
|310> C 30.66189 1.50583 -0.04402
|311> C 29.22194 1.63676 -0.04963
|312> H 31.35902 2.33382 -0.07819
|313> S 29.80628 -0.88022 0.05474
|314> C 28.60583 0.37634 0.00232
|315> C 28.52386 2.98500 -0.10468
|316> C 29.45594 4.20290 -0.16983
|317> H 27.89363 3.08646 0.78702
|318> H 27.87708 3.00622 -0.98994
|319> C 28.68226 5.52063 -0.21580
|320> H 30.09416 4.13301 -1.05978
|321> H 30.11759 4.21081 0.70554
|322> C 29.63126 6.70830 -0.28828
|323> H 28.05293 5.61600 0.67641
|324> H 28.01851 5.53562 -1.08773
|325> H 30.29438 6.73443 0.58266
|326> H 29.06806 7.64610 -0.31467
|327> H 30.25222 6.65934 -1.18882
|328> C 27.19513 -0.02032 0.01797
|329> S 25.88511 1.08714 -0.01422
|330> C 26.69101 -1.31663 0.06088
|331> C 25.25799 -1.41064 0.06444
|332> H 27.33149 -2.18947 0.08832
|333> C 24.70997 -0.14505 0.02432
|334> C 24.43559 -2.67443 0.10311
|335> C 25.24181 -3.97516 0.16062
|336> H 23.79124 -2.69119 -0.78549
|337> H 23.77265 -2.62598 0.97682
|338> C 24.32997 -5.20264 0.18407
|339> H 25.87735 -3.97909 1.05517
|340> H 25.90838 -4.03907 -0.70868
|341> C 25.13543 -6.49115 0.25299
|342> H 23.70359 -5.21824 -0.71535
|343> H 23.65770 -5.15238 1.04831
|344> H 25.80203 -6.58451 -0.61040
|345> H 24.46640 -7.35731 0.26057
|346> H 25.74453 -6.52478 1.16205
|347> C 38.50846 0.20820 0.00963
|348> C 38.07188 1.50583 -0.04402
|349> C 36.63193 1.63676 -0.04963
|350> H 38.76901 2.33382 -0.07819
|351> S 37.21627 -0.88022 0.05474
|352> C 36.01582 0.37634 0.00232
|353> C 35.93385 2.98500 -0.10468
|354> C 36.86593 4.20290 -0.16983
|355> H 35.30362 3.08646 0.78702
|356> H 35.28707 3.00622 -0.98994
|357> C 36.09225 5.52063 -0.21580
|358> H 37.50415 4.13301 -1.05978
|359> H 37.52758 4.21081 0.70554
|360> C 37.04125 6.70830 -0.28828
|361> H 35.46292 5.61600 0.67641
|362> H 35.42850 5.53562 -1.08773
|363> H 37.70437 6.73443 0.58266
|364> H 36.47805 7.64610 -0.31467
|365> H 37.66221 6.65934 -1.18882
|366> C 34.60512 -0.02032 0.01797
|367> S 33.29510 1.08714 -0.01422
|368> C 34.10100 -1.31663 0.06088
|369> C 32.66798 -1.41064 0.06444
|370> H 34.74148 -2.18947 0.08832
|371> C 32.11996 -0.14505 0.02432
|372> C 31.84558 -2.67443 0.10311
|373> C 32.65180 -3.97516 0.16062
|374> H 31.20123 -2.69119 -0.78549
|375> H 31.18264 -2.62598 0.97682
|376> C 31.73996 -5.20264 0.18407
|377> H 33.28734 -3.97909 1.05517
|378> H 33.31837 -4.03907 -0.70868
|379> C 32.54542 -6.49115 0.25299
|380> H 31.11358 -5.21824 -0.71535
|381> H 31.06769 -5.15238 1.04831
|382> H 33.21202 -6.58451 -0.61040
|383> H 31.87639 -7.35731 0.26057
|384> H 33.15452 -6.52478 1.16205
|385> C 45.26996 0.38789 -0.10859
|386> C 44.95094 1.67933 -0.43328
|387> C 43.52225 1.76409 -0.45268
|388> H 45.66436 2.46617 -0.63240
|389> O 44.14623 -0.33549 0.07506
|390> C 43.06261 0.48592 -0.13038
|391> C 42.69548 2.98365 -0.75701
|392> C 43.53489 4.22200 -1.10176
|393> H 42.06372 3.20729 0.11165
|394> H 42.02709 2.75814 -1.59730
|395> C 42.68416 5.45560 -1.39689
|396> H 44.16463 4.00639 -1.97473
|397> H 44.21167 4.45073 -0.26832
|398> C 43.56582 6.65067 -1.73504
|399> H 42.06368 5.69972 -0.52732
|400> H 42.00969 5.25507 -2.23682
|401> H 44.23905 6.88915 -0.90479
|402> H 42.95302 7.53374 -1.93946
|403> H 44.17713 6.44872 -2.62096
|404> C 41.72885 -0.03035 -0.00001
|405> O 40.58007 0.69284 -0.18231
|406> C 39.52995 -0.14505 0.02432
|407> C 41.37763 -1.32990 0.32540
|408> C 39.95876 -1.41804 0.34267
|409> H 42.08801 -2.12128 0.52425
|410> C 39.10137 -2.61162 0.63272
|411> C 39.88952 -3.87665 0.99369
|412> H 38.47700 -2.81426 -0.24664
|413> H 38.42185 -2.36317 1.45779
|414> C 38.97280 -5.06988 1.26244
|415> H 40.50567 -3.68714 1.88205
|416> H 40.57689 -4.13073 0.17660
|417> C 39.77633 -6.31138 1.62211
|418> H 40.36857 -6.14665 2.52815
|419> H 40.45989 -6.58545 0.81185
|420> H 39.10781 -7.15876 1.80309
|421> H 38.36463 -5.28014 0.37522
|422> H 38.28470 -4.83617 2.08276
|423> C 51.94015 0.38789 -0.10859
|424> C 51.62113 1.67933 -0.43328
|425> C 50.19244 1.76409 -0.45268
|426> H 52.33455 2.46617 -0.63240
|427> O 50.81642 -0.33549 0.07506
|428> C 49.73280 0.48592 -0.13038
|429> C 49.36567 2.98365 -0.75701
|430> C 50.20508 4.22200 -1.10176
|431> H 48.73391 3.20729 0.11165
|432> H 48.69728 2.75814 -1.59730
|433> C 49.35435 5.45560 -1.39689
|434> H 50.83482 4.00639 -1.97473
|435> H 50.88186 4.45073 -0.26832
|436> C 50.23601 6.65067 -1.73504
|437> H 48.73387 5.69972 -0.52732
|438> H 48.67988 5.25507 -2.23682
|439> H 50.90924 6.88915 -0.90479
|440> H 49.62321 7.53374 -1.93946
|441> H 50.84732 6.44872 -2.62096
|442> C 48.39904 -0.03035 -0.00001
|443> O 47.25026 0.69284 -0.18231
|444> C 46.20014 -0.14505 0.02432
|445> C 48.04782 -1.32990 0.32540
|446> C 46.62895 -1.41804 0.34267
|447> H 48.75820 -2.12128 0.52425
|448> C 45.77156 -2.61162 0.63272
|449> C 46.55971 -3.87665 0.99369
|450> H 45.14719 -2.81426 -0.24664
|451> H 45.09204 -2.36317 1.45779
|452> C 45.64299 -5.06988 1.26244
|453> H 47.17586 -3.68714 1.88205
|454> H 47.24708 -4.13073 0.17660
|455> C 46.44652 -6.31138 1.62211
|456> H 47.03876 -6.14665 2.52815
|457> H 47.13008 -6.58545 0.81185
|458> H 45.77800 -7.15876 1.80309
|459> H 45.03482 -5.28014 0.37522
|460> H 44.95489 -4.83617 2.08276
|461> C 58.61034 0.38789 -0.10859
|462> C 58.29132 1.67933 -0.43328
|463> C 56.86263 1.76409 -0.45268
|464> H 59.00474 2.46617 -0.63240
|465> O 57.48661 -0.33549 0.07506
|466> C 56.40299 0.48592 -0.13038
|467> C 56.03586 2.98365 -0.75701
|468> C 56.87527 4.22200 -1.10176
|469> H 55.40410 3.20729 0.11165
|470> H 55.36747 2.75814 -1.59730
|471> C 56.02454 5.45560 -1.39689
|472> H 57.50501 4.00639 -1.97473
|473> H 57.55205 4.45073 -0.26832
|474> C 56.90620 6.65067 -1.73504
|475> H 55.40406 5.69972 -0.52732
|476> H 55.35007 5.25507 -2.23682
|477> H 57.57943 6.88915 -0.90479
|478> H 56.29340 7.53374 -1.93946
|479> H 57.51751 6.44872 -2.62096
|480> C 55.06923 -0.03035 -0.00001
|481> O 53.92045 0.69284 -0.18231
|482> C 52.87033 -0.14505 0.02432
|483> C 54.71801 -1.32990 0.32540
|484> C 53.29914 -1.41804 0.34267
|485> H 55.42839 -2.12128 0.52425
|486> C 52.44175 -2.61162 0.63272
|487> C 53.22990 -3.87665 0.99369
|488> H 51.81738 -2.81426 -0.24664
|489> H 51.76223 -2.36317 1.45779
|490> C 52.31318 -5.06988 1.26244
|491> H 53.84605 -3.68714 1.88205
|492> H 53.91727 -4.13073 0.17660
|493> C 53.11671 -6.31138 1.62211
|494> H 53.70895 -6.14665 2.52815
|495> H 53.80027 -6.58545 0.81185
|496> H 52.44819 -7.15876 1.80309
|497> H 51.70501 -5.28014 0.37522
|498> H 51.62508 -4.83617 2.08276
|499> C 65.28053 0.38789 -0.10859
|500> C 64.96151 1.67933 -0.43328
|501> C 63.53282 1.76409 -0.45268
|502> H 65.67493 2.46617 -0.63240
|503> O 64.15680 -0.33549 0.07506
|504> C 63.07318 0.48592 -0.13038
|505> C 62.70605 2.98365 -0.75701
|506> C 63.54546 4.22200 -1.10176
|507> H 62.07429 3.20729 0.11165
|508> H 62.03766 2.75814 -1.59730
|509> C 62.69473 5.45560 -1.39689
|510> H 64.17520 4.00639 -1.97473
|511> H 64.22224 4.45073 -0.26832
|512> C 63.57639 6.65067 -1.73504
|513> H 62.07425 5.69972 -0.52732
|514> H 62.02026 5.25507 -2.23682
|515> H 64.24962 6.88915 -0.90479
|516> H 62.96359 7.53374 -1.93946
|517> H 64.18770 6.44872 -2.62096
|518> C 61.73942 -0.03035 -0.00001
|519> O 60.59064 0.69284 -0.18231
|520> C 59.54052 -0.14505 0.02432
|521> C 61.38820 -1.32990 0.32540
|522> C 59.96933 -1.41804 0.34267
|523> H 62.09858 -2.12128 0.52425
|524> C 59.11194 -2.61162 0.63272
|525> C 59.90009 -3.87665 0.99369
|526> H 58.48757 -2.81426 -0.24664
|527> H 58.43242 -2.36317 1.45779
|528> C 58.98337 -5.06988 1.26244
|529> H 60.51624 -3.68714 1.88205
|530> H 60.58746 -4.13073 0.17660
|531> C 59.78690 -6.31138 1.62211
|532> H 60.37914 -6.14665 2.52815
|533> H 60.47046 -6.58545 0.81185
|534> H 59.11838 -7.15876 1.80309
|535> H 58.37520 -5.28014 0.37522
|536> H 58.29527 -4.83617 2.08276
|537> C 71.95072 0.38789 -0.10859
|538> C 71.63170 1.67933 -0.43328
|539> C 70.20301 1.76409 -0.45268
|540> H 72.34512 2.46617 -0.63240
|541> O 70.82699 -0.33549 0.07506
|542> C 69.74337 0.48592 -0.13038
|543> C 69.37624 2.98365 -0.75701
|544> C 70.21565 4.22200 -1.10176
|545> H 68.74448 3.20729 0.11165
|546> H 68.70785 2.75814 -1.59730
|547> C 69.36492 5.45560 -1.39689
|548> H 70.84539 4.00639 -1.97473
|549> H 70.89243 4.45073 -0.26832
|550> C 70.24658 6.65067 -1.73504
|551> H 68.74444 5.69972 -0.52732
|552> H 68.69045 5.25507 -2.23682
|553> H 70.91981 6.88915 -0.90479
|554> H 69.63378 7.53374 -1.93946
|555> H 70.85789 6.44872 -2.62096
|556> C 68.40961 -0.03035 -0.00001
|557> O 67.26083 0.69284 -0.18231
|558> C 66.21071 -0.14505 0.02432
|559> C 68.05839 -1.32990 0.32540
|560> C 66.63952 -1.41804 0.34267
|561> H 68.76877 -2.12128 0.52425
|562> C 65.78213 -2.61162 0.63272
|563> C 66.57028 -3.87665 0.99369
|564> H 65.15776 -2.81426 -0.24664
|565> H 65.10261 -2.36317 1.45779
|566> C 65.65356 -5.06988 1.26244
|567> H 67.18643 -3.68714 1.88205
|568> H 67.25765 -4.13073 0.17660
|569> C 66.45709 -6.31138 1.62211
|570> H 67.04933 -6.14665 2.52815
|571> H 67.14065 -6.58545 0.81185
|572> H 65.78857 -7.15876 1.80309
|573> H 65.04539 -5.28014 0.37522
|574> H 64.96546 -4.83617 2.08276
|575> C 78.62091 0.38789 -0.10859
|576> C 78.30189 1.67933 -0.43328
|577> C 76.87320 1.76409 -0.45268
|578> H 79.01531 2.46617 -0.63240
|579> O 77.49718 -0.33549 0.07506
|580> C 76.41356 0.48592 -0.13038
|581> C 76.04643 2.98365 -0.75701
|582> C 76.88584 4.22200 -1.10176
|583> H 75.41467 3.20729 0.11165
|584> H 75.37804 2.75814 -1.59730
|585> C 76.03511 5.45560 -1.39689
|586> H 77.51558 4.00639 -1.97473
|587> H 77.56262 4.45073 -0.26832
|588> C 76.91677 6.65067 -1.73504
|589> H 75.41463 5.69972 -0.52732
|590> H 75.36064 5.25507 -2.23682
|591> H 77.59000 6.88915 -0.90479
|592> H 76.30397 7.53374 -1.93946
|593> H 77.52808 6.44872 -2.62096
|594> C 75.07980 -0.03035 -0.00001
|595> O 73.93102 0.69284 -0.18231
|596> C 72.88090 -0.14505 0.02432
|597> C 74.72858 -1.32990 0.32540
|598> C 73.30971 -1.41804 0.34267
|599> H 75.43896 -2.12128 0.52425
|600> C 72.45232 -2.61162 0.63272
|601> C 73.24047 -3.87665 0.99369
|602> H 71.82795 -2.81426 -0.24664
|603> H 71.77280 -2.36317 1.45779
|604> C 72.32375 -5.06988 1.26244
|605> H 73.85662 -3.68714 1.88205
|606> H 73.92784 -4.13073 0.17660
|607> C 73.12728 -6.31138 1.62211
|608> H 73.71952 -6.14665 2.52815
|609> H 73.81084 -6.58545 0.81185
|610> H 72.45876 -7.15876 1.80309
|611> H 71.71558 -5.28014 0.37522
|612> H 71.63565 -4.83617 2.08276
|613> C 85.29110 0.38789 -0.10859
|614> C 84.97208 1.67933 -0.43328
|615> C 83.54339 1.76409 -0.45268
|616> H 85.68550 2.46617 -0.63240
|617> O 84.16737 -0.33549 0.07506
|618> C 83.08375 0.48592 -0.13038
|619> C 82.71662 2.98365 -0.75701
|620> C 83.55603 4.22200 -1.10176
|621> H 82.08486 3.20729 0.11165
|622> H 82.04823 2.75814 -1.59730
|623> C 82.70530 5.45560 -1.39689
|624> H 84.18577 4.00639 -1.97473
|625> H 84.23281 4.45073 -0.26832
|626> C 83.58696 6.65067 -1.73504
|627> H 82.08482 5.69972 -0.52732
|628> H 82.03083 5.25507 -2.23682
|629> H 84.26019 6.88915 -0.90479
|630> H 82.97416 7.53374 -1.93946
|631> H 84.19827 6.44872 -2.62096
|632> C 81.74999 -0.03035 -0.00001
|633> O 80.60121 0.69284 -0.18231
|634> C 79.55109 -0.14505 0.02432
|635> C 81.39877 -1.32990 0.32540
|636> C 79.97990 -1.41804 0.34267
|637> H 82.10915 -2.12128 0.52425
|638> C 79.12251 -2.61162 0.63272
|639> C 79.91066 -3.87665 0.99369
|640> H 78.49814 -2.81426 -0.24664
|641> H 78.44299 -2.36317 1.45779
|642> C 78.99394 -5.06988 1.26244
|643> H 80.52681 -3.68714 1.88205
|644> H 80.59803 -4.13073 0.17660
|645> C 79.79747 -6.31138 1.62211
|646> H 80.38971 -6.14665 2.52815
|647> H 80.48103 -6.58545 0.81185
|648> H 79.12895 -7.15876 1.80309
|649> H 78.38577 -5.28014 0.37522
|650> H 78.30584 -4.83617 2.08276
|651> C 91.96129 0.38789 -0.10859
|652> C 91.64227 1.67933 -0.43328
|653> C 90.21358 1.76409 -0.45268
|654> H 92.35569 2.46617 -0.63240
|655> O 90.83756 -0.33549 0.07506
|656> C 89.75394 0.48592 -0.13038
|657> C 89.38681 2.98365 -0.75701
|658> C 90.22622 4.22200 -1.10176
|659> H 88.75505 3.20729 0.11165
|660> H 88.71842 2.75814 -1.59730
|661> C 89.37549 5.45560 -1.39689
|662> H 90.85596 4.00639 -1.97473
|663> H 90.90300 4.45073 -0.26832
|664> C 90.25715 6.65067 -1.73504
|665> H 88.75501 5.69972 -0.52732
|666> H 88.70102 5.25507 -2.23682
|667> H 90.93038 6.88915 -0.90479
|668> H 89.64435 7.53374 -1.93946
|669> H 90.86846 6.44872 -2.62096
|670> C 88.42018 -0.03035 -0.00001
|671> O 87.27140 0.69284 -0.18231
|672> C 86.22128 -0.14505 0.02432
|673> C 88.06896 -1.32990 0.32540
|674> C 86.65009 -1.41804 0.34267
|675> H 88.77934 -2.12128 0.52425
|676> C 85.79270 -2.61162 0.63272
|677> C 86.58085 -3.87665 0.99369
|678> H 85.16833 -2.81426 -0.24664
|679> H 85.11318 -2.36317 1.45779
|680> C 85.66413 -5.06988 1.26244
|681> H 87.19700 -3.68714 1.88205
|682> H 87.26822 -4.13073 0.17660
|683> C 86.46766 -6.31138 1.62211
|684> H 87.05990 -6.14665 2.52815
|685> H 87.15122 -6.58545 0.81185
|686> H 85.79914 -7.15876 1.80309
|687> H 85.05596 -5.28014 0.37522
|688> H 84.97603 -4.83617 2.08276
|689> C 98.63148 0.38789 -0.10859
|690> C 98.31246 1.67933 -0.43328
|691> C 96.88377 1.76409 -0.45268
|692> H 99.02588 2.46617 -0.63240
|693> O 97.50775 -0.33549 0.07506
|694> C 96.42413 0.48592 -0.13038
|695> C 96.05700 2.98365 -0.75701
|696> C 96.89641 4.22200 -1.10176
|697> H 95.42524 3.20729 0.11165
|698> H 95.38861 2.75814 -1.59730
|699> C 96.04568 5.45560 -1.39689
|700> H 97.52615 4.00639 -1.97473
|701> H 97.57319 4.45073 -0.26832
|702> C 96.92734 6.65067 -1.73504
|703> H 95.42520 5.69972 -0.52732
|704> H 95.37121 5.25507 -2.23682
|705> H 97.60057 6.88915 -0.90479
|706> H 96.31454 7.53374 -1.93946
|707> H 97.53865 6.44872 -2.62096
|708> C 95.09037 -0.03035 -0.00001
|709> O 93.94159 0.69284 -0.18231
|710> C 92.89147 -0.14505 0.02432
|711> C 94.73915 -1.32990 0.32540
|712> C 93.32028 -1.41804 0.34267
|713> H 95.44953 -2.12128 0.52425
|714> C 92.46289 -2.61162 0.63272
|715> C 93.25104 -3.87665 0.99369
|716> H 91.83852 -2.81426 -0.24664
|717> H 91.78337 -2.36317 1.45779
|718> C 92.33432 -5.06988 1.26244
|719> H 93.86719 -3.68714 1.88205
|720> H 93.93841 -4.13073 0.17660
|721> C 93.13785 -6.31138 1.62211
|722> H 93.73009 -6.14665 2.52815
|723> H 93.82141 -6.58545 0.81185
|724> H 92.46933 -7.15876 1.80309
|725> H 91.72615 -5.28014 0.37522
|726> H 91.64622 -4.83617 2.08276
|727> C 105.30167 0.38789 -0.10859
|728> C 104.98265 1.67933 -0.43328
|729> C 103.55396 1.76409 -0.45268
|730> H 105.69607 2.46617 -0.63240
|731> O 104.17794 -0.33549 0.07506
|732> C 103.09432 0.48592 -0.13038
|733> C 102.72719 2.98365 -0.75701
|734> C 103.56660 4.22200 -1.10176
|735> H 102.09543 3.20729 0.11165
|736> H 102.05880 2.75814 -1.59730
|737> C 102.71587 5.45560 -1.39689
|738> H 104.19634 4.00639 -1.97473
|739> H 104.24338 4.45073 -0.26832
|740> C 103.59753 6.65067 -1.73504
|741> H 102.09539 5.69972 -0.52732
|742> H 102.04140 5.25507 -2.23682
|743> H 104.27076 6.88915 -0.90479
|744> H 102.98473 7.53374 -1.93946
|745> H 104.20884 6.44872 -2.62096
|746> C 101.76056 -0.03035 -0.00001
|747> O 100.61178 0.69284 -0.18231
|748> C 99.56166 -0.14505 0.02432
|749> C 101.40934 -1.32990 0.32540
|750> C 99.99047 -1.41804 0.34267
|751> H 102.11972 -2.12128 0.52425
|752> C 99.13308 -2.61162 0.63272
|753> C 99.92123 -3.87665 0.99369
|754> H 98.50871 -2.81426 -0.24664
|755> H 98.45356 -2.36317 1.45779
|756> C 99.00451 -5.06988 1.26244
|757> H 100.53738 -3.68714 1.88205
|758> H 100.60860 -4.13073 0.17660
|759> C 99.80804 -6.31138 1.62211
|760> H 100.40028 -6.14665 2.52815
|761> H 100.49160 -6.58545 0.81185
|762> H 99.13952 -7.15876 1.80309
|763> H 98.39634 -5.28014 0.37522
|764> H 98.31641 -4.83617 2.08276
|765> H 106.23185 -0.14505 0.02432
|766> **                         ****END OF INPUT****
================================================================================

                       *****************************
                       * Geometry Optimization Run *
                       *****************************

Geometry optimization settings:
Update method            Update   .... BFGS
Choice of coordinates    CoordSys .... Redundant Internals
Initial Hessian          InHess   .... Almoef's Model

Convergence Tolerances:
Energy Change            TolE     ....  5.0000e-06 Eh
Max. Gradient            TolMAXG  ....  3.0000e-04 Eh/bohr
RMS Gradient             TolRMSG  ....  1.0000e-04 Eh/bohr
Max. Displacement        TolMAXD  ....  4.0000e-03 bohr
RMS Displacement         TolRMSD  ....  2.0000e-03 bohr

------------------------------------------------------------------------------
                        ORCA OPTIMIZATION COORDINATE SETUP
------------------------------------------------------------------------------

The optimization will be done in new redundant internal coordinates
Making redundant internal coordinates   ...  (new redundants) done
Evaluating the initial hessian          ...  (Almloef) done
Evaluating the coordinates              ...  done
Calculating the B-matrix                .... done
Calculating the G-matrix                .... done
Diagonalizing the G-matrix              .... done
Small eigenvalue found = 2.004e-07
Small eigenvalue found = 4.898e-07
Small eigenvalue found = 1.443e-06
Small eigenvalue found = 3.655e-06
Small eigenvalue found = 5.204e-06
Small eigenvalue found = 1.192e-05
Small eigenvalue found = 1.273e-05
Small eigenvalue found = 1.510e-05
Small eigenvalue found = 2.596e-05
Small eigenvalue found = 3.739e-05
Small eigenvalue found = 4.573e-05
Small eigenvalue found = 5.091e-05
Small eigenvalue found = 7.290e-05
Small eigenvalue found = 8.118e-05
Small eigenvalue found = 1.045e-04
Small eigenvalue found = 1.118e-04
Small eigenvalue found = 1.151e-04
Small eigenvalue found = 1.447e-04
Small eigenvalue found = 1.535e-04
Small eigenvalue found = 1.923e-04
Small eigenvalue found = 1.952e-04
Small eigenvalue found = 2.404e-04
Small eigenvalue found = 2.517e-04
Small eigenvalue found = 2.917e-04
Small eigenvalue found = 2.987e-04
Small eigenvalue found = 3.353e-04
Small eigenvalue found = 3.623e-04
Small eigenvalue found = 3.760e-04
Small eigenvalue found = 3.920e-04
Small eigenvalue found = 4.240e-04
Small eigenvalue found = 4.421e-04
Small eigenvalue found = 4.831e-04
Small eigenvalue found = 5.047e-04
Small eigenvalue found = 5.266e-04
Small eigenvalue found = 5.494e-04
Small eigenvalue found = 5.741e-04
Small eigenvalue found = 5.829e-04
Small eigenvalue found = 5.978e-04
Small eigenvalue found = 6.397e-04
Small eigenvalue found = 6.430e-04
Small eigenvalue found = 6.560e-04
Small eigenvalue found = 6.817e-04
Small eigenvalue found = 6.866e-04
Small eigenvalue found = 7.125e-04
Small eigenvalue found = 7.239e-04
Small eigenvalue found = 7.435e-04
Small eigenvalue found = 7.447e-04
Small eigenvalue found = 7.506e-04
Small eigenvalue found = 7.645e-04
Small eigenvalue found = 7.686e-04
Small eigenvalue found = 7.774e-04
Small eigenvalue found = 7.811e-04
Small eigenvalue found = 7.850e-04
Small eigenvalue found = 7.921e-04
Small eigenvalue found = 7.932e-04
Small eigenvalue found = 8.004e-04
Small eigenvalue found = 8.013e-04
Small eigenvalue found = 9.015e-04
Small eigenvalue found = 9.440e-04
Small eigenvalue found = 1.027e-03
Small eigenvalue found = 1.110e-03
Small eigenvalue found = 1.143e-03
Small eigenvalue found = 1.152e-03
Small eigenvalue found = 1.175e-03
Small eigenvalue found = 1.222e-03
Small eigenvalue found = 1.244e-03
Small eigenvalue found = 1.279e-03
Small eigenvalue found = 1.292e-03
Small eigenvalue found = 1.341e-03
Small eigenvalue found = 1.374e-03
Small eigenvalue found = 1.401e-03
Small eigenvalue found = 1.437e-03
Small eigenvalue found = 1.460e-03
Small eigenvalue found = 1.482e-03
Small eigenvalue found = 1.513e-03
Small eigenvalue found = 1.569e-03
Small eigenvalue found = 1.584e-03
Small eigenvalue found = 1.607e-03
Small eigenvalue found = 1.669e-03
Small eigenvalue found = 1.743e-03
Small eigenvalue found = 1.762e-03
Small eigenvalue found = 1.789e-03
Small eigenvalue found = 1.828e-03
Small eigenvalue found = 1.849e-03
Small eigenvalue found = 1.927e-03
Small eigenvalue found = 1.952e-03
Small eigenvalue found = 2.142e-03
Small eigenvalue found = 2.369e-03
Small eigenvalue found = 2.432e-03
Small eigenvalue found = 2.644e-03
Small eigenvalue found = 2.937e-03
Small eigenvalue found = 3.186e-03
Small eigenvalue found = 3.279e-03
Small eigenvalue found = 3.377e-03
Small eigenvalue found = 3.641e-03
Small eigenvalue found = 4.029e-03
Small eigenvalue found = 4.078e-03
Small eigenvalue found = 4.460e-03
Small eigenvalue found = 4.733e-03
Small eigenvalue found = 4.910e-03
Small eigenvalue found = 5.318e-03
Small eigenvalue found = 5.605e-03
Small eigenvalue found = 5.610e-03
Small eigenvalue found = 5.665e-03
Small eigenvalue found = 5.775e-03
Small eigenvalue found = 5.837e-03
Small eigenvalue found = 6.112e-03
Small eigenvalue found = 6.132e-03
Small eigenvalue found = 6.151e-03
Small eigenvalue found = 6.257e-03
Small eigenvalue found = 6.273e-03
Small eigenvalue found = 6.497e-03
Small eigenvalue found = 6.503e-03
Small eigenvalue found = 6.852e-03
Small eigenvalue found = 7.029e-03
Small eigenvalue found = 7.337e-03
Small eigenvalue found = 7.460e-03
Small eigenvalue found = 7.737e-03
Small eigenvalue found = 7.935e-03
Small eigenvalue found = 8.037e-03
Small eigenvalue found = 8.340e-03
Small eigenvalue found = 8.755e-03
Small eigenvalue found = 8.848e-03
Small eigenvalue found = 8.907e-03
Small eigenvalue found = 9.171e-03
Small eigenvalue found = 9.440e-03
Small eigenvalue found = 9.604e-03
Small eigenvalue found = 9.707e-03
Small eigenvalue found = 9.802e-03
Small eigenvalue found = 9.923e-03
Small eigenvalue found = 9.964e-03
Small eigenvalue found = 1.093e-02
Small eigenvalue found = 1.203e-02
Small eigenvalue found = 1.303e-02
Small eigenvalue found = 1.324e-02
Small eigenvalue found = 1.366e-02
Small eigenvalue found = 1.368e-02
Small eigenvalue found = 1.376e-02
Small eigenvalue found = 1.390e-02
Small eigenvalue found = 1.417e-02
Small eigenvalue found = 1.433e-02
Small eigenvalue found = 1.465e-02
Small eigenvalue found = 1.540e-02
Small eigenvalue found = 1.561e-02
Small eigenvalue found = 1.652e-02
Small eigenvalue found = 1.657e-02
Small eigenvalue found = 1.726e-02
Small eigenvalue found = 1.773e-02
Small eigenvalue found = 1.809e-02
Small eigenvalue found = 1.870e-02
Small eigenvalue found = 1.890e-02
Small eigenvalue found = 1.928e-02
Small eigenvalue found = 1.973e-02
Small eigenvalue found = 1.982e-02
Small eigenvalue found = 2.013e-02
Small eigenvalue found = 2.037e-02
Small eigenvalue found = 2.058e-02
Small eigenvalue found = 2.091e-02
Small eigenvalue found = 2.118e-02
Small eigenvalue found = 2.130e-02
Small eigenvalue found = 2.142e-02
Small eigenvalue found = 2.148e-02
Small eigenvalue found = 2.161e-02
Small eigenvalue found = 2.173e-02
Small eigenvalue found = 2.181e-02
Small eigenvalue found = 2.187e-02
Small eigenvalue found = 2.190e-02
Small eigenvalue found = 2.196e-02
Small eigenvalue found = 2.201e-02
Small eigenvalue found = 2.208e-02
Small eigenvalue found = 2.213e-02
Small eigenvalue found = 2.217e-02
Small eigenvalue found = 2.244e-02
Small eigenvalue found = 2.260e-02
Small eigenvalue found = 2.274e-02
Small eigenvalue found = 2.280e-02
Small eigenvalue found = 2.297e-02
Small eigenvalue found = 2.300e-02
Small eigenvalue found = 2.305e-02
Small eigenvalue found = 2.311e-02
Small eigenvalue found = 2.317e-02
Small eigenvalue found = 2.323e-02
Small eigenvalue found = 2.329e-02
Small eigenvalue found = 2.332e-02
Small eigenvalue found = 2.336e-02
Small eigenvalue found = 2.336e-02
Small eigenvalue found = 2.339e-02
Small eigenvalue found = 2.342e-02
Small eigenvalue found = 2.342e-02
Small eigenvalue found = 2.342e-02
Small eigenvalue found = 2.343e-02
Small eigenvalue found = 2.343e-02
Small eigenvalue found = 2.344e-02
Small eigenvalue found = 2.344e-02
Small eigenvalue found = 2.351e-02
Small eigenvalue found = 2.488e-02
Small eigenvalue found = 2.514e-02
Small eigenvalue found = 2.555e-02
Small eigenvalue found = 2.607e-02
Small eigenvalue found = 2.638e-02
Small eigenvalue found = 2.658e-02
Small eigenvalue found = 2.678e-02
Small eigenvalue found = 2.708e-02
Small eigenvalue found = 2.748e-02
Small eigenvalue found = 2.786e-02
Small eigenvalue found = 2.838e-02
Small eigenvalue found = 2.893e-02
Small eigenvalue found = 2.955e-02
The first mode is                       .... 1123
The number of degrees of freedom        .... 2275

    -----------------------------------------------------------------
                    Redundant Internal Coordinates


    -----------------------------------------------------------------
         Definition                    Initial Value    Approx d2E/dq
    -----------------------------------------------------------------
      1. B(C   2,C   1)                  1.3702         0.672048   
      2. B(C   3,C   2)                  1.4459         0.508806   
      3. B(H   4,C   2)                  1.0829         0.369583   
      4. B(S   5,C   1)                  1.6901         0.559385   
      5. B(C   6,C   3)                  1.4039         0.593682   
      6. B(C   6,S   5)                  1.7386         0.468078   
      7. B(C   7,C   3)                  1.5192         0.388634   
      8. B(C   8,C   7)                  1.5350         0.366743   
      9. B(H   9,C   7)                  1.0966         0.351426   
     10. B(H  10,C   7)                  1.0966         0.351516   
     11. B(C  11,C   8)                  1.5288         0.375281   
     12. B(H  12,C   8)                  1.0974         0.350482   
     13. B(H  13,C   8)                  1.0973         0.350543   
     14. B(C  14,C  11)                  1.5220         0.384749   
     15. B(H  15,C  11)                  1.0960         0.352265   
     16. B(H  16,C  11)                  1.0959         0.352347   
     17. B(H  17,C  14)                  1.0950         0.353592   
     18. B(H  18,C  14)                  1.0942         0.354535   
     19. B(H  19,C  14)                  1.0950         0.353584   
     20. B(C  20,C   6)                  1.4655         0.473479   
     21. B(S  21,C  20)                  1.7157         0.509165   
     22. B(C  22,C  20)                  1.3915         0.621260   
     23. B(C  23,C  22)                  1.4361         0.527450   
     24. B(H  24,C  22)                  1.0830         0.369525   
     25. B(C  25,C  23)                  1.3797         0.648820   
     26. B(C  25,H   0)                  1.0818         0.371157   
     27. B(C  25,S  21)                  1.7032         0.533200   
     28. B(C  26,C  23)                  1.5083         0.404558   
     29. B(C  27,C  26)                  1.5314         0.371654   
     30. B(H  28,C  26)                  1.0978         0.349979   
     31. B(H  29,C  26)                  1.0978         0.349904   
     32. B(C  30,C  27)                  1.5293         0.374559   
     33. B(H  31,C  27)                  1.0973         0.350525   
     34. B(H  32,C  27)                  1.0973         0.350562   
     35. B(C  33,C  30)                  1.5211         0.385977   
     36. B(H  34,C  30)                  1.0962         0.352052   
     37. B(H  35,C  30)                  1.0961         0.352151   
     38. B(H  36,C  33)                  1.0948         0.353849   
     39. B(H  37,C  33)                  1.0945         0.354219   
     40. B(H  38,C  33)                  1.0948         0.353843   
     41. B(C  40,C  39)                  1.3702         0.672048   
     42. B(C  41,C  40)                  1.4459         0.508806   
     43. B(H  42,C  40)                  1.0829         0.369583   
     44. B(S  43,C  39)                  1.6901         0.559385   
     45. B(C  44,C  41)                  1.4039         0.593682   
     46. B(C  44,S  43)                  1.7386         0.468078   
     47. B(C  45,C  41)                  1.5192         0.388634   
     48. B(C  46,C  45)                  1.5350         0.366743   
     49. B(H  47,C  45)                  1.0966         0.351426   
     50. B(H  48,C  45)                  1.0966         0.351516   
     51. B(C  49,C  46)                  1.5288         0.375281   
     52. B(H  50,C  46)                  1.0974         0.350482   
     53. B(H  51,C  46)                  1.0973         0.350543   
     54. B(C  52,C  49)                  1.5220         0.384749   
     55. B(H  53,C  49)                  1.0960         0.352265   
     56. B(H  54,C  49)                  1.0959         0.352347   
     57. B(H  55,C  52)                  1.0950         0.353592   
     58. B(H  56,C  52)                  1.0942         0.354535   
     59. B(H  57,C  52)                  1.0950         0.353584   
     60. B(C  58,C  44)                  1.4655         0.473479   
     61. B(S  59,C  58)                  1.7157         0.509165   
     62. B(C  60,C  58)                  1.3915         0.621260   
     63. B(C  61,C  60)                  1.4361         0.527450   
     64. B(H  62,C  60)                  1.0830         0.369525   
     65. B(C  63,C   1)                  1.0809         1.944533   
     66. B(C  63,C  61)                  1.3797         0.648820   
     67. B(C  63,S  59)                  1.7032         0.533200   
     68. B(C  64,C  61)                  1.5083         0.404558   
     69. B(C  65,C  64)                  1.5314         0.371654   
     70. B(H  66,C  64)                  1.0978         0.349979   
     71. B(H  67,C  64)                  1.0978         0.349904   
     72. B(C  68,C  65)                  1.5293         0.374559   
     73. B(H  69,C  65)                  1.0973         0.350525   
     74. B(H  70,C  65)                  1.0973         0.350562   
     75. B(C  71,C  68)                  1.5211         0.385977   
     76. B(H  72,C  68)                  1.0962         0.352052   
     77. B(H  73,C  68)                  1.0961         0.352151   
     78. B(H  74,C  71)                  1.0948         0.353849   
     79. B(H  75,C  71)                  1.0945         0.354219   
     80. B(H  76,C  71)                  1.0948         0.353843   
     81. B(C  78,C  77)                  1.3702         0.672048   
     82. B(C  79,C  78)                  1.4459         0.508806   
     83. B(H  80,C  78)                  1.0829         0.369583   
     84. B(S  81,C  77)                  1.6901         0.559385   
     85. B(C  82,C  79)                  1.4039         0.593682   
     86. B(C  82,S  81)                  1.7386         0.468078   
     87. B(C  83,C  79)                  1.5192         0.388634   
     88. B(C  84,C  83)                  1.5350         0.366743   
     89. B(H  85,C  83)                  1.0966         0.351426   
     90. B(H  86,C  83)                  1.0966         0.351516   
     91. B(C  87,C  84)                  1.5288         0.375281   
     92. B(H  88,C  84)                  1.0974         0.350482   
     93. B(H  89,C  84)                  1.0973         0.350543   
     94. B(C  90,C  87)                  1.5220         0.384749   
     95. B(H  91,C  87)                  1.0960         0.352265   
     96. B(H  92,C  87)                  1.0959         0.352347   
     97. B(H  93,C  90)                  1.0950         0.353592   
     98. B(H  94,C  90)                  1.0942         0.354535   
     99. B(H  95,C  90)                  1.0950         0.353584   
    100. B(C  96,C  82)                  1.4655         0.473479   
    101. B(S  97,C  96)                  1.7157         0.509165   
    102. B(C  98,C  96)                  1.3915         0.621260   
    103. B(C  99,C  98)                  1.4361         0.527450   
    104. B(H 100,C  98)                  1.0830         0.369525   
    105. B(C 101,C  99)                  1.3797         0.648820   
    106. B(C 101,S  97)                  1.7032         0.533200   
    107. B(C 101,C  39)                  1.0809         1.944533   
    108. B(C 102,C  99)                  1.5083         0.404558   
    109. B(C 103,C 102)                  1.5314         0.371654   
    110. B(H 104,C 102)                  1.0978         0.349979   
    111. B(H 105,C 102)                  1.0978         0.349904   
    112. B(C 106,C 103)                  1.5293         0.374559   
    113. B(H 107,C 103)                  1.0973         0.350525   
    114. B(H 108,C 103)                  1.0973         0.350562   
    115. B(C 109,C 106)                  1.5211         0.385977   
    116. B(H 110,C 106)                  1.0962         0.352052   
    117. B(H 111,C 106)                  1.0961         0.352151   
    118. B(H 112,C 109)                  1.0948         0.353849   
    119. B(H 113,C 109)                  1.0945         0.354219   
    120. B(H 114,C 109)                  1.0948         0.353843   
    121. B(C 116,C 115)                  1.3702         0.672048   
    122. B(C 117,C 116)                  1.4459         0.508806   
    123. B(H 118,C 116)                  1.0829         0.369583   
    124. B(S 119,C 115)                  1.6901         0.559385   
    125. B(C 120,S 119)                  1.7386         0.468078   
    126. B(C 120,C 117)                  1.4039         0.593682   
    127. B(C 121,C 117)                  1.5192         0.388634   
    128. B(C 122,C 121)                  1.5350         0.366743   
    129. B(H 123,C 121)                  1.0966         0.351426   
    130. B(H 124,C 121)                  1.0966         0.351516   
    131. B(C 125,C 122)                  1.5288         0.375281   
    132. B(H 126,C 122)                  1.0974         0.350482   
    133. B(H 127,C 122)                  1.0973         0.350543   
    134. B(C 128,C 125)                  1.5220         0.384749   
    135. B(H 129,C 125)                  1.0960         0.352265   
    136. B(H 130,C 125)                  1.0959         0.352347   
    137. B(H 131,C 128)                  1.0950         0.353592   
    138. B(H 132,C 128)                  1.0942         0.354535   
    139. B(H 133,C 128)                  1.0950         0.353584   
    140. B(C 134,C 120)                  1.4655         0.473479   
    141. B(S 135,C 134)                  1.7157         0.509165   
    142. B(C 136,C 134)                  1.3915         0.621260   
    143. B(C 137,C 136)                  1.4361         0.527450   
    144. B(H 138,C 136)                  1.0830         0.369525   
    145. B(C 139,C 137)                  1.3797         0.648820   
    146. B(C 139,S 135)                  1.7032         0.533200   
    147. B(C 139,C  77)                  1.0809         1.944533   
    148. B(C 140,C 137)                  1.5083         0.404558   
    149. B(C 141,C 140)                  1.5314         0.371654   
    150. B(H 142,C 140)                  1.0978         0.349979   
    151. B(H 143,C 140)                  1.0978         0.349904   
    152. B(C 144,C 141)                  1.5293         0.374559   
    153. B(H 145,C 141)                  1.0973         0.350525   
    154. B(H 146,C 141)                  1.0973         0.350562   
    155. B(C 147,C 144)                  1.5211         0.385977   
    156. B(H 148,C 144)                  1.0962         0.352052   
    157. B(H 149,C 144)                  1.0961         0.352151   
    158. B(H 150,C 147)                  1.0948         0.353849   
    159. B(H 151,C 147)                  1.0945         0.354219   
    160. B(H 152,C 147)                  1.0948         0.353843   
    161. B(C 154,C 153)                  1.3702         0.672048   
    162. B(C 155,C 154)                  1.4459         0.508806   
    163. B(H 156,C 154)                  1.0829         0.369583   
    164. B(S 157,C 153)                  1.6901         0.559385   
    165. B(C 158,S 157)                  1.7386         0.468078   
    166. B(C 158,C 155)                  1.4039         0.593682   
    167. B(C 159,C 155)                  1.5192         0.388634   
    168. B(C 160,C 159)                  1.5350         0.366743   
    169. B(H 161,C 159)                  1.0966         0.351426   
    170. B(H 162,C 159)                  1.0966         0.351516   
    171. B(C 163,C 160)                  1.5288         0.375281   
    172. B(H 164,C 160)                  1.0974         0.350482   
    173. B(H 165,C 160)                  1.0973         0.350543   
    174. B(C 166,C 163)                  1.5220         0.384749   
    175. B(H 167,C 163)                  1.0960         0.352265   
    176. B(H 168,C 163)                  1.0959         0.352347   
    177. B(H 169,C 166)                  1.0950         0.353592   
    178. B(H 170,C 166)                  1.0942         0.354535   
    179. B(H 171,C 166)                  1.0950         0.353584   
    180. B(C 172,C 158)                  1.4655         0.473479   
    181. B(S 173,C 172)                  1.7157         0.509165   
    182. B(C 174,C 172)                  1.3915         0.621260   
    183. B(C 175,C 174)                  1.4361         0.527450   
    184. B(H 176,C 174)                  1.0830         0.369525   
    185. B(C 177,C 175)                  1.3797         0.648820   
    186. B(C 177,S 173)                  1.7032         0.533200   
    187. B(C 177,C 115)                  1.0809         1.944533   
    188. B(C 178,C 175)                  1.5083         0.404558   
    189. B(C 179,C 178)                  1.5314         0.371654   
    190. B(H 180,C 178)                  1.0978         0.349979   
    191. B(H 181,C 178)                  1.0978         0.349904   
    192. B(C 182,C 179)                  1.5293         0.374559   
    193. B(H 183,C 179)                  1.0973         0.350525   
    194. B(H 184,C 179)                  1.0973         0.350562   
    195. B(C 185,C 182)                  1.5211         0.385977   
    196. B(H 186,C 182)                  1.0962         0.352052   
    197. B(H 187,C 182)                  1.0961         0.352151   
    198. B(H 188,C 185)                  1.0948         0.353849   
    199. B(H 189,C 185)                  1.0945         0.354219   
    200. B(H 190,C 185)                  1.0948         0.353843   
    201. B(C 192,C 191)                  1.3702         0.672048   
    202. B(C 193,C 192)                  1.4459         0.508806   
    203. B(H 194,C 192)                  1.0829         0.369583   
    204. B(S 195,C 191)                  1.6901         0.559385   
    205. B(C 196,S 195)                  1.7386         0.468078   
    206. B(C 196,C 193)                  1.4039         0.593682   
    207. B(C 197,C 193)                  1.5192         0.388634   
    208. B(C 198,C 197)                  1.5350         0.366743   
    209. B(H 199,C 197)                  1.0966         0.351426   
    210. B(H 200,C 197)                  1.0966         0.351516   
    211. B(C 201,C 198)                  1.5288         0.375281   
    212. B(H 202,C 198)                  1.0974         0.350482   
    213. B(H 203,C 198)                  1.0973         0.350543   
    214. B(C 204,C 201)                  1.5220         0.384749   
    215. B(H 205,C 201)                  1.0960         0.352265   
    216. B(H 206,C 201)                  1.0959         0.352347   
    217. B(H 207,C 204)                  1.0950         0.353592   
    218. B(H 208,C 204)                  1.0942         0.354535   
    219. B(H 209,C 204)                  1.0950         0.353584   
    220. B(C 210,C 196)                  1.4655         0.473479   
    221. B(S 211,C 210)                  1.7157         0.509165   
    222. B(C 212,C 210)                  1.3915         0.621260   
    223. B(C 213,C 212)                  1.4361         0.527450   
    224. B(H 214,C 212)                  1.0830         0.369525   
    225. B(C 215,C 213)                  1.3797         0.648820   
    226. B(C 215,S 211)                  1.7032         0.533200   
    227. B(C 215,C 153)                  1.0809         1.944533   
    228. B(C 216,C 213)                  1.5083         0.404558   
    229. B(C 217,C 216)                  1.5314         0.371654   
    230. B(H 218,C 216)                  1.0978         0.349979   
    231. B(H 219,C 216)                  1.0978         0.349904   
    232. B(C 220,C 217)                  1.5293         0.374559   
    233. B(H 221,C 217)                  1.0973         0.350525   
    234. B(H 222,C 217)                  1.0973         0.350562   
    235. B(C 223,C 220)                  1.5211         0.385977   
    236. B(H 224,C 220)                  1.0962         0.352052   
    237. B(H 225,C 220)                  1.0961         0.352151   
    238. B(H 226,C 223)                  1.0948         0.353849   
    239. B(H 227,C 223)                  1.0945         0.354219   
    240. B(H 228,C 223)                  1.0948         0.353843   
    241. B(C 230,C 229)                  1.3702         0.672048   
    242. B(C 231,C 230)                  1.4459         0.508806   
    243. B(H 232,C 230)                  1.0829         0.369583   
    244. B(S 233,C 229)                  1.6901         0.559385   
    245. B(C 234,S 233)                  1.7386         0.468078   
    246. B(C 234,C 231)                  1.4039         0.593682   
    247. B(C 235,C 231)                  1.5192         0.388634   
    248. B(C 236,C 235)                  1.5350         0.366743   
    249. B(H 237,C 235)                  1.0966         0.351426   
    250. B(H 238,C 235)                  1.0966         0.351516   
    251. B(C 239,C 236)                  1.5288         0.375281   
    252. B(H 240,C 236)                  1.0974         0.350482   
    253. B(H 241,C 236)                  1.0973         0.350543   
    254. B(C 242,C 239)                  1.5220         0.384749   
    255. B(H 243,C 239)                  1.0960         0.352265   
    256. B(H 244,C 239)                  1.0959         0.352347   
    257. B(H 245,C 242)                  1.0950         0.353592   
    258. B(H 246,C 242)                  1.0942         0.354535   
    259. B(H 247,C 242)                  1.0950         0.353584   
    260. B(C 248,C 234)                  1.4655         0.473479   
    261. B(S 249,C 248)                  1.7157         0.509165   
    262. B(C 250,C 248)                  1.3915         0.621260   
    263. B(C 251,C 250)                  1.4361         0.527450   
    264. B(H 252,C 250)                  1.0830         0.369525   
    265. B(C 253,C 251)                  1.3797         0.648820   
    266. B(C 253,S 249)                  1.7032         0.533200   
    267. B(C 253,C 191)                  1.0809         1.944533   
    268. B(C 254,C 251)                  1.5083         0.404558   
    269. B(C 255,C 254)                  1.5314         0.371654   
    270. B(H 256,C 254)                  1.0978         0.349979   
    271. B(H 257,C 254)                  1.0978         0.349904   
    272. B(C 258,C 255)                  1.5293         0.374559   
    273. B(H 259,C 255)                  1.0973         0.350525   
    274. B(H 260,C 255)                  1.0973         0.350562   
    275. B(C 261,C 258)                  1.5211         0.385977   
    276. B(H 262,C 258)                  1.0962         0.352052   
    277. B(H 263,C 258)                  1.0961         0.352151   
    278. B(H 264,C 261)                  1.0948         0.353849   
    279. B(H 265,C 261)                  1.0945         0.354219   
    280. B(H 266,C 261)                  1.0948         0.353843   
    281. B(C 268,C 267)                  1.3702         0.672048   
    282. B(C 269,C 268)                  1.4459         0.508806   
    283. B(H 270,C 268)                  1.0829         0.369583   
    284. B(S 271,C 267)                  1.6901         0.559385   
    285. B(C 272,S 271)                  1.7386         0.468078   
    286. B(C 272,C 269)                  1.4039         0.593682   
    287. B(C 273,C 269)                  1.5192         0.388634   
    288. B(C 274,C 273)                  1.5350         0.366743   
    289. B(H 275,C 273)                  1.0966         0.351426   
    290. B(H 276,C 273)                  1.0966         0.351516   
    291. B(C 277,C 274)                  1.5288         0.375281   
    292. B(H 278,C 274)                  1.0974         0.350482   
    293. B(H 279,C 274)                  1.0973         0.350543   
    294. B(C 280,C 277)                  1.5220         0.384749   
    295. B(H 281,C 277)                  1.0960         0.352265   
    296. B(H 282,C 277)                  1.0959         0.352347   
    297. B(H 283,C 280)                  1.0950         0.353592   
    298. B(H 284,C 280)                  1.0942         0.354535   
    299. B(H 285,C 280)                  1.0950         0.353584   
    300. B(C 286,C 272)                  1.4655         0.473479   
    301. B(S 287,C 286)                  1.7157         0.509165   
    302. B(C 288,C 286)                  1.3915         0.621260   
    303. B(C 289,C 288)                  1.4361         0.527450   
    304. B(H 290,C 288)                  1.0830         0.369525   
    305. B(C 291,C 289)                  1.3797         0.648820   
    306. B(C 291,S 287)                  1.7032         0.533200   
    307. B(C 291,C 229)                  1.0809         1.944533   
    308. B(C 292,C 289)                  1.5083         0.404558   
    309. B(C 293,C 292)                  1.5314         0.371654   
    310. B(H 294,C 292)                  1.0978         0.349979   
    311. B(H 295,C 292)                  1.0978         0.349904   
    312. B(C 296,C 293)                  1.5293         0.374559   
    313. B(H 297,C 293)                  1.0973         0.350525   
    314. B(H 298,C 293)                  1.0973         0.350562   
    315. B(C 299,C 296)                  1.5211         0.385977   
    316. B(H 300,C 296)                  1.0962         0.352052   
    317. B(H 301,C 296)                  1.0961         0.352151   
    318. B(H 302,C 299)                  1.0948         0.353849   
    319. B(H 303,C 299)                  1.0945         0.354219   
    320. B(H 304,C 299)                  1.0948         0.353843   
    321. B(C 306,C 305)                  1.3702         0.672048   
    322. B(C 307,C 306)                  1.4459         0.508806   
    323. B(H 308,C 306)                  1.0829         0.369583   
    324. B(S 309,C 305)                  1.6901         0.559385   
    325. B(C 310,S 309)                  1.7386         0.468078   
    326. B(C 310,C 307)                  1.4039         0.593682   
    327. B(C 311,C 307)                  1.5192         0.388634   
    328. B(C 312,C 311)                  1.5350         0.366743   
    329. B(H 313,C 311)                  1.0966         0.351426   
    330. B(H 314,C 311)                  1.0966         0.351516   
    331. B(C 315,C 312)                  1.5288         0.375281   
    332. B(H 316,C 312)                  1.0974         0.350482   
    333. B(H 317,C 312)                  1.0973         0.350543   
    334. B(C 318,C 315)                  1.5220         0.384749   
    335. B(H 319,C 315)                  1.0960         0.352265   
    336. B(H 320,C 315)                  1.0959         0.352347   
    337. B(H 321,C 318)                  1.0950         0.353592   
    338. B(H 322,C 318)                  1.0942         0.354535   
    339. B(H 323,C 318)                  1.0950         0.353584   
    340. B(C 324,C 310)                  1.4655         0.473479   
    341. B(S 325,C 324)                  1.7157         0.509165   
    342. B(C 326,C 324)                  1.3915         0.621260   
    343. B(C 327,C 326)                  1.4361         0.527450   
    344. B(H 328,C 326)                  1.0830         0.369525   
    345. B(C 329,C 327)                  1.3797         0.648820   
    346. B(C 329,S 325)                  1.7032         0.533200   
    347. B(C 329,C 267)                  1.0809         1.944533   
    348. B(C 330,C 327)                  1.5083         0.404558   
    349. B(C 331,C 330)                  1.5314         0.371654   
    350. B(H 332,C 330)                  1.0978         0.349979   
    351. B(H 333,C 330)                  1.0978         0.349904   
    352. B(C 334,C 331)                  1.5293         0.374559   
    353. B(H 335,C 331)                  1.0973         0.350525   
    354. B(H 336,C 331)                  1.0973         0.350562   
    355. B(C 337,C 334)                  1.5211         0.385977   
    356. B(H 338,C 334)                  1.0962         0.352052   
    357. B(H 339,C 334)                  1.0961         0.352151   
    358. B(H 340,C 337)                  1.0948         0.353849   
    359. B(H 341,C 337)                  1.0945         0.354219   
    360. B(H 342,C 337)                  1.0948         0.353843   
    361. B(C 344,C 343)                  1.3702         0.672048   
    362. B(C 345,C 344)                  1.4459         0.508806   
    363. B(H 346,C 344)                  1.0829         0.369583   
    364. B(S 347,C 343)                  1.6901         0.559385   
    365. B(C 348,S 347)                  1.7386         0.468078   
    366. B(C 348,C 345)                  1.4039         0.593682   
    367. B(C 349,C 345)                  1.5192         0.388634   
    368. B(C 350,C 349)                  1.5350         0.366743   
    369. B(H 351,C 349)                  1.0966         0.351426   
    370. B(H 352,C 349)                  1.0966         0.351516   
    371. B(C 353,C 350)                  1.5288         0.375281   
    372. B(H 354,C 350)                  1.0974         0.350482   
    373. B(H 355,C 350)                  1.0973         0.350543   
    374. B(C 356,C 353)                  1.5220         0.384749   
    375. B(H 357,C 353)                  1.0960         0.352265   
    376. B(H 358,C 353)                  1.0959         0.352347   
    377. B(H 359,C 356)                  1.0950         0.353592   
    378. B(H 360,C 356)                  1.0942         0.354535   
    379. B(H 361,C 356)                  1.0950         0.353584   
    380. B(C 362,C 348)                  1.4655         0.473479   
    381. B(S 363,C 362)                  1.7157         0.509165   
    382. B(C 364,C 362)                  1.3915         0.621260   
    383. B(C 365,C 364)                  1.4361         0.527450   
    384. B(H 366,C 364)                  1.0830         0.369525   
    385. B(C 367,C 365)                  1.3797         0.648820   
    386. B(C 367,S 363)                  1.7032         0.533200   
    387. B(C 367,C 305)                  1.0809         1.944533   
    388. B(C 368,C 365)                  1.5083         0.404558   
    389. B(C 369,C 368)                  1.5314         0.371654   
    390. B(H 370,C 368)                  1.0978         0.349979   
    391. B(H 371,C 368)                  1.0978         0.349904   
    392. B(C 372,C 369)                  1.5293         0.374559   
    393. B(H 373,C 369)                  1.0973         0.350525   
    394. B(H 374,C 369)                  1.0973         0.350562   
    395. B(C 375,C 372)                  1.5211         0.385977   
    396. B(H 376,C 372)                  1.0962         0.352052   
    397. B(H 377,C 372)                  1.0961         0.352151   
    398. B(H 378,C 375)                  1.0948         0.353849   
    399. B(H 379,C 375)                  1.0945         0.354219   
    400. B(H 380,C 375)                  1.0948         0.353843   
    401. B(C 382,C 381)                  1.3693         0.674133   
    402. B(C 383,C 382)                  1.4313         0.536777   
    403. B(H 384,C 382)                  1.0806         0.372728   
    404. B(O 385,C 381)                  1.3490         0.650584   
    405. B(C 386,O 385)                  1.3752         0.590882   
    406. B(C 386,C 383)                  1.3960         0.611136   
    407. B(C 387,C 383)                  1.5045         0.410276   
    408. B(C 388,C 387)                  1.5352         0.366448   
    409. B(H 389,C 387)                  1.0971         0.350784   
    410. B(H 390,C 387)                  1.0971         0.350794   
    411. B(C 391,C 388)                  1.5273         0.377314   
    412. B(H 392,C 388)                  1.0978         0.349944   
    413. B(H 393,C 388)                  1.0977         0.350042   
    414. B(C 394,C 391)                  1.5231         0.383152   
    415. B(H 395,C 391)                  1.0958         0.352530   
    416. B(H 396,C 391)                  1.0957         0.352611   
    417. B(H 397,C 394)                  1.0952         0.353308   
    418. B(H 398,C 394)                  1.0941         0.354676   
    419. B(H 399,C 394)                  1.0951         0.353360   
    420. B(C 400,C 386)                  1.4361         0.527416   
    421. B(O 401,C 400)                  1.3696         0.603042   
    422. B(C 402,O 401)                  1.3592         0.626565   
    423. B(C 402,C 343)                  1.0809         1.944533   
    424. B(C 403,C 400)                  1.3849         0.636503   
    425. B(C 404,C 403)                  1.4217         0.556093   
    426. B(C 404,C 402)                  1.3805         0.647031   
    427. B(H 405,C 403)                  1.0819         0.371004   
    428. B(C 406,C 404)                  1.4980         0.420240   
    429. B(C 407,C 406)                  1.5336         0.368732   
    430. B(H 408,C 406)                  1.0973         0.350508   
    431. B(H 409,C 406)                  1.0974         0.350484   
    432. B(C 410,C 407)                  1.5285         0.375599   
    433. B(H 411,C 407)                  1.0976         0.350178   
    434. B(H 412,C 407)                  1.0976         0.350218   
    435. B(C 413,C 410)                  1.5220         0.384781   
    436. B(H 414,C 413)                  1.0949         0.353684   
    437. B(H 415,C 413)                  1.0949         0.353626   
    438. B(H 416,C 413)                  1.0944         0.354318   
    439. B(H 417,C 410)                  1.0960         0.352236   
    440. B(H 418,C 410)                  1.0959         0.352361   
    441. B(C 420,C 419)                  1.3693         0.674133   
    442. B(C 421,C 420)                  1.4313         0.536777   
    443. B(H 422,C 420)                  1.0806         0.372728   
    444. B(O 423,C 419)                  1.3490         0.650584   
    445. B(C 424,O 423)                  1.3752         0.590882   
    446. B(C 424,C 421)                  1.3960         0.611136   
    447. B(C 425,C 421)                  1.5045         0.410276   
    448. B(C 426,C 425)                  1.5352         0.366448   
    449. B(H 427,C 425)                  1.0971         0.350784   
    450. B(H 428,C 425)                  1.0971         0.350794   
    451. B(C 429,C 426)                  1.5273         0.377314   
    452. B(H 430,C 426)                  1.0978         0.349944   
    453. B(H 431,C 426)                  1.0977         0.350042   
    454. B(C 432,C 429)                  1.5231         0.383152   
    455. B(H 433,C 429)                  1.0958         0.352530   
    456. B(H 434,C 429)                  1.0957         0.352611   
    457. B(H 435,C 432)                  1.0952         0.353308   
    458. B(H 436,C 432)                  1.0941         0.354676   
    459. B(H 437,C 432)                  1.0951         0.353360   
    460. B(C 438,C 424)                  1.4361         0.527416   
    461. B(O 439,C 438)                  1.3696         0.603042   
    462. B(C 440,O 439)                  1.3592         0.626565   
    463. B(C 440,C 381)                  1.0802         1.949558   
    464. B(C 441,C 438)                  1.3849         0.636503   
    465. B(C 442,C 441)                  1.4217         0.556093   
    466. B(C 442,C 440)                  1.3805         0.647031   
    467. B(H 443,C 441)                  1.0819         0.371004   
    468. B(C 444,C 442)                  1.4980         0.420240   
    469. B(C 445,C 444)                  1.5336         0.368732   
    470. B(H 446,C 444)                  1.0973         0.350508   
    471. B(H 447,C 444)                  1.0974         0.350484   
    472. B(C 448,C 445)                  1.5285         0.375599   
    473. B(H 449,C 445)                  1.0976         0.350178   
    474. B(H 450,C 445)                  1.0976         0.350218   
    475. B(C 451,C 448)                  1.5220         0.384781   
    476. B(H 452,C 451)                  1.0949         0.353684   
    477. B(H 453,C 451)                  1.0949         0.353626   
    478. B(H 454,C 451)                  1.0944         0.354318   
    479. B(H 455,C 448)                  1.0960         0.352236   
    480. B(H 456,C 448)                  1.0959         0.352361   
    481. B(C 458,C 457)                  1.3693         0.674133   
    482. B(C 459,C 458)                  1.4313         0.536777   
    483. B(H 460,C 458)                  1.0806         0.372728   
    484. B(O 461,C 457)                  1.3490         0.650584   
    485. B(C 462,O 461)                  1.3752         0.590882   
    486. B(C 462,C 459)                  1.3960         0.611136   
    487. B(C 463,C 459)                  1.5045         0.410276   
    488. B(C 464,C 463)                  1.5352         0.366448   
    489. B(H 465,C 463)                  1.0971         0.350784   
    490. B(H 466,C 463)                  1.0971         0.350794   
    491. B(C 467,C 464)                  1.5273         0.377314   
    492. B(H 468,C 464)                  1.0978         0.349944   
    493. B(H 469,C 464)                  1.0977         0.350042   
    494. B(C 470,C 467)                  1.5231         0.383152   
    495. B(H 471,C 467)                  1.0958         0.352530   
    496. B(H 472,C 467)                  1.0957         0.352611   
    497. B(H 473,C 470)                  1.0952         0.353308   
    498. B(H 474,C 470)                  1.0941         0.354676   
    499. B(H 475,C 470)                  1.0951         0.353360   
    500. B(C 476,C 462)                  1.4361         0.527416   
    501. B(O 477,C 476)                  1.3696         0.603042   
    502. B(C 478,O 477)                  1.3592         0.626565   
    503. B(C 478,C 419)                  1.0802         1.949558   
    504. B(C 479,C 476)                  1.3849         0.636503   
    505. B(C 480,C 479)                  1.4217         0.556093   
    506. B(C 480,C 478)                  1.3805         0.647031   
    507. B(H 481,C 479)                  1.0819         0.371004   
    508. B(C 482,C 480)                  1.4980         0.420240   
    509. B(C 483,C 482)                  1.5336         0.368732   
    510. B(H 484,C 482)                  1.0973         0.350508   
    511. B(H 485,C 482)                  1.0974         0.350484   
    512. B(C 486,C 483)                  1.5285         0.375599   
    513. B(H 487,C 483)                  1.0976         0.350178   
    514. B(H 488,C 483)                  1.0976         0.350218   
    515. B(C 489,C 486)                  1.5220         0.384781   
    516. B(H 490,C 489)                  1.0949         0.353684   
    517. B(H 491,C 489)                  1.0949         0.353626   
    518. B(H 492,C 489)                  1.0944         0.354318   
    519. B(H 493,C 486)                  1.0960         0.352236   
    520. B(H 494,C 486)                  1.0959         0.352361   
    521. B(C 496,C 495)                  1.3693         0.674133   
    522. B(C 497,C 496)                  1.4313         0.536777   
    523. B(H 498,C 496)                  1.0806         0.372728   
    524. B(O 499,C 495)                  1.3490         0.650584   
    525. B(C 500,O 499)                  1.3752         0.590882   
    526. B(C 500,C 497)                  1.3960         0.611136   
    527. B(C 501,C 497)                  1.5045         0.410276   
    528. B(C 502,C 501)                  1.5352         0.366448   
    529. B(H 503,C 501)                  1.0971         0.350784   
    530. B(H 504,C 501)                  1.0971         0.350794   
    531. B(C 505,C 502)                  1.5273         0.377314   
    532. B(H 506,C 502)                  1.0978         0.349944   
    533. B(H 507,C 502)                  1.0977         0.350042   
    534. B(C 508,C 505)                  1.5231         0.383152   
    535. B(H 509,C 505)                  1.0958         0.352530   
    536. B(H 510,C 505)                  1.0957         0.352611   
    537. B(H 511,C 508)                  1.0952         0.353308   
    538. B(H 512,C 508)                  1.0941         0.354676   
    539. B(H 513,C 508)                  1.0951         0.353360   
    540. B(C 514,C 500)                  1.4361         0.527416   
    541. B(O 515,C 514)                  1.3696         0.603042   
    542. B(C 516,O 515)                  1.3592         0.626565   
    543. B(C 516,C 457)                  1.0802         1.949558   
    544. B(C 517,C 514)                  1.3849         0.636503   
    545. B(C 518,C 517)                  1.4217         0.556093   
    546. B(C 518,C 516)                  1.3805         0.647031   
    547. B(H 519,C 517)                  1.0819         0.371004   
    548. B(C 520,C 518)                  1.4980         0.420240   
    549. B(C 521,C 520)                  1.5336         0.368732   
    550. B(H 522,C 520)                  1.0973         0.350508   
    551. B(H 523,C 520)                  1.0974         0.350484   
    552. B(C 524,C 521)                  1.5285         0.375599   
    553. B(H 525,C 521)                  1.0976         0.350178   
    554. B(H 526,C 521)                  1.0976         0.350218   
    555. B(C 527,C 524)                  1.5220         0.384781   
    556. B(H 528,C 527)                  1.0949         0.353684   
    557. B(H 529,C 527)                  1.0949         0.353626   
    558. B(H 530,C 527)                  1.0944         0.354318   
    559. B(H 531,C 524)                  1.0960         0.352236   
    560. B(H 532,C 524)                  1.0959         0.352361   
    561. B(C 534,C 533)                  1.3693         0.674133   
    562. B(C 535,C 534)                  1.4313         0.536777   
    563. B(H 536,C 534)                  1.0806         0.372728   
    564. B(O 537,C 533)                  1.3490         0.650584   
    565. B(C 538,O 537)                  1.3752         0.590882   
    566. B(C 538,C 535)                  1.3960         0.611136   
    567. B(C 539,C 535)                  1.5045         0.410276   
    568. B(C 540,C 539)                  1.5352         0.366448   
    569. B(H 541,C 539)                  1.0971         0.350784   
    570. B(H 542,C 539)                  1.0971         0.350794   
    571. B(C 543,C 540)                  1.5273         0.377314   
    572. B(H 544,C 540)                  1.0978         0.349944   
    573. B(H 545,C 540)                  1.0977         0.350042   
    574. B(C 546,C 543)                  1.5231         0.383152   
    575. B(H 547,C 543)                  1.0958         0.352530   
    576. B(H 548,C 543)                  1.0957         0.352611   
    577. B(H 549,C 546)                  1.0952         0.353308   
    578. B(H 550,C 546)                  1.0941         0.354676   
[...]
Atom 437H    basis set group =>   1
Atom 438C    basis set group =>   2
Atom 439O    basis set group =>   4
Atom 440C    basis set group =>   2
Atom 441C    basis set group =>   2
Atom 442C    basis set group =>   2
Atom 443H    basis set group =>   1
Atom 444C    basis set group =>   2
Atom 445C    basis set group =>   2
Atom 446H    basis set group =>   1
Atom 447H    basis set group =>   1
Atom 448C    basis set group =>   2
Atom 449H    basis set group =>   1
Atom 450H    basis set group =>   1
Atom 451C    basis set group =>   2
Atom 452H    basis set group =>   1
Atom 453H    basis set group =>   1
Atom 454H    basis set group =>   1
Atom 455H    basis set group =>   1
Atom 456H    basis set group =>   1
Atom 457C    basis set group =>   2
Atom 458C    basis set group =>   2
Atom 459C    basis set group =>   2
Atom 460H    basis set group =>   1
Atom 461O    basis set group =>   4
Atom 462C    basis set group =>   2
Atom 463C    basis set group =>   2
Atom 464C    basis set group =>   2
Atom 465H    basis set group =>   1
Atom 466H    basis set group =>   1
Atom 467C    basis set group =>   2
Atom 468H    basis set group =>   1
Atom 469H    basis set group =>   1
Atom 470C    basis set group =>   2
Atom 471H    basis set group =>   1
Atom 472H    basis set group =>   1
Atom 473H    basis set group =>   1
Atom 474H    basis set group =>   1
Atom 475H    basis set group =>   1
Atom 476C    basis set group =>   2
Atom 477O    basis set group =>   4
Atom 478C    basis set group =>   2
Atom 479C    basis set group =>   2
Atom 480C    basis set group =>   2
Atom 481H    basis set group =>   1
Atom 482C    basis set group =>   2
Atom 483C    basis set group =>   2
Atom 484H    basis set group =>   1
Atom 485H    basis set group =>   1
Atom 486C    basis set group =>   2
Atom 487H    basis set group =>   1
Atom 488H    basis set group =>   1
Atom 489C    basis set group =>   2
Atom 490H    basis set group =>   1
Atom 491H    basis set group =>   1
Atom 492H    basis set group =>   1
Atom 493H    basis set group =>   1
Atom 494H    basis set group =>   1
Atom 495C    basis set group =>   2
Atom 496C    basis set group =>   2
Atom 497C    basis set group =>   2
Atom 498H    basis set group =>   1
Atom 499O    basis set group =>   4
Atom 500C    basis set group =>   2
Atom 501C    basis set group =>   2
Atom 502C    basis set group =>   2
Atom 503H    basis set group =>   1
Atom 504H    basis set group =>   1
Atom 505C    basis set group =>   2
Atom 506H    basis set group =>   1
Atom 507H    basis set group =>   1
Atom 508C    basis set group =>   2
Atom 509H    basis set group =>   1
Atom 510H    basis set group =>   1
Atom 511H    basis set group =>   1
Atom 512H    basis set group =>   1
Atom 513H    basis set group =>   1
Atom 514C    basis set group =>   2
Atom 515O    basis set group =>   4
Atom 516C    basis set group =>   2
Atom 517C    basis set group =>   2
Atom 518C    basis set group =>   2
Atom 519H    basis set group =>   1
Atom 520C    basis set group =>   2
Atom 521C    basis set group =>   2
Atom 522H    basis set group =>   1
Atom 523H    basis set group =>   1
Atom 524C    basis set group =>   2
Atom 525H    basis set group =>   1
Atom 526H    basis set group =>   1
Atom 527C    basis set group =>   2
Atom 528H    basis set group =>   1
Atom 529H    basis set group =>   1
Atom 530H    basis set group =>   1
Atom 531H    basis set group =>   1
Atom 532H    basis set group =>   1
Atom 533C    basis set group =>   2
Atom 534C    basis set group =>   2
Atom 535C    basis set group =>   2
Atom 536H    basis set group =>   1
Atom 537O    basis set group =>   4
Atom 538C    basis set group =>   2
Atom 539C    basis set group =>   2
Atom 540C    basis set group =>   2
Atom 541H    basis set group =>   1
Atom 542H    basis set group =>   1
Atom 543C    basis set group =>   2
Atom 544H    basis set group =>   1
Atom 545H    basis set group =>   1
Atom 546C    basis set group =>   2
Atom 547H    basis set group =>   1
Atom 548H    basis set group =>   1
Atom 549H    basis set group =>   1
Atom 550H    basis set group =>   1
Atom 551H    basis set group =>   1
Atom 552C    basis set group =>   2
Atom 553O    basis set group =>   4
Atom 554C    basis set group =>   2
Atom 555C    basis set group =>   2
Atom 556C    basis set group =>   2
Atom 557H    basis set group =>   1
Atom 558C    basis set group =>   2
Atom 559C    basis set group =>   2
Atom 560H    basis set group =>   1
Atom 561H    basis set group =>   1
Atom 562C    basis set group =>   2
Atom 563H    basis set group =>   1
Atom 564H    basis set group =>   1
Atom 565C    basis set group =>   2
Atom 566H    basis set group =>   1
Atom 567H    basis set group =>   1
Atom 568H    basis set group =>   1
Atom 569H    basis set group =>   1
Atom 570H    basis set group =>   1
Atom 571C    basis set group =>   2
Atom 572C    basis set group =>   2
Atom 573C    basis set group =>   2
Atom 574H    basis set group =>   1
Atom 575O    basis set group =>   4
Atom 576C    basis set group =>   2
Atom 577C    basis set group =>   2
Atom 578C    basis set group =>   2
Atom 579H    basis set group =>   1
Atom 580H    basis set group =>   1
Atom 581C    basis set group =>   2
Atom 582H    basis set group =>   1
Atom 583H    basis set group =>   1
Atom 584C    basis set group =>   2
Atom 585H    basis set group =>   1
Atom 586H    basis set group =>   1
Atom 587H    basis set group =>   1
Atom 588H    basis set group =>   1
Atom 589H    basis set group =>   1
Atom 590C    basis set group =>   2
Atom 591O    basis set group =>   4
Atom 592C    basis set group =>   2
Atom 593C    basis set group =>   2
Atom 594C    basis set group =>   2
Atom 595H    basis set group =>   1
Atom 596C    basis set group =>   2
Atom 597C    basis set group =>   2
Atom 598H    basis set group =>   1
Atom 599H    basis set group =>   1
Atom 600C    basis set group =>   2
Atom 601H    basis set group =>   1
Atom 602H    basis set group =>   1
Atom 603C    basis set group =>   2
Atom 604H    basis set group =>   1
Atom 605H    basis set group =>   1
Atom 606H    basis set group =>   1
Atom 607H    basis set group =>   1
Atom 608H    basis set group =>   1
Atom 609C    basis set group =>   2
Atom 610C    basis set group =>   2
Atom 611C    basis set group =>   2
Atom 612H    basis set group =>   1
Atom 613O    basis set group =>   4
Atom 614C    basis set group =>   2
Atom 615C    basis set group =>   2
Atom 616C    basis set group =>   2
Atom 617H    basis set group =>   1
Atom 618H    basis set group =>   1
Atom 619C    basis set group =>   2
Atom 620H    basis set group =>   1
Atom 621H    basis set group =>   1
Atom 622C    basis set group =>   2
Atom 623H    basis set group =>   1
Atom 624H    basis set group =>   1
Atom 625H    basis set group =>   1
Atom 626H    basis set group =>   1
Atom 627H    basis set group =>   1
Atom 628C    basis set group =>   2
Atom 629O    basis set group =>   4
Atom 630C    basis set group =>   2
Atom 631C    basis set group =>   2
Atom 632C    basis set group =>   2
Atom 633H    basis set group =>   1
Atom 634C    basis set group =>   2
Atom 635C    basis set group =>   2
Atom 636H    basis set group =>   1
Atom 637H    basis set group =>   1
Atom 638C    basis set group =>   2
Atom 639H    basis set group =>   1
Atom 640H    basis set group =>   1
Atom 641C    basis set group =>   2
Atom 642H    basis set group =>   1
Atom 643H    basis set group =>   1
Atom 644H    basis set group =>   1
Atom 645H    basis set group =>   1
Atom 646H    basis set group =>   1
Atom 647C    basis set group =>   2
Atom 648C    basis set group =>   2
Atom 649C    basis set group =>   2
Atom 650H    basis set group =>   1
Atom 651O    basis set group =>   4
Atom 652C    basis set group =>   2
Atom 653C    basis set group =>   2
Atom 654C    basis set group =>   2
Atom 655H    basis set group =>   1
Atom 656H    basis set group =>   1
Atom 657C    basis set group =>   2
Atom 658H    basis set group =>   1
Atom 659H    basis set group =>   1
Atom 660C    basis set group =>   2
Atom 661H    basis set group =>   1
Atom 662H    basis set group =>   1
Atom 663H    basis set group =>   1
Atom 664H    basis set group =>   1
Atom 665H    basis set group =>   1
Atom 666C    basis set group =>   2
Atom 667O    basis set group =>   4
Atom 668C    basis set group =>   2
Atom 669C    basis set group =>   2
Atom 670C    basis set group =>   2
Atom 671H    basis set group =>   1
Atom 672C    basis set group =>   2
Atom 673C    basis set group =>   2
Atom 674H    basis set group =>   1
Atom 675H    basis set group =>   1
Atom 676C    basis set group =>   2
Atom 677H    basis set group =>   1
Atom 678H    basis set group =>   1
Atom 679C    basis set group =>   2
Atom 680H    basis set group =>   1
Atom 681H    basis set group =>   1
Atom 682H    basis set group =>   1
Atom 683H    basis set group =>   1
Atom 684H    basis set group =>   1
Atom 685C    basis set group =>   2
Atom 686C    basis set group =>   2
Atom 687C    basis set group =>   2
Atom 688H    basis set group =>   1
Atom 689O    basis set group =>   4
Atom 690C    basis set group =>   2
Atom 691C    basis set group =>   2
Atom 692C    basis set group =>   2
Atom 693H    basis set group =>   1
Atom 694H    basis set group =>   1
Atom 695C    basis set group =>   2
Atom 696H    basis set group =>   1
Atom 697H    basis set group =>   1
Atom 698C    basis set group =>   2
Atom 699H    basis set group =>   1
Atom 700H    basis set group =>   1
Atom 701H    basis set group =>   1
Atom 702H    basis set group =>   1
Atom 703H    basis set group =>   1
Atom 704C    basis set group =>   2
Atom 705O    basis set group =>   4
Atom 706C    basis set group =>   2
Atom 707C    basis set group =>   2
Atom 708C    basis set group =>   2
Atom 709H    basis set group =>   1
Atom 710C    basis set group =>   2
Atom 711C    basis set group =>   2
Atom 712H    basis set group =>   1
Atom 713H    basis set group =>   1
Atom 714C    basis set group =>   2
Atom 715H    basis set group =>   1
Atom 716H    basis set group =>   1
Atom 717C    basis set group =>   2
Atom 718H    basis set group =>   1
Atom 719H    basis set group =>   1
Atom 720H    basis set group =>   1
Atom 721H    basis set group =>   1
Atom 722H    basis set group =>   1
Atom 723C    basis set group =>   2
Atom 724C    basis set group =>   2
Atom 725C    basis set group =>   2
Atom 726H    basis set group =>   1
Atom 727O    basis set group =>   4
Atom 728C    basis set group =>   2
Atom 729C    basis set group =>   2
Atom 730C    basis set group =>   2
Atom 731H    basis set group =>   1
Atom 732H    basis set group =>   1
Atom 733C    basis set group =>   2
Atom 734H    basis set group =>   1
Atom 735H    basis set group =>   1
Atom 736C    basis set group =>   2
Atom 737H    basis set group =>   1
Atom 738H    basis set group =>   1
Atom 739H    basis set group =>   1
Atom 740H    basis set group =>   1
Atom 741H    basis set group =>   1
Atom 742C    basis set group =>   2
Atom 743O    basis set group =>   4
Atom 744C    basis set group =>   2
Atom 745C    basis set group =>   2
Atom 746C    basis set group =>   2
Atom 747H    basis set group =>   1
Atom 748C    basis set group =>   2
Atom 749C    basis set group =>   2
Atom 750H    basis set group =>   1
Atom 751H    basis set group =>   1
Atom 752C    basis set group =>   2
Atom 753H    basis set group =>   1
Atom 754H    basis set group =>   1
Atom 755C    basis set group =>   2
Atom 756H    basis set group =>   1
Atom 757H    basis set group =>   1
Atom 758H    basis set group =>   1
Atom 759H    basis set group =>   1
Atom 760H    basis set group =>   1
Atom 761H    basis set group =>   1


           ************************************************************
           *        Program running with 8 parallel MPI-processes     *
           *              working on a common directory               *
           ************************************************************
------------------------------------------------------------------------------
                           ORCA GTO INTEGRAL CALCULATION
------------------------------------------------------------------------------

                         BASIS SET STATISTICS AND STARTUP INFO

 # of primitive gaussian shells          ... 8370
 # of primitive gaussian functions       ... 14454
 # of contracted shell                   ... 4126
 # of contracted basis functions         ... 8570
 Highest angular momentum                ...    2
 Maximum contraction depth               ...    6
 Integral package used                   ... LIBINT
 Integral threshhold            Thresh   ...  2.500e-11
 Primitive cut-off              TCut     ...  2.500e-12


                              INTEGRAL EVALUATION

 One electron integrals                  ... done
 Pre-screening matrix                    ... done
 Shell pair data                         ... done (   0.513 sec)

           ************************************************************
           *              Shut down parallel processing               *
           ************************************************************


           ************************************************************
           *        Program running with 8 parallel MPI-processes     *
           *              working on a common directory               *
           ************************************************************
-------------------------------------------------------------------------------
                                 ORCA SCF
-------------------------------------------------------------------------------

------------
SCF SETTINGS
------------
Hamiltonian:
 Density Functional     Method          .... DFT(GTOs)
 Exchange Functional    Exchange        .... B88
   X-Alpha parameter    XAlpha          ....  0.666667
   Becke's b parameter  XBeta           ....  0.004200
 Correlation Functional Correlation     .... LYP
 LDA part of GGA corr.  LDAOpt          .... VWN-5
 Gradients option       PostSCFGGA      .... off
 Hybrid DFT is turned on
   Fraction HF Exchange ScalHFX         ....  0.200000
   Scaling of DF-GGA-X  ScalDFX         ....  0.720000
   Scaling of DF-GGA-C  ScalDFC         ....  0.810000
   Scaling of DF-LDA-C  ScalLDAC        ....  1.000000
   Perturbative correction              ....  0.000000
   NL short-range parameter             ....  4.800000


General Settings:
 Integral files         IntName         .... Test_Block
 Hartree-Fock type      HFTyp           .... RHF
 Total Charge           Charge          ....    0
 Multiplicity           Mult            ....    1
 Number of Electrons    NEL             .... 2802
 Basis Dimension        Dim             .... 8570
 Nuclear Repulsion      ENuc            .... 101318.7040986763 Eh

Convergence Acceleration:
 DIIS                   CNVDIIS         .... on
   Start iteration      DIISMaxIt       ....    12
   Startup error        DIISStart       ....  0.200000
   # of expansion vecs  DIISMaxEq       ....     5
   Bias factor          DIISBfac        ....   1.050
   Max. coefficient     DIISMaxC        ....  10.000
 Newton-Raphson         CNVNR           .... off
 SOSCF                  CNVSOSCF        .... off
 Level Shifting         CNVShift        .... on
   Level shift para.    LevelShift      ....    0.2500
   Turn off err/grad.   ShiftErr        ....    0.0010
 Zerner damping         CNVZerner       .... off
 Static damping         CNVDamp         .... on
   Fraction old density DampFac         ....    0.7000
   Max. Damping (<1)    DampMax         ....    0.9800
   Min. Damping (>=0)   DampMin         ....    0.0000
   Turn off err/grad.   DampErr         ....    0.1000
 Fernandez-Rico         CNVRico         .... off

SCF Procedure:
 Maximum # iterations   MaxIter         ....   125
 SCF integral mode      SCFMode         .... Direct
   Integral package                     .... LIBINT
 Reset frequeny         DirectResetFreq ....    20
 Integral Threshold     Thresh          ....  2.500e-11 Eh
 Primitive CutOff       TCut            ....  2.500e-12 Eh

Convergence Tolerance:
 Convergence Check Mode ConvCheckMode   .... Total+1el-Energy
 Energy Change          TolE            ....  1.000e-08 Eh
 1-El. energy change                    ....  1.000e-05 Eh
 DIIS Error             TolErr          ....  5.000e-07


Diagonalization of the overlap matrix:
Smallest eigenvalue                        ... 2.263e-11
Time for diagonalization                   ...   53.632 sec
Threshold for overlap eigenvalues          ... 1.000e-08
Number of eigenvalues below threshold      ... 54
Time for construction of square roots      ...   36.418 sec
Total time needed                          ...   90.415 sec

-------------------
DFT GRID GENERATION
-------------------

General Integration Accuracy     IntAcc      ...  4.340
Radial Grid Type                 RadialGrid  ... Gauss-Chebyshev
Angular Grid (max. acc.)         AngularGrid ... Lebedev-110
Angular grid pruning method      GridPruning ... 3 (G Style)
Weight generation scheme         WeightScheme... Becke
Basis function cutoff            BFCut       ...    1.0000e-11
Integration weight cutoff        WCut        ...    1.0000e-14
Grids for H and He will be reduced by one unit

# of grid points (after initial pruning)     ... 919548 (   0.4 sec)
# of grid points (after weights+screening)   ... 792997 ( 924.7 sec)
nearest neighbour list constructed           ...    0.0 sec
Grid point re-assignment to atoms done       ...    0.2 sec
Grid point division into batches done        ...    0.7 sec
Reduced shell lists constructed in    5.8 sec

Total number of grid points                  ...   792997
Total number of batches                      ...    12762
Average number of points per batch           ...       62
Average number of grid points per atom       ...     1041
Average number of shells per batch           ...   191.70 ( 4.65%)
Average number of basis functions per batch  ...   385.50 ( 4.50%)
Average number of large shells per batch     ...   118.07 (61.59%)
Average number of large basis fcns per batch ...   243.27 (63.10%)
Maximum spatial batch extension              ...  20.54, 20.60, 27.91 au
Average spatial batch extension              ...   0.36,  0.36,  0.44 au

Time for grid setup =  933.282 sec

------------------------------
INITIAL GUESS: MODEL POTENTIAL
------------------------------
Loading Hartree-Fock densities                     ... done
Calculating cut-offs                               ... done
Setting up the integral package                    ... done
Initializing the effective Hamiltonian             ... done
Starting the Coulomb interaction                   ... done ( 173.5 sec)
Reading the grid                                   ... done
Mapping shells                                     ... done
Starting the XC term evaluation                    ... done (  34.6 sec)
  promolecular density results
     # of electrons  =   2802.037768313
     EX              =  -2434.627699762
     EC              =    -96.406880988
     EX+EC           =  -2531.034580749
Transforming the Hamiltonian                       ... done (  31.5 sec)
Diagonalizing the Hamiltonian                      ... done (  55.6 sec)
Back transforming the eigenvectors                 ... done (  14.1 sec)
Now organizing SCF variables                       ... done
                      ------------------
                      INITIAL GUESS DONE (1260.5 sec)
                      ------------------
--------------
SCF ITERATIONS
--------------
ITER       Energy         Delta-E        Max-DP      RMS-DP      [F,P]     Damp
               ***  Starting incremental Fock matrix formation  ***

An error has occured in the SCF module
CALLING COMMAND: mpirun -np 8  /oasis/scratch/comet/cjpais/temp_project/programs/orca_3_0_3_linux_x86-64/orca_scf_mpi Test_Block.gbw b
RETURN CODE    : 35072
ABORTING THE RUN
