
                                 *****************
                                 * O   R   C   A *
                                 *****************

           --- An Ab Initio, DFT and Semiempirical electronic structure package ---

                  #######################################################
                  #                        -***-                        #
                  #  Department of molecular theory and spectroscopy    #
                  #              Directorship: Frank Neese              #
                  # Max Planck Institute for Chemical Energy Conversion #
                  #                  D-45470 Muelheim/Ruhr              #
                  #                       Germany                       #
                  #                                                     #
                  #                  All rights reserved                #
                  #                        -***-                        #
                  #######################################################


                         Program Version 3.0.3 - RELEASE   -


 With contributions from (in alphabetic order):
   Ute Becker             : Parallelization
   Dmytro Bykov           : SCF Hessian
   Dmitry Ganyushin       : Spin-Orbit,Spin-Spin,Magnetic field MRCI
   Andreas Hansen         : Spin unrestricted coupled pair/coupled cluster methods
   Dimitrios Liakos       : Extrapolation schemes; parallel MDCI
   Robert Izsak           : Overlap fitted RIJCOSX, COSX-SCS-MP3
   Christian Kollmar      : KDIIS, OOCD, Brueckner-CCSD(T), CCSD density
   Simone Kossmann        : Meta GGA functionals, TD-DFT gradient, OOMP2, MP2 Hessian
   Taras Petrenko         : DFT Hessian,TD-DFT gradient, ASA and ECA modules, normal mode analysis, Resonance Raman, ABS, FL, XAS/XES, NRVS
   Christoph Reimann      : Effective Core Potentials
   Michael Roemelt        : Restricted open shell CIS
   Christoph Riplinger    : Improved optimizer, TS searches, QM/MM, DLPNO-CCSD
   Barbara Sandhoefer     : DKH picture change effects
   Igor Schapiro          : Molecular dynamics
   Kantharuban Sivalingam : CASSCF convergence, NEVPT2
   Boris Wezisla          : Elementary symmetry handling
   Frank Wennmohs         : Technical directorship


 We gratefully acknowledge several colleagues who have allowed us to
 interface, adapt or use parts of their codes:
   Stefan Grimme, W. Hujo, H. Kruse, T. Risthaus : VdW corrections, initial TS optimization,
                                                   DFT functionals, gCP
   Ed Valeev                                     : LibInt (2-el integral package), F12 methods
   Garnet Chan, S. Sharma, R. Olivares           : DMRG
   Ulf Ekstrom                                   : XCFun DFT Library
   Mihaly Kallay                                 : mrcc  (arbitrary order and MRCC methods)
   Andreas Klamt, Michael Diedenhofen            : otool_cosmo (COSMO solvation model)
   Frank Weinhold                                : gennbo (NPA and NBO analysis)
   Christopher J. Cramer and Donald G. Truhlar   : smd solvation model


 Your calculation uses the libint2 library for the computation of 2-el integrals
 For citations please refer to: http://libint.valeyev.net

 This ORCA versions uses:
   CBLAS   interface :  Fast vector & matrix operations
   LAPACKE interface :  Fast linear algebra routines
   SCALAPACK package :  Parallel linear algebra routines


Your calculation utilizes the basis: 6-31G
Cite in your paper:
H - He: W.J. Hehre, R. Ditchfield and J.A. Pople, J. Chem. Phys. 56,
Li - Ne: 2257 (1972).  Note: Li and B come from J.D. Dill and J.A.
         Pople, J. Chem. Phys. 62, 2921 (1975).
Na - Ar: M.M. Francl, W.J. Pietro, W.J. Hehre, J.S. Binkley, M.S. Gordon,
         D.J. DeFrees and J.A. Pople, J. Chem. Phys. 77, 3654 (1982)
K  - Zn: V. Rassolov, J.A. Pople, M. Ratner and T.L. Windus, J. Chem. Phys.
         (accepted, 1998)
Note: He and Ne are unpublished basis sets taken from the Gaussian program

Your calculation utilizes diff. fcns from basis: 6-311++G(2d,2p)
Cite in your paper:
H, Li - Ne: R. Krishnan, J.S. Binkley, R. Seeger and J.A. Pople,
            J. Chem. Phys. 72, 650 (1980)
Na - Ar:    A.D. McLean and G.S. Chandler J. Chem. Phys. 72, 5639, (1980).
K  - Ca:    J-P. Blaudeau, M. P. McGrath, L.A. Curtiss and L. Radom,
            J. Chem. Phys. 107, 5016 (1997).
Ga - Kr:    L. A. Curtiss, M. P. McGrath, J-P. Blandeau, N. E. Davis,
            R. C. Binning, Jr. L. Radom, J. Chem. Phys. 103, 6104 (1995).
H - Ar:  R. Krishnan, J.S. Binkley, R. Seeger, J.A. Pople, J. Chem. Phys. 72,650 (1980)
H, Li-Cl: T. Clark, J. Chandrasekhar, P.V.R. Schleyer, J. Comp. Chem. 4, 294 (1983)

================================================================================
                                        WARNINGS
                       Please study these warnings very carefully!
================================================================================
Now building the actual basis set

WARNING: Geometry Optimization
  ===> : Switching off AutoStart
         For restart on a previous wavefunction, please use MOREAD


INFO   : the flag for use of LIBINT has been found!

================================================================================
                                       INPUT FILE
================================================================================
NAME = Test2.inp
|  1> ! RKS B3LYP 6-31+G** NormalSCF Opt NOSOSCF CHELPG PAL8
|  2> 
|  3> *xyz 0 1
|  4> H -275.28975 0.12820 0.00451
|  5> C -267.85173 0.21943 -0.00160
|  6> C -268.28831 1.51706 -0.05525
|  7> C -269.72826 1.64799 -0.06086
|  8> H -267.59118 2.34505 -0.08942
|  9> S -269.14392 -0.86899 0.04351
| 10> C -270.34437 0.38757 -0.00891
| 11> C -270.42634 2.99623 -0.11591
| 12> C -269.49426 4.21413 -0.18106
| 13> H -271.05657 3.09769 0.77579
| 14> H -271.07312 3.01745 -1.00117
| 15> C -270.26794 5.53186 -0.22703
| 16> H -268.85604 4.14424 -1.07101
| 17> H -268.83261 4.22204 0.69431
| 18> C -269.31894 6.71953 -0.29951
| 19> H -270.89727 5.62723 0.66518
| 20> H -270.93169 5.54685 -1.09896
| 21> H -268.65582 6.74566 0.57143
| 22> H -269.88214 7.65733 -0.32590
| 23> H -268.69798 6.67057 -1.20005
| 24> C -271.75507 -0.00909 0.00674
| 25> S -273.06509 1.09837 -0.02545
| 26> C -272.25919 -1.30540 0.04965
| 27> C -273.69221 -1.39941 0.05321
| 28> H -271.61871 -2.17824 0.07709
| 29> C -274.24023 -0.13382 0.01309
| 30> C -274.51461 -2.66320 0.09188
| 31> C -273.70839 -3.96393 0.14939
| 32> H -275.15896 -2.67996 -0.79672
| 33> H -275.17755 -2.61475 0.96559
| 34> C -274.62023 -5.19141 0.17284
| 35> H -273.07285 -3.96786 1.04394
| 36> H -273.04182 -4.02784 -0.71991
| 37> C -273.81477 -6.47992 0.24176
| 38> H -275.24661 -5.20701 -0.72658
| 39> H -275.29250 -5.14115 1.03708
| 40> H -273.14817 -6.57328 -0.62163
| 41> H -274.48380 -7.34608 0.24934
| 42> H -273.20567 -6.51355 1.15082
| 43> C -261.09023 0.39912 -0.11982
| 44> C -261.40925 1.69056 -0.44451
| 45> C -262.83794 1.77532 -0.46391
| 46> H -260.69583 2.47740 -0.64363
| 47> O -262.21396 -0.32426 0.06383
| 48> C -263.29758 0.49715 -0.14161
| 49> C -263.66471 2.99488 -0.76824
| 50> C -262.82530 4.23323 -1.11299
| 51> H -264.29647 3.21852 0.10042
| 52> H -264.33310 2.76937 -1.60853
| 53> C -263.67603 5.46683 -1.40812
| 54> H -262.19556 4.01762 -1.98596
| 55> H -262.14852 4.46196 -0.27955
| 56> C -262.79437 6.66190 -1.74627
| 57> H -264.29651 5.71095 -0.53855
| 58> H -264.35050 5.26630 -2.24805
| 59> H -262.12114 6.90038 -0.91602
| 60> H -263.40717 7.54497 -1.95069
| 61> H -262.18306 6.45995 -2.63219
| 62> C -264.63134 -0.01912 -0.01124
| 63> O -265.78012 0.70407 -0.19354
| 64> C -266.83024 -0.13382 0.01309
| 65> C -264.98256 -1.31867 0.31417
| 66> C -266.40143 -1.40681 0.33144
| 67> H -264.27218 -2.11005 0.51302
| 68> C -267.25882 -2.60039 0.62149
| 69> C -266.47067 -3.86542 0.98246
| 70> H -267.88319 -2.80303 -0.25787
| 71> H -267.93834 -2.35194 1.44656
| 72> C -267.38739 -5.05865 1.25121
| 73> H -265.85452 -3.67591 1.87082
| 74> H -265.78330 -4.11950 0.16537
| 75> C -266.58386 -6.30015 1.61088
| 76> H -265.99162 -6.13542 2.51692
| 77> H -265.90030 -6.57422 0.80062
| 78> H -267.25238 -7.14753 1.79186
| 79> H -267.99556 -5.26891 0.36399
| 80> H -268.07549 -4.82494 2.07153
| 81> C -253.77155 0.21943 -0.00160
| 82> C -254.20813 1.51706 -0.05525
| 83> C -255.64808 1.64799 -0.06086
| 84> H -253.51100 2.34505 -0.08942
| 85> S -255.06374 -0.86899 0.04351
| 86> C -256.26419 0.38757 -0.00891
| 87> C -256.34616 2.99623 -0.11591
| 88> C -255.41408 4.21413 -0.18106
| 89> H -256.97639 3.09769 0.77579
| 90> H -256.99294 3.01745 -1.00117
| 91> C -256.18776 5.53186 -0.22703
| 92> H -254.77586 4.14424 -1.07101
| 93> H -254.75243 4.22204 0.69431
| 94> C -255.23876 6.71953 -0.29951
| 95> H -256.81709 5.62723 0.66518
| 96> H -256.85151 5.54685 -1.09896
| 97> H -254.57564 6.74566 0.57143
| 98> H -255.80196 7.65733 -0.32590
| 99> H -254.61780 6.67057 -1.20005
|100> C -257.67489 -0.00909 0.00674
|101> S -258.98491 1.09837 -0.02545
|102> C -258.17901 -1.30540 0.04965
|103> C -259.61203 -1.39941 0.05321
|104> H -257.53853 -2.17824 0.07709
|105> C -260.16005 -0.13382 0.01309
|106> C -260.43443 -2.66320 0.09188
|107> C -259.62821 -3.96393 0.14939
|108> H -261.07878 -2.67996 -0.79672
|109> H -261.09737 -2.61475 0.96559
|110> C -260.54005 -5.19141 0.17284
|111> H -258.99267 -3.96786 1.04394
|112> H -258.96164 -4.02784 -0.71991
|113> C -259.73459 -6.47992 0.24176
|114> H -261.16643 -5.20701 -0.72658
|115> H -261.21232 -5.14115 1.03708
|116> H -259.06799 -6.57328 -0.62163
|117> H -260.40362 -7.34608 0.24934
|118> H -259.12549 -6.51355 1.15082
|119> C -246.36156 0.21943 -0.00160
|120> C -246.79814 1.51706 -0.05525
|121> C -248.23809 1.64799 -0.06086
|122> H -246.10101 2.34505 -0.08942
|123> S -247.65375 -0.86899 0.04351
|124> C -248.85420 0.38757 -0.00891
|125> C -248.93617 2.99623 -0.11591
|126> C -248.00409 4.21413 -0.18106
|127> H -249.56640 3.09769 0.77579
|128> H -249.58295 3.01745 -1.00117
|129> C -248.77777 5.53186 -0.22703
|130> H -247.36587 4.14424 -1.07101
|131> H -247.34244 4.22204 0.69431
|132> C -247.82877 6.71953 -0.29951
|133> H -249.40710 5.62723 0.66518
|134> H -249.44152 5.54685 -1.09896
|135> H -247.16565 6.74566 0.57143
|136> H -248.39197 7.65733 -0.32590
|137> H -247.20781 6.67057 -1.20005
|138> C -250.26490 -0.00909 0.00674
|139> S -251.57492 1.09837 -0.02545
|140> C -250.76902 -1.30540 0.04965
|141> C -252.20204 -1.39941 0.05321
|142> H -250.12854 -2.17824 0.07709
|143> C -252.75006 -0.13382 0.01309
|144> C -253.02444 -2.66320 0.09188
|145> C -252.21822 -3.96393 0.14939
|146> H -253.66879 -2.67996 -0.79672
|147> H -253.68738 -2.61475 0.96559
|148> C -253.13006 -5.19141 0.17284
|149> H -251.58268 -3.96786 1.04394
|150> H -251.55165 -4.02784 -0.71991
|151> C -252.32460 -6.47992 0.24176
|152> H -253.75644 -5.20701 -0.72658
|153> H -253.80233 -5.14115 1.03708
|154> H -251.65800 -6.57328 -0.62163
|155> H -252.99363 -7.34608 0.24934
|156> H -251.71550 -6.51355 1.15082
|157> C -238.95157 0.21943 -0.00160
|158> C -239.38815 1.51706 -0.05525
|159> C -240.82810 1.64799 -0.06086
|160> H -238.69102 2.34505 -0.08942
|161> S -240.24376 -0.86899 0.04351
|162> C -241.44421 0.38757 -0.00891
|163> C -241.52618 2.99623 -0.11591
|164> C -240.59410 4.21413 -0.18106
|165> H -242.15641 3.09769 0.77579
|166> H -242.17296 3.01745 -1.00117
|167> C -241.36778 5.53186 -0.22703
|168> H -239.95588 4.14424 -1.07101
|169> H -239.93245 4.22204 0.69431
|170> C -240.41878 6.71953 -0.29951
|171> H -241.99711 5.62723 0.66518
|172> H -242.03153 5.54685 -1.09896
|173> H -239.75566 6.74566 0.57143
|174> H -240.98198 7.65733 -0.32590
|175> H -239.79782 6.67057 -1.20005
|176> C -242.85491 -0.00909 0.00674
|177> S -244.16493 1.09837 -0.02545
|178> C -243.35903 -1.30540 0.04965
|179> C -244.79205 -1.39941 0.05321
|180> H -242.71855 -2.17824 0.07709
|181> C -245.34007 -0.13382 0.01309
|182> C -245.61445 -2.66320 0.09188
|183> C -244.80823 -3.96393 0.14939
|184> H -246.25880 -2.67996 -0.79672
|185> H -246.27739 -2.61475 0.96559
|186> C -245.72007 -5.19141 0.17284
|187> H -244.17269 -3.96786 1.04394
|188> H -244.14166 -4.02784 -0.71991
|189> C -244.91461 -6.47992 0.24176
|190> H -246.34645 -5.20701 -0.72658
|191> H -246.39234 -5.14115 1.03708
|192> H -244.24801 -6.57328 -0.62163
|193> H -245.58364 -7.34608 0.24934
|194> H -244.30551 -6.51355 1.15082
|195> C -231.54158 0.21943 -0.00160
|196> C -231.97816 1.51706 -0.05525
|197> C -233.41811 1.64799 -0.06086
|198> H -231.28103 2.34505 -0.08942
|199> S -232.83377 -0.86899 0.04351
|200> C -234.03422 0.38757 -0.00891
|201> C -234.11619 2.99623 -0.11591
|202> C -233.18411 4.21413 -0.18106
|203> H -234.74642 3.09769 0.77579
|204> H -234.76297 3.01745 -1.00117
|205> C -233.95779 5.53186 -0.22703
|206> H -232.54589 4.14424 -1.07101
|207> H -232.52246 4.22204 0.69431
|208> C -233.00879 6.71953 -0.29951
|209> H -234.58712 5.62723 0.66518
|210> H -234.62154 5.54685 -1.09896
|211> H -232.34567 6.74566 0.57143
|212> H -233.57199 7.65733 -0.32590
|213> H -232.38783 6.67057 -1.20005
|214> C -235.44492 -0.00909 0.00674
|215> S -236.75494 1.09837 -0.02545
|216> C -235.94904 -1.30540 0.04965
|217> C -237.38206 -1.39941 0.05321
|218> H -235.30856 -2.17824 0.07709
|219> C -237.93008 -0.13382 0.01309
|220> C -238.20446 -2.66320 0.09188
|221> C -237.39824 -3.96393 0.14939
|222> H -238.84881 -2.67996 -0.79672
|223> H -238.86740 -2.61475 0.96559
|224> C -238.31008 -5.19141 0.17284
|225> H -236.76270 -3.96786 1.04394
|226> H -236.73167 -4.02784 -0.71991
|227> C -237.50462 -6.47992 0.24176
|228> H -238.93646 -5.20701 -0.72658
|229> H -238.98235 -5.14115 1.03708
|230> H -236.83802 -6.57328 -0.62163
|231> H -238.17365 -7.34608 0.24934
|232> H -236.89552 -6.51355 1.15082
|233> C -224.13159 0.21943 -0.00160
|234> C -224.56817 1.51706 -0.05525
|235> C -226.00812 1.64799 -0.06086
|236> H -223.87104 2.34505 -0.08942
|237> S -225.42378 -0.86899 0.04351
|238> C -226.62423 0.38757 -0.00891
|239> C -226.70620 2.99623 -0.11591
|240> C -225.77412 4.21413 -0.18106
|241> H -227.33643 3.09769 0.77579
|242> H -227.35298 3.01745 -1.00117
|243> C -226.54780 5.53186 -0.22703
|244> H -225.13590 4.14424 -1.07101
|245> H -225.11247 4.22204 0.69431
|246> C -225.59880 6.71953 -0.29951
|247> H -227.17713 5.62723 0.66518
|248> H -227.21155 5.54685 -1.09896
|249> H -224.93568 6.74566 0.57143
|250> H -226.16200 7.65733 -0.32590
|251> H -224.97784 6.67057 -1.20005
|252> C -228.03493 -0.00909 0.00674
|253> S -229.34495 1.09837 -0.02545
|254> C -228.53905 -1.30540 0.04965
|255> C -229.97207 -1.39941 0.05321
|256> H -227.89857 -2.17824 0.07709
|257> C -230.52009 -0.13382 0.01309
|258> C -230.79447 -2.66320 0.09188
|259> C -229.98825 -3.96393 0.14939
|260> H -231.43882 -2.67996 -0.79672
|261> H -231.45741 -2.61475 0.96559
|262> C -230.90009 -5.19141 0.17284
|263> H -229.35271 -3.96786 1.04394
|264> H -229.32168 -4.02784 -0.71991
|265> C -230.09463 -6.47992 0.24176
|266> H -231.52647 -5.20701 -0.72658
|267> H -231.57236 -5.14115 1.03708
|268> H -229.42803 -6.57328 -0.62163
|269> H -230.76366 -7.34608 0.24934
|270> H -229.48553 -6.51355 1.15082
|271> C -216.72160 0.21943 -0.00160
|272> C -217.15818 1.51706 -0.05525
|273> C -218.59813 1.64799 -0.06086
|274> H -216.46105 2.34505 -0.08942
|275> S -218.01379 -0.86899 0.04351
|276> C -219.21424 0.38757 -0.00891
|277> C -219.29621 2.99623 -0.11591
|278> C -218.36413 4.21413 -0.18106
|279> H -219.92644 3.09769 0.77579
|280> H -219.94299 3.01745 -1.00117
|281> C -219.13781 5.53186 -0.22703
|282> H -217.72591 4.14424 -1.07101
|283> H -217.70248 4.22204 0.69431
|284> C -218.18881 6.71953 -0.29951
|285> H -219.76714 5.62723 0.66518
|286> H -219.80156 5.54685 -1.09896
|287> H -217.52569 6.74566 0.57143
|288> H -218.75201 7.65733 -0.32590
|289> H -217.56785 6.67057 -1.20005
|290> C -220.62494 -0.00909 0.00674
|291> S -221.93496 1.09837 -0.02545
|292> C -221.12906 -1.30540 0.04965
|293> C -222.56208 -1.39941 0.05321
|294> H -220.48858 -2.17824 0.07709
|295> C -223.11010 -0.13382 0.01309
|296> C -223.38448 -2.66320 0.09188
|297> C -222.57826 -3.96393 0.14939
|298> H -224.02883 -2.67996 -0.79672
|299> H -224.04742 -2.61475 0.96559
|300> C -223.49010 -5.19141 0.17284
|301> H -221.94272 -3.96786 1.04394
|302> H -221.91169 -4.02784 -0.71991
|303> C -222.68464 -6.47992 0.24176
|304> H -224.11648 -5.20701 -0.72658
|305> H -224.16237 -5.14115 1.03708
|306> H -222.01804 -6.57328 -0.62163
|307> H -223.35367 -7.34608 0.24934
|308> H -222.07554 -6.51355 1.15082
|309> C -209.96010 0.39912 -0.11982
|310> C -210.27912 1.69056 -0.44451
|311> C -211.70781 1.77532 -0.46391
|312> H -209.56570 2.47740 -0.64363
|313> O -211.08383 -0.32426 0.06383
|314> C -212.16745 0.49715 -0.14161
|315> C -212.53458 2.99488 -0.76824
|316> C -211.69517 4.23323 -1.11299
|317> H -213.16634 3.21852 0.10042
|318> H -213.20297 2.76937 -1.60853
|319> C -212.54590 5.46683 -1.40812
|320> H -211.06543 4.01762 -1.98596
|321> H -211.01839 4.46196 -0.27955
|322> C -211.66424 6.66190 -1.74627
|323> H -213.16638 5.71095 -0.53855
|324> H -213.22037 5.26630 -2.24805
|325> H -210.99101 6.90038 -0.91602
|326> H -212.27704 7.54497 -1.95069
|327> H -211.05293 6.45995 -2.63219
|328> C -213.50121 -0.01912 -0.01124
|329> O -214.64999 0.70407 -0.19354
|330> C -215.70011 -0.13382 0.01309
|331> C -213.85243 -1.31867 0.31417
|332> C -215.27130 -1.40681 0.33144
|333> H -213.14205 -2.11005 0.51302
|334> C -216.12869 -2.60039 0.62149
|335> C -215.34054 -3.86542 0.98246
|336> H -216.75306 -2.80303 -0.25787
|337> H -216.80821 -2.35194 1.44656
|338> C -216.25726 -5.05865 1.25121
|339> H -214.72439 -3.67591 1.87082
|340> H -214.65317 -4.11950 0.16537
|341> C -215.45373 -6.30015 1.61088
|342> H -214.86149 -6.13542 2.51692
|343> H -214.77017 -6.57422 0.80062
|344> H -216.12225 -7.14753 1.79186
|345> H -216.86543 -5.26891 0.36399
|346> H -216.94536 -4.82494 2.07153
|347> C -203.28991 0.39912 -0.11982
|348> C -203.60893 1.69056 -0.44451
|349> C -205.03762 1.77532 -0.46391
|350> H -202.89551 2.47740 -0.64363
|351> O -204.41364 -0.32426 0.06383
|352> C -205.49726 0.49715 -0.14161
|353> C -205.86439 2.99488 -0.76824
|354> C -205.02498 4.23323 -1.11299
|355> H -206.49615 3.21852 0.10042
|356> H -206.53278 2.76937 -1.60853
|357> C -205.87571 5.46683 -1.40812
|358> H -204.39524 4.01762 -1.98596
|359> H -204.34820 4.46196 -0.27955
|360> C -204.99405 6.66190 -1.74627
|361> H -206.49619 5.71095 -0.53855
|362> H -206.55018 5.26630 -2.24805
|363> H -204.32082 6.90038 -0.91602
|364> H -205.60685 7.54497 -1.95069
|365> H -204.38274 6.45995 -2.63219
|366> C -206.83102 -0.01912 -0.01124
|367> O -207.97980 0.70407 -0.19354
|368> C -209.02992 -0.13382 0.01309
|369> C -207.18224 -1.31867 0.31417
|370> C -208.60111 -1.40681 0.33144
|371> H -206.47186 -2.11005 0.51302
|372> C -209.45850 -2.60039 0.62149
|373> C -208.67035 -3.86542 0.98246
|374> H -210.08287 -2.80303 -0.25787
|375> H -210.13802 -2.35194 1.44656
|376> C -209.58707 -5.05865 1.25121
|377> H -208.05420 -3.67591 1.87082
|378> H -207.98298 -4.11950 0.16537
|379> C -208.78354 -6.30015 1.61088
|380> H -208.19130 -6.13542 2.51692
|381> H -208.09998 -6.57422 0.80062
|382> H -209.45206 -7.14753 1.79186
|383> H -210.19524 -5.26891 0.36399
|384> H -210.27517 -4.82494 2.07153
|385> C -195.97123 0.21943 -0.00160
|386> C -196.40781 1.51706 -0.05525
|387> C -197.84776 1.64799 -0.06086
|388> H -195.71068 2.34505 -0.08942
|389> S -197.26342 -0.86899 0.04351
|390> C -198.46387 0.38757 -0.00891
|391> C -198.54584 2.99623 -0.11591
|392> C -197.61376 4.21413 -0.18106
|393> H -199.17607 3.09769 0.77579
|394> H -199.19262 3.01745 -1.00117
|395> C -198.38744 5.53186 -0.22703
|396> H -196.97554 4.14424 -1.07101
|397> H -196.95211 4.22204 0.69431
|398> C -197.43844 6.71953 -0.29951
|399> H -199.01677 5.62723 0.66518
|400> H -199.05119 5.54685 -1.09896
|401> H -196.77532 6.74566 0.57143
|402> H -198.00164 7.65733 -0.32590
|403> H -196.81748 6.67057 -1.20005
|404> C -199.87457 -0.00909 0.00674
|405> S -201.18459 1.09837 -0.02545
|406> C -200.37869 -1.30540 0.04965
|407> C -201.81171 -1.39941 0.05321
|408> H -199.73821 -2.17824 0.07709
|409> C -202.35973 -0.13382 0.01309
|410> C -202.63411 -2.66320 0.09188
|411> C -201.82789 -3.96393 0.14939
|412> H -203.27846 -2.67996 -0.79672
|413> H -203.29705 -2.61475 0.96559
|414> C -202.73973 -5.19141 0.17284
|415> H -201.19235 -3.96786 1.04394
|416> H -201.16132 -4.02784 -0.71991
|417> C -201.93427 -6.47992 0.24176
|418> H -203.36611 -5.20701 -0.72658
|419> H -203.41200 -5.14115 1.03708
|420> H -201.26767 -6.57328 -0.62163
|421> H -202.60330 -7.34608 0.24934
|422> H -201.32517 -6.51355 1.15082
|423> C -188.56124 0.21943 -0.00160
|424> C -188.99782 1.51706 -0.05525
|425> C -190.43777 1.64799 -0.06086
|426> H -188.30069 2.34505 -0.08942
|427> S -189.85343 -0.86899 0.04351
|428> C -191.05388 0.38757 -0.00891
|429> C -191.13585 2.99623 -0.11591
|430> C -190.20377 4.21413 -0.18106
|431> H -191.76608 3.09769 0.77579
|432> H -191.78263 3.01745 -1.00117
|433> C -190.97745 5.53186 -0.22703
|434> H -189.56555 4.14424 -1.07101
|435> H -189.54212 4.22204 0.69431
|436> C -190.02845 6.71953 -0.29951
|437> H -191.60678 5.62723 0.66518
|438> H -191.64120 5.54685 -1.09896
|439> H -189.36533 6.74566 0.57143
|440> H -190.59165 7.65733 -0.32590
|441> H -189.40749 6.67057 -1.20005
|442> C -192.46458 -0.00909 0.00674
|443> S -193.77460 1.09837 -0.02545
|444> C -192.96870 -1.30540 0.04965
|445> C -194.40172 -1.39941 0.05321
|446> H -192.32822 -2.17824 0.07709
|447> C -194.94974 -0.13382 0.01309
|448> C -195.22412 -2.66320 0.09188
|449> C -194.41790 -3.96393 0.14939
|450> H -195.86847 -2.67996 -0.79672
|451> H -195.88706 -2.61475 0.96559
|452> C -195.32974 -5.19141 0.17284
|453> H -193.78236 -3.96786 1.04394
|454> H -193.75133 -4.02784 -0.71991
|455> C -194.52428 -6.47992 0.24176
|456> H -195.95612 -5.20701 -0.72658
|457> H -196.00201 -5.14115 1.03708
|458> H -193.85768 -6.57328 -0.62163
|459> H -195.19331 -7.34608 0.24934
|460> H -193.91518 -6.51355 1.15082
|461> C -181.15125 0.21943 -0.00160
|462> C -181.58783 1.51706 -0.05525
|463> C -183.02778 1.64799 -0.06086
|464> H -180.89070 2.34505 -0.08942
|465> S -182.44344 -0.86899 0.04351
|466> C -183.64389 0.38757 -0.00891
|467> C -183.72586 2.99623 -0.11591
|468> C -182.79378 4.21413 -0.18106
|469> H -184.35609 3.09769 0.77579
|470> H -184.37264 3.01745 -1.00117
|471> C -183.56746 5.53186 -0.22703
|472> H -182.15556 4.14424 -1.07101
|473> H -182.13213 4.22204 0.69431
|474> C -182.61846 6.71953 -0.29951
|475> H -184.19679 5.62723 0.66518
|476> H -184.23121 5.54685 -1.09896
|477> H -181.95534 6.74566 0.57143
|478> H -183.18166 7.65733 -0.32590
|479> H -181.99750 6.67057 -1.20005
|480> C -185.05459 -0.00909 0.00674
|481> S -186.36461 1.09837 -0.02545
|482> C -185.55871 -1.30540 0.04965
|483> C -186.99173 -1.39941 0.05321
|484> H -184.91823 -2.17824 0.07709
|485> C -187.53975 -0.13382 0.01309
|486> C -187.81413 -2.66320 0.09188
|487> C -187.00791 -3.96393 0.14939
|488> H -188.45848 -2.67996 -0.79672
|489> H -188.47707 -2.61475 0.96559
|490> C -187.91975 -5.19141 0.17284
|491> H -186.37237 -3.96786 1.04394
|492> H -186.34134 -4.02784 -0.71991
|493> C -187.11429 -6.47992 0.24176
|494> H -188.54613 -5.20701 -0.72658
|495> H -188.59202 -5.14115 1.03708
|496> H -186.44769 -6.57328 -0.62163
|497> H -187.78332 -7.34608 0.24934
|498> H -186.50519 -6.51355 1.15082
|499> C -173.74126 0.21943 -0.00160
|500> C -174.17784 1.51706 -0.05525
|501> C -175.61779 1.64799 -0.06086
|502> H -173.48071 2.34505 -0.08942
|503> S -175.03345 -0.86899 0.04351
|504> C -176.23390 0.38757 -0.00891
|505> C -176.31587 2.99623 -0.11591
|506> C -175.38379 4.21413 -0.18106
|507> H -176.94610 3.09769 0.77579
|508> H -176.96265 3.01745 -1.00117
|509> C -176.15747 5.53186 -0.22703
|510> H -174.74557 4.14424 -1.07101
|511> H -174.72214 4.22204 0.69431
|512> C -175.20847 6.71953 -0.29951
|513> H -176.78680 5.62723 0.66518
|514> H -176.82122 5.54685 -1.09896
|515> H -174.54535 6.74566 0.57143
|516> H -175.77167 7.65733 -0.32590
|517> H -174.58751 6.67057 -1.20005
|518> C -177.64460 -0.00909 0.00674
|519> S -178.95462 1.09837 -0.02545
|520> C -178.14872 -1.30540 0.04965
|521> C -179.58174 -1.39941 0.05321
|522> H -177.50824 -2.17824 0.07709
|523> C -180.12976 -0.13382 0.01309
|524> C -180.40414 -2.66320 0.09188
|525> C -179.59792 -3.96393 0.14939
|526> H -181.04849 -2.67996 -0.79672
|527> H -181.06708 -2.61475 0.96559
|528> C -180.50976 -5.19141 0.17284
|529> H -178.96238 -3.96786 1.04394
|530> H -178.93135 -4.02784 -0.71991
|531> C -179.70430 -6.47992 0.24176
|532> H -181.13614 -5.20701 -0.72658
|533> H -181.18203 -5.14115 1.03708
|534> H -179.03770 -6.57328 -0.62163
|535> H -180.37333 -7.34608 0.24934
|536> H -179.09520 -6.51355 1.15082
|537> C -166.33127 0.21943 -0.00160
|538> C -166.76785 1.51706 -0.05525
|539> C -168.20780 1.64799 -0.06086
|540> H -166.07072 2.34505 -0.08942
|541> S -167.62346 -0.86899 0.04351
|542> C -168.82391 0.38757 -0.00891
|543> C -168.90588 2.99623 -0.11591
|544> C -167.97380 4.21413 -0.18106
|545> H -169.53611 3.09769 0.77579
|546> H -169.55266 3.01745 -1.00117
|547> C -168.74748 5.53186 -0.22703
|548> H -167.33558 4.14424 -1.07101
|549> H -167.31215 4.22204 0.69431
|550> C -167.79848 6.71953 -0.29951
|551> H -169.37681 5.62723 0.66518
|552> H -169.41123 5.54685 -1.09896
|553> H -167.13536 6.74566 0.57143
|554> H -168.36168 7.65733 -0.32590
|555> H -167.17752 6.67057 -1.20005
|556> C -170.23461 -0.00909 0.00674
|557> S -171.54463 1.09837 -0.02545
|558> C -170.73873 -1.30540 0.04965
|559> C -172.17175 -1.39941 0.05321
|560> H -170.09825 -2.17824 0.07709
|561> C -172.71977 -0.13382 0.01309
|562> C -172.99415 -2.66320 0.09188
|563> C -172.18793 -3.96393 0.14939
|564> H -173.63850 -2.67996 -0.79672
|565> H -173.65709 -2.61475 0.96559
|566> C -173.09977 -5.19141 0.17284
|567> H -171.55239 -3.96786 1.04394
|568> H -171.52136 -4.02784 -0.71991
|569> C -172.29431 -6.47992 0.24176
|570> H -173.72615 -5.20701 -0.72658
|571> H -173.77204 -5.14115 1.03708
|572> H -171.62771 -6.57328 -0.62163
|573> H -172.96334 -7.34608 0.24934
|574> H -171.68521 -6.51355 1.15082
|575> C -158.92128 0.21943 -0.00160
|576> C -159.35786 1.51706 -0.05525
|577> C -160.79781 1.64799 -0.06086
|578> H -158.66073 2.34505 -0.08942
|579> S -160.21347 -0.86899 0.04351
|580> C -161.41392 0.38757 -0.00891
|581> C -161.49589 2.99623 -0.11591
|582> C -160.56381 4.21413 -0.18106
|583> H -162.12612 3.09769 0.77579
|584> H -162.14267 3.01745 -1.00117
|585> C -161.33749 5.53186 -0.22703
|586> H -159.92559 4.14424 -1.07101
|587> H -159.90216 4.22204 0.69431
|588> C -160.38849 6.71953 -0.29951
|589> H -161.96682 5.62723 0.66518
|590> H -162.00124 5.54685 -1.09896
|591> H -159.72537 6.74566 0.57143
|592> H -160.95169 7.65733 -0.32590
|593> H -159.76753 6.67057 -1.20005
|594> C -162.82462 -0.00909 0.00674
|595> S -164.13464 1.09837 -0.02545
|596> C -163.32874 -1.30540 0.04965
|597> C -164.76176 -1.39941 0.05321
|598> H -162.68826 -2.17824 0.07709
|599> C -165.30978 -0.13382 0.01309
|600> C -165.58416 -2.66320 0.09188
|601> C -164.77794 -3.96393 0.14939
|602> H -166.22851 -2.67996 -0.79672
|603> H -166.24710 -2.61475 0.96559
|604> C -165.68978 -5.19141 0.17284
|605> H -164.14240 -3.96786 1.04394
|606> H -164.11137 -4.02784 -0.71991
|607> C -164.88432 -6.47992 0.24176
|608> H -166.31616 -5.20701 -0.72658
|609> H -166.36205 -5.14115 1.03708
|610> H -164.21772 -6.57328 -0.62163
|611> H -165.55335 -7.34608 0.24934
|612> H -164.27522 -6.51355 1.15082
|613> C -151.51129 0.21943 -0.00160
|614> C -151.94787 1.51706 -0.05525
|615> C -153.38782 1.64799 -0.06086
|616> H -151.25074 2.34505 -0.08942
|617> S -152.80348 -0.86899 0.04351
|618> C -154.00393 0.38757 -0.00891
|619> C -154.08590 2.99623 -0.11591
|620> C -153.15382 4.21413 -0.18106
|621> H -154.71613 3.09769 0.77579
|622> H -154.73268 3.01745 -1.00117
|623> C -153.92750 5.53186 -0.22703
|624> H -152.51560 4.14424 -1.07101
|625> H -152.49217 4.22204 0.69431
|626> C -152.97850 6.71953 -0.29951
|627> H -154.55683 5.62723 0.66518
|628> H -154.59125 5.54685 -1.09896
|629> H -152.31538 6.74566 0.57143
|630> H -153.54170 7.65733 -0.32590
|631> H -152.35754 6.67057 -1.20005
|632> C -155.41463 -0.00909 0.00674
|633> S -156.72465 1.09837 -0.02545
|634> C -155.91875 -1.30540 0.04965
|635> C -157.35177 -1.39941 0.05321
|636> H -155.27827 -2.17824 0.07709
|637> C -157.89979 -0.13382 0.01309
|638> C -158.17417 -2.66320 0.09188
|639> C -157.36795 -3.96393 0.14939
|640> H -158.81852 -2.67996 -0.79672
|641> H -158.83711 -2.61475 0.96559
|642> C -158.27979 -5.19141 0.17284
|643> H -156.73241 -3.96786 1.04394
|644> H -156.70138 -4.02784 -0.71991
|645> C -157.47433 -6.47992 0.24176
|646> H -158.90617 -5.20701 -0.72658
|647> H -158.95206 -5.14115 1.03708
|648> H -156.80773 -6.57328 -0.62163
|649> H -158.14336 -7.34608 0.24934
|650> H -156.86523 -6.51355 1.15082
|651> C -144.10130 0.21943 -0.00160
|652> C -144.53788 1.51706 -0.05525
|653> C -145.97783 1.64799 -0.06086
|654> H -143.84075 2.34505 -0.08942
|655> S -145.39349 -0.86899 0.04351
|656> C -146.59394 0.38757 -0.00891
|657> C -146.67591 2.99623 -0.11591
|658> C -145.74383 4.21413 -0.18106
|659> H -147.30614 3.09769 0.77579
|660> H -147.32269 3.01745 -1.00117
|661> C -146.51751 5.53186 -0.22703
|662> H -145.10561 4.14424 -1.07101
|663> H -145.08218 4.22204 0.69431
|664> C -145.56851 6.71953 -0.29951
|665> H -147.14684 5.62723 0.66518
|666> H -147.18126 5.54685 -1.09896
|667> H -144.90539 6.74566 0.57143
|668> H -146.13171 7.65733 -0.32590
|669> H -144.94755 6.67057 -1.20005
|670> C -148.00464 -0.00909 0.00674
|671> S -149.31466 1.09837 -0.02545
|672> C -148.50876 -1.30540 0.04965
|673> C -149.94178 -1.39941 0.05321
|674> H -147.86828 -2.17824 0.07709
|675> C -150.48980 -0.13382 0.01309
|676> C -150.76418 -2.66320 0.09188
|677> C -149.95796 -3.96393 0.14939
|678> H -151.40853 -2.67996 -0.79672
|679> H -151.42712 -2.61475 0.96559
|680> C -150.86980 -5.19141 0.17284
|681> H -149.32242 -3.96786 1.04394
|682> H -149.29139 -4.02784 -0.71991
|683> C -150.06434 -6.47992 0.24176
|684> H -151.49618 -5.20701 -0.72658
|685> H -151.54207 -5.14115 1.03708
|686> H -149.39774 -6.57328 -0.62163
|687> H -150.73337 -7.34608 0.24934
|688> H -149.45524 -6.51355 1.15082
|689> C -136.69131 0.21943 -0.00160
|690> C -137.12789 1.51706 -0.05525
|691> C -138.56784 1.64799 -0.06086
|692> H -136.43076 2.34505 -0.08942
|693> S -137.98350 -0.86899 0.04351
|694> C -139.18395 0.38757 -0.00891
|695> C -139.26592 2.99623 -0.11591
|696> C -138.33384 4.21413 -0.18106
|697> H -139.89615 3.09769 0.77579
|698> H -139.91270 3.01745 -1.00117
|699> C -139.10752 5.53186 -0.22703
|700> H -137.69562 4.14424 -1.07101
|701> H -137.67219 4.22204 0.69431
|702> C -138.15852 6.71953 -0.29951
|703> H -139.73685 5.62723 0.66518
|704> H -139.77127 5.54685 -1.09896
|705> H -137.49540 6.74566 0.57143
|706> H -138.72172 7.65733 -0.32590
|707> H -137.53756 6.67057 -1.20005
|708> C -140.59465 -0.00909 0.00674
|709> S -141.90467 1.09837 -0.02545
|710> C -141.09877 -1.30540 0.04965
|711> C -142.53179 -1.39941 0.05321
|712> H -140.45829 -2.17824 0.07709
|713> C -143.07981 -0.13382 0.01309
|714> C -143.35419 -2.66320 0.09188
|715> C -142.54797 -3.96393 0.14939
|716> H -143.99854 -2.67996 -0.79672
|717> H -144.01713 -2.61475 0.96559
|718> C -143.45981 -5.19141 0.17284
|719> H -141.91243 -3.96786 1.04394
|720> H -141.88140 -4.02784 -0.71991
|721> C -142.65435 -6.47992 0.24176
|722> H -144.08619 -5.20701 -0.72658
|723> H -144.13208 -5.14115 1.03708
|724> H -141.98775 -6.57328 -0.62163
|725> H -143.32338 -7.34608 0.24934
|726> H -142.04525 -6.51355 1.15082
|727> C -129.28132 0.21943 -0.00160
|728> C -129.71790 1.51706 -0.05525
|729> C -131.15785 1.64799 -0.06086
|730> H -129.02077 2.34505 -0.08942
|731> S -130.57351 -0.86899 0.04351
|732> C -131.77396 0.38757 -0.00891
|733> C -131.85593 2.99623 -0.11591
|734> C -130.92385 4.21413 -0.18106
|735> H -132.48616 3.09769 0.77579
|736> H -132.50271 3.01745 -1.00117
|737> C -131.69753 5.53186 -0.22703
|738> H -130.28563 4.14424 -1.07101
|739> H -130.26220 4.22204 0.69431
|740> C -130.74853 6.71953 -0.29951
|741> H -132.32686 5.62723 0.66518
|742> H -132.36128 5.54685 -1.09896
|743> H -130.08541 6.74566 0.57143
|744> H -131.31173 7.65733 -0.32590
|745> H -130.12757 6.67057 -1.20005
|746> C -133.18466 -0.00909 0.00674
|747> S -134.49468 1.09837 -0.02545
|748> C -133.68878 -1.30540 0.04965
|749> C -135.12180 -1.39941 0.05321
|750> H -133.04830 -2.17824 0.07709
|751> C -135.66982 -0.13382 0.01309
|752> C -135.94420 -2.66320 0.09188
|753> C -135.13798 -3.96393 0.14939
|754> H -136.58855 -2.67996 -0.79672
|755> H -136.60714 -2.61475 0.96559
|756> C -136.04982 -5.19141 0.17284
|757> H -134.50244 -3.96786 1.04394
|758> H -134.47141 -4.02784 -0.71991
|759> C -135.24436 -6.47992 0.24176
|760> H -136.67620 -5.20701 -0.72658
|761> H -136.72209 -5.14115 1.03708
|762> H -134.57776 -6.57328 -0.62163
|763> H -135.91339 -7.34608 0.24934
|764> H -134.63526 -6.51355 1.15082
|765> C -122.51982 0.39912 -0.11982
|766> C -122.83884 1.69056 -0.44451
|767> C -124.26753 1.77532 -0.46391
|768> H -122.12542 2.47740 -0.64363
|769> O -123.64355 -0.32426 0.06383
|770> C -124.72717 0.49715 -0.14161
|771> C -125.09430 2.99488 -0.76824
|772> C -124.25489 4.23323 -1.11299
|773> H -125.72606 3.21852 0.10042
|774> H -125.76269 2.76937 -1.60853
|775> C -125.10562 5.46683 -1.40812
|776> H -123.62515 4.01762 -1.98596
|777> H -123.57811 4.46196 -0.27955
|778> C -124.22396 6.66190 -1.74627
|779> H -125.72610 5.71095 -0.53855
|780> H -125.78009 5.26630 -2.24805
|781> H -123.55073 6.90038 -0.91602
|782> H -124.83676 7.54497 -1.95069
|783> H -123.61265 6.45995 -2.63219
|784> C -126.06093 -0.01912 -0.01124
|785> O -127.20971 0.70407 -0.19354
|786> C -128.25983 -0.13382 0.01309
|787> C -126.41215 -1.31867 0.31417
|788> C -127.83102 -1.40681 0.33144
|789> H -125.70177 -2.11005 0.51302
|790> C -128.68841 -2.60039 0.62149
|791> C -127.90026 -3.86542 0.98246
|792> H -129.31278 -2.80303 -0.25787
|793> H -129.36793 -2.35194 1.44656
|794> C -128.81698 -5.05865 1.25121
|795> H -127.28411 -3.67591 1.87082
|796> H -127.21289 -4.11950 0.16537
|797> C -128.01345 -6.30015 1.61088
|798> H -127.42121 -6.13542 2.51692
|799> H -127.32989 -6.57422 0.80062
|800> H -128.68197 -7.14753 1.79186
|801> H -129.42515 -5.26891 0.36399
|802> H -129.50508 -4.82494 2.07153
|803> C -115.20114 0.21943 -0.00160
|804> C -115.63772 1.51706 -0.05525
|805> C -117.07767 1.64799 -0.06086
|806> H -114.94059 2.34505 -0.08942
|807> S -116.49333 -0.86899 0.04351
|808> C -117.69378 0.38757 -0.00891
|809> C -117.77575 2.99623 -0.11591
|810> C -116.84367 4.21413 -0.18106
|811> H -118.40598 3.09769 0.77579
|812> H -118.42253 3.01745 -1.00117
|813> C -117.61735 5.53186 -0.22703
|814> H -116.20545 4.14424 -1.07101
|815> H -116.18202 4.22204 0.69431
|816> C -116.66835 6.71953 -0.29951
|817> H -118.24668 5.62723 0.66518
|818> H -118.28110 5.54685 -1.09896
|819> H -116.00523 6.74566 0.57143
|820> H -117.23155 7.65733 -0.32590
|821> H -116.04739 6.67057 -1.20005
|822> C -119.10448 -0.00909 0.00674
|823> S -120.41450 1.09837 -0.02545
|824> C -119.60860 -1.30540 0.04965
|825> C -121.04162 -1.39941 0.05321
|826> H -118.96812 -2.17824 0.07709
|827> C -121.58964 -0.13382 0.01309
|828> C -121.86402 -2.66320 0.09188
|829> C -121.05780 -3.96393 0.14939
|830> H -122.50837 -2.67996 -0.79672
|831> H -122.52696 -2.61475 0.96559
|832> C -121.96964 -5.19141 0.17284
|833> H -120.42226 -3.96786 1.04394
|834> H -120.39123 -4.02784 -0.71991
|835> C -121.16418 -6.47992 0.24176
|836> H -122.59602 -5.20701 -0.72658
|837> H -122.64191 -5.14115 1.03708
|838> H -120.49758 -6.57328 -0.62163
|839> H -121.83321 -7.34608 0.24934
|840> H -120.55508 -6.51355 1.15082
|841> C -107.79115 0.21943 -0.00160
|842> C -108.22773 1.51706 -0.05525
|843> C -109.66768 1.64799 -0.06086
|844> H -107.53060 2.34505 -0.08942
|845> S -109.08334 -0.86899 0.04351
|846> C -110.28379 0.38757 -0.00891
|847> C -110.36576 2.99623 -0.11591
|848> C -109.43368 4.21413 -0.18106
|849> H -110.99599 3.09769 0.77579
|850> H -111.01254 3.01745 -1.00117
|851> C -110.20736 5.53186 -0.22703
|852> H -108.79546 4.14424 -1.07101
|853> H -108.77203 4.22204 0.69431
|854> C -109.25836 6.71953 -0.29951
|855> H -110.83669 5.62723 0.66518
|856> H -110.87111 5.54685 -1.09896
|857> H -108.59524 6.74566 0.57143
|858> H -109.82156 7.65733 -0.32590
|859> H -108.63740 6.67057 -1.20005
|860> C -111.69449 -0.00909 0.00674
|861> S -113.00451 1.09837 -0.02545
|862> C -112.19861 -1.30540 0.04965
|863> C -113.63163 -1.39941 0.05321
|864> H -111.55813 -2.17824 0.07709
|865> C -114.17965 -0.13382 0.01309
|866> C -114.45403 -2.66320 0.09188
|867> C -113.64781 -3.96393 0.14939
|868> H -115.09838 -2.67996 -0.79672
|869> H -115.11697 -2.61475 0.96559
|870> C -114.55965 -5.19141 0.17284
|871> H -113.01227 -3.96786 1.04394
|872> H -112.98124 -4.02784 -0.71991
|873> C -113.75419 -6.47992 0.24176
|874> H -115.18603 -5.20701 -0.72658
|875> H -115.23192 -5.14115 1.03708
|876> H -113.08759 -6.57328 -0.62163
|877> H -114.42322 -7.34608 0.24934
|878> H -113.14509 -6.51355 1.15082
|879> C -100.38116 0.21943 -0.00160
|880> C -100.81774 1.51706 -0.05525
|881> C -102.25769 1.64799 -0.06086
|882> H -100.12061 2.34505 -0.08942
|883> S -101.67335 -0.86899 0.04351
|884> C -102.87380 0.38757 -0.00891
|885> C -102.95577 2.99623 -0.11591
|886> C -102.02369 4.21413 -0.18106
|887> H -103.58600 3.09769 0.77579
|888> H -103.60255 3.01745 -1.00117
|889> C -102.79737 5.53186 -0.22703
|890> H -101.38547 4.14424 -1.07101
|891> H -101.36204 4.22204 0.69431
|892> C -101.84837 6.71953 -0.29951
|893> H -103.42670 5.62723 0.66518
|894> H -103.46112 5.54685 -1.09896
|895> H -101.18525 6.74566 0.57143
|896> H -102.41157 7.65733 -0.32590
|897> H -101.22741 6.67057 -1.20005
|898> C -104.28450 -0.00909 0.00674
|899> S -105.59452 1.09837 -0.02545
|900> C -104.78862 -1.30540 0.04965
|901> C -106.22164 -1.39941 0.05321
|902> H -104.14814 -2.17824 0.07709
|903> C -106.76966 -0.13382 0.01309
|904> C -107.04404 -2.66320 0.09188
|905> C -106.23782 -3.96393 0.14939
|906> H -107.68839 -2.67996 -0.79672
|907> H -107.70698 -2.61475 0.96559
|908> C -107.14966 -5.19141 0.17284
|909> H -105.60228 -3.96786 1.04394
|910> H -105.57125 -4.02784 -0.71991
|911> C -106.34420 -6.47992 0.24176
|912> H -107.77604 -5.20701 -0.72658
|913> H -107.82193 -5.14115 1.03708
|914> H -105.67760 -6.57328 -0.62163
|915> H -107.01323 -7.34608 0.24934
|916> H -105.73510 -6.51355 1.15082
|917> C -92.97117 0.21943 -0.00160
|918> C -93.40775 1.51706 -0.05525
|919> C -94.84770 1.64799 -0.06086
|920> H -92.71062 2.34505 -0.08942
|921> S -94.26336 -0.86899 0.04351
|922> C -95.46381 0.38757 -0.00891
|923> C -95.54578 2.99623 -0.11591
|924> C -94.61370 4.21413 -0.18106
|925> H -96.17601 3.09769 0.77579
|926> H -96.19256 3.01745 -1.00117
|927> C -95.38738 5.53186 -0.22703
|928> H -93.97548 4.14424 -1.07101
|929> H -93.95205 4.22204 0.69431
|930> C -94.43838 6.71953 -0.29951
|931> H -96.01671 5.62723 0.66518
|932> H -96.05113 5.54685 -1.09896
|933> H -93.77526 6.74566 0.57143
|934> H -95.00158 7.65733 -0.32590
|935> H -93.81742 6.67057 -1.20005
|936> C -96.87451 -0.00909 0.00674
|937> S -98.18453 1.09837 -0.02545
|938> C -97.37863 -1.30540 0.04965
|939> C -98.81165 -1.39941 0.05321
|940> H -96.73815 -2.17824 0.07709
|941> C -99.35967 -0.13382 0.01309
|942> C -99.63405 -2.66320 0.09188
|943> C -98.82783 -3.96393 0.14939
|944> H -100.27840 -2.67996 -0.79672
|945> H -100.29699 -2.61475 0.96559
|946> C -99.73967 -5.19141 0.17284
|947> H -98.19229 -3.96786 1.04394
|948> H -98.16126 -4.02784 -0.71991
|949> C -98.93421 -6.47992 0.24176
|950> H -100.36605 -5.20701 -0.72658
|951> H -100.41194 -5.14115 1.03708
|952> H -98.26761 -6.57328 -0.62163
|953> H -99.60324 -7.34608 0.24934
|954> H -98.32511 -6.51355 1.15082
|955> C -85.56118 0.21943 -0.00160
|956> C -85.99776 1.51706 -0.05525
|957> C -87.43771 1.64799 -0.06086
|958> H -85.30063 2.34505 -0.08942
|959> S -86.85337 -0.86899 0.04351
|960> C -88.05382 0.38757 -0.00891
|961> C -88.13579 2.99623 -0.11591
|962> C -87.20371 4.21413 -0.18106
|963> H -88.76602 3.09769 0.77579
|964> H -88.78257 3.01745 -1.00117
|965> C -87.97739 5.53186 -0.22703
|966> H -86.56549 4.14424 -1.07101
|967> H -86.54206 4.22204 0.69431
|968> C -87.02839 6.71953 -0.29951
|969> H -88.60672 5.62723 0.66518
|970> H -88.64114 5.54685 -1.09896
|971> H -86.36527 6.74566 0.57143
|972> H -87.59159 7.65733 -0.32590
|973> H -86.40743 6.67057 -1.20005
|974> C -89.46452 -0.00909 0.00674
|975> S -90.77454 1.09837 -0.02545
|976> C -89.96864 -1.30540 0.04965
|977> C -91.40166 -1.39941 0.05321
|978> H -89.32816 -2.17824 0.07709
|979> C -91.94968 -0.13382 0.01309
|980> C -92.22406 -2.66320 0.09188
|981> C -91.41784 -3.96393 0.14939
|982> H -92.86841 -2.67996 -0.79672
|983> H -92.88700 -2.61475 0.96559
|984> C -92.32968 -5.19141 0.17284
|985> H -90.78230 -3.96786 1.04394
|986> H -90.75127 -4.02784 -0.71991
|987> C -91.52422 -6.47992 0.24176
|988> H -92.95606 -5.20701 -0.72658
|989> H -93.00195 -5.14115 1.03708
|990> H -90.85762 -6.57328 -0.62163
|991> H -92.19325 -7.34608 0.24934
|992> H -90.91512 -6.51355 1.15082
|993> C -78.79968 0.39912 -0.11982
|994> C -79.11870 1.69056 -0.44451
|995> C -80.54739 1.77532 -0.46391
|996> H -78.40528 2.47740 -0.64363
|997> O -79.92341 -0.32426 0.06383
|998> C -81.00703 0.49715 -0.14161
|999> C -81.37416 2.99488 -0.76824
|1000> C -80.53475 4.23323 -1.11299
|1001> H -82.00592 3.21852 0.10042
|1002> H -82.04255 2.76937 -1.60853
|1003> C -81.38548 5.46683 -1.40812
|1004> H -79.90501 4.01762 -1.98596
|1005> H -79.85797 4.46196 -0.27955
|1006> C -80.50382 6.66190 -1.74627
|1007> H -82.00596 5.71095 -0.53855
|1008> H -82.05995 5.26630 -2.24805
|1009> H -79.83059 6.90038 -0.91602
|1010> H -81.11662 7.54497 -1.95069
|1011> H -79.89251 6.45995 -2.63219
|1012> C -82.34079 -0.01912 -0.01124
|1013> O -83.48957 0.70407 -0.19354
|1014> C -84.53969 -0.13382 0.01309
|1015> C -82.69201 -1.31867 0.31417
|1016> C -84.11088 -1.40681 0.33144
|1017> H -81.98163 -2.11005 0.51302
|1018> C -84.96827 -2.60039 0.62149
|1019> C -84.18012 -3.86542 0.98246
|1020> H -85.59264 -2.80303 -0.25787
|1021> H -85.64779 -2.35194 1.44656
|1022> C -85.09684 -5.05865 1.25121
|1023> H -83.56397 -3.67591 1.87082
|1024> H -83.49275 -4.11950 0.16537
|1025> C -84.29331 -6.30015 1.61088
|1026> H -83.70107 -6.13542 2.51692
|1027> H -83.60975 -6.57422 0.80062
|1028> H -84.96183 -7.14753 1.79186
|1029> H -85.70501 -5.26891 0.36399
|1030> H -85.78494 -4.82494 2.07153
|1031> C -71.48100 0.21943 -0.00160
|1032> C -71.91758 1.51706 -0.05525
|1033> C -73.35753 1.64799 -0.06086
|1034> H -71.22045 2.34505 -0.08942
|1035> S -72.77319 -0.86899 0.04351
|1036> C -73.97364 0.38757 -0.00891
|1037> C -74.05561 2.99623 -0.11591
|1038> C -73.12353 4.21413 -0.18106
|1039> H -74.68584 3.09769 0.77579
|1040> H -74.70239 3.01745 -1.00117
|1041> C -73.89721 5.53186 -0.22703
|1042> H -72.48531 4.14424 -1.07101
|1043> H -72.46188 4.22204 0.69431
|1044> C -72.94821 6.71953 -0.29951
|1045> H -74.52654 5.62723 0.66518
|1046> H -74.56096 5.54685 -1.09896
|1047> H -72.28509 6.74566 0.57143
|1048> H -73.51141 7.65733 -0.32590
|1049> H -72.32725 6.67057 -1.20005
|1050> C -75.38434 -0.00909 0.00674
|1051> S -76.69436 1.09837 -0.02545
|1052> C -75.88846 -1.30540 0.04965
|1053> C -77.32148 -1.39941 0.05321
|1054> H -75.24798 -2.17824 0.07709
|1055> C -77.86950 -0.13382 0.01309
|1056> C -78.14388 -2.66320 0.09188
|1057> C -77.33766 -3.96393 0.14939
|1058> H -78.78823 -2.67996 -0.79672
|1059> H -78.80682 -2.61475 0.96559
|1060> C -78.24950 -5.19141 0.17284
|1061> H -76.70212 -3.96786 1.04394
|1062> H -76.67109 -4.02784 -0.71991
|1063> C -77.44404 -6.47992 0.24176
|1064> H -78.87588 -5.20701 -0.72658
|1065> H -78.92177 -5.14115 1.03708
|1066> H -76.77744 -6.57328 -0.62163
|1067> H -78.11307 -7.34608 0.24934
|1068> H -76.83494 -6.51355 1.15082
|1069> C -64.07101 0.21943 -0.00160
|1070> C -64.50759 1.51706 -0.05525
|1071> C -65.94754 1.64799 -0.06086
|1072> H -63.81046 2.34505 -0.08942
|1073> S -65.36320 -0.86899 0.04351
|1074> C -66.56365 0.38757 -0.00891
|1075> C -66.64562 2.99623 -0.11591
|1076> C -65.71354 4.21413 -0.18106
|1077> H -67.27585 3.09769 0.77579
|1078> H -67.29240 3.01745 -1.00117
|1079> C -66.48722 5.53186 -0.22703
|1080> H -65.07532 4.14424 -1.07101
|1081> H -65.05189 4.22204 0.69431
|1082> C -65.53822 6.71953 -0.29951
|1083> H -67.11655 5.62723 0.66518
|1084> H -67.15097 5.54685 -1.09896
|1085> H -64.87510 6.74566 0.57143
|1086> H -66.10142 7.65733 -0.32590
|1087> H -64.91726 6.67057 -1.20005
|1088> C -67.97435 -0.00909 0.00674
|1089> S -69.28437 1.09837 -0.02545
|1090> C -68.47847 -1.30540 0.04965
|1091> C -69.91149 -1.39941 0.05321
|1092> H -67.83799 -2.17824 0.07709
|1093> C -70.45951 -0.13382 0.01309
|1094> C -70.73389 -2.66320 0.09188
|1095> C -69.92767 -3.96393 0.14939
|1096> H -71.37824 -2.67996 -0.79672
|1097> H -71.39683 -2.61475 0.96559
|1098> C -70.83951 -5.19141 0.17284
|1099> H -69.29213 -3.96786 1.04394
|1100> H -69.26110 -4.02784 -0.71991
|1101> C -70.03405 -6.47992 0.24176
|1102> H -71.46589 -5.20701 -0.72658
|1103> H -71.51178 -5.14115 1.03708
|1104> H -69.36745 -6.57328 -0.62163
|1105> H -70.70308 -7.34608 0.24934
|1106> H -69.42495 -6.51355 1.15082
|1107> C -56.66102 0.21943 -0.00160
|1108> C -57.09760 1.51706 -0.05525
|1109> C -58.53755 1.64799 -0.06086
|1110> H -56.40047 2.34505 -0.08942
|1111> S -57.95321 -0.86899 0.04351
|1112> C -59.15366 0.38757 -0.00891
|1113> C -59.23563 2.99623 -0.11591
|1114> C -58.30355 4.21413 -0.18106
|1115> H -59.86586 3.09769 0.77579
|1116> H -59.88241 3.01745 -1.00117
|1117> C -59.07723 5.53186 -0.22703
|1118> H -57.66533 4.14424 -1.07101
|1119> H -57.64190 4.22204 0.69431
|1120> C -58.12823 6.71953 -0.29951
|1121> H -59.70656 5.62723 0.66518
|1122> H -59.74098 5.54685 -1.09896
|1123> H -57.46511 6.74566 0.57143
|1124> H -58.69143 7.65733 -0.32590
|1125> H -57.50727 6.67057 -1.20005
|1126> C -60.56436 -0.00909 0.00674
|1127> S -61.87438 1.09837 -0.02545
|1128> C -61.06848 -1.30540 0.04965
|1129> C -62.50150 -1.39941 0.05321
|1130> H -60.42800 -2.17824 0.07709
|1131> C -63.04952 -0.13382 0.01309
|1132> C -63.32390 -2.66320 0.09188
|1133> C -62.51768 -3.96393 0.14939
|1134> H -63.96825 -2.67996 -0.79672
|1135> H -63.98684 -2.61475 0.96559
|1136> C -63.42952 -5.19141 0.17284
|1137> H -61.88214 -3.96786 1.04394
|1138> H -61.85111 -4.02784 -0.71991
|1139> C -62.62406 -6.47992 0.24176
|1140> H -64.05590 -5.20701 -0.72658
|1141> H -64.10179 -5.14115 1.03708
|1142> H -61.95746 -6.57328 -0.62163
|1143> H -63.29309 -7.34608 0.24934
|1144> H -62.01496 -6.51355 1.15082
|1145> C -49.25103 0.21943 -0.00160
|1146> C -49.68761 1.51706 -0.05525
|1147> C -51.12756 1.64799 -0.06086
|1148> H -48.99048 2.34505 -0.08942
|1149> S -50.54322 -0.86899 0.04351
|1150> C -51.74367 0.38757 -0.00891
|1151> C -51.82564 2.99623 -0.11591
|1152> C -50.89356 4.21413 -0.18106
|1153> H -52.45587 3.09769 0.77579
|1154> H -52.47242 3.01745 -1.00117
|1155> C -51.66724 5.53186 -0.22703
|1156> H -50.25534 4.14424 -1.07101
|1157> H -50.23191 4.22204 0.69431
|1158> C -50.71824 6.71953 -0.29951
|1159> H -52.29657 5.62723 0.66518
|1160> H -52.33099 5.54685 -1.09896
|1161> H -50.05512 6.74566 0.57143
|1162> H -51.28144 7.65733 -0.32590
|1163> H -50.09728 6.67057 -1.20005
|1164> C -53.15437 -0.00909 0.00674
|1165> S -54.46439 1.09837 -0.02545
|1166> C -53.65849 -1.30540 0.04965
|1167> C -55.09151 -1.39941 0.05321
|1168> H -53.01801 -2.17824 0.07709
|1169> C -55.63953 -0.13382 0.01309
|1170> C -55.91391 -2.66320 0.09188
|1171> C -55.10769 -3.96393 0.14939
|1172> H -56.55826 -2.67996 -0.79672
|1173> H -56.57685 -2.61475 0.96559
|1174> C -56.01953 -5.19141 0.17284
|1175> H -54.47215 -3.96786 1.04394
|1176> H -54.44112 -4.02784 -0.71991
|1177> C -55.21407 -6.47992 0.24176
|1178> H -56.64591 -5.20701 -0.72658
|1179> H -56.69180 -5.14115 1.03708
|1180> H -54.54747 -6.57328 -0.62163
|1181> H -55.88310 -7.34608 0.24934
|1182> H -54.60497 -6.51355 1.15082
|1183> C -41.84104 0.21943 -0.00160
|1184> C -42.27762 1.51706 -0.05525
|1185> C -43.71757 1.64799 -0.06086
|1186> H -41.58049 2.34505 -0.08942
|1187> S -43.13323 -0.86899 0.04351
|1188> C -44.33368 0.38757 -0.00891
|1189> C -44.41565 2.99623 -0.11591
|1190> C -43.48357 4.21413 -0.18106
|1191> H -45.04588 3.09769 0.77579
|1192> H -45.06243 3.01745 -1.00117
|1193> C -44.25725 5.53186 -0.22703
|1194> H -42.84535 4.14424 -1.07101
|1195> H -42.82192 4.22204 0.69431
|1196> C -43.30825 6.71953 -0.29951
|1197> H -44.88658 5.62723 0.66518
|1198> H -44.92100 5.54685 -1.09896
|1199> H -42.64513 6.74566 0.57143
|1200> H -43.87145 7.65733 -0.32590
|1201> H -42.68729 6.67057 -1.20005
|1202> C -45.74438 -0.00909 0.00674
|1203> S -47.05440 1.09837 -0.02545
|1204> C -46.24850 -1.30540 0.04965
|1205> C -47.68152 -1.39941 0.05321
|1206> H -45.60802 -2.17824 0.07709
|1207> C -48.22954 -0.13382 0.01309
|1208> C -48.50392 -2.66320 0.09188
|1209> C -47.69770 -3.96393 0.14939
|1210> H -49.14827 -2.67996 -0.79672
|1211> H -49.16686 -2.61475 0.96559
|1212> C -48.60954 -5.19141 0.17284
|1213> H -47.06216 -3.96786 1.04394
|1214> H -47.03113 -4.02784 -0.71991
|1215> C -47.80408 -6.47992 0.24176
|1216> H -49.23592 -5.20701 -0.72658
|1217> H -49.28181 -5.14115 1.03708
|1218> H -47.13748 -6.57328 -0.62163
|1219> H -48.47311 -7.34608 0.24934
|1220> H -47.19498 -6.51355 1.15082
|1221> C -34.43105 0.21943 -0.00160
|1222> C -34.86763 1.51706 -0.05525
|1223> C -36.30758 1.64799 -0.06086
|1224> H -34.17050 2.34505 -0.08942
|1225> S -35.72324 -0.86899 0.04351
|1226> C -36.92369 0.38757 -0.00891
|1227> C -37.00566 2.99623 -0.11591
|1228> C -36.07358 4.21413 -0.18106
|1229> H -37.63589 3.09769 0.77579
|1230> H -37.65244 3.01745 -1.00117
|1231> C -36.84726 5.53186 -0.22703
|1232> H -35.43536 4.14424 -1.07101
|1233> H -35.41193 4.22204 0.69431
|1234> C -35.89826 6.71953 -0.29951
|1235> H -37.47659 5.62723 0.66518
|1236> H -37.51101 5.54685 -1.09896
|1237> H -35.23514 6.74566 0.57143
|1238> H -36.46146 7.65733 -0.32590
|1239> H -35.27730 6.67057 -1.20005
|1240> C -38.33439 -0.00909 0.00674
|1241> S -39.64441 1.09837 -0.02545
|1242> C -38.83851 -1.30540 0.04965
|1243> C -40.27153 -1.39941 0.05321
|1244> H -38.19803 -2.17824 0.07709
|1245> C -40.81955 -0.13382 0.01309
|1246> C -41.09393 -2.66320 0.09188
|1247> C -40.28771 -3.96393 0.14939
|1248> H -41.73828 -2.67996 -0.79672
|1249> H -41.75687 -2.61475 0.96559
|1250> C -41.19955 -5.19141 0.17284
|1251> H -39.65217 -3.96786 1.04394
|1252> H -39.62114 -4.02784 -0.71991
|1253> C -40.39409 -6.47992 0.24176
|1254> H -41.82593 -5.20701 -0.72658
|1255> H -41.87182 -5.14115 1.03708
|1256> H -39.72749 -6.57328 -0.62163
|1257> H -41.06312 -7.34608 0.24934
|1258> H -39.78499 -6.51355 1.15082
|1259> C -27.02106 0.21943 -0.00160
|1260> C -27.45764 1.51706 -0.05525
|1261> C -28.89759 1.64799 -0.06086
|1262> H -26.76051 2.34505 -0.08942
|1263> S -28.31325 -0.86899 0.04351
|1264> C -29.51370 0.38757 -0.00891
|1265> C -29.59567 2.99623 -0.11591
|1266> C -28.66359 4.21413 -0.18106
|1267> H -30.22590 3.09769 0.77579
|1268> H -30.24245 3.01745 -1.00117
|1269> C -29.43727 5.53186 -0.22703
|1270> H -28.02537 4.14424 -1.07101
|1271> H -28.00194 4.22204 0.69431
|1272> C -28.48827 6.71953 -0.29951
|1273> H -30.06660 5.62723 0.66518
|1274> H -30.10102 5.54685 -1.09896
|1275> H -27.82515 6.74566 0.57143
|1276> H -29.05147 7.65733 -0.32590
|1277> H -27.86731 6.67057 -1.20005
|1278> C -30.92440 -0.00909 0.00674
|1279> S -32.23442 1.09837 -0.02545
|1280> C -31.42852 -1.30540 0.04965
|1281> C -32.86154 -1.39941 0.05321
|1282> H -30.78804 -2.17824 0.07709
|1283> C -33.40956 -0.13382 0.01309
|1284> C -33.68394 -2.66320 0.09188
|1285> C -32.87772 -3.96393 0.14939
|1286> H -34.32829 -2.67996 -0.79672
|1287> H -34.34688 -2.61475 0.96559
|1288> C -33.78956 -5.19141 0.17284
|1289> H -32.24218 -3.96786 1.04394
|1290> H -32.21115 -4.02784 -0.71991
|1291> C -32.98410 -6.47992 0.24176
|1292> H -34.41594 -5.20701 -0.72658
|1293> H -34.46183 -5.14115 1.03708
|1294> H -32.31750 -6.57328 -0.62163
|1295> H -33.65313 -7.34608 0.24934
|1296> H -32.37500 -6.51355 1.15082
|1297> C -19.61107 0.21943 -0.00160
|1298> C -20.04765 1.51706 -0.05525
|1299> C -21.48760 1.64799 -0.06086
|1300> H -19.35052 2.34505 -0.08942
|1301> S -20.90326 -0.86899 0.04351
|1302> C -22.10371 0.38757 -0.00891
|1303> C -22.18568 2.99623 -0.11591
|1304> C -21.25360 4.21413 -0.18106
|1305> H -22.81591 3.09769 0.77579
|1306> H -22.83246 3.01745 -1.00117
|1307> C -22.02728 5.53186 -0.22703
|1308> H -20.61538 4.14424 -1.07101
|1309> H -20.59195 4.22204 0.69431
|1310> C -21.07828 6.71953 -0.29951
|1311> H -22.65661 5.62723 0.66518
|1312> H -22.69103 5.54685 -1.09896
|1313> H -20.41516 6.74566 0.57143
|1314> H -21.64148 7.65733 -0.32590
|1315> H -20.45732 6.67057 -1.20005
|1316> C -23.51441 -0.00909 0.00674
|1317> S -24.82443 1.09837 -0.02545
|1318> C -24.01853 -1.30540 0.04965
|1319> C -25.45155 -1.39941 0.05321
|1320> H -23.37805 -2.17824 0.07709
|1321> C -25.99957 -0.13382 0.01309
|1322> C -26.27395 -2.66320 0.09188
|1323> C -25.46773 -3.96393 0.14939
|1324> H -26.91830 -2.67996 -0.79672
|1325> H -26.93689 -2.61475 0.96559
|1326> C -26.37957 -5.19141 0.17284
|1327> H -24.83219 -3.96786 1.04394
|1328> H -24.80116 -4.02784 -0.71991
|1329> C -25.57411 -6.47992 0.24176
|1330> H -27.00595 -5.20701 -0.72658
|1331> H -27.05184 -5.14115 1.03708
|1332> H -24.90751 -6.57328 -0.62163
|1333> H -26.24314 -7.34608 0.24934
|1334> H -24.96501 -6.51355 1.15082
|1335> C -12.20108 0.21943 -0.00160
|1336> C -12.63766 1.51706 -0.05525
|1337> C -14.07761 1.64799 -0.06086
|1338> H -11.94053 2.34505 -0.08942
|1339> S -13.49327 -0.86899 0.04351
|1340> C -14.69372 0.38757 -0.00891
|1341> C -14.77569 2.99623 -0.11591
|1342> C -13.84361 4.21413 -0.18106
|1343> H -15.40592 3.09769 0.77579
|1344> H -15.42247 3.01745 -1.00117
|1345> C -14.61729 5.53186 -0.22703
|1346> H -13.20539 4.14424 -1.07101
|1347> H -13.18196 4.22204 0.69431
|1348> C -13.66829 6.71953 -0.29951
|1349> H -15.24662 5.62723 0.66518
|1350> H -15.28104 5.54685 -1.09896
|1351> H -13.00517 6.74566 0.57143
|1352> H -14.23149 7.65733 -0.32590
|1353> H -13.04733 6.67057 -1.20005
|1354> C -16.10442 -0.00909 0.00674
|1355> S -17.41444 1.09837 -0.02545
|1356> C -16.60854 -1.30540 0.04965
|1357> C -18.04156 -1.39941 0.05321
|1358> H -15.96806 -2.17824 0.07709
|1359> C -18.58958 -0.13382 0.01309
|1360> C -18.86396 -2.66320 0.09188
|1361> C -18.05774 -3.96393 0.14939
|1362> H -19.50831 -2.67996 -0.79672
|1363> H -19.52690 -2.61475 0.96559
|1364> C -18.96958 -5.19141 0.17284
|1365> H -17.42220 -3.96786 1.04394
|1366> H -17.39117 -4.02784 -0.71991
|1367> C -18.16412 -6.47992 0.24176
|1368> H -19.59596 -5.20701 -0.72658
|1369> H -19.64185 -5.14115 1.03708
|1370> H -17.49752 -6.57328 -0.62163
|1371> H -18.83315 -7.34608 0.24934
|1372> H -17.55502 -6.51355 1.15082
|1373> C -4.79109 0.21943 -0.00160
|1374> C -5.22767 1.51706 -0.05525
|1375> C -6.66762 1.64799 -0.06086
|1376> H -4.53054 2.34505 -0.08942
|1377> S -6.08328 -0.86899 0.04351
|1378> C -7.28373 0.38757 -0.00891
|1379> C -7.36570 2.99623 -0.11591
|1380> C -6.43362 4.21413 -0.18106
|1381> H -7.99593 3.09769 0.77579
|1382> H -8.01248 3.01745 -1.00117
|1383> C -7.20730 5.53186 -0.22703
|1384> H -5.79540 4.14424 -1.07101
|1385> H -5.77197 4.22204 0.69431
|1386> C -6.25830 6.71953 -0.29951
|1387> H -7.83663 5.62723 0.66518
|1388> H -7.87105 5.54685 -1.09896
|1389> H -5.59518 6.74566 0.57143
|1390> H -6.82150 7.65733 -0.32590
|1391> H -5.63734 6.67057 -1.20005
|1392> C -8.69443 -0.00909 0.00674
|1393> S -10.00445 1.09837 -0.02545
|1394> C -9.19855 -1.30540 0.04965
|1395> C -10.63157 -1.39941 0.05321
|1396> H -8.55807 -2.17824 0.07709
|1397> C -11.17959 -0.13382 0.01309
|1398> C -11.45397 -2.66320 0.09188
|1399> C -10.64775 -3.96393 0.14939
|1400> H -12.09832 -2.67996 -0.79672
|1401> H -12.11691 -2.61475 0.96559
|1402> C -11.55959 -5.19141 0.17284
|1403> H -10.01221 -3.96786 1.04394
|1404> H -9.98118 -4.02784 -0.71991
|1405> C -10.75413 -6.47992 0.24176
|1406> H -12.18597 -5.20701 -0.72658
|1407> H -12.23186 -5.14115 1.03708
|1408> H -10.08753 -6.57328 -0.62163
|1409> H -11.42316 -7.34608 0.24934
|1410> H -10.14503 -6.51355 1.15082
|1411> C 2.61890 0.21943 -0.00160
|1412> C 2.18232 1.51706 -0.05525
|1413> C 0.74237 1.64799 -0.06086
|1414> H 2.87945 2.34505 -0.08942
|1415> S 1.32671 -0.86899 0.04351
|1416> C 0.12626 0.38757 -0.00891
|1417> C 0.04429 2.99623 -0.11591
|1418> C 0.97637 4.21413 -0.18106
|1419> H -0.58594 3.09769 0.77579
|1420> H -0.60249 3.01745 -1.00117
|1421> C 0.20269 5.53186 -0.22703
|1422> H 1.61459 4.14424 -1.07101
|1423> H 1.63802 4.22204 0.69431
|1424> C 1.15169 6.71953 -0.29951
|1425> H -0.42664 5.62723 0.66518
|1426> H -0.46106 5.54685 -1.09896
|1427> H 1.81481 6.74566 0.57143
|1428> H 0.58849 7.65733 -0.32590
|1429> H 1.77265 6.67057 -1.20005
|1430> C -1.28444 -0.00909 0.00674
|1431> S -2.59446 1.09837 -0.02545
|1432> C -1.78856 -1.30540 0.04965
|1433> C -3.22158 -1.39941 0.05321
|1434> H -1.14808 -2.17824 0.07709
|1435> C -3.76960 -0.13382 0.01309
|1436> C -4.04398 -2.66320 0.09188
|1437> C -3.23776 -3.96393 0.14939
|1438> H -4.68833 -2.67996 -0.79672
|1439> H -4.70692 -2.61475 0.96559
|1440> C -4.14960 -5.19141 0.17284
|1441> H -2.60222 -3.96786 1.04394
|1442> H -2.57119 -4.02784 -0.71991
|1443> C -3.34414 -6.47992 0.24176
|1444> H -4.77598 -5.20701 -0.72658
|1445> H -4.82187 -5.14115 1.03708
|1446> H -2.67754 -6.57328 -0.62163
|1447> H -4.01317 -7.34608 0.24934
|1448> H -2.73504 -6.51355 1.15082
|1449> C 10.02889 0.21943 -0.00160
|1450> C 9.59231 1.51706 -0.05525
|1451> C 8.15236 1.64799 -0.06086
|1452> H 10.28944 2.34505 -0.08942
|1453> S 8.73670 -0.86899 0.04351
|1454> C 7.53625 0.38757 -0.00891
|1455> C 7.45428 2.99623 -0.11591
|1456> C 8.38636 4.21413 -0.18106
|1457> H 6.82405 3.09769 0.77579
|1458> H 6.80750 3.01745 -1.00117
|1459> C 7.61268 5.53186 -0.22703
|1460> H 9.02458 4.14424 -1.07101
|1461> H 9.04801 4.22204 0.69431
|1462> C 8.56168 6.71953 -0.29951
|1463> H 6.98335 5.62723 0.66518
|1464> H 6.94893 5.54685 -1.09896
|1465> H 9.22480 6.74566 0.57143
|1466> H 7.99848 7.65733 -0.32590
|1467> H 9.18264 6.67057 -1.20005
|1468> C 6.12555 -0.00909 0.00674
|1469> S 4.81553 1.09837 -0.02545
|1470> C 5.62143 -1.30540 0.04965
|1471> C 4.18841 -1.39941 0.05321
|1472> H 6.26191 -2.17824 0.07709
|1473> C 3.64039 -0.13382 0.01309
|1474> C 3.36601 -2.66320 0.09188
|1475> C 4.17223 -3.96393 0.14939
|1476> H 2.72166 -2.67996 -0.79672
|1477> H 2.70307 -2.61475 0.96559
|1478> C 3.26039 -5.19141 0.17284
|1479> H 4.80777 -3.96786 1.04394
|1480> H 4.83880 -4.02784 -0.71991
|1481> C 4.06585 -6.47992 0.24176
|1482> H 2.63401 -5.20701 -0.72658
|1483> H 2.58812 -5.14115 1.03708
|1484> H 4.73245 -6.57328 -0.62163
|1485> H 3.39682 -7.34608 0.24934
|1486> H 4.67495 -6.51355 1.15082
|1487> C 17.43888 0.21943 -0.00160
|1488> C 17.00230 1.51706 -0.05525
|1489> C 15.56235 1.64799 -0.06086
|1490> H 17.69943 2.34505 -0.08942
|1491> S 16.14669 -0.86899 0.04351
|1492> C 14.94624 0.38757 -0.00891
|1493> C 14.86427 2.99623 -0.11591
|1494> C 15.79635 4.21413 -0.18106
|1495> H 14.23404 3.09769 0.77579
|1496> H 14.21749 3.01745 -1.00117
|1497> C 15.02267 5.53186 -0.22703
|1498> H 16.43457 4.14424 -1.07101
|1499> H 16.45800 4.22204 0.69431
|1500> C 15.97167 6.71953 -0.29951
|1501> H 14.39334 5.62723 0.66518
|1502> H 14.35892 5.54685 -1.09896
|1503> H 16.63479 6.74566 0.57143
|1504> H 15.40847 7.65733 -0.32590
|1505> H 16.59263 6.67057 -1.20005
|1506> C 13.53554 -0.00909 0.00674
|1507> S 12.22552 1.09837 -0.02545
|1508> C 13.03142 -1.30540 0.04965
|1509> C 11.59840 -1.39941 0.05321
|1510> H 13.67190 -2.17824 0.07709
|1511> C 11.05038 -0.13382 0.01309
|1512> C 10.77600 -2.66320 0.09188
|1513> C 11.58222 -3.96393 0.14939
|1514> H 10.13165 -2.67996 -0.79672
|1515> H 10.11306 -2.61475 0.96559
|1516> C 10.67038 -5.19141 0.17284
|1517> H 12.21776 -3.96786 1.04394
|1518> H 12.24879 -4.02784 -0.71991
|1519> C 11.47584 -6.47992 0.24176
|1520> H 10.04400 -5.20701 -0.72658
|1521> H 9.99811 -5.14115 1.03708
|1522> H 12.14244 -6.57328 -0.62163
|1523> H 10.80681 -7.34608 0.24934
|1524> H 12.08494 -6.51355 1.15082
|1525> C 24.84887 0.21943 -0.00160
|1526> C 24.41229 1.51706 -0.05525
|1527> C 22.97234 1.64799 -0.06086
|1528> H 25.10942 2.34505 -0.08942
|1529> S 23.55668 -0.86899 0.04351
|1530> C 22.35623 0.38757 -0.00891
|1531> C 22.27426 2.99623 -0.11591
|1532> C 23.20634 4.21413 -0.18106
|1533> H 21.64403 3.09769 0.77579
|1534> H 21.62748 3.01745 -1.00117
|1535> C 22.43266 5.53186 -0.22703
|1536> H 23.84456 4.14424 -1.07101
|1537> H 23.86799 4.22204 0.69431
|1538> C 23.38166 6.71953 -0.29951
|1539> H 21.80333 5.62723 0.66518
|1540> H 21.76891 5.54685 -1.09896
|1541> H 24.04478 6.74566 0.57143
|1542> H 22.81846 7.65733 -0.32590
|1543> H 24.00262 6.67057 -1.20005
|1544> C 20.94553 -0.00909 0.00674
|1545> S 19.63551 1.09837 -0.02545
|1546> C 20.44141 -1.30540 0.04965
|1547> C 19.00839 -1.39941 0.05321
|1548> H 21.08189 -2.17824 0.07709
|1549> C 18.46037 -0.13382 0.01309
|1550> C 18.18599 -2.66320 0.09188
|1551> C 18.99221 -3.96393 0.14939
|1552> H 17.54164 -2.67996 -0.79672
|1553> H 17.52305 -2.61475 0.96559
|1554> C 18.08037 -5.19141 0.17284
|1555> H 19.62775 -3.96786 1.04394
|1556> H 19.65878 -4.02784 -0.71991
|1557> C 18.88583 -6.47992 0.24176
|1558> H 17.45399 -5.20701 -0.72658
|1559> H 17.40810 -5.14115 1.03708
|1560> H 19.55243 -6.57328 -0.62163
|1561> H 18.21680 -7.34608 0.24934
|1562> H 19.49493 -6.51355 1.15082
|1563> C 32.25886 0.21943 -0.00160
|1564> C 31.82228 1.51706 -0.05525
|1565> C 30.38233 1.64799 -0.06086
|1566> H 32.51941 2.34505 -0.08942
|1567> S 30.96667 -0.86899 0.04351
|1568> C 29.76622 0.38757 -0.00891
|1569> C 29.68425 2.99623 -0.11591
|1570> C 30.61633 4.21413 -0.18106
|1571> H 29.05402 3.09769 0.77579
|1572> H 29.03747 3.01745 -1.00117
|1573> C 29.84265 5.53186 -0.22703
|1574> H 31.25455 4.14424 -1.07101
|1575> H 31.27798 4.22204 0.69431
|1576> C 30.79165 6.71953 -0.29951
|1577> H 29.21332 5.62723 0.66518
|1578> H 29.17890 5.54685 -1.09896
|1579> H 31.45477 6.74566 0.57143
|1580> H 30.22845 7.65733 -0.32590
|1581> H 31.41261 6.67057 -1.20005
|1582> C 28.35552 -0.00909 0.00674
|1583> S 27.04550 1.09837 -0.02545
|1584> C 27.85140 -1.30540 0.04965
|1585> C 26.41838 -1.39941 0.05321
|1586> H 28.49188 -2.17824 0.07709
|1587> C 25.87036 -0.13382 0.01309
|1588> C 25.59598 -2.66320 0.09188
|1589> C 26.40220 -3.96393 0.14939
|1590> H 24.95163 -2.67996 -0.79672
|1591> H 24.93304 -2.61475 0.96559
|1592> C 25.49036 -5.19141 0.17284
|1593> H 27.03774 -3.96786 1.04394
|1594> H 27.06877 -4.02784 -0.71991
|1595> C 26.29582 -6.47992 0.24176
|1596> H 24.86398 -5.20701 -0.72658
|1597> H 24.81809 -5.14115 1.03708
|1598> H 26.96242 -6.57328 -0.62163
|1599> H 25.62679 -7.34608 0.24934
|1600> H 26.90492 -6.51355 1.15082
|1601> C 39.02036 0.39912 -0.11982
|1602> C 38.70134 1.69056 -0.44451
|1603> C 37.27265 1.77532 -0.46391
|1604> H 39.41476 2.47740 -0.64363
|1605> O 37.89663 -0.32426 0.06383
|1606> C 36.81301 0.49715 -0.14161
|1607> C 36.44588 2.99488 -0.76824
|1608> C 37.28529 4.23323 -1.11299
|1609> H 35.81412 3.21852 0.10042
|1610> H 35.77749 2.76937 -1.60853
|1611> C 36.43456 5.46683 -1.40812
|1612> H 37.91503 4.01762 -1.98596
|1613> H 37.96207 4.46196 -0.27955
|1614> C 37.31622 6.66190 -1.74627
|1615> H 35.81408 5.71095 -0.53855
|1616> H 35.76009 5.26630 -2.24805
|1617> H 37.98945 6.90038 -0.91602
|1618> H 36.70342 7.54497 -1.95069
|1619> H 37.92753 6.45995 -2.63219
|1620> C 35.47925 -0.01912 -0.01124
|1621> O 34.33047 0.70407 -0.19354
|1622> C 33.28035 -0.13382 0.01309
|1623> C 35.12803 -1.31867 0.31417
|1624> C 33.70916 -1.40681 0.33144
|1625> H 35.83841 -2.11005 0.51302
|1626> C 32.85177 -2.60039 0.62149
|1627> C 33.63992 -3.86542 0.98246
|1628> H 32.22740 -2.80303 -0.25787
|1629> H 32.17225 -2.35194 1.44656
|1630> C 32.72320 -5.05865 1.25121
|1631> H 34.25607 -3.67591 1.87082
|1632> H 34.32729 -4.11950 0.16537
|1633> C 33.52673 -6.30015 1.61088
|1634> H 34.11897 -6.13542 2.51692
|1635> H 34.21029 -6.57422 0.80062
|1636> H 32.85821 -7.14753 1.79186
|1637> H 32.11503 -5.26891 0.36399
|1638> H 32.03510 -4.82494 2.07153
|1639> C 46.33904 0.21943 -0.00160
|1640> C 45.90246 1.51706 -0.05525
|1641> C 44.46251 1.64799 -0.06086
|1642> H 46.59959 2.34505 -0.08942
|1643> S 45.04685 -0.86899 0.04351
|1644> C 43.84640 0.38757 -0.00891
|1645> C 43.76443 2.99623 -0.11591
|1646> C 44.69651 4.21413 -0.18106
|1647> H 43.13420 3.09769 0.77579
|1648> H 43.11765 3.01745 -1.00117
|1649> C 43.92283 5.53186 -0.22703
|1650> H 45.33473 4.14424 -1.07101
|1651> H 45.35816 4.22204 0.69431
|1652> C 44.87183 6.71953 -0.29951
|1653> H 43.29350 5.62723 0.66518
|1654> H 43.25908 5.54685 -1.09896
|1655> H 45.53495 6.74566 0.57143
|1656> H 44.30863 7.65733 -0.32590
|1657> H 45.49279 6.67057 -1.20005
|1658> C 42.43570 -0.00909 0.00674
|1659> S 41.12568 1.09837 -0.02545
|1660> C 41.93158 -1.30540 0.04965
|1661> C 40.49856 -1.39941 0.05321
|1662> H 42.57206 -2.17824 0.07709
|1663> C 39.95054 -0.13382 0.01309
|1664> C 39.67616 -2.66320 0.09188
|1665> C 40.48238 -3.96393 0.14939
|1666> H 39.03181 -2.67996 -0.79672
|1667> H 39.01322 -2.61475 0.96559
|1668> C 39.57054 -5.19141 0.17284
|1669> H 41.11792 -3.96786 1.04394
|1670> H 41.14895 -4.02784 -0.71991
|1671> C 40.37600 -6.47992 0.24176
|1672> H 38.94416 -5.20701 -0.72658
|1673> H 38.89827 -5.14115 1.03708
|1674> H 41.04260 -6.57328 -0.62163
|1675> H 39.70697 -7.34608 0.24934
|1676> H 40.98510 -6.51355 1.15082
|1677> C 53.74903 0.21943 -0.00160
|1678> C 53.31245 1.51706 -0.05525
|1679> C 51.87250 1.64799 -0.06086
|1680> H 54.00958 2.34505 -0.08942
|1681> S 52.45684 -0.86899 0.04351
|1682> C 51.25639 0.38757 -0.00891
|1683> C 51.17442 2.99623 -0.11591
|1684> C 52.10650 4.21413 -0.18106
|1685> H 50.54419 3.09769 0.77579
|1686> H 50.52764 3.01745 -1.00117
|1687> C 51.33282 5.53186 -0.22703
|1688> H 52.74472 4.14424 -1.07101
|1689> H 52.76815 4.22204 0.69431
|1690> C 52.28182 6.71953 -0.29951
|1691> H 50.70349 5.62723 0.66518
|1692> H 50.66907 5.54685 -1.09896
|1693> H 52.94494 6.74566 0.57143
|1694> H 51.71862 7.65733 -0.32590
|1695> H 52.90278 6.67057 -1.20005
|1696> C 49.84569 -0.00909 0.00674
|1697> S 48.53567 1.09837 -0.02545
|1698> C 49.34157 -1.30540 0.04965
|1699> C 47.90855 -1.39941 0.05321
|1700> H 49.98205 -2.17824 0.07709
|1701> C 47.36053 -0.13382 0.01309
|1702> C 47.08615 -2.66320 0.09188
|1703> C 47.89237 -3.96393 0.14939
|1704> H 46.44180 -2.67996 -0.79672
|1705> H 46.42321 -2.61475 0.96559
|1706> C 46.98053 -5.19141 0.17284
|1707> H 48.52791 -3.96786 1.04394
|1708> H 48.55894 -4.02784 -0.71991
|1709> C 47.78599 -6.47992 0.24176
|1710> H 46.35415 -5.20701 -0.72658
|1711> H 46.30826 -5.14115 1.03708
|1712> H 48.45259 -6.57328 -0.62163
|1713> H 47.11696 -7.34608 0.24934
|1714> H 48.39509 -6.51355 1.15082
|1715> C 61.15902 0.21943 -0.00160
|1716> C 60.72244 1.51706 -0.05525
|1717> C 59.28249 1.64799 -0.06086
|1718> H 61.41957 2.34505 -0.08942
|1719> S 59.86683 -0.86899 0.04351
|1720> C 58.66638 0.38757 -0.00891
|1721> C 58.58441 2.99623 -0.11591
|1722> C 59.51649 4.21413 -0.18106
|1723> H 57.95418 3.09769 0.77579
|1724> H 57.93763 3.01745 -1.00117
|1725> C 58.74281 5.53186 -0.22703
|1726> H 60.15471 4.14424 -1.07101
|1727> H 60.17814 4.22204 0.69431
|1728> C 59.69181 6.71953 -0.29951
|1729> H 58.11348 5.62723 0.66518
|1730> H 58.07906 5.54685 -1.09896
|1731> H 60.35493 6.74566 0.57143
|1732> H 59.12861 7.65733 -0.32590
|1733> H 60.31277 6.67057 -1.20005
|1734> C 57.25568 -0.00909 0.00674
|1735> S 55.94566 1.09837 -0.02545
|1736> C 56.75156 -1.30540 0.04965
|1737> C 55.31854 -1.39941 0.05321
|1738> H 57.39204 -2.17824 0.07709
|1739> C 54.77052 -0.13382 0.01309
|1740> C 54.49614 -2.66320 0.09188
|1741> C 55.30236 -3.96393 0.14939
|1742> H 53.85179 -2.67996 -0.79672
|1743> H 53.83320 -2.61475 0.96559
|1744> C 54.39052 -5.19141 0.17284
|1745> H 55.93790 -3.96786 1.04394
|1746> H 55.96893 -4.02784 -0.71991
|1747> C 55.19598 -6.47992 0.24176
|1748> H 53.76414 -5.20701 -0.72658
|1749> H 53.71825 -5.14115 1.03708
|1750> H 55.86258 -6.57328 -0.62163
|1751> H 54.52695 -7.34608 0.24934
|1752> H 55.80508 -6.51355 1.15082
|1753> C 68.56901 0.21943 -0.00160
|1754> C 68.13243 1.51706 -0.05525
|1755> C 66.69248 1.64799 -0.06086
|1756> H 68.82956 2.34505 -0.08942
|1757> S 67.27682 -0.86899 0.04351
|1758> C 66.07637 0.38757 -0.00891
|1759> C 65.99440 2.99623 -0.11591
|1760> C 66.92648 4.21413 -0.18106
|1761> H 65.36417 3.09769 0.77579
|1762> H 65.34762 3.01745 -1.00117
|1763> C 66.15280 5.53186 -0.22703
|1764> H 67.56470 4.14424 -1.07101
|1765> H 67.58813 4.22204 0.69431
|1766> C 67.10180 6.71953 -0.29951
|1767> H 65.52347 5.62723 0.66518
|1768> H 65.48905 5.54685 -1.09896
|1769> H 67.76492 6.74566 0.57143
|1770> H 66.53860 7.65733 -0.32590
|1771> H 67.72276 6.67057 -1.20005
|1772> C 64.66567 -0.00909 0.00674
|1773> S 63.35565 1.09837 -0.02545
|1774> C 64.16155 -1.30540 0.04965
|1775> C 62.72853 -1.39941 0.05321
|1776> H 64.80203 -2.17824 0.07709
|1777> C 62.18051 -0.13382 0.01309
|1778> C 61.90613 -2.66320 0.09188
|1779> C 62.71235 -3.96393 0.14939
|1780> H 61.26178 -2.67996 -0.79672
|1781> H 61.24319 -2.61475 0.96559
|1782> C 61.80051 -5.19141 0.17284
|1783> H 63.34789 -3.96786 1.04394
|1784> H 63.37892 -4.02784 -0.71991
|1785> C 62.60597 -6.47992 0.24176
|1786> H 61.17413 -5.20701 -0.72658
|1787> H 61.12824 -5.14115 1.03708
|1788> H 63.27257 -6.57328 -0.62163
|1789> H 61.93694 -7.34608 0.24934
|1790> H 63.21507 -6.51355 1.15082
|1791> C 75.97900 0.21943 -0.00160
|1792> C 75.54242 1.51706 -0.05525
|1793> C 74.10247 1.64799 -0.06086
|1794> H 76.23955 2.34505 -0.08942
|1795> S 74.68681 -0.86899 0.04351
|1796> C 73.48636 0.38757 -0.00891
|1797> C 73.40439 2.99623 -0.11591
|1798> C 74.33647 4.21413 -0.18106
|1799> H 72.77416 3.09769 0.77579
|1800> H 72.75761 3.01745 -1.00117
|1801> C 73.56279 5.53186 -0.22703
|1802> H 74.97469 4.14424 -1.07101
|1803> H 74.99812 4.22204 0.69431
|1804> C 74.51179 6.71953 -0.29951
|1805> H 72.93346 5.62723 0.66518
|1806> H 72.89904 5.54685 -1.09896
|1807> H 75.17491 6.74566 0.57143
|1808> H 73.94859 7.65733 -0.32590
|1809> H 75.13275 6.67057 -1.20005
|1810> C 72.07566 -0.00909 0.00674
|1811> S 70.76564 1.09837 -0.02545
|1812> C 71.57154 -1.30540 0.04965
|1813> C 70.13852 -1.39941 0.05321
|1814> H 72.21202 -2.17824 0.07709
|1815> C 69.59050 -0.13382 0.01309
|1816> C 69.31612 -2.66320 0.09188
|1817> C 70.12234 -3.96393 0.14939
|1818> H 68.67177 -2.67996 -0.79672
|1819> H 68.65318 -2.61475 0.96559
|1820> C 69.21050 -5.19141 0.17284
|1821> H 70.75788 -3.96786 1.04394
|1822> H 70.78891 -4.02784 -0.71991
|1823> C 70.01596 -6.47992 0.24176
|1824> H 68.58412 -5.20701 -0.72658
|1825> H 68.53823 -5.14115 1.03708
|1826> H 70.68256 -6.57328 -0.62163
|1827> H 69.34693 -7.34608 0.24934
|1828> H 70.62506 -6.51355 1.15082
|1829> C 83.38899 0.21943 -0.00160
|1830> C 82.95241 1.51706 -0.05525
|1831> C 81.51246 1.64799 -0.06086
|1832> H 83.64954 2.34505 -0.08942
|1833> S 82.09680 -0.86899 0.04351
|1834> C 80.89635 0.38757 -0.00891
|1835> C 80.81438 2.99623 -0.11591
|1836> C 81.74646 4.21413 -0.18106
|1837> H 80.18415 3.09769 0.77579
|1838> H 80.16760 3.01745 -1.00117
|1839> C 80.97278 5.53186 -0.22703
|1840> H 82.38468 4.14424 -1.07101
|1841> H 82.40811 4.22204 0.69431
|1842> C 81.92178 6.71953 -0.29951
|1843> H 80.34345 5.62723 0.66518
|1844> H 80.30903 5.54685 -1.09896
|1845> H 82.58490 6.74566 0.57143
|1846> H 81.35858 7.65733 -0.32590
|1847> H 82.54274 6.67057 -1.20005
|1848> C 79.48565 -0.00909 0.00674
|1849> S 78.17563 1.09837 -0.02545
|1850> C 78.98153 -1.30540 0.04965
|1851> C 77.54851 -1.39941 0.05321
|1852> H 79.62201 -2.17824 0.07709
|1853> C 77.00049 -0.13382 0.01309
|1854> C 76.72611 -2.66320 0.09188
|1855> C 77.53233 -3.96393 0.14939
|1856> H 76.08176 -2.67996 -0.79672
|1857> H 76.06317 -2.61475 0.96559
|1858> C 76.62049 -5.19141 0.17284
|1859> H 78.16787 -3.96786 1.04394
|1860> H 78.19890 -4.02784 -0.71991
|1861> C 77.42595 -6.47992 0.24176
|1862> H 75.99411 -5.20701 -0.72658
|1863> H 75.94822 -5.14115 1.03708
|1864> H 78.09255 -6.57328 -0.62163
|1865> H 76.75692 -7.34608 0.24934
|1866> H 78.03505 -6.51355 1.15082
|1867> C 90.79898 0.21943 -0.00160
|1868> C 90.36240 1.51706 -0.05525
|1869> C 88.92245 1.64799 -0.06086
|1870> H 91.05953 2.34505 -0.08942
|1871> S 89.50679 -0.86899 0.04351
|1872> C 88.30634 0.38757 -0.00891
|1873> C 88.22437 2.99623 -0.11591
|1874> C 89.15645 4.21413 -0.18106
|1875> H 87.59414 3.09769 0.77579
|1876> H 87.57759 3.01745 -1.00117
|1877> C 88.38277 5.53186 -0.22703
|1878> H 89.79467 4.14424 -1.07101
|1879> H 89.81810 4.22204 0.69431
|1880> C 89.33177 6.71953 -0.29951
|1881> H 87.75344 5.62723 0.66518
|1882> H 87.71902 5.54685 -1.09896
|1883> H 89.99489 6.74566 0.57143
|1884> H 88.76857 7.65733 -0.32590
|1885> H 89.95273 6.67057 -1.20005
|1886> C 86.89564 -0.00909 0.00674
|1887> S 85.58562 1.09837 -0.02545
|1888> C 86.39152 -1.30540 0.04965
|1889> C 84.95850 -1.39941 0.05321
|1890> H 87.03200 -2.17824 0.07709
|1891> C 84.41048 -0.13382 0.01309
|1892> C 84.13610 -2.66320 0.09188
|1893> C 84.94232 -3.96393 0.14939
|1894> H 83.49175 -2.67996 -0.79672
|1895> H 83.47316 -2.61475 0.96559
|1896> C 84.03048 -5.19141 0.17284
|1897> H 85.57786 -3.96786 1.04394
|1898> H 85.60889 -4.02784 -0.71991
|1899> C 84.83594 -6.47992 0.24176
|1900> H 83.40410 -5.20701 -0.72658
|1901> H 83.35821 -5.14115 1.03708
|1902> H 85.50254 -6.57328 -0.62163
|1903> H 84.16691 -7.34608 0.24934
|1904> H 85.44504 -6.51355 1.15082
|1905> C 97.56048 0.39912 -0.11982
|1906> C 97.24146 1.69056 -0.44451
|1907> C 95.81277 1.77532 -0.46391
|1908> H 97.95488 2.47740 -0.64363
|1909> O 96.43675 -0.32426 0.06383
|1910> C 95.35313 0.49715 -0.14161
|1911> C 94.98600 2.99488 -0.76824
|1912> C 95.82541 4.23323 -1.11299
|1913> H 94.35424 3.21852 0.10042
|1914> H 94.31761 2.76937 -1.60853
|1915> C 94.97468 5.46683 -1.40812
|1916> H 96.45515 4.01762 -1.98596
|1917> H 96.50219 4.46196 -0.27955
|1918> C 95.85634 6.66190 -1.74627
|1919> H 94.35420 5.71095 -0.53855
|1920> H 94.30021 5.26630 -2.24805
|1921> H 96.52957 6.90038 -0.91602
|1922> H 95.24354 7.54497 -1.95069
|1923> H 96.46765 6.45995 -2.63219
|1924> C 94.01937 -0.01912 -0.01124
|1925> O 92.87059 0.70407 -0.19354
|1926> C 91.82047 -0.13382 0.01309
|1927> C 93.66815 -1.31867 0.31417
|1928> C 92.24928 -1.40681 0.33144
|1929> H 94.37853 -2.11005 0.51302
|1930> C 91.39189 -2.60039 0.62149
|1931> C 92.18004 -3.86542 0.98246
|1932> H 90.76752 -2.80303 -0.25787
|1933> H 90.71237 -2.35194 1.44656
|1934> C 91.26332 -5.05865 1.25121
|1935> H 92.79619 -3.67591 1.87082
|1936> H 92.86741 -4.11950 0.16537
|1937> C 92.06685 -6.30015 1.61088
|1938> H 92.65909 -6.13542 2.51692
|1939> H 92.75041 -6.57422 0.80062
|1940> H 91.39833 -7.14753 1.79186
|1941> H 90.65515 -5.26891 0.36399
|1942> H 90.57522 -4.82494 2.07153
|1943> C 104.87916 0.21943 -0.00160
|1944> C 104.44258 1.51706 -0.05525
|1945> C 103.00263 1.64799 -0.06086
|1946> H 105.13971 2.34505 -0.08942
|1947> S 103.58697 -0.86899 0.04351
|1948> C 102.38652 0.38757 -0.00891
|1949> C 102.30455 2.99623 -0.11591
|1950> C 103.23663 4.21413 -0.18106
|1951> H 101.67432 3.09769 0.77579
|1952> H 101.65777 3.01745 -1.00117
|1953> C 102.46295 5.53186 -0.22703
|1954> H 103.87485 4.14424 -1.07101
|1955> H 103.89828 4.22204 0.69431
|1956> C 103.41195 6.71953 -0.29951
|1957> H 101.83362 5.62723 0.66518
|1958> H 101.79920 5.54685 -1.09896
|1959> H 104.07507 6.74566 0.57143
|1960> H 102.84875 7.65733 -0.32590
|1961> H 104.03291 6.67057 -1.20005
|1962> C 100.97582 -0.00909 0.00674
|1963> S 99.66580 1.09837 -0.02545
|1964> C 100.47170 -1.30540 0.04965
|1965> C 99.03868 -1.39941 0.05321
|1966> H 101.11218 -2.17824 0.07709
|1967> C 98.49066 -0.13382 0.01309
|1968> C 98.21628 -2.66320 0.09188
|1969> C 99.02250 -3.96393 0.14939
|1970> H 97.57193 -2.67996 -0.79672
|1971> H 97.55334 -2.61475 0.96559
|1972> C 98.11066 -5.19141 0.17284
|1973> H 99.65804 -3.96786 1.04394
|1974> H 99.68907 -4.02784 -0.71991
|1975> C 98.91612 -6.47992 0.24176
|1976> H 97.48428 -5.20701 -0.72658
|1977> H 97.43839 -5.14115 1.03708
|1978> H 99.58272 -6.57328 -0.62163
|1979> H 98.24709 -7.34608 0.24934
|1980> H 99.52522 -6.51355 1.15082
|1981> C 112.28915 0.21943 -0.00160
|1982> C 111.85257 1.51706 -0.05525
|1983> C 110.41262 1.64799 -0.06086
|1984> H 112.54970 2.34505 -0.08942
|1985> S 110.99696 -0.86899 0.04351
|1986> C 109.79651 0.38757 -0.00891
|1987> C 109.71454 2.99623 -0.11591
|1988> C 110.64662 4.21413 -0.18106
|1989> H 109.08431 3.09769 0.77579
|1990> H 109.06776 3.01745 -1.00117
|1991> C 109.87294 5.53186 -0.22703
|1992> H 111.28484 4.14424 -1.07101
|1993> H 111.30827 4.22204 0.69431
|1994> C 110.82194 6.71953 -0.29951
|1995> H 109.24361 5.62723 0.66518
|1996> H 109.20919 5.54685 -1.09896
|1997> H 111.48506 6.74566 0.57143
|1998> H 110.25874 7.65733 -0.32590
|1999> H 111.44290 6.67057 -1.20005
|2000> C 108.38581 -0.00909 0.00674
|2001> S 107.07579 1.09837 -0.02545
|2002> C 107.88169 -1.30540 0.04965
|2003> C 106.44867 -1.39941 0.05321
|2004> H 108.52217 -2.17824 0.07709
|2005> C 105.90065 -0.13382 0.01309
|2006> C 105.62627 -2.66320 0.09188
|2007> C 106.43249 -3.96393 0.14939
|2008> H 104.98192 -2.67996 -0.79672
|2009> H 104.96333 -2.61475 0.96559
|2010> C 105.52065 -5.19141 0.17284
|2011> H 107.06803 -3.96786 1.04394
|2012> H 107.09906 -4.02784 -0.71991
|2013> C 106.32611 -6.47992 0.24176
|2014> H 104.89427 -5.20701 -0.72658
|2015> H 104.84838 -5.14115 1.03708
|2016> H 106.99271 -6.57328 -0.62163
|2017> H 105.65708 -7.34608 0.24934
|2018> H 106.93521 -6.51355 1.15082
|2019> C 119.05065 0.39912 -0.11982
|2020> C 118.73163 1.69056 -0.44451
|2021> C 117.30294 1.77532 -0.46391
|2022> H 119.44505 2.47740 -0.64363
|2023> O 117.92692 -0.32426 0.06383
|2024> C 116.84330 0.49715 -0.14161
|2025> C 116.47617 2.99488 -0.76824
|2026> C 117.31558 4.23323 -1.11299
|2027> H 115.84441 3.21852 0.10042
|2028> H 115.80778 2.76937 -1.60853
|2029> C 116.46485 5.46683 -1.40812
|2030> H 117.94532 4.01762 -1.98596
|2031> H 117.99236 4.46196 -0.27955
[...]
|5205> C 723.58667 -6.47992 0.24176
|5206> H 722.15483 -5.20701 -0.72658
|5207> H 722.10894 -5.14115 1.03708
|5208> H 724.25327 -6.57328 -0.62163
|5209> H 722.91764 -7.34608 0.24934
|5210> H 724.19577 -6.51355 1.15082
|5211> C 736.95970 0.21943 -0.00160
|5212> C 736.52312 1.51706 -0.05525
|5213> C 735.08317 1.64799 -0.06086
|5214> H 737.22025 2.34505 -0.08942
|5215> S 735.66751 -0.86899 0.04351
|5216> C 734.46706 0.38757 -0.00891
|5217> C 734.38509 2.99623 -0.11591
|5218> C 735.31717 4.21413 -0.18106
|5219> H 733.75486 3.09769 0.77579
|5220> H 733.73831 3.01745 -1.00117
|5221> C 734.54349 5.53186 -0.22703
|5222> H 735.95539 4.14424 -1.07101
|5223> H 735.97882 4.22204 0.69431
|5224> C 735.49249 6.71953 -0.29951
|5225> H 733.91416 5.62723 0.66518
|5226> H 733.87974 5.54685 -1.09896
|5227> H 736.15561 6.74566 0.57143
|5228> H 734.92929 7.65733 -0.32590
|5229> H 736.11345 6.67057 -1.20005
|5230> C 733.05636 -0.00909 0.00674
|5231> S 731.74634 1.09837 -0.02545
|5232> C 732.55224 -1.30540 0.04965
|5233> C 731.11922 -1.39941 0.05321
|5234> H 733.19272 -2.17824 0.07709
|5235> C 730.57120 -0.13382 0.01309
|5236> C 730.29682 -2.66320 0.09188
|5237> C 731.10304 -3.96393 0.14939
|5238> H 729.65247 -2.67996 -0.79672
|5239> H 729.63388 -2.61475 0.96559
|5240> C 730.19120 -5.19141 0.17284
|5241> H 731.73858 -3.96786 1.04394
|5242> H 731.76961 -4.02784 -0.71991
|5243> C 730.99666 -6.47992 0.24176
|5244> H 729.56482 -5.20701 -0.72658
|5245> H 729.51893 -5.14115 1.03708
|5246> H 731.66326 -6.57328 -0.62163
|5247> H 730.32763 -7.34608 0.24934
|5248> H 731.60576 -6.51355 1.15082
|5249> C 743.72120 0.39912 -0.11982
|5250> C 743.40218 1.69056 -0.44451
|5251> C 741.97349 1.77532 -0.46391
|5252> H 744.11560 2.47740 -0.64363
|5253> O 742.59747 -0.32426 0.06383
|5254> C 741.51385 0.49715 -0.14161
|5255> C 741.14672 2.99488 -0.76824
|5256> C 741.98613 4.23323 -1.11299
|5257> H 740.51496 3.21852 0.10042
|5258> H 740.47833 2.76937 -1.60853
|5259> C 741.13540 5.46683 -1.40812
|5260> H 742.61587 4.01762 -1.98596
|5261> H 742.66291 4.46196 -0.27955
|5262> C 742.01706 6.66190 -1.74627
|5263> H 740.51492 5.71095 -0.53855
|5264> H 740.46093 5.26630 -2.24805
|5265> H 742.69029 6.90038 -0.91602
|5266> H 741.40426 7.54497 -1.95069
|5267> H 742.62837 6.45995 -2.63219
|5268> C 740.18009 -0.01912 -0.01124
|5269> O 739.03131 0.70407 -0.19354
|5270> C 737.98119 -0.13382 0.01309
|5271> C 739.82887 -1.31867 0.31417
|5272> C 738.41000 -1.40681 0.33144
|5273> H 740.53925 -2.11005 0.51302
|5274> C 737.55261 -2.60039 0.62149
|5275> C 738.34076 -3.86542 0.98246
|5276> H 736.92824 -2.80303 -0.25787
|5277> H 736.87309 -2.35194 1.44656
|5278> C 737.42404 -5.05865 1.25121
|5279> H 738.95691 -3.67591 1.87082
|5280> H 739.02813 -4.11950 0.16537
|5281> C 738.22757 -6.30015 1.61088
|5282> H 738.81981 -6.13542 2.51692
|5283> H 738.91113 -6.57422 0.80062
|5284> H 737.55905 -7.14753 1.79186
|5285> H 736.81587 -5.26891 0.36399
|5286> H 736.73594 -4.82494 2.07153
|5287> C 751.03988 0.21943 -0.00160
|5288> C 750.60330 1.51706 -0.05525
|5289> C 749.16335 1.64799 -0.06086
|5290> H 751.30043 2.34505 -0.08942
|5291> S 749.74769 -0.86899 0.04351
|5292> C 748.54724 0.38757 -0.00891
|5293> C 748.46527 2.99623 -0.11591
|5294> C 749.39735 4.21413 -0.18106
|5295> H 747.83504 3.09769 0.77579
|5296> H 747.81849 3.01745 -1.00117
|5297> C 748.62367 5.53186 -0.22703
|5298> H 750.03557 4.14424 -1.07101
|5299> H 750.05900 4.22204 0.69431
|5300> C 749.57267 6.71953 -0.29951
|5301> H 747.99434 5.62723 0.66518
|5302> H 747.95992 5.54685 -1.09896
|5303> H 750.23579 6.74566 0.57143
|5304> H 749.00947 7.65733 -0.32590
|5305> H 750.19363 6.67057 -1.20005
|5306> C 747.13654 -0.00909 0.00674
|5307> S 745.82652 1.09837 -0.02545
|5308> C 746.63242 -1.30540 0.04965
|5309> C 745.19940 -1.39941 0.05321
|5310> H 747.27290 -2.17824 0.07709
|5311> C 744.65138 -0.13382 0.01309
|5312> C 744.37700 -2.66320 0.09188
|5313> C 745.18322 -3.96393 0.14939
|5314> H 743.73265 -2.67996 -0.79672
|5315> H 743.71406 -2.61475 0.96559
|5316> C 744.27138 -5.19141 0.17284
|5317> H 745.81876 -3.96786 1.04394
|5318> H 745.84979 -4.02784 -0.71991
|5319> C 745.07684 -6.47992 0.24176
|5320> H 743.64500 -5.20701 -0.72658
|5321> H 743.59911 -5.14115 1.03708
|5322> H 745.74344 -6.57328 -0.62163
|5323> H 744.40781 -7.34608 0.24934
|5324> H 745.68594 -6.51355 1.15082
|5325> C 758.44987 0.21943 -0.00160
|5326> C 758.01329 1.51706 -0.05525
|5327> C 756.57334 1.64799 -0.06086
|5328> H 758.71042 2.34505 -0.08942
|5329> S 757.15768 -0.86899 0.04351
|5330> C 755.95723 0.38757 -0.00891
|5331> C 755.87526 2.99623 -0.11591
|5332> C 756.80734 4.21413 -0.18106
|5333> H 755.24503 3.09769 0.77579
|5334> H 755.22848 3.01745 -1.00117
|5335> C 756.03366 5.53186 -0.22703
|5336> H 757.44556 4.14424 -1.07101
|5337> H 757.46899 4.22204 0.69431
|5338> C 756.98266 6.71953 -0.29951
|5339> H 755.40433 5.62723 0.66518
|5340> H 755.36991 5.54685 -1.09896
|5341> H 757.64578 6.74566 0.57143
|5342> H 756.41946 7.65733 -0.32590
|5343> H 757.60362 6.67057 -1.20005
|5344> C 754.54653 -0.00909 0.00674
|5345> S 753.23651 1.09837 -0.02545
|5346> C 754.04241 -1.30540 0.04965
|5347> C 752.60939 -1.39941 0.05321
|5348> H 754.68289 -2.17824 0.07709
|5349> C 752.06137 -0.13382 0.01309
|5350> C 751.78699 -2.66320 0.09188
|5351> C 752.59321 -3.96393 0.14939
|5352> H 751.14264 -2.67996 -0.79672
|5353> H 751.12405 -2.61475 0.96559
|5354> C 751.68137 -5.19141 0.17284
|5355> H 753.22875 -3.96786 1.04394
|5356> H 753.25978 -4.02784 -0.71991
|5357> C 752.48683 -6.47992 0.24176
|5358> H 751.05499 -5.20701 -0.72658
|5359> H 751.00910 -5.14115 1.03708
|5360> H 753.15343 -6.57328 -0.62163
|5361> H 751.81780 -7.34608 0.24934
|5362> H 753.09593 -6.51355 1.15082
|5363> C 765.85986 0.21943 -0.00160
|5364> C 765.42328 1.51706 -0.05525
|5365> C 763.98333 1.64799 -0.06086
|5366> H 766.12041 2.34505 -0.08942
|5367> S 764.56767 -0.86899 0.04351
|5368> C 763.36722 0.38757 -0.00891
|5369> C 763.28525 2.99623 -0.11591
|5370> C 764.21733 4.21413 -0.18106
|5371> H 762.65502 3.09769 0.77579
|5372> H 762.63847 3.01745 -1.00117
|5373> C 763.44365 5.53186 -0.22703
|5374> H 764.85555 4.14424 -1.07101
|5375> H 764.87898 4.22204 0.69431
|5376> C 764.39265 6.71953 -0.29951
|5377> H 762.81432 5.62723 0.66518
|5378> H 762.77990 5.54685 -1.09896
|5379> H 765.05577 6.74566 0.57143
|5380> H 763.82945 7.65733 -0.32590
|5381> H 765.01361 6.67057 -1.20005
|5382> C 761.95652 -0.00909 0.00674
|5383> S 760.64650 1.09837 -0.02545
|5384> C 761.45240 -1.30540 0.04965
|5385> C 760.01938 -1.39941 0.05321
|5386> H 762.09288 -2.17824 0.07709
|5387> C 759.47136 -0.13382 0.01309
|5388> C 759.19698 -2.66320 0.09188
|5389> C 760.00320 -3.96393 0.14939
|5390> H 758.55263 -2.67996 -0.79672
|5391> H 758.53404 -2.61475 0.96559
|5392> C 759.09136 -5.19141 0.17284
|5393> H 760.63874 -3.96786 1.04394
|5394> H 760.66977 -4.02784 -0.71991
|5395> C 759.89682 -6.47992 0.24176
|5396> H 758.46498 -5.20701 -0.72658
|5397> H 758.41909 -5.14115 1.03708
|5398> H 760.56342 -6.57328 -0.62163
|5399> H 759.22779 -7.34608 0.24934
|5400> H 760.50592 -6.51355 1.15082
|5401> C 772.62136 0.39912 -0.11982
|5402> C 772.30234 1.69056 -0.44451
|5403> C 770.87365 1.77532 -0.46391
|5404> H 773.01576 2.47740 -0.64363
|5405> O 771.49763 -0.32426 0.06383
|5406> C 770.41401 0.49715 -0.14161
|5407> C 770.04688 2.99488 -0.76824
|5408> C 770.88629 4.23323 -1.11299
|5409> H 769.41512 3.21852 0.10042
|5410> H 769.37849 2.76937 -1.60853
|5411> C 770.03556 5.46683 -1.40812
|5412> H 771.51603 4.01762 -1.98596
|5413> H 771.56307 4.46196 -0.27955
|5414> C 770.91722 6.66190 -1.74627
|5415> H 769.41508 5.71095 -0.53855
|5416> H 769.36109 5.26630 -2.24805
|5417> H 771.59045 6.90038 -0.91602
|5418> H 770.30442 7.54497 -1.95069
|5419> H 771.52853 6.45995 -2.63219
|5420> C 769.08025 -0.01912 -0.01124
|5421> O 767.93147 0.70407 -0.19354
|5422> C 766.88135 -0.13382 0.01309
|5423> C 768.72903 -1.31867 0.31417
|5424> C 767.31016 -1.40681 0.33144
|5425> H 769.43941 -2.11005 0.51302
|5426> C 766.45277 -2.60039 0.62149
|5427> C 767.24092 -3.86542 0.98246
|5428> H 765.82840 -2.80303 -0.25787
|5429> H 765.77325 -2.35194 1.44656
|5430> C 766.32420 -5.05865 1.25121
|5431> H 767.85707 -3.67591 1.87082
|5432> H 767.92829 -4.11950 0.16537
|5433> C 767.12773 -6.30015 1.61088
|5434> H 767.71997 -6.13542 2.51692
|5435> H 767.81129 -6.57422 0.80062
|5436> H 766.45921 -7.14753 1.79186
|5437> H 765.71603 -5.26891 0.36399
|5438> H 765.63610 -4.82494 2.07153
|5439> C 779.94004 0.21943 -0.00160
|5440> C 779.50346 1.51706 -0.05525
|5441> C 778.06351 1.64799 -0.06086
|5442> H 780.20059 2.34505 -0.08942
|5443> S 778.64785 -0.86899 0.04351
|5444> C 777.44740 0.38757 -0.00891
|5445> C 777.36543 2.99623 -0.11591
|5446> C 778.29751 4.21413 -0.18106
|5447> H 776.73520 3.09769 0.77579
|5448> H 776.71865 3.01745 -1.00117
|5449> C 777.52383 5.53186 -0.22703
|5450> H 778.93573 4.14424 -1.07101
|5451> H 778.95916 4.22204 0.69431
|5452> C 778.47283 6.71953 -0.29951
|5453> H 776.89450 5.62723 0.66518
|5454> H 776.86008 5.54685 -1.09896
|5455> H 779.13595 6.74566 0.57143
|5456> H 777.90963 7.65733 -0.32590
|5457> H 779.09379 6.67057 -1.20005
|5458> C 776.03670 -0.00909 0.00674
|5459> S 774.72668 1.09837 -0.02545
|5460> C 775.53258 -1.30540 0.04965
|5461> C 774.09956 -1.39941 0.05321
|5462> H 776.17306 -2.17824 0.07709
|5463> C 773.55154 -0.13382 0.01309
|5464> C 773.27716 -2.66320 0.09188
|5465> C 774.08338 -3.96393 0.14939
|5466> H 772.63281 -2.67996 -0.79672
|5467> H 772.61422 -2.61475 0.96559
|5468> C 773.17154 -5.19141 0.17284
|5469> H 774.71892 -3.96786 1.04394
|5470> H 774.74995 -4.02784 -0.71991
|5471> C 773.97700 -6.47992 0.24176
|5472> H 772.54516 -5.20701 -0.72658
|5473> H 772.49927 -5.14115 1.03708
|5474> H 774.64360 -6.57328 -0.62163
|5475> H 773.30797 -7.34608 0.24934
|5476> H 774.58610 -6.51355 1.15082
|5477> C 787.35003 0.21943 -0.00160
|5478> C 786.91345 1.51706 -0.05525
|5479> C 785.47350 1.64799 -0.06086
|5480> H 787.61058 2.34505 -0.08942
|5481> S 786.05784 -0.86899 0.04351
|5482> C 784.85739 0.38757 -0.00891
|5483> C 784.77542 2.99623 -0.11591
|5484> C 785.70750 4.21413 -0.18106
|5485> H 784.14519 3.09769 0.77579
|5486> H 784.12864 3.01745 -1.00117
|5487> C 784.93382 5.53186 -0.22703
|5488> H 786.34572 4.14424 -1.07101
|5489> H 786.36915 4.22204 0.69431
|5490> C 785.88282 6.71953 -0.29951
|5491> H 784.30449 5.62723 0.66518
|5492> H 784.27007 5.54685 -1.09896
|5493> H 786.54594 6.74566 0.57143
|5494> H 785.31962 7.65733 -0.32590
|5495> H 786.50378 6.67057 -1.20005
|5496> C 783.44669 -0.00909 0.00674
|5497> S 782.13667 1.09837 -0.02545
|5498> C 782.94257 -1.30540 0.04965
|5499> C 781.50955 -1.39941 0.05321
|5500> H 783.58305 -2.17824 0.07709
|5501> C 780.96153 -0.13382 0.01309
|5502> C 780.68715 -2.66320 0.09188
|5503> C 781.49337 -3.96393 0.14939
|5504> H 780.04280 -2.67996 -0.79672
|5505> H 780.02421 -2.61475 0.96559
|5506> C 780.58153 -5.19141 0.17284
|5507> H 782.12891 -3.96786 1.04394
|5508> H 782.15994 -4.02784 -0.71991
|5509> C 781.38699 -6.47992 0.24176
|5510> H 779.95515 -5.20701 -0.72658
|5511> H 779.90926 -5.14115 1.03708
|5512> H 782.05359 -6.57328 -0.62163
|5513> H 780.71796 -7.34608 0.24934
|5514> H 781.99609 -6.51355 1.15082
|5515> C 794.76002 0.21943 -0.00160
|5516> C 794.32344 1.51706 -0.05525
|5517> C 792.88349 1.64799 -0.06086
|5518> H 795.02057 2.34505 -0.08942
|5519> S 793.46783 -0.86899 0.04351
|5520> C 792.26738 0.38757 -0.00891
|5521> C 792.18541 2.99623 -0.11591
|5522> C 793.11749 4.21413 -0.18106
|5523> H 791.55518 3.09769 0.77579
|5524> H 791.53863 3.01745 -1.00117
|5525> C 792.34381 5.53186 -0.22703
|5526> H 793.75571 4.14424 -1.07101
|5527> H 793.77914 4.22204 0.69431
|5528> C 793.29281 6.71953 -0.29951
|5529> H 791.71448 5.62723 0.66518
|5530> H 791.68006 5.54685 -1.09896
|5531> H 793.95593 6.74566 0.57143
|5532> H 792.72961 7.65733 -0.32590
|5533> H 793.91377 6.67057 -1.20005
|5534> C 790.85668 -0.00909 0.00674
|5535> S 789.54666 1.09837 -0.02545
|5536> C 790.35256 -1.30540 0.04965
|5537> C 788.91954 -1.39941 0.05321
|5538> H 790.99304 -2.17824 0.07709
|5539> C 788.37152 -0.13382 0.01309
|5540> C 788.09714 -2.66320 0.09188
|5541> C 788.90336 -3.96393 0.14939
|5542> H 787.45279 -2.67996 -0.79672
|5543> H 787.43420 -2.61475 0.96559
|5544> C 787.99152 -5.19141 0.17284
|5545> H 789.53890 -3.96786 1.04394
|5546> H 789.56993 -4.02784 -0.71991
|5547> C 788.79698 -6.47992 0.24176
|5548> H 787.36514 -5.20701 -0.72658
|5549> H 787.31925 -5.14115 1.03708
|5550> H 789.46358 -6.57328 -0.62163
|5551> H 788.12795 -7.34608 0.24934
|5552> H 789.40608 -6.51355 1.15082
|5553> C 802.17001 0.21943 -0.00160
|5554> C 801.73343 1.51706 -0.05525
|5555> C 800.29348 1.64799 -0.06086
|5556> H 802.43056 2.34505 -0.08942
|5557> S 800.87782 -0.86899 0.04351
|5558> C 799.67737 0.38757 -0.00891
|5559> C 799.59540 2.99623 -0.11591
|5560> C 800.52748 4.21413 -0.18106
|5561> H 798.96517 3.09769 0.77579
|5562> H 798.94862 3.01745 -1.00117
|5563> C 799.75380 5.53186 -0.22703
|5564> H 801.16570 4.14424 -1.07101
|5565> H 801.18913 4.22204 0.69431
|5566> C 800.70280 6.71953 -0.29951
|5567> H 799.12447 5.62723 0.66518
|5568> H 799.09005 5.54685 -1.09896
|5569> H 801.36592 6.74566 0.57143
|5570> H 800.13960 7.65733 -0.32590
|5571> H 801.32376 6.67057 -1.20005
|5572> C 798.26667 -0.00909 0.00674
|5573> S 796.95665 1.09837 -0.02545
|5574> C 797.76255 -1.30540 0.04965
|5575> C 796.32953 -1.39941 0.05321
|5576> H 798.40303 -2.17824 0.07709
|5577> C 795.78151 -0.13382 0.01309
|5578> C 795.50713 -2.66320 0.09188
|5579> C 796.31335 -3.96393 0.14939
|5580> H 794.86278 -2.67996 -0.79672
|5581> H 794.84419 -2.61475 0.96559
|5582> C 795.40151 -5.19141 0.17284
|5583> H 796.94889 -3.96786 1.04394
|5584> H 796.97992 -4.02784 -0.71991
|5585> C 796.20697 -6.47992 0.24176
|5586> H 794.77513 -5.20701 -0.72658
|5587> H 794.72924 -5.14115 1.03708
|5588> H 796.87357 -6.57328 -0.62163
|5589> H 795.53794 -7.34608 0.24934
|5590> H 796.81607 -6.51355 1.15082
|5591> C 808.93151 0.39912 -0.11982
|5592> C 808.61249 1.69056 -0.44451
|5593> C 807.18380 1.77532 -0.46391
|5594> H 809.32591 2.47740 -0.64363
|5595> O 807.80778 -0.32426 0.06383
|5596> C 806.72416 0.49715 -0.14161
|5597> C 806.35703 2.99488 -0.76824
|5598> C 807.19644 4.23323 -1.11299
|5599> H 805.72527 3.21852 0.10042
|5600> H 805.68864 2.76937 -1.60853
|5601> C 806.34571 5.46683 -1.40812
|5602> H 807.82618 4.01762 -1.98596
|5603> H 807.87322 4.46196 -0.27955
|5604> C 807.22737 6.66190 -1.74627
|5605> H 805.72523 5.71095 -0.53855
|5606> H 805.67124 5.26630 -2.24805
|5607> H 807.90060 6.90038 -0.91602
|5608> H 806.61457 7.54497 -1.95069
|5609> H 807.83868 6.45995 -2.63219
|5610> C 805.39040 -0.01912 -0.01124
|5611> O 804.24162 0.70407 -0.19354
|5612> C 803.19150 -0.13382 0.01309
|5613> C 805.03918 -1.31867 0.31417
|5614> C 803.62031 -1.40681 0.33144
|5615> H 805.74956 -2.11005 0.51302
|5616> C 802.76292 -2.60039 0.62149
|5617> C 803.55107 -3.86542 0.98246
|5618> H 802.13855 -2.80303 -0.25787
|5619> H 802.08340 -2.35194 1.44656
|5620> C 802.63435 -5.05865 1.25121
|5621> H 804.16722 -3.67591 1.87082
|5622> H 804.23844 -4.11950 0.16537
|5623> C 803.43788 -6.30015 1.61088
|5624> H 804.03012 -6.13542 2.51692
|5625> H 804.12144 -6.57422 0.80062
|5626> H 802.76936 -7.14753 1.79186
|5627> H 802.02618 -5.26891 0.36399
|5628> H 801.94625 -4.82494 2.07153
|5629> C 816.25019 0.21943 -0.00160
|5630> C 815.81361 1.51706 -0.05525
|5631> C 814.37366 1.64799 -0.06086
|5632> H 816.51074 2.34505 -0.08942
|5633> S 814.95800 -0.86899 0.04351
|5634> C 813.75755 0.38757 -0.00891
|5635> C 813.67558 2.99623 -0.11591
|5636> C 814.60766 4.21413 -0.18106
|5637> H 813.04535 3.09769 0.77579
|5638> H 813.02880 3.01745 -1.00117
|5639> C 813.83398 5.53186 -0.22703
|5640> H 815.24588 4.14424 -1.07101
|5641> H 815.26931 4.22204 0.69431
|5642> C 814.78298 6.71953 -0.29951
|5643> H 813.20465 5.62723 0.66518
|5644> H 813.17023 5.54685 -1.09896
|5645> H 815.44610 6.74566 0.57143
|5646> H 814.21978 7.65733 -0.32590
|5647> H 815.40394 6.67057 -1.20005
|5648> C 812.34685 -0.00909 0.00674
|5649> S 811.03683 1.09837 -0.02545
|5650> C 811.84273 -1.30540 0.04965
|5651> C 810.40971 -1.39941 0.05321
|5652> H 812.48321 -2.17824 0.07709
|5653> C 809.86169 -0.13382 0.01309
|5654> C 809.58731 -2.66320 0.09188
|5655> C 810.39353 -3.96393 0.14939
|5656> H 808.94296 -2.67996 -0.79672
|5657> H 808.92437 -2.61475 0.96559
|5658> C 809.48169 -5.19141 0.17284
|5659> H 811.02907 -3.96786 1.04394
|5660> H 811.06010 -4.02784 -0.71991
|5661> C 810.28715 -6.47992 0.24176
|5662> H 808.85531 -5.20701 -0.72658
|5663> H 808.80942 -5.14115 1.03708
|5664> H 810.95375 -6.57328 -0.62163
|5665> H 809.61812 -7.34608 0.24934
|5666> H 810.89625 -6.51355 1.15082
|5667> C 823.66018 0.21943 -0.00160
|5668> C 823.22360 1.51706 -0.05525
|5669> C 821.78365 1.64799 -0.06086
|5670> H 823.92073 2.34505 -0.08942
|5671> S 822.36799 -0.86899 0.04351
|5672> C 821.16754 0.38757 -0.00891
|5673> C 821.08557 2.99623 -0.11591
|5674> C 822.01765 4.21413 -0.18106
|5675> H 820.45534 3.09769 0.77579
|5676> H 820.43879 3.01745 -1.00117
|5677> C 821.24397 5.53186 -0.22703
|5678> H 822.65587 4.14424 -1.07101
|5679> H 822.67930 4.22204 0.69431
|5680> C 822.19297 6.71953 -0.29951
|5681> H 820.61464 5.62723 0.66518
|5682> H 820.58022 5.54685 -1.09896
|5683> H 822.85609 6.74566 0.57143
|5684> H 821.62977 7.65733 -0.32590
|5685> H 822.81393 6.67057 -1.20005
|5686> C 819.75684 -0.00909 0.00674
|5687> S 818.44682 1.09837 -0.02545
|5688> C 819.25272 -1.30540 0.04965
|5689> C 817.81970 -1.39941 0.05321
|5690> H 819.89320 -2.17824 0.07709
|5691> C 817.27168 -0.13382 0.01309
|5692> C 816.99730 -2.66320 0.09188
|5693> C 817.80352 -3.96393 0.14939
|5694> H 816.35295 -2.67996 -0.79672
|5695> H 816.33436 -2.61475 0.96559
|5696> C 816.89168 -5.19141 0.17284
|5697> H 818.43906 -3.96786 1.04394
|5698> H 818.47009 -4.02784 -0.71991
|5699> C 817.69714 -6.47992 0.24176
|5700> H 816.26530 -5.20701 -0.72658
|5701> H 816.21941 -5.14115 1.03708
|5702> H 818.36374 -6.57328 -0.62163
|5703> H 817.02811 -7.34608 0.24934
|5704> H 818.30624 -6.51355 1.15082
|5705> H 824.68167 -0.13382 0.01309
|5706> **                         ****END OF INPUT****
================================================================================

                       *****************************
                       * Geometry Optimization Run *
                       *****************************

Geometry optimization settings:
Update method            Update   .... BFGS
Choice of coordinates    CoordSys .... Redundant Internals
Initial Hessian          InHess   .... Almoef's Model

Convergence Tolerances:
Energy Change            TolE     ....  5.0000e-06 Eh
Max. Gradient            TolMAXG  ....  3.0000e-04 Eh/bohr
RMS Gradient             TolRMSG  ....  1.0000e-04 Eh/bohr
Max. Displacement        TolMAXD  ....  4.0000e-03 bohr
RMS Displacement         TolRMSD  ....  2.0000e-03 bohr

------------------------------------------------------------------------------
                        ORCA OPTIMIZATION COORDINATE SETUP
------------------------------------------------------------------------------

The optimization will be done in new redundant internal coordinates
Making redundant internal coordinates   ...  (new redundants) done
Evaluating the initial hessian          ...  (Almloef) done
Evaluating the coordinates              ...  done
Calculating the B-matrix                .... done
Calculating the G-matrix                .... done
Diagonalizing the G-matrix              .... 