40
	Energy:     166.0647667
H         -0.83404       -0.24671        0.66401 ****
C          0.00000       -0.00000        0.00000 *
C          1.26956        0.42869        0.76505
H         -0.33665        0.79983       -0.67091
H          0.18441       -0.89285       -0.60202
C          0.97728        1.69213        1.64175
C         -0.27627        1.88376        2.28225
C         -0.54828        3.00141        3.09946
C          0.44445        3.94912        3.32492
C          1.69404        3.78761        2.73383
C          1.95791        2.66458        1.92308
H         -1.08559        1.16679        2.17844
H         -1.52177        3.13268        3.56882
H          2.46792        4.53012        2.91551
H          2.96935        2.58870        1.53870
S          0.10304        5.40054        4.36722
O         -1.28964        5.71444        4.05150
O          1.07412        6.38811        3.90361
O          0.33636        4.87590        5.71007
C          2.44264        0.52271       -0.30578
H          1.51262       -0.36382        1.48573
C          3.49875       -0.65883       -0.34741 ***
H          2.99583        1.43748       -0.08316
H          2.03410        0.70840       -1.30573
H          4.90283       -0.00000       -0.00000 **
C          3.63867       -1.61304       -1.58613
H          3.30421       -1.33301        0.49633
C          2.59943       -2.48395       -1.98944
C          2.81443       -3.51428       -2.94463
C          4.88766       -1.81681       -2.23988
C          5.11074       -2.83940       -3.18150
C          4.07643       -3.70137       -3.51657
H          1.61350       -2.42759       -1.53804
H          2.01689       -4.20246       -3.22313
H          5.75798       -1.21202       -1.99185
H          6.09769       -2.98350       -3.61672
S          4.37987       -5.07960       -4.67439
O          5.70605       -4.80241       -5.20993
O          3.28295       -4.93596       -5.63334
O          4.29428       -6.24522       -3.79641
