40
	Energy:      23.6591451
C          6.38850        0.35325       -0.01469 ***
C          5.95192        1.65088       -0.06834
C          4.51197        1.78181       -0.07395
H          6.64905        2.47887       -0.10251
S          5.09631       -0.73517        0.03042
C          3.89586        0.52139       -0.02200
C          3.81389        3.13005       -0.12900
C          4.74597        4.34795       -0.19415
H          3.18366        3.23151        0.76270
H          3.16711        3.15127       -1.01426
C          3.97229        5.66568       -0.24012
H          5.38419        4.27806       -1.08410
H          5.40762        4.35586        0.68122
C          4.92129        6.85335       -0.31260
H          3.34296        5.76105        0.65209
H          3.30854        5.68067       -1.11205
H          5.58441        6.87948        0.55834
H          4.35809        7.79115       -0.33899
H          5.54225        6.80439       -1.21314
H          7.40999        0.00000        0.00000 **
C          2.48516        0.12473       -0.00635
S          1.17514        1.23219       -0.03854
C          1.98104       -1.17158        0.03656
C          0.54802       -1.26559        0.04012
H          2.62152       -2.04442        0.06400
C          0.00000        0.00000        0.00000 *
H         -1.04952        0.26202       -0.00858 ****
C         -0.27438       -2.52938        0.07879
C          0.53184       -3.83011        0.13630
H         -0.91873       -2.54614       -0.80981
H         -0.93732       -2.48093        0.95250
C         -0.38000       -5.05759        0.15975
H          1.16738       -3.83404        1.03085
H          1.19841       -3.89402       -0.73300
C          0.42546       -6.34610        0.22867
H         -1.00638       -5.07319       -0.73967
H         -1.05227       -5.00733        1.02399
H          1.09206       -6.43946       -0.63472
H         -0.24357       -7.21226        0.23625
H          1.03456       -6.37973        1.13773
