You are running Q-Chem version: 5.4.0

#
# job setting
#
local host:  exp-1-41
current dir: /expanse/lustre/scratch/theleonzhang/temp_project/Interring_Bonds
input file:  Methylthiophene_Phi_60_Theta_310_Methylthiophene.qcin
output file: 
nprocs     : 0
nthreads   : 1
#
# qchem installation setting
#
QC:          /cm/shared/apps/spack/cpu/opt/spack/linux-centos8-zen2/gcc-10.2.0/qchem-5.4-akfmr7b3t57bfs6qan3padb2wnb2i7cl
QCAUX:       /cm/shared/apps/spack/cpu/opt/spack/linux-centos8-zen2/gcc-10.2.0/qchem-5.4-akfmr7b3t57bfs6qan3padb2wnb2i7cl/qcaux
QCPROG:      /cm/shared/apps/spack/cpu/opt/spack/linux-centos8-zen2/gcc-10.2.0/qchem-5.4-akfmr7b3t57bfs6qan3padb2wnb2i7cl/exe/qcprog.exe_s
QCPROG_S:    /cm/shared/apps/spack/cpu/opt/spack/linux-centos8-zen2/gcc-10.2.0/qchem-5.4-akfmr7b3t57bfs6qan3padb2wnb2i7cl/exe/qcprog.exe_s
PARALLEL:    -DSERIAL
QCMPI:       mpich
#
# qchem directory setting
#
qcrun:       qchem570913
QCSCRATCH:   .
QCLOCALSCR:  
QCTMPDIR:    .
QCFILEPREF:  ./qchem570913
QCSAVEDIR:   
workdirs:    ./qchem570913
workdir0:    ./qchem570913
partmpdirs =  
#
# parallel setting
#
QCRSH:           ssh
QCMPI:           mpich
QCMPIRUN:        /cm/shared/apps/spack/cpu/opt/spack/linux-centos8-zen2/gcc-10.2.0/qchem-5.4-akfmr7b3t57bfs6qan3padb2wnb2i7cl/bin/mpi/mpirun_qchem
QCMACHINEFILE:   ./qchem570913/hostfile

#
# env setting
#
exported envs:   QC QCAUX QCSCRATCH QCRUNNAME QCFILEPREF QCPROG QCPROG_S GUIFILE

Running Job 1 of 1 Methylthiophene_Phi_60_Theta_310_Methylthiophene.qcin
qchem Methylthiophene_Phi_60_Theta_310_Methylthiophene.qcin_570913.0 ./qchem570913/ 0
/cm/shared/apps/spack/cpu/opt/spack/linux-centos8-zen2/gcc-10.2.0/qchem-5.4-akfmr7b3t57bfs6qan3padb2wnb2i7cl/exe/qcprog.exe_s Methylthiophene_Phi_60_Theta_310_Methylthiophene.qcin_570913.0 ./qchem570913/
                  Welcome to Q-Chem
     A Quantum Leap Into The Future Of Chemistry


 Q-Chem 5.4, Q-Chem, Inc., Pleasanton, CA (2021)

 License issued to: University of California, San Diego (site)

 E. Epifanovsky,  A. T. B. Gilbert,  Xintian Feng,  Joonho Lee,  Yuezhi Mao,  
 N. Mardirossian,  P. Pokhilko,  A. White,  M. Wormit,  M. P. Coons,  
 A. L. Dempwolff,  Zhengting Gan,  D. Hait,  P. R. Horn,  L. D. Jacobson,  
 I. Kaliman,  J. Kussmann,  A. W. Lange,  Ka Un Lao,  D. S. Levine,  Jie Liu,  
 S. C. McKenzie,  A. F. Morrison,  K. Nanda,  F. Plasser,  D. R. Rehn,  
 M. L. Vidal,  Zhi-Qiang You,  Ying Zhu,  B. Alam,  B. Albrecht,  
 A. Aldossary,  E. Alguire,  J. H. Andersen,  D. Barton,  K. Begam,  A. Behn,  
 Y. A. Bernard,  E. J. Berquist,  H. Burton,  A. Carreras,  K. Carter-Fenk,  
 R. Chakraborty,  A. D. Chien,  K. D. Closser,  V. Cofer-Shabica,  
 S. Dasgupta,  Jia Deng,  M. de Wergifosse,  M. Diedenhofen,  Hainam Do,  
 S. Ehlert,  Po-Tung Fang,  S. Fatehi,  Qingguo Feng,  J. Gayvert,  
 Qinghui Ge,  G. Gidofalvi,  M. Goldey,  J. Gomes,  C. Gonzalez-Espinoza,  
 S. Gulania,  A. Gunina,  M. W. D. Hanson-Heine,  P. H. P. Harbach,  
 A. W. Hauser,  M. F. Herbst,  M. Hernandez Vera,  M. Hodecker,  
 Z. C. Holden,  S. Houck,  Xunkun Huang,  Kerwin Hui,  B. C. Huynh,  
 M. Ivanov,  Hyunjun Ji,  Hanjie Jiang,  B. Kaduk,  S. Kaehler,  
 K. Khistyaev,  Jaehoon Kim,  P. Klunzinger,  Z. Koczor-Benda,  
 Joong Hoon Koh,  D. Kosenkov,  L. Koulias,  T. Kowalczyk,  C. M. Krauter,  
 K. Kue,  A. Kunitsa,  T. Kus,  A. Landau,  K. V. Lawler,  D. Lefrancois,  
 S. Lehtola,  Rain Li,  Yi-Pei Li,  Jiashu Liang,  M. Liebenthal,  
 Hung-Hsuan Lin,  You-Sheng Lin,  Fenglai Liu,  Kuan-Yu Liu,  
 M. Loipersberger,  A. Luenser,  A. Manjanath,  P. Manohar,  E. Mansoor,  
 S. F. Manzer,  Shan-Ping Mao,  A. V. Marenich,  T. Markovich,  S. Mason,  
 S. A. Maurer,  P. F. McLaughlin,  M. F. S. J. Menger,  J.-M. Mewes,  
 S. A. Mewes,  P. Morgante,  J. W. Mullinax,  T. S. Nguyen-Beck,  
 K. J. Oosterbaan,  G. Paran,  Alexander C. Paul,  Suranjan K. Paul,  
 F. Pavosevic,  Zheng Pei,  S. Prager,  E. I. Proynov,  E. Ramos,  B. Rana,  
 A. E. Rask,  A. Rettig,  R. M. Richard,  F. Rob,  E. Rossomme,  T. Scheele,  
 M. Scheurer,  M. Schneider,  N. Sergueev,  S. M. Sharada,  W. Skomorowski,  
 D. W. Small,  C. J. Stein,  Yu-Chuan Su,  E. J. Sundstrom,  Zhen Tao,  
 J. Thirman,  T. Tsuchimochi,  N. M. Tubman,  S. P. Veccham,  O. Vydrov,  
 J. Wenzel,  J. Witte,  A. Yamada,  Kun Yao,  S. Yeganeh,  S. R. Yost,  
 A. Zech,  Igor Ying Zhang,  Xing Zhang,  Yu Zhang,  D. Zuev,  
 A. Aspuru-Guzik,  A. T. Bell,  N. A. Besley,  K. B. Bravaya,  B. R. Brooks,  
 D. Casanova,  Jeng-Da Chai,  S. Coriani,  C. J. Cramer,  
 A. E. DePrince, III,  R. A. DiStasio Jr.,  A. Dreuw,  B. D. Dunietz,  
 T. R. Furlani,  W. A. Goddard III,  S. Grimme,  S. Hammes-Schiffer,  
 T. Head-Gordon,  W. J. Hehre,  Chao-Ping Hsu,  T.-C. Jagau,  Yousung Jung,  
 A. Klamt,  Jing Kong,  D. S. Lambrecht,  WanZhen Liang,  N. J. Mayhall,  
 C. W. McCurdy,  J. B. Neaton,  C. Ochsenfeld,  J. A. Parkhill,  R. Peverati,  
 V. A. Rassolov,  Yihan Shao,  L. V. Slipchenko,  T. Stauch,  R. P. Steele,  
 J. E. Subotnik,  A. J. W. Thom,  A. Tkatchenko,  D. G. Truhlar,  
 T. Van Voorhis,  T. A. Wesolowski,  K. B. Whaley,  H. L. Woodcock III,  
 P. M. Zimmerman,  S. Faraji,  P. M. W. Gill,  M. Head-Gordon,  
 J. M. Herbert,  A. I. Krylov

 Contributors to earlier versions of Q-Chem not listed above: 
 R. D. Adamson,  B. Austin,  R. Baer,  J. Baker,  G. J. O. Beran,  
 K. Brandhorst,  S. T. Brown,  E. F. C. Byrd,  A. K. Chakraborty,  
 G. K. L. Chan,  Chun-Min Chang,  Yunqing Chen,  C.-L. Cheng,  
 Siu Hung Chien,  D. M. Chipman,  D. L. Crittenden,  H. Dachsel,  
 R. J. Doerksen,  A. D. Dutoi,  R. G. Edgar,  J. Fosso-Tande,  
 L. Fusti-Molnar,  D. Ghosh,  A. Ghysels,  A. Golubeva-Zadorozhnaya,  
 J. Gonthier,  M. S. Gordon,  S. R. Gwaltney,  G. Hawkins,  J. E. Herr,  
 A. Heyden,  S. Hirata,  E. G. Hohenstein,  G. Kedziora,  F. J. Keil,  
 C. Kelley,  Jihan Kim,  R. A. King,  R. Z. Khaliullin,  P. P. Korambath,  
 W. Kurlancheek,  A. Laurent,  A. M. Lee,  M. S. Lee,  S. V. Levchenko,  
 Ching Yeh Lin,  D. Liotard,  E. Livshits,  R. C. Lochan,  I. Lotan,  
 L. A. Martinez-Martinez,  P. E. Maslen,  N. Nair,  D. P. O'Neill,  
 D. Neuhauser,  E. Neuscamman,  C. M. Oana,  R. Olivares-Amaya,  R. Olson,  
 T. M. Perrine,  B. Peters,  P. A. Pieniazek,  A. Prociuk,  Y. M. Rhee,  
 J. Ritchie,  M. A. Rohrdanz,  E. Rosta,  N. J. Russ,  H. F. Schaefer III,  
 M. W. Schmidt,  N. E. Schultz,  S. Sharma,  N. Shenvi,  C. D. Sherrill,  
 A. C. Simmonett,  A. Sodt,  T. Stein,  D. Stuck,  K. S. Thanthiriwatte,  
 V. Vanovschi,  L. Vogt,  Tao Wang,  A. Warshel,  M. A. Watson,  
 C. F. Williams,  Q. Wu,  X. Xu,  Jun Yang,  W. Zhang,  Yan Zhao

 Please cite Q-Chem as follows:
 Y. Shao et al., Mol. Phys. 113, 184-215 (2015)
 DOI: 10.1080/00268976.2014.952696

 Q-Chem 5.4.0 for Intel X86 EM64T Linux

 Parts of Q-Chem use Armadillo 9.800.1 (Horizon Scraper).
 http://arma.sourceforge.net/

 Q-Chem begins on Sat Jul  9 10:12:04 2022  

 Host: 
0

     Scratch files written to ./qchem570913//
 May1621 |scratch|qcdevops|jenkins|workspace|build_RNUM    
 Processing $rem in /cm/shared/apps/spack/cpu/opt/spack/linux-centos8-zen2/gcc-10.2.0/qchem-5.4-akfmr7b3t57bfs6qan3padb2wnb2i7cl/config/preferences:
 Processing $rem in /home/theleonzhang/.qchemrc:
 Symmetry turned off for PCM/SM12/SMD calculation
 Core orbitals will be frozen

 Checking the input file for inconsistencies... 	...done.

--------------------------------------------------------------
User input:
--------------------------------------------------------------
$molecule
0 1
C	0.593324	-3.866725	0.498788
C	-0.469446	-3.703963	-0.393517
C	-0.817050	-2.357056	-0.685674
H	-0.998381	-4.561092	-0.837128
C	0.000000	-1.440664	0.000000
S	1.183149	-2.286957	0.992768
C	-1.931676	-1.978743	-1.621254
H	-2.425882	-2.878678	-2.035845
H	-1.563980	-1.376015	-2.477868
H	-2.711417	-1.375728	-1.110719
H	1.052896	-4.783437	0.884718
C	0.000000	0.000000	0.000000
C	0.747916	0.431772	1.099446
C	1.946425	1.123709	0.776721
H	0.428523	0.247378	2.136088
C	2.137531	1.234018	-0.612546
S	0.816154	0.471179	-1.486809
C	2.888455	1.667564	1.814609
H	2.519842	1.454746	2.836676
H	3.008896	2.767543	1.726239
H	3.901271	1.221850	1.726228
H	2.959587	1.708609	-1.161575
$end

$rem
JOBTYPE		SP
EXCHANGE	HF
CORRELATION	pRIMP2
BASIS		cc-pvtz
METHOD		rimp2
AUX_BASIS	rimp2-cc-pvtz
SOLVENT_METHOD	PCM
PURECART	11111
SYMMETRY	false
MEM_TOTAL	110000
SCF_CONVERGENCE = 6
THRESH=10
$end



$solvent
dielectric 4.90
$end
--------------------------------------------------------------
 ----------------------------------------------------------------
             Standard Nuclear Orientation (Angstroms)
    I     Atom           X                Y                Z
 ----------------------------------------------------------------
    1      C       0.5933240000    -3.8667250000     0.4987880000
    2      C      -0.4694460000    -3.7039630000    -0.3935170000
    3      C      -0.8170500000    -2.3570560000    -0.6856740000
    4      H      -0.9983810000    -4.5610920000    -0.8371280000
    5      C       0.0000000000    -1.4406640000     0.0000000000
    6      S       1.1831490000    -2.2869570000     0.9927680000
    7      C      -1.9316760000    -1.9787430000    -1.6212540000
    8      H      -2.4258820000    -2.8786780000    -2.0358450000
    9      H      -1.5639800000    -1.3760150000    -2.4778680000
   10      H      -2.7114170000    -1.3757280000    -1.1107190000
   11      H       1.0528960000    -4.7834370000     0.8847180000
   12      C       0.0000000000     0.0000000000     0.0000000000
   13      C       0.7479160000     0.4317720000     1.0994460000
   14      C       1.9464250000     1.1237090000     0.7767210000
   15      H       0.4285230000     0.2473780000     2.1360880000
   16      C       2.1375310000     1.2340180000    -0.6125460000
   17      S       0.8161540000     0.4711790000    -1.4868090000
   18      C       2.8884550000     1.6675640000     1.8146090000
   19      H       2.5198420000     1.4547460000     2.8366760000
   20      H       3.0088960000     2.7675430000     1.7262390000
   21      H       3.9012710000     1.2218500000     1.7262280000
   22      H       2.9595870000     1.7086090000    -1.1615750000
 ----------------------------------------------------------------
 Nuclear Repulsion Energy =         863.05651959 hartrees
 There are       51 alpha and       51 beta electrons

 Q-Chem warning in module forms1/BasisType.C, line 2236:

 You are not using the predefined 5D/6D in this basis set.

 Requested basis set is cc-pVTZ
 There are 184 shells and 508 basis functions

 Total QAlloc Memory Limit 110000 MB
 Mega-Array Size       188 MB
 MEM_STATIC part       192 MB
 Discretize the solute cavity surface with Lebedev spheres
	Using 110 Lebedev grid points for each H atom
	Using 194 Lebedev grid points for other atoms
	Atomic van der Waals radii will be scaled by 1.20
 Remove points where switching function is < 1.0e-08
 Keep 1511 surface tesserae and discard 1917 interior tesserae
 Molecular Surface Area = 229.585 Angst**2
 Requested basis set is rimp2-cc-pVTZ
 There are 394 shells and 1354 basis functions
 A cutoff of  1.0D-10 yielded  12653 shell pairs
 There are     93973 function pairs (    121294 Cartesian)
 Smallest overlap matrix eigenvalue = 6.60E-05

 Scale SEOQF with 1.000000e-01/1.000000e-01/1.000000e-01

 Standard Electronic Orientation quadrupole field applied
 Nucleus-field energy     =     0.0000000241 hartrees
 Guess from superposition of atomic densities
 Warning:  Energy on first SCF cycle will be non-variational
 SAD guess density has 102.000000 electrons

 -----------------------------------------------------------------------
  General SCF calculation program by
  Eric Jon Sundstrom, Paul Horn, Yuezhi Mao, Dmitri Zuev, Alec White,
  David Stuck, Shaama M.S., Shane Yost, Joonho Lee, David Small,
  Daniel Levine, Susi Lehtola, Hugh Burton, Evgeny Epifanovsky,
  Bang C. Huynh
 -----------------------------------------------------------------------
 Hartree-Fock
 A restricted SCF calculation will be
 performed using DIIS
 SCF converges when DIIS error is below 1.0e-06
 ---------------------------------------
  Cycle       Energy         DIIS error
 ---------------------------------------
    1   -1184.3455380475      2.40e-02  
    2   -1179.4781947936      1.59e-03  
    3   -1179.5993845176      5.83e-04  
    4   -1179.6129054196      3.03e-04  
    5   -1179.6169397927      5.39e-05  
    6   -1179.6172055449      2.78e-05  
    7   -1179.6172832911      1.44e-05  
    8   -1179.6173157154      5.44e-06  
    9   -1179.6173222595      2.29e-06  
   10   -1179.6173230283      7.88e-07  Convergence criterion met
 ---------------------------------------
 SCF time:   CPU 507.36s  wall 509.00s 

************** Final PCM Free Energy Summary **************
 G_electrostatic  =      -0.00929542 hartree =      -5.83296117 kcal/mol
 G_cavitation     =       0.00000000 hartree =       0.00000000 kcal/mol
 G_dispersion     =       0.00000000 hartree =       0.00000000 kcal/mol
 G_repulsion      =       0.00000000 hartree =       0.00000000 kcal/mol
 --------------------------------------------------
 Non-electrostatic Free Energy =       0.00000000 hartree =       0.00000000 kcal/mol
 Total                         =      -0.00929542 hartree =      -5.83296117 kcal/mol
 --------------------------------------------------
 SCF Energy (H0 + V/2)                       =   -1179.61732303 
 Solute Internal Energy (H0)                 =   -1179.60802761 
 Total Free Energy (H0 + V/2 + non-elec)     =   -1179.61732303 hartree
                                             = -740221.04235590 kcal/mol
***********************************************************

 SCF   energy in the final basis set =    -1179.6173230283
 Total energy in the final basis set =    -1179.6173230283


 --------------------------------------------------------------
  Generalized many-body perturbation theory program
  by Joonho Lee, Fazle Rob, Xintian Feng, Evgeny Epifanovsky

 No regularization used 
 (reg. param. = 0.0000e+00)
  (P|Q)^-1/2 Time:  CPU 1.68 s  wall 1.69 s

 In RI-MP2 calculation: 
 # of frozen core orbitals: 20

 Components of the RIMP2 correlation energy:
        aaaa    correlation energy =        -0.2559253071 a.u.
        abab    correlation energy =        -1.4836458579 a.u.
        bbbb    correlation energy =        -0.2559253071 a.u.
        non-Brillouin singles      =        -0.0000000000 a.u.
        total same-spin energy     =        -0.5118506142 a.u.
        total opposite-spin energy =        -1.4836458579 a.u.

 Total  RIMP2   correlation energy =        -1.9954964721 a.u.
        RIMP2         total energy =     -1181.6128195004 a.u.

 RI-MP2 Energy Time:  CPU 68.77 s  wall 68.96 s
 
 --------------------------------------------------------------
 
                    Orbital Energies (a.u.)
 --------------------------------------------------------------
 
 Alpha MOs
 -- Occupied --
-91.9860 -91.9777 -11.2926 -11.2731 -11.2638 -11.2586 -11.2560 -11.2534
-11.2368 -11.2343 -11.2318 -11.2250  -8.9864  -8.9778  -6.6671  -6.6663
 -6.6660  -6.6586  -6.6580  -6.6574  -1.1934  -1.1449  -1.0470  -1.0187
 -1.0037  -0.9468  -0.9153  -0.8898  -0.7974  -0.7613  -0.7319  -0.6876
 -0.6561  -0.6227  -0.5892  -0.5799  -0.5716  -0.5687  -0.5491  -0.5359
 -0.5302  -0.5144  -0.5063  -0.4933  -0.4695  -0.4625  -0.4558  -0.3523
 -0.3417  -0.3347  -0.2741
 -- Virtual --
  0.0504   0.1121   0.1384   0.1524   0.1635   0.1733   0.1772   0.1845
  0.1882   0.1998   0.2083   0.2246   0.2254   0.2391   0.2408   0.2438
  0.2560   0.2730   0.2930   0.3075   0.3123   0.3445   0.3562   0.3582
  0.3718   0.3880   0.3912   0.4054   0.4123   0.4208   0.4260   0.4296
  0.4479   0.4505   0.4657   0.4709   0.4802   0.4903   0.4923   0.5120
  0.5136   0.5212   0.5268   0.5287   0.5355   0.5536   0.5607   0.5625
  0.5773   0.5888   0.5905   0.5993   0.6021   0.6108   0.6174   0.6232
  0.6299   0.6345   0.6415   0.6465   0.6513   0.6550   0.6617   0.6648
  0.6808   0.6909   0.7050   0.7119   0.7267   0.7335   0.7467   0.7584
  0.7741   0.7774   0.7939   0.8001   0.8109   0.8242   0.8359   0.8452
  0.8606   0.8668   0.8814   0.8854   0.9030   0.9124   0.9295   0.9453
  0.9476   0.9731   0.9827   1.0075   1.0178   1.0289   1.0393   1.0419
  1.0477   1.0557   1.0644   1.0731   1.0845   1.0884   1.1011   1.1092
  1.1232   1.1284   1.1402   1.1502   1.1583   1.1731   1.1884   1.2073
  1.2174   1.2341   1.2359   1.2472   1.2536   1.2563   1.2697   1.2785
  1.2860   1.2960   1.3038   1.3065   1.3334   1.3594   1.3648   1.3675
  1.3816   1.3929   1.4060   1.4218   1.4256   1.4394   1.4423   1.4675
  1.4754   1.4822   1.4927   1.5083   1.5221   1.5278   1.5363   1.5417
  1.5583   1.5620   1.5677   1.5721   1.5785   1.5936   1.6088   1.6372
  1.6477   1.6591   1.6661   1.6785   1.6990   1.7101   1.7214   1.7270
  1.7454   1.7595   1.7769   1.7882   1.8005   1.8139   1.8466   1.8566
  1.8722   1.8850   1.9152   1.9331   1.9543   1.9599   1.9808   1.9900
  1.9960   2.0385   2.0581   2.0947   2.1099   2.1285   2.1538   2.1610
  2.1745   2.1918   2.1965   2.2190   2.2379   2.2715   2.2824   2.2893
  2.2978   2.3042   2.3302   2.3702   2.4032   2.4205   2.4418   2.4584
  2.4628   2.4891   2.5091   2.5279   2.5393   2.5533   2.5837   2.6225
  2.6383   2.6417   2.6587   2.6691   2.6945   2.6979   2.7174   2.7364
  2.7417   2.7514   2.7592   2.7816   2.7850   2.7974   2.8089   2.8165
  2.8332   2.8495   2.8535   2.8761   2.8865   2.9075   2.9148   2.9304
  2.9534   2.9661   2.9807   2.9907   2.9957   3.0118   3.0193   3.0445
  3.0537   3.0605   3.0944   3.1105   3.1152   3.1249   3.1337   3.1434
  3.1557   3.1669   3.1762   3.1830   3.1933   3.2030   3.2128   3.2177
  3.2274   3.2549   3.2555   3.2725   3.2841   3.2900   3.2954   3.3098
  3.3138   3.3304   3.3356   3.3473   3.3570   3.3588   3.3738   3.3763
  3.3868   3.3979   3.4063   3.4161   3.4228   3.4318   3.4385   3.4422
  3.4531   3.4705   3.4880   3.4896   3.5077   3.5102   3.5211   3.5240
  3.5397   3.5485   3.5569   3.5643   3.5718   3.5772   3.5916   3.5964
  3.6066   3.6220   3.6297   3.6379   3.6474   3.6630   3.6762   3.6819
  3.6997   3.7105   3.7147   3.7196   3.7364   3.7479   3.7624   3.7673
  3.7775   3.7811   3.7843   3.7957   3.8092   3.8113   3.8334   3.8428
  3.8753   3.8898   3.8964   3.9141   3.9201   3.9379   3.9584   3.9620
  3.9726   3.9948   4.0099   4.0157   4.0271   4.0285   4.0418   4.0484
  4.0762   4.0850   4.1018   4.1094   4.1221   4.1374   4.1553   4.1656
  4.1884   4.1922   4.2004   4.2103   4.2159   4.2319   4.2395   4.2493
  4.2589   4.2713   4.2821   4.2832   4.2963   4.3082   4.3239   4.3267
  4.3501   4.3636   4.3695   4.3867   4.4039   4.4055   4.4204   4.4247
  4.4356   4.4525   4.4616   4.4683   4.5057   4.5221   4.5433   4.5554
  4.5941   4.6010   4.6190   4.6339   4.6403   4.6506   4.6638   4.6947
  4.6959   4.7124   4.7391   4.7475   4.7921   4.8030   4.8094   4.8562
  4.8796   4.8864   4.9029   4.9203   4.9449   4.9710   5.0143   5.0569
  5.0640   5.0888   5.1123   5.1429   5.1670   5.1705   5.1877   5.1994
  5.2768   5.2817   5.2972   5.3066   5.3240   5.3678   5.3860   5.3977
  5.4058   5.4502   5.4686   5.4735   5.5206   5.5225   5.5494   5.5575
  5.5655   5.5894   5.6229   5.6313   5.6357   5.6813   5.7028   5.7173
  5.7785   5.8058   5.9065   5.9761   6.0179   6.0527   6.0900   6.2078
  6.2320   6.2370   6.2641   6.2836   6.3367   6.3840   6.5180   8.7648
  9.7341  11.5907  12.5663  12.7942  13.0928  13.8061  13.8907  14.2154
 14.4770
 --------------------------------------------------------------
 
          Ground-State Mulliken Net Atomic Charges

     Atom                 Charge (a.u.)
  ----------------------------------------
      1 C                    -0.256428
      2 C                    -0.232680
      3 C                     0.003670
      4 H                     0.181160
      5 C                     0.010197
      6 S                     0.008186
      7 C                    -0.292212
      8 H                     0.107606
      9 H                     0.104980
     10 H                     0.107625
     11 H                     0.200084
     12 C                    -0.136694
     13 C                    -0.151677
     14 C                    -0.007958
     15 H                     0.202022
     16 C                    -0.164456
     17 S                     0.055348
     18 C                    -0.266801
     19 H                     0.104983
     20 H                     0.111103
     21 H                     0.107920
     22 H                     0.204022
  ----------------------------------------
  Sum of atomic charges =     0.000000

 -----------------------------------------------------------------
                    Cartesian Multipole Moments
 -----------------------------------------------------------------
    Charge (ESU x 10^10)
                -0.0000
    Dipole Moment (Debye)
         X       1.8779      Y       1.0733      Z       0.6469
       Tot       2.2577
    Quadrupole Moments (Debye-Ang)
        XX     -79.2843     XY       7.6669     YY     -80.4321
        XZ       3.3494     YZ       2.0043     ZZ     -83.2729
    Octopole Moments (Debye-Ang^2)
       XXX    -149.6395    XXY      91.6256    XYY     -48.8020
       YYY     189.1563    XXZ      -3.5048    XYZ     -13.0600
       YYZ       0.0444    XZZ     -51.5425    YZZ      82.7875
       ZZZ       9.0966
    Hexadecapole Moments (Debye-Ang^3)
      XXXX   -1132.1470   XXXY    -163.3348   XXYY    -541.2104
      XYYY    -220.8332   YYYY   -2025.5563   XXXZ    -233.0924
      XXYZ     -21.6642   XYYZ     -30.2627   YYYZ     -63.7849
      XXZZ    -309.6128   XYZZ     -56.4198   YYZZ    -509.6750
      XZZZ    -222.3452   YZZZ     -42.3020   ZZZZ    -758.5084
 -----------------------------------------------------------------
 Total job time:  582.83s(wall), 576.95s(cpu) 
 Sat Jul  9 10:21:47 2022

        *************************************************************
        *                                                           *
        *  Thank you very much for using Q-Chem.  Have a nice day.  *
        *                                                           *
        *************************************************************


remove work dirs ./qchem570913.0 -- ./qchem570913.-1
rm -rf ./qchem570913
