You are running Q-Chem version: 5.4.0

#
# job setting
#
local host:  exp-2-18
current dir: /expanse/lustre/scratch/theleonzhang/temp_project/Interring_Bonds
input file:  Methylthiophene_Phi_50_Theta_10_Methylthiophene.qcin
output file: 
nprocs     : 0
nthreads   : 1
#
# qchem installation setting
#
QC:          /cm/shared/apps/spack/cpu/opt/spack/linux-centos8-zen2/gcc-10.2.0/qchem-5.4-akfmr7b3t57bfs6qan3padb2wnb2i7cl
QCAUX:       /cm/shared/apps/spack/cpu/opt/spack/linux-centos8-zen2/gcc-10.2.0/qchem-5.4-akfmr7b3t57bfs6qan3padb2wnb2i7cl/qcaux
QCPROG:      /cm/shared/apps/spack/cpu/opt/spack/linux-centos8-zen2/gcc-10.2.0/qchem-5.4-akfmr7b3t57bfs6qan3padb2wnb2i7cl/exe/qcprog.exe_s
QCPROG_S:    /cm/shared/apps/spack/cpu/opt/spack/linux-centos8-zen2/gcc-10.2.0/qchem-5.4-akfmr7b3t57bfs6qan3padb2wnb2i7cl/exe/qcprog.exe_s
PARALLEL:    -DSERIAL
QCMPI:       mpich
#
# qchem directory setting
#
qcrun:       qchem1019370
QCSCRATCH:   .
QCLOCALSCR:  
QCTMPDIR:    .
QCFILEPREF:  ./qchem1019370
QCSAVEDIR:   
workdirs:    ./qchem1019370
workdir0:    ./qchem1019370
partmpdirs =  
#
# parallel setting
#
QCRSH:           ssh
QCMPI:           mpich
QCMPIRUN:        /cm/shared/apps/spack/cpu/opt/spack/linux-centos8-zen2/gcc-10.2.0/qchem-5.4-akfmr7b3t57bfs6qan3padb2wnb2i7cl/bin/mpi/mpirun_qchem
QCMACHINEFILE:   ./qchem1019370/hostfile

#
# env setting
#
exported envs:   QC QCAUX QCSCRATCH QCRUNNAME QCFILEPREF QCPROG QCPROG_S GUIFILE

Running Job 1 of 1 Methylthiophene_Phi_50_Theta_10_Methylthiophene.qcin
qchem Methylthiophene_Phi_50_Theta_10_Methylthiophene.qcin_1019370.0 ./qchem1019370/ 0
/cm/shared/apps/spack/cpu/opt/spack/linux-centos8-zen2/gcc-10.2.0/qchem-5.4-akfmr7b3t57bfs6qan3padb2wnb2i7cl/exe/qcprog.exe_s Methylthiophene_Phi_50_Theta_10_Methylthiophene.qcin_1019370.0 ./qchem1019370/
                  Welcome to Q-Chem
     A Quantum Leap Into The Future Of Chemistry


 Q-Chem 5.4, Q-Chem, Inc., Pleasanton, CA (2021)

 License issued to: University of California, San Diego (site)

 E. Epifanovsky,  A. T. B. Gilbert,  Xintian Feng,  Joonho Lee,  Yuezhi Mao,  
 N. Mardirossian,  P. Pokhilko,  A. White,  M. Wormit,  M. P. Coons,  
 A. L. Dempwolff,  Zhengting Gan,  D. Hait,  P. R. Horn,  L. D. Jacobson,  
 I. Kaliman,  J. Kussmann,  A. W. Lange,  Ka Un Lao,  D. S. Levine,  Jie Liu,  
 S. C. McKenzie,  A. F. Morrison,  K. Nanda,  F. Plasser,  D. R. Rehn,  
 M. L. Vidal,  Zhi-Qiang You,  Ying Zhu,  B. Alam,  B. Albrecht,  
 A. Aldossary,  E. Alguire,  J. H. Andersen,  D. Barton,  K. Begam,  A. Behn,  
 Y. A. Bernard,  E. J. Berquist,  H. Burton,  A. Carreras,  K. Carter-Fenk,  
 R. Chakraborty,  A. D. Chien,  K. D. Closser,  V. Cofer-Shabica,  
 S. Dasgupta,  Jia Deng,  M. de Wergifosse,  M. Diedenhofen,  Hainam Do,  
 S. Ehlert,  Po-Tung Fang,  S. Fatehi,  Qingguo Feng,  J. Gayvert,  
 Qinghui Ge,  G. Gidofalvi,  M. Goldey,  J. Gomes,  C. Gonzalez-Espinoza,  
 S. Gulania,  A. Gunina,  M. W. D. Hanson-Heine,  P. H. P. Harbach,  
 A. W. Hauser,  M. F. Herbst,  M. Hernandez Vera,  M. Hodecker,  
 Z. C. Holden,  S. Houck,  Xunkun Huang,  Kerwin Hui,  B. C. Huynh,  
 M. Ivanov,  Hyunjun Ji,  Hanjie Jiang,  B. Kaduk,  S. Kaehler,  
 K. Khistyaev,  Jaehoon Kim,  P. Klunzinger,  Z. Koczor-Benda,  
 Joong Hoon Koh,  D. Kosenkov,  L. Koulias,  T. Kowalczyk,  C. M. Krauter,  
 K. Kue,  A. Kunitsa,  T. Kus,  A. Landau,  K. V. Lawler,  D. Lefrancois,  
 S. Lehtola,  Rain Li,  Yi-Pei Li,  Jiashu Liang,  M. Liebenthal,  
 Hung-Hsuan Lin,  You-Sheng Lin,  Fenglai Liu,  Kuan-Yu Liu,  
 M. Loipersberger,  A. Luenser,  A. Manjanath,  P. Manohar,  E. Mansoor,  
 S. F. Manzer,  Shan-Ping Mao,  A. V. Marenich,  T. Markovich,  S. Mason,  
 S. A. Maurer,  P. F. McLaughlin,  M. F. S. J. Menger,  J.-M. Mewes,  
 S. A. Mewes,  P. Morgante,  J. W. Mullinax,  T. S. Nguyen-Beck,  
 K. J. Oosterbaan,  G. Paran,  Alexander C. Paul,  Suranjan K. Paul,  
 F. Pavosevic,  Zheng Pei,  S. Prager,  E. I. Proynov,  E. Ramos,  B. Rana,  
 A. E. Rask,  A. Rettig,  R. M. Richard,  F. Rob,  E. Rossomme,  T. Scheele,  
 M. Scheurer,  M. Schneider,  N. Sergueev,  S. M. Sharada,  W. Skomorowski,  
 D. W. Small,  C. J. Stein,  Yu-Chuan Su,  E. J. Sundstrom,  Zhen Tao,  
 J. Thirman,  T. Tsuchimochi,  N. M. Tubman,  S. P. Veccham,  O. Vydrov,  
 J. Wenzel,  J. Witte,  A. Yamada,  Kun Yao,  S. Yeganeh,  S. R. Yost,  
 A. Zech,  Igor Ying Zhang,  Xing Zhang,  Yu Zhang,  D. Zuev,  
 A. Aspuru-Guzik,  A. T. Bell,  N. A. Besley,  K. B. Bravaya,  B. R. Brooks,  
 D. Casanova,  Jeng-Da Chai,  S. Coriani,  C. J. Cramer,  
 A. E. DePrince, III,  R. A. DiStasio Jr.,  A. Dreuw,  B. D. Dunietz,  
 T. R. Furlani,  W. A. Goddard III,  S. Grimme,  S. Hammes-Schiffer,  
 T. Head-Gordon,  W. J. Hehre,  Chao-Ping Hsu,  T.-C. Jagau,  Yousung Jung,  
 A. Klamt,  Jing Kong,  D. S. Lambrecht,  WanZhen Liang,  N. J. Mayhall,  
 C. W. McCurdy,  J. B. Neaton,  C. Ochsenfeld,  J. A. Parkhill,  R. Peverati,  
 V. A. Rassolov,  Yihan Shao,  L. V. Slipchenko,  T. Stauch,  R. P. Steele,  
 J. E. Subotnik,  A. J. W. Thom,  A. Tkatchenko,  D. G. Truhlar,  
 T. Van Voorhis,  T. A. Wesolowski,  K. B. Whaley,  H. L. Woodcock III,  
 P. M. Zimmerman,  S. Faraji,  P. M. W. Gill,  M. Head-Gordon,  
 J. M. Herbert,  A. I. Krylov

 Contributors to earlier versions of Q-Chem not listed above: 
 R. D. Adamson,  B. Austin,  R. Baer,  J. Baker,  G. J. O. Beran,  
 K. Brandhorst,  S. T. Brown,  E. F. C. Byrd,  A. K. Chakraborty,  
 G. K. L. Chan,  Chun-Min Chang,  Yunqing Chen,  C.-L. Cheng,  
 Siu Hung Chien,  D. M. Chipman,  D. L. Crittenden,  H. Dachsel,  
 R. J. Doerksen,  A. D. Dutoi,  R. G. Edgar,  J. Fosso-Tande,  
 L. Fusti-Molnar,  D. Ghosh,  A. Ghysels,  A. Golubeva-Zadorozhnaya,  
 J. Gonthier,  M. S. Gordon,  S. R. Gwaltney,  G. Hawkins,  J. E. Herr,  
 A. Heyden,  S. Hirata,  E. G. Hohenstein,  G. Kedziora,  F. J. Keil,  
 C. Kelley,  Jihan Kim,  R. A. King,  R. Z. Khaliullin,  P. P. Korambath,  
 W. Kurlancheek,  A. Laurent,  A. M. Lee,  M. S. Lee,  S. V. Levchenko,  
 Ching Yeh Lin,  D. Liotard,  E. Livshits,  R. C. Lochan,  I. Lotan,  
 L. A. Martinez-Martinez,  P. E. Maslen,  N. Nair,  D. P. O'Neill,  
 D. Neuhauser,  E. Neuscamman,  C. M. Oana,  R. Olivares-Amaya,  R. Olson,  
 T. M. Perrine,  B. Peters,  P. A. Pieniazek,  A. Prociuk,  Y. M. Rhee,  
 J. Ritchie,  M. A. Rohrdanz,  E. Rosta,  N. J. Russ,  H. F. Schaefer III,  
 M. W. Schmidt,  N. E. Schultz,  S. Sharma,  N. Shenvi,  C. D. Sherrill,  
 A. C. Simmonett,  A. Sodt,  T. Stein,  D. Stuck,  K. S. Thanthiriwatte,  
 V. Vanovschi,  L. Vogt,  Tao Wang,  A. Warshel,  M. A. Watson,  
 C. F. Williams,  Q. Wu,  X. Xu,  Jun Yang,  W. Zhang,  Yan Zhao

 Please cite Q-Chem as follows:
 Y. Shao et al., Mol. Phys. 113, 184-215 (2015)
 DOI: 10.1080/00268976.2014.952696

 Q-Chem 5.4.0 for Intel X86 EM64T Linux

 Parts of Q-Chem use Armadillo 9.800.1 (Horizon Scraper).
 http://arma.sourceforge.net/

 Q-Chem begins on Fri Jul  8 22:13:53 2022  

 Host: 
0

     Scratch files written to ./qchem1019370//
 May1621 |scratch|qcdevops|jenkins|workspace|build_RNUM    
 Processing $rem in /cm/shared/apps/spack/cpu/opt/spack/linux-centos8-zen2/gcc-10.2.0/qchem-5.4-akfmr7b3t57bfs6qan3padb2wnb2i7cl/config/preferences:
 Processing $rem in /home/theleonzhang/.qchemrc:
 Symmetry turned off for PCM/SM12/SMD calculation
 Core orbitals will be frozen

 Checking the input file for inconsistencies... 	...done.

--------------------------------------------------------------
User input:
--------------------------------------------------------------
$molecule
0 1
C	-0.135301	-3.866725	0.763228
C	0.106073	-3.703963	-0.603311
C	0.185286	-2.357056	-1.050423
H	0.225783	-4.561092	-1.283188
C	-0.000000	-1.440664	-0.000000
S	-0.268187	-2.286957	1.521021
C	0.438209	-1.978743	-2.483507
H	0.550153	-2.878678	-3.118798
H	1.363906	-1.376015	-2.593381
H	-0.393798	-1.375728	-2.903516
H	-0.239740	-4.783437	1.354194
C	0.000000	0.000000	0.000000
C	0.661577	0.555087	1.099446
C	1.721724	1.444630	0.776721
H	0.379056	0.318032	2.136088
C	1.890772	1.586449	-0.612546
S	0.721935	0.605744	-1.486809
C	2.555004	2.143805	1.814609
H	2.228946	1.870211	2.836676
H	2.482605	3.247987	1.726239
H	3.629830	1.880735	1.726228
H	2.617927	2.196579	-1.161575
$end

$rem
JOBTYPE		SP
EXCHANGE	HF
CORRELATION	pRIMP2
BASIS		cc-pvtz
METHOD		rimp2
AUX_BASIS	rimp2-cc-pvtz
SOLVENT_METHOD	PCM
PURECART	11111
SYMMETRY	false
MEM_TOTAL	110000
SCF_CONVERGENCE = 6
THRESH=10
$end



$solvent
dielectric 4.90
$end
--------------------------------------------------------------
 ----------------------------------------------------------------
             Standard Nuclear Orientation (Angstroms)
    I     Atom           X                Y                Z
 ----------------------------------------------------------------
    1      C      -0.1353010000    -3.8667250000     0.7632280000
    2      C       0.1060730000    -3.7039630000    -0.6033110000
    3      C       0.1852860000    -2.3570560000    -1.0504230000
    4      H       0.2257830000    -4.5610920000    -1.2831880000
    5      C       0.0000000000    -1.4406640000     0.0000000000
    6      S      -0.2681870000    -2.2869570000     1.5210210000
    7      C       0.4382090000    -1.9787430000    -2.4835070000
    8      H       0.5501530000    -2.8786780000    -3.1187980000
    9      H       1.3639060000    -1.3760150000    -2.5933810000
   10      H      -0.3937980000    -1.3757280000    -2.9035160000
   11      H      -0.2397400000    -4.7834370000     1.3541940000
   12      C       0.0000000000     0.0000000000     0.0000000000
   13      C       0.6615770000     0.5550870000     1.0994460000
   14      C       1.7217240000     1.4446300000     0.7767210000
   15      H       0.3790560000     0.3180320000     2.1360880000
   16      C       1.8907720000     1.5864490000    -0.6125460000
   17      S       0.7219350000     0.6057440000    -1.4868090000
   18      C       2.5550040000     2.1438050000     1.8146090000
   19      H       2.2289460000     1.8702110000     2.8366760000
   20      H       2.4826050000     3.2479870000     1.7262390000
   21      H       3.6298300000     1.8807350000     1.7262280000
   22      H       2.6179270000     2.1965790000    -1.1615750000
 ----------------------------------------------------------------
 Nuclear Repulsion Energy =         857.16193528 hartrees
 There are       51 alpha and       51 beta electrons

 Q-Chem warning in module forms1/BasisType.C, line 2236:

 You are not using the predefined 5D/6D in this basis set.

 Requested basis set is cc-pVTZ
 There are 184 shells and 508 basis functions

 Total QAlloc Memory Limit 110000 MB
 Mega-Array Size       188 MB
 MEM_STATIC part       192 MB
 Discretize the solute cavity surface with Lebedev spheres
	Using 110 Lebedev grid points for each H atom
	Using 194 Lebedev grid points for other atoms
	Atomic van der Waals radii will be scaled by 1.20
 Remove points where switching function is < 1.0e-08
 Keep 1490 surface tesserae and discard 1938 interior tesserae
 Molecular Surface Area = 224.236 Angst**2
 Requested basis set is rimp2-cc-pVTZ
 There are 394 shells and 1354 basis functions
 A cutoff of  1.0D-10 yielded  12679 shell pairs
 There are     94087 function pairs (    121425 Cartesian)
 Smallest overlap matrix eigenvalue = 6.48E-05

 Scale SEOQF with 1.000000e-01/1.000000e-01/1.000000e-01

 Standard Electronic Orientation quadrupole field applied
 Nucleus-field energy     =     0.0000000161 hartrees
 Guess from superposition of atomic densities
 Warning:  Energy on first SCF cycle will be non-variational
 SAD guess density has 102.000000 electrons

 -----------------------------------------------------------------------
  General SCF calculation program by
  Eric Jon Sundstrom, Paul Horn, Yuezhi Mao, Dmitri Zuev, Alec White,
  David Stuck, Shaama M.S., Shane Yost, Joonho Lee, David Small,
  Daniel Levine, Susi Lehtola, Hugh Burton, Evgeny Epifanovsky,
  Bang C. Huynh
 -----------------------------------------------------------------------
 Hartree-Fock
 A restricted SCF calculation will be
 performed using DIIS
 SCF converges when DIIS error is below 1.0e-06
 ---------------------------------------
  Cycle       Energy         DIIS error
 ---------------------------------------
    1   -1184.3801944176      2.40e-02  
    2   -1179.4823021769      1.59e-03  
    3   -1179.6045966768      5.90e-04  
    4   -1179.6181370061      3.17e-04  
    5   -1179.6224728098      6.37e-05  
    6   -1179.6227678406      3.15e-05  
    7   -1179.6228668184      1.44e-05  
    8   -1179.6229040036      5.89e-06  
    9   -1179.6229120794      2.63e-06  
   10   -1179.6229132335      1.07e-06  
   11   -1179.6229134767      5.91e-07  Convergence criterion met
 ---------------------------------------
 SCF time:   CPU 557.95s  wall 560.00s 

************** Final PCM Free Energy Summary **************
 G_electrostatic  =      -0.00852220 hartree =      -5.34776407 kcal/mol
 G_cavitation     =       0.00000000 hartree =       0.00000000 kcal/mol
 G_dispersion     =       0.00000000 hartree =       0.00000000 kcal/mol
 G_repulsion      =       0.00000000 hartree =       0.00000000 kcal/mol
 --------------------------------------------------
 Non-electrostatic Free Energy =       0.00000000 hartree =       0.00000000 kcal/mol
 Total                         =      -0.00852220 hartree =      -5.34776407 kcal/mol
 --------------------------------------------------
 SCF Energy (H0 + V/2)                       =   -1179.62291348 
 Solute Internal Energy (H0)                 =   -1179.61439127 
 Total Free Energy (H0 + V/2 + non-elec)     =   -1179.62291348 hartree
                                             = -740224.55041525 kcal/mol
***********************************************************

 SCF   energy in the final basis set =    -1179.6229134767
 Total energy in the final basis set =    -1179.6229134767


 --------------------------------------------------------------
  Generalized many-body perturbation theory program
  by Joonho Lee, Fazle Rob, Xintian Feng, Evgeny Epifanovsky

 No regularization used 
 (reg. param. = 0.0000e+00)
  (P|Q)^-1/2 Time:  CPU 1.68 s  wall 1.68 s

 In RI-MP2 calculation: 
 # of frozen core orbitals: 20

 Components of the RIMP2 correlation energy:
        aaaa    correlation energy =        -0.2561210617 a.u.
        abab    correlation energy =        -1.4838450728 a.u.
        bbbb    correlation energy =        -0.2561210617 a.u.
        non-Brillouin singles      =        -0.0000000000 a.u.
        total same-spin energy     =        -0.5122421234 a.u.
        total opposite-spin energy =        -1.4838450728 a.u.

 Total  RIMP2   correlation energy =        -1.9960871962 a.u.
        RIMP2         total energy =     -1181.6190006730 a.u.

 RI-MP2 Energy Time:  CPU 68.26 s  wall 68.49 s
 
 --------------------------------------------------------------
 
                    Orbital Energies (a.u.)
 --------------------------------------------------------------
 
 Alpha MOs
 -- Occupied --
-91.9823 -91.9758 -11.2809 -11.2801 -11.2667 -11.2602 -11.2570 -11.2536
-11.2393 -11.2382 -11.2305 -11.2228  -8.9834  -8.9763  -6.6640  -6.6633
 -6.6629  -6.6573  -6.6567  -6.6560  -1.1890  -1.1463  -1.0462  -1.0236
 -0.9988  -0.9500  -0.9114  -0.8958  -0.7952  -0.7663  -0.7235  -0.6941
 -0.6565  -0.6185  -0.5889  -0.5838  -0.5769  -0.5695  -0.5509  -0.5342
 -0.5242  -0.5217  -0.5119  -0.4946  -0.4730  -0.4596  -0.4430  -0.3707
 -0.3395  -0.3359  -0.2621
 -- Virtual --
  0.0567   0.1262   0.1407   0.1566   0.1648   0.1668   0.1776   0.1851
  0.1932   0.1960   0.2070   0.2139   0.2333   0.2384   0.2442   0.2457
  0.2727   0.2776   0.2913   0.3142   0.3368   0.3532   0.3608   0.3646
  0.3791   0.3846   0.4006   0.4071   0.4107   0.4230   0.4398   0.4452
  0.4547   0.4637   0.4647   0.4781   0.4818   0.4889   0.4908   0.5088
  0.5131   0.5169   0.5314   0.5366   0.5492   0.5535   0.5592   0.5703
  0.5807   0.5870   0.5914   0.5946   0.6003   0.6147   0.6215   0.6253
  0.6308   0.6334   0.6406   0.6467   0.6508   0.6583   0.6627   0.6659
  0.6795   0.6883   0.7045   0.7083   0.7277   0.7369   0.7541   0.7633
  0.7677   0.7762   0.7833   0.8009   0.8252   0.8398   0.8423   0.8479
  0.8561   0.8646   0.8715   0.8799   0.9069   0.9211   0.9337   0.9438
  0.9503   0.9652   0.9725   0.9837   1.0003   1.0174   1.0278   1.0365
  1.0557   1.0598   1.0704   1.0729   1.0827   1.0949   1.1002   1.1093
  1.1201   1.1248   1.1385   1.1420   1.1654   1.1727   1.1870   1.1982
  1.2046   1.2234   1.2243   1.2357   1.2441   1.2615   1.2661   1.2742
  1.2901   1.2996   1.3071   1.3144   1.3514   1.3556   1.3612   1.3741
  1.3861   1.4012   1.4081   1.4116   1.4155   1.4258   1.4396   1.4576
  1.4783   1.4812   1.4917   1.5102   1.5135   1.5250   1.5386   1.5484
  1.5590   1.5627   1.5666   1.5726   1.5807   1.5964   1.6100   1.6305
  1.6497   1.6657   1.6788   1.6834   1.6988   1.7036   1.7120   1.7352
  1.7603   1.7706   1.7758   1.7815   1.8101   1.8314   1.8357   1.8784
  1.8824   1.9006   1.9176   1.9347   1.9546   1.9680   1.9925   2.0057
  2.0644   2.0752   2.0784   2.1022   2.1184   2.1322   2.1344   2.1726
  2.1858   2.1888   2.2050   2.2114   2.2508   2.2649   2.2750   2.2807
  2.3095   2.3156   2.3311   2.3724   2.4038   2.4226   2.4346   2.4582
  2.4829   2.5056   2.5133   2.5296   2.5465   2.5536   2.5996   2.6169
  2.6282   2.6365   2.6554   2.6752   2.6829   2.7076   2.7199   2.7293
  2.7383   2.7431   2.7616   2.7677   2.7765   2.7894   2.8063   2.8169
  2.8342   2.8381   2.8499   2.8556   2.8821   2.9157   2.9295   2.9516
  2.9665   2.9831   2.9835   3.0107   3.0154   3.0186   3.0359   3.0523
  3.0575   3.0721   3.0837   3.1096   3.1199   3.1327   3.1458   3.1512
  3.1585   3.1666   3.1782   3.1828   3.1969   3.2076   3.2168   3.2228
  3.2312   3.2586   3.2613   3.2651   3.2820   3.2882   3.3044   3.3189
  3.3238   3.3278   3.3284   3.3389   3.3452   3.3554   3.3724   3.3799
  3.3966   3.4006   3.4093   3.4188   3.4214   3.4318   3.4435   3.4507
  3.4562   3.4719   3.4830   3.4912   3.5014   3.5112   3.5199   3.5244
  3.5296   3.5407   3.5459   3.5495   3.5660   3.5780   3.5931   3.6027
  3.6102   3.6167   3.6300   3.6424   3.6507   3.6612   3.6717   3.6824
  3.6988   3.7156   3.7224   3.7283   3.7347   3.7449   3.7534   3.7572
  3.7743   3.7947   3.8055   3.8085   3.8240   3.8340   3.8419   3.8694
  3.8751   3.8828   3.8928   3.9107   3.9160   3.9436   3.9543   3.9602
  3.9637   3.9855   4.0066   4.0200   4.0283   4.0331   4.0421   4.0601
  4.0678   4.0756   4.0863   4.0959   4.1256   4.1327   4.1580   4.1690
  4.1833   4.1872   4.2023   4.2070   4.2161   4.2297   4.2398   4.2517
  4.2551   4.2749   4.2836   4.2919   4.3074   4.3172   4.3309   4.3416
  4.3548   4.3645   4.3814   4.3906   4.3969   4.4038   4.4146   4.4436
  4.4536   4.4648   4.4909   4.5035   4.5144   4.5343   4.5472   4.5749
  4.6021   4.6113   4.6219   4.6330   4.6517   4.6585   4.6737   4.6947
  4.7019   4.7112   4.7384   4.7559   4.7673   4.8055   4.8106   4.8467
  4.8798   4.9008   4.9012   4.9326   4.9405   4.9624   4.9857   5.0616
  5.0759   5.0892   5.1171   5.1622   5.1645   5.1825   5.1939   5.2008
  5.2774   5.2806   5.2977   5.3115   5.3161   5.3686   5.3931   5.4019
  5.4115   5.4466   5.4699   5.4766   5.5166   5.5348   5.5488   5.5594
  5.5823   5.5964   5.6234   5.6336   5.6436   5.6616   5.6961   5.7296
  5.7881   5.8130   5.9433   5.9921   6.0251   6.0897   6.1243   6.2100
  6.2274   6.2595   6.2646   6.3028   6.3515   6.3701   6.5234   8.6299
  9.6828  11.5690  12.3515  12.8271  13.2014  13.7516  13.8726  14.2116
 14.4816
 --------------------------------------------------------------
 
          Ground-State Mulliken Net Atomic Charges

     Atom                 Charge (a.u.)
  ----------------------------------------
      1 C                    -0.234027
      2 C                    -0.248833
      3 C                     0.026266
      4 H                     0.182921
      5 C                    -0.015502
      6 S                    -0.019943
      7 C                    -0.297183
      8 H                     0.106483
      9 H                     0.117138
     10 H                     0.108054
     11 H                     0.202074
     12 C                    -0.052170
     13 C                    -0.153682
     14 C                     0.000459
     15 H                     0.184283
     16 C                    -0.207689
     17 S                     0.048116
     18 C                    -0.265868
     19 H                     0.103298
     20 H                     0.107970
     21 H                     0.106523
     22 H                     0.201310
  ----------------------------------------
  Sum of atomic charges =     0.000000

 -----------------------------------------------------------------
                    Cartesian Multipole Moments
 -----------------------------------------------------------------
    Charge (ESU x 10^10)
                -0.0000
    Dipole Moment (Debye)
         X       2.5660      Y       1.1091      Z      -0.1769
       Tot       2.8010
    Quadrupole Moments (Debye-Ang)
        XX     -85.1151     XY       5.4588     YY     -78.8743
        XZ      -0.8173     YZ       2.9262     ZZ     -80.0409
    Octopole Moments (Debye-Ang^2)
       XXX    -145.4823    XXY      92.5276    XYY     -41.5980
       YYY     161.9162    XXZ      -2.1058    XYZ       2.3412
       YYZ       1.4441    XZZ     -46.0495    YZZ      61.4961
       ZZZ       7.2846
    Hexadecapole Moments (Debye-Ang^3)
      XXXX    -689.3325   XXXY    -209.9148   XXYY    -537.7071
      XYYY    -216.9436   YYYY   -2170.7182   XXXZ     -32.3852
      XXYZ     -25.8069   XYYZ     -31.6012   YYYZ     -91.1851
      XXZZ    -292.1524   XYZZ     -69.5056   YYZZ    -533.0077
      XZZZ     -31.6207   YZZZ     -53.0816   ZZZZ   -1062.5915
 -----------------------------------------------------------------
 Total job time:  630.52s(wall), 627.02s(cpu) 
 Fri Jul  8 22:24:24 2022

        *************************************************************
        *                                                           *
        *  Thank you very much for using Q-Chem.  Have a nice day.  *
        *                                                           *
        *************************************************************


remove work dirs ./qchem1019370.0 -- ./qchem1019370.-1
rm -rf ./qchem1019370
