You are running Q-Chem version: 5.4.0

#
# job setting
#
local host:  exp-1-46
current dir: /expanse/lustre/scratch/theleonzhang/temp_project/Interring_Bonds
input file:  Methylthiophene_Phi_0_Theta_170_Methylthiophene.qcin
output file: 
nprocs     : 0
nthreads   : 1
#
# qchem installation setting
#
QC:          /cm/shared/apps/spack/cpu/opt/spack/linux-centos8-zen2/gcc-10.2.0/qchem-5.4-akfmr7b3t57bfs6qan3padb2wnb2i7cl
QCAUX:       /cm/shared/apps/spack/cpu/opt/spack/linux-centos8-zen2/gcc-10.2.0/qchem-5.4-akfmr7b3t57bfs6qan3padb2wnb2i7cl/qcaux
QCPROG:      /cm/shared/apps/spack/cpu/opt/spack/linux-centos8-zen2/gcc-10.2.0/qchem-5.4-akfmr7b3t57bfs6qan3padb2wnb2i7cl/exe/qcprog.exe_s
QCPROG_S:    /cm/shared/apps/spack/cpu/opt/spack/linux-centos8-zen2/gcc-10.2.0/qchem-5.4-akfmr7b3t57bfs6qan3padb2wnb2i7cl/exe/qcprog.exe_s
PARALLEL:    -DSERIAL
QCMPI:       mpich
#
# qchem directory setting
#
qcrun:       qchem3243928
QCSCRATCH:   .
QCLOCALSCR:  
QCTMPDIR:    .
QCFILEPREF:  ./qchem3243928
QCSAVEDIR:   
workdirs:    ./qchem3243928
workdir0:    ./qchem3243928
partmpdirs =  
#
# parallel setting
#
QCRSH:           ssh
QCMPI:           mpich
QCMPIRUN:        /cm/shared/apps/spack/cpu/opt/spack/linux-centos8-zen2/gcc-10.2.0/qchem-5.4-akfmr7b3t57bfs6qan3padb2wnb2i7cl/bin/mpi/mpirun_qchem
QCMACHINEFILE:   ./qchem3243928/hostfile

#
# env setting
#
exported envs:   QC QCAUX QCSCRATCH QCRUNNAME QCFILEPREF QCPROG QCPROG_S GUIFILE

Running Job 1 of 1 Methylthiophene_Phi_0_Theta_170_Methylthiophene.qcin
qchem Methylthiophene_Phi_0_Theta_170_Methylthiophene.qcin_3243928.0 ./qchem3243928/ 0
/cm/shared/apps/spack/cpu/opt/spack/linux-centos8-zen2/gcc-10.2.0/qchem-5.4-akfmr7b3t57bfs6qan3padb2wnb2i7cl/exe/qcprog.exe_s Methylthiophene_Phi_0_Theta_170_Methylthiophene.qcin_3243928.0 ./qchem3243928/
                  Welcome to Q-Chem
     A Quantum Leap Into The Future Of Chemistry


 Q-Chem 5.4, Q-Chem, Inc., Pleasanton, CA (2021)

 License issued to: University of California, San Diego (site)

 E. Epifanovsky,  A. T. B. Gilbert,  Xintian Feng,  Joonho Lee,  Yuezhi Mao,  
 N. Mardirossian,  P. Pokhilko,  A. White,  M. Wormit,  M. P. Coons,  
 A. L. Dempwolff,  Zhengting Gan,  D. Hait,  P. R. Horn,  L. D. Jacobson,  
 I. Kaliman,  J. Kussmann,  A. W. Lange,  Ka Un Lao,  D. S. Levine,  Jie Liu,  
 S. C. McKenzie,  A. F. Morrison,  K. Nanda,  F. Plasser,  D. R. Rehn,  
 M. L. Vidal,  Zhi-Qiang You,  Ying Zhu,  B. Alam,  B. Albrecht,  
 A. Aldossary,  E. Alguire,  J. H. Andersen,  D. Barton,  K. Begam,  A. Behn,  
 Y. A. Bernard,  E. J. Berquist,  H. Burton,  A. Carreras,  K. Carter-Fenk,  
 R. Chakraborty,  A. D. Chien,  K. D. Closser,  V. Cofer-Shabica,  
 S. Dasgupta,  Jia Deng,  M. de Wergifosse,  M. Diedenhofen,  Hainam Do,  
 S. Ehlert,  Po-Tung Fang,  S. Fatehi,  Qingguo Feng,  J. Gayvert,  
 Qinghui Ge,  G. Gidofalvi,  M. Goldey,  J. Gomes,  C. Gonzalez-Espinoza,  
 S. Gulania,  A. Gunina,  M. W. D. Hanson-Heine,  P. H. P. Harbach,  
 A. W. Hauser,  M. F. Herbst,  M. Hernandez Vera,  M. Hodecker,  
 Z. C. Holden,  S. Houck,  Xunkun Huang,  Kerwin Hui,  B. C. Huynh,  
 M. Ivanov,  Hyunjun Ji,  Hanjie Jiang,  B. Kaduk,  S. Kaehler,  
 K. Khistyaev,  Jaehoon Kim,  P. Klunzinger,  Z. Koczor-Benda,  
 Joong Hoon Koh,  D. Kosenkov,  L. Koulias,  T. Kowalczyk,  C. M. Krauter,  
 K. Kue,  A. Kunitsa,  T. Kus,  A. Landau,  K. V. Lawler,  D. Lefrancois,  
 S. Lehtola,  Rain Li,  Yi-Pei Li,  Jiashu Liang,  M. Liebenthal,  
 Hung-Hsuan Lin,  You-Sheng Lin,  Fenglai Liu,  Kuan-Yu Liu,  
 M. Loipersberger,  A. Luenser,  A. Manjanath,  P. Manohar,  E. Mansoor,  
 S. F. Manzer,  Shan-Ping Mao,  A. V. Marenich,  T. Markovich,  S. Mason,  
 S. A. Maurer,  P. F. McLaughlin,  M. F. S. J. Menger,  J.-M. Mewes,  
 S. A. Mewes,  P. Morgante,  J. W. Mullinax,  T. S. Nguyen-Beck,  
 K. J. Oosterbaan,  G. Paran,  Alexander C. Paul,  Suranjan K. Paul,  
 F. Pavosevic,  Zheng Pei,  S. Prager,  E. I. Proynov,  E. Ramos,  B. Rana,  
 A. E. Rask,  A. Rettig,  R. M. Richard,  F. Rob,  E. Rossomme,  T. Scheele,  
 M. Scheurer,  M. Schneider,  N. Sergueev,  S. M. Sharada,  W. Skomorowski,  
 D. W. Small,  C. J. Stein,  Yu-Chuan Su,  E. J. Sundstrom,  Zhen Tao,  
 J. Thirman,  T. Tsuchimochi,  N. M. Tubman,  S. P. Veccham,  O. Vydrov,  
 J. Wenzel,  J. Witte,  A. Yamada,  Kun Yao,  S. Yeganeh,  S. R. Yost,  
 A. Zech,  Igor Ying Zhang,  Xing Zhang,  Yu Zhang,  D. Zuev,  
 A. Aspuru-Guzik,  A. T. Bell,  N. A. Besley,  K. B. Bravaya,  B. R. Brooks,  
 D. Casanova,  Jeng-Da Chai,  S. Coriani,  C. J. Cramer,  
 A. E. DePrince, III,  R. A. DiStasio Jr.,  A. Dreuw,  B. D. Dunietz,  
 T. R. Furlani,  W. A. Goddard III,  S. Grimme,  S. Hammes-Schiffer,  
 T. Head-Gordon,  W. J. Hehre,  Chao-Ping Hsu,  T.-C. Jagau,  Yousung Jung,  
 A. Klamt,  Jing Kong,  D. S. Lambrecht,  WanZhen Liang,  N. J. Mayhall,  
 C. W. McCurdy,  J. B. Neaton,  C. Ochsenfeld,  J. A. Parkhill,  R. Peverati,  
 V. A. Rassolov,  Yihan Shao,  L. V. Slipchenko,  T. Stauch,  R. P. Steele,  
 J. E. Subotnik,  A. J. W. Thom,  A. Tkatchenko,  D. G. Truhlar,  
 T. Van Voorhis,  T. A. Wesolowski,  K. B. Whaley,  H. L. Woodcock III,  
 P. M. Zimmerman,  S. Faraji,  P. M. W. Gill,  M. Head-Gordon,  
 J. M. Herbert,  A. I. Krylov

 Contributors to earlier versions of Q-Chem not listed above: 
 R. D. Adamson,  B. Austin,  R. Baer,  J. Baker,  G. J. O. Beran,  
 K. Brandhorst,  S. T. Brown,  E. F. C. Byrd,  A. K. Chakraborty,  
 G. K. L. Chan,  Chun-Min Chang,  Yunqing Chen,  C.-L. Cheng,  
 Siu Hung Chien,  D. M. Chipman,  D. L. Crittenden,  H. Dachsel,  
 R. J. Doerksen,  A. D. Dutoi,  R. G. Edgar,  J. Fosso-Tande,  
 L. Fusti-Molnar,  D. Ghosh,  A. Ghysels,  A. Golubeva-Zadorozhnaya,  
 J. Gonthier,  M. S. Gordon,  S. R. Gwaltney,  G. Hawkins,  J. E. Herr,  
 A. Heyden,  S. Hirata,  E. G. Hohenstein,  G. Kedziora,  F. J. Keil,  
 C. Kelley,  Jihan Kim,  R. A. King,  R. Z. Khaliullin,  P. P. Korambath,  
 W. Kurlancheek,  A. Laurent,  A. M. Lee,  M. S. Lee,  S. V. Levchenko,  
 Ching Yeh Lin,  D. Liotard,  E. Livshits,  R. C. Lochan,  I. Lotan,  
 L. A. Martinez-Martinez,  P. E. Maslen,  N. Nair,  D. P. O'Neill,  
 D. Neuhauser,  E. Neuscamman,  C. M. Oana,  R. Olivares-Amaya,  R. Olson,  
 T. M. Perrine,  B. Peters,  P. A. Pieniazek,  A. Prociuk,  Y. M. Rhee,  
 J. Ritchie,  M. A. Rohrdanz,  E. Rosta,  N. J. Russ,  H. F. Schaefer III,  
 M. W. Schmidt,  N. E. Schultz,  S. Sharma,  N. Shenvi,  C. D. Sherrill,  
 A. C. Simmonett,  A. Sodt,  T. Stein,  D. Stuck,  K. S. Thanthiriwatte,  
 V. Vanovschi,  L. Vogt,  Tao Wang,  A. Warshel,  M. A. Watson,  
 C. F. Williams,  Q. Wu,  X. Xu,  Jun Yang,  W. Zhang,  Yan Zhao

 Please cite Q-Chem as follows:
 Y. Shao et al., Mol. Phys. 113, 184-215 (2015)
 DOI: 10.1080/00268976.2014.952696

 Q-Chem 5.4.0 for Intel X86 EM64T Linux

 Parts of Q-Chem use Armadillo 9.800.1 (Horizon Scraper).
 http://arma.sourceforge.net/

 Q-Chem begins on Sat Jul  9 00:28:41 2022  

 Host: 
0

     Scratch files written to ./qchem3243928//
 May1621 |scratch|qcdevops|jenkins|workspace|build_RNUM    
 Processing $rem in /cm/shared/apps/spack/cpu/opt/spack/linux-centos8-zen2/gcc-10.2.0/qchem-5.4-akfmr7b3t57bfs6qan3padb2wnb2i7cl/config/preferences:
 Processing $rem in /home/theleonzhang/.qchemrc:
 Symmetry turned off for PCM/SM12/SMD calculation
 Core orbitals will be frozen

 Checking the input file for inconsistencies... 	...done.

--------------------------------------------------------------
User input:
--------------------------------------------------------------
$molecule
0 1
C	-0.133897	-3.866725	-0.763475
C	0.106669	-3.703963	0.603206
C	0.185154	-2.357056	1.050446
H	0.226709	-4.561092	1.283024
C	0.000000	-1.440664	0.000000
S	-0.268206	-2.286957	-1.521018
C	0.437628	-1.978743	2.483610
H	0.549717	-2.878678	3.118875
H	-0.394664	-1.376015	2.903464
H	1.363110	-1.375728	2.593726
H	-0.237880	-4.783437	-1.354522
C	0.000000	0.000000	0.000000
C	0.000033	0.863600	1.099446
C	0.000052	2.247508	0.776721
H	0.000026	0.494801	2.136088
C	0.000074	2.468165	-0.612546
S	0.000024	0.942399	-1.486809
C	0.000075	3.335257	1.814609
H	0.000074	2.909620	2.836676
H	-0.892314	3.989552	1.726239
H	0.892483	3.989525	1.726228
H	0.000094	3.417382	-1.161575
$end

$rem
JOBTYPE		SP
EXCHANGE	HF
CORRELATION	pRIMP2
BASIS		cc-pvtz
METHOD		rimp2
AUX_BASIS	rimp2-cc-pvtz
SOLVENT_METHOD	PCM
PURECART	11111
SYMMETRY	false
MEM_TOTAL	110000
SCF_CONVERGENCE = 6
THRESH=10
$end



$solvent
dielectric 4.90
$end
--------------------------------------------------------------
 ----------------------------------------------------------------
             Standard Nuclear Orientation (Angstroms)
    I     Atom           X                Y                Z
 ----------------------------------------------------------------
    1      C      -0.1338970000    -3.8667250000    -0.7634750000
    2      C       0.1066690000    -3.7039630000     0.6032060000
    3      C       0.1851540000    -2.3570560000     1.0504460000
    4      H       0.2267090000    -4.5610920000     1.2830240000
    5      C       0.0000000000    -1.4406640000     0.0000000000
    6      S      -0.2682060000    -2.2869570000    -1.5210180000
    7      C       0.4376280000    -1.9787430000     2.4836100000
    8      H       0.5497170000    -2.8786780000     3.1188750000
    9      H      -0.3946640000    -1.3760150000     2.9034640000
   10      H       1.3631100000    -1.3757280000     2.5937260000
   11      H      -0.2378800000    -4.7834370000    -1.3545220000
   12      C       0.0000000000     0.0000000000     0.0000000000
   13      C       0.0000330000     0.8636000000     1.0994460000
   14      C       0.0000520000     2.2475080000     0.7767210000
   15      H       0.0000260000     0.4948010000     2.1360880000
   16      C       0.0000740000     2.4681650000    -0.6125460000
   17      S       0.0000240000     0.9423990000    -1.4868090000
   18      C       0.0000750000     3.3352570000     1.8146090000
   19      H       0.0000740000     2.9096200000     2.8366760000
   20      H      -0.8923140000     3.9895520000     1.7262390000
   21      H       0.8924830000     3.9895250000     1.7262280000
   22      H       0.0000940000     3.4173820000    -1.1615750000
 ----------------------------------------------------------------
 Nuclear Repulsion Energy =         837.17870159 hartrees
 There are       51 alpha and       51 beta electrons

 Q-Chem warning in module forms1/BasisType.C, line 2236:

 You are not using the predefined 5D/6D in this basis set.

 Requested basis set is cc-pVTZ
 There are 184 shells and 508 basis functions

 Total QAlloc Memory Limit 110000 MB
 Mega-Array Size       188 MB
 MEM_STATIC part       192 MB
 Discretize the solute cavity surface with Lebedev spheres
	Using 110 Lebedev grid points for each H atom
	Using 194 Lebedev grid points for other atoms
	Atomic van der Waals radii will be scaled by 1.20
 Remove points where switching function is < 1.0e-08
 Keep 1523 surface tesserae and discard 1905 interior tesserae
 Molecular Surface Area = 230.265 Angst**2
 Requested basis set is rimp2-cc-pVTZ
 There are 394 shells and 1354 basis functions
 A cutoff of  1.0D-10 yielded  12349 shell pairs
 There are     91549 function pairs (    118052 Cartesian)
 Smallest overlap matrix eigenvalue = 4.36E-05

 Scale SEOQF with 1.000000e+00/1.000000e-01/1.000000e-01

 Standard Electronic Orientation quadrupole field applied
 Nucleus-field energy     =     0.0000000225 hartrees
 Guess from superposition of atomic densities
 Warning:  Energy on first SCF cycle will be non-variational
 SAD guess density has 102.000000 electrons

 -----------------------------------------------------------------------
  General SCF calculation program by
  Eric Jon Sundstrom, Paul Horn, Yuezhi Mao, Dmitri Zuev, Alec White,
  David Stuck, Shaama M.S., Shane Yost, Joonho Lee, David Small,
  Daniel Levine, Susi Lehtola, Hugh Burton, Evgeny Epifanovsky,
  Bang C. Huynh
 -----------------------------------------------------------------------
 Hartree-Fock
 A restricted SCF calculation will be
 performed using DIIS
 SCF converges when DIIS error is below 1.0e-06
 ---------------------------------------
  Cycle       Energy         DIIS error
 ---------------------------------------
    1   -1184.2532047640      2.38e-02  
    2   -1179.5450254945      1.61e-03  
    3   -1179.6663998754      6.27e-04  
    4   -1179.6804410593      3.42e-04  
    5   -1179.6853635852      6.32e-05  
    6   -1179.6856255969      2.92e-05  
    7   -1179.6857032703      1.18e-05  
    8   -1179.6857268278      5.15e-06  
    9   -1179.6857309576      1.55e-06  
   10   -1179.6857313732      5.27e-07  Convergence criterion met
 ---------------------------------------
 SCF time:   CPU 493.02s  wall 497.00s 

************** Final PCM Free Energy Summary **************
 G_electrostatic  =      -0.00865247 hartree =      -5.42950479 kcal/mol
 G_cavitation     =       0.00000000 hartree =       0.00000000 kcal/mol
 G_dispersion     =       0.00000000 hartree =       0.00000000 kcal/mol
 G_repulsion      =       0.00000000 hartree =       0.00000000 kcal/mol
 --------------------------------------------------
 Non-electrostatic Free Energy =       0.00000000 hartree =       0.00000000 kcal/mol
 Total                         =      -0.00865247 hartree =      -5.42950479 kcal/mol
 --------------------------------------------------
 SCF Energy (H0 + V/2)                       =   -1179.68573137 
 Solute Internal Energy (H0)                 =   -1179.67707891 
 Total Free Energy (H0 + V/2 + non-elec)     =   -1179.68573137 hartree
                                             = -740263.96924022 kcal/mol
***********************************************************

 SCF   energy in the final basis set =    -1179.6857313732
 Total energy in the final basis set =    -1179.6857313732


 --------------------------------------------------------------
  Generalized many-body perturbation theory program
  by Joonho Lee, Fazle Rob, Xintian Feng, Evgeny Epifanovsky

 No regularization used 
 (reg. param. = 0.0000e+00)
  (P|Q)^-1/2 Time:  CPU 2.06 s  wall 2.06 s

 In RI-MP2 calculation: 
 # of frozen core orbitals: 20

 Components of the RIMP2 correlation energy:
        aaaa    correlation energy =        -0.2529825119 a.u.
        abab    correlation energy =        -1.4739853723 a.u.
        bbbb    correlation energy =        -0.2529825119 a.u.
        non-Brillouin singles      =        -0.0000000000 a.u.
        total same-spin energy     =        -0.5059650238 a.u.
        total opposite-spin energy =        -1.4739853723 a.u.

 Total  RIMP2   correlation energy =        -1.9799503960 a.u.
        RIMP2         total energy =     -1181.6656817692 a.u.

 RI-MP2 Energy Time:  CPU 97.67 s  wall 98.08 s
 
 --------------------------------------------------------------
 
                    Orbital Energies (a.u.)
 --------------------------------------------------------------
 
 Alpha MOs
 -- Occupied --
-91.9859 -91.9853 -11.2841 -11.2788 -11.2730 -11.2638 -11.2544 -11.2522
-11.2442 -11.2395 -11.2320 -11.2294  -8.9857  -8.9853  -6.6666  -6.6662
 -6.6661  -6.6657  -6.6654  -6.6650  -1.1817  -1.1505  -1.0421  -1.0281
 -0.9959  -0.9565  -0.9149  -0.8947  -0.8037  -0.7572  -0.7270  -0.7010
 -0.6626  -0.6141  -0.5908  -0.5823  -0.5701  -0.5641  -0.5524  -0.5401
 -0.5297  -0.5239  -0.5043  -0.4907  -0.4893  -0.4777  -0.4510  -0.3705
 -0.3478  -0.3377  -0.2691
 -- Virtual --
  0.0611   0.1350   0.1448   0.1491   0.1607   0.1726   0.1808   0.1841
  0.2009   0.2018   0.2058   0.2166   0.2352   0.2372   0.2400   0.2680
  0.2770   0.2880   0.3026   0.3146   0.3218   0.3626   0.3705   0.3827
  0.3843   0.3870   0.3899   0.4000   0.4036   0.4179   0.4303   0.4416
  0.4592   0.4684   0.4763   0.4778   0.4848   0.4886   0.5132   0.5157
  0.5192   0.5303   0.5308   0.5357   0.5400   0.5499   0.5599   0.5710
  0.5822   0.5891   0.5926   0.5980   0.6094   0.6150   0.6166   0.6237
  0.6274   0.6335   0.6369   0.6435   0.6462   0.6592   0.6740   0.6764
  0.6802   0.6870   0.6926   0.7170   0.7241   0.7378   0.7600   0.7648
  0.7706   0.7778   0.7972   0.8087   0.8119   0.8224   0.8393   0.8549
  0.8659   0.8710   0.8792   0.9024   0.9084   0.9180   0.9312   0.9539
  0.9561   0.9693   0.9826   0.9974   1.0082   1.0231   1.0383   1.0422
  1.0540   1.0599   1.0667   1.0726   1.0825   1.0850   1.0891   1.1003
  1.1042   1.1176   1.1208   1.1546   1.1627   1.1691   1.1802   1.1964
  1.2145   1.2150   1.2206   1.2369   1.2476   1.2528   1.2554   1.2727
  1.2754   1.2887   1.3076   1.3103   1.3256   1.3332   1.3554   1.3689
  1.3864   1.3878   1.3988   1.4099   1.4238   1.4472   1.4549   1.4660
  1.4799   1.4878   1.5170   1.5206   1.5308   1.5410   1.5460   1.5523
  1.5597   1.5677   1.5799   1.5828   1.6001   1.6093   1.6237   1.6318
  1.6485   1.6608   1.6748   1.6917   1.6990   1.7171   1.7269   1.7360
  1.7393   1.7626   1.7877   1.8079   1.8266   1.8370   1.8546   1.8605
  1.8645   1.8857   1.8994   1.9206   1.9441   1.9575   1.9743   1.9891
  2.0078   2.0489   2.0665   2.1045   2.1349   2.1436   2.1559   2.1686
  2.2010   2.2082   2.2198   2.2258   2.2410   2.2663   2.2692   2.2739
  2.2769   2.2929   2.3293   2.3845   2.4049   2.4297   2.4441   2.4602
  2.4802   2.4954   2.5011   2.5225   2.5494   2.5672   2.5911   2.6056
  2.6331   2.6475   2.6648   2.6835   2.7047   2.7136   2.7231   2.7309
  2.7376   2.7474   2.7585   2.7613   2.7675   2.7787   2.7968   2.8055
  2.8187   2.8569   2.8585   2.8623   2.8894   2.9016   2.9118   2.9191
  2.9375   2.9594   2.9842   2.9965   3.0080   3.0189   3.0368   3.0454
  3.0554   3.0683   3.0999   3.1121   3.1146   3.1227   3.1278   3.1410
  3.1516   3.1566   3.1596   3.1870   3.1901   3.1933   3.2043   3.2277
  3.2314   3.2492   3.2610   3.2673   3.2843   3.2874   3.2969   3.2982
  3.3124   3.3214   3.3357   3.3463   3.3504   3.3600   3.3706   3.3783
  3.3884   3.3982   3.4014   3.4050   3.4247   3.4295   3.4323   3.4406
  3.4539   3.4628   3.4721   3.4904   3.4961   3.4974   3.5073   3.5205
  3.5264   3.5306   3.5332   3.5444   3.5489   3.5563   3.5723   3.5857
  3.6044   3.6101   3.6147   3.6218   3.6341   3.6435   3.6608   3.6639
  3.6752   3.6862   3.6954   3.7011   3.7082   3.7197   3.7427   3.7541
  3.7615   3.7753   3.7813   3.7939   3.8081   3.8187   3.8227   3.8475
  3.8581   3.8833   3.8951   3.9164   3.9253   3.9309   3.9442   3.9843
  3.9943   3.9967   4.0015   4.0102   4.0180   4.0342   4.0407   4.0576
  4.0623   4.0860   4.0908   4.1065   4.1275   4.1373   4.1454   4.1554
  4.1630   4.1816   4.1947   4.1995   4.2101   4.2156   4.2235   4.2420
  4.2510   4.2644   4.2770   4.2856   4.3031   4.3298   4.3367   4.3504
  4.3618   4.3695   4.3786   4.4006   4.4076   4.4145   4.4202   4.4318
  4.4378   4.4602   4.4722   4.4806   4.5077   4.5178   4.5576   4.5737
  4.5840   4.6122   4.6191   4.6201   4.6372   4.6493   4.6544   4.6890
  4.7001   4.7219   4.7638   4.7753   4.7870   4.8015   4.8456   4.8595
  4.8654   4.8919   4.8999   4.9668   4.9908   4.9960   5.0446   5.0541
  5.1052   5.1062   5.1136   5.1520   5.1861   5.2033   5.2054   5.2692
  5.2831   5.3069   5.3097   5.3275   5.3600   5.3748   5.3856   5.4009
  5.4095   5.4479   5.4652   5.5013   5.5214   5.5372   5.5485   5.5687
  5.5722   5.5987   5.6197   5.6266   5.6414   5.7035   5.7113   5.7455
  5.7822   5.8395   5.9098   5.9865   6.0818   6.1405   6.2253   6.2310
  6.2631   6.2775   6.3004   6.3629   6.3942   6.4749   6.6133   8.8297
 10.2169  11.5431  12.0938  12.8643  13.1637  13.7806  14.1784  14.3131
 14.7047
 --------------------------------------------------------------
 
          Ground-State Mulliken Net Atomic Charges

     Atom                 Charge (a.u.)
  ----------------------------------------
      1 C                    -0.211897
      2 C                    -0.257208
      3 C                     0.079074
      4 H                     0.184189
      5 C                    -0.052874
      6 S                     0.007993
      7 C                    -0.315193
      8 H                     0.119282
      9 H                     0.107169
     10 H                     0.115644
     11 H                     0.207942
     12 C                     0.033277
     13 C                    -0.237163
     14 C                     0.020368
     15 H                     0.195882
     16 C                    -0.250560
     17 S                     0.006987
     18 C                    -0.271992
     19 H                     0.101388
     20 H                     0.108815
     21 H                     0.108764
     22 H                     0.200112
  ----------------------------------------
  Sum of atomic charges =     0.000000

 -----------------------------------------------------------------
                    Cartesian Multipole Moments
 -----------------------------------------------------------------
    Charge (ESU x 10^10)
                -0.0000
    Dipole Moment (Debye)
         X       0.2626      Y       0.0972      Z       2.9133
       Tot       2.9268
    Quadrupole Moments (Debye-Ang)
        XX     -92.5842     XY      -0.3815     YY     -68.1565
        XZ       1.1596     YZ      -1.1319     ZZ     -80.2298
    Octopole Moments (Debye-Ang^2)
       XXX      -1.0991    XXY      47.6346    XYY      -0.9005
       YYY      92.0190    XXZ      -3.0734    XYZ      -4.3396
       YYZ      -8.8727    XZZ       0.0935    YZZ      35.1593
       ZZZ      -0.5083
    Hexadecapole Moments (Debye-Ang^3)
      XXXX    -145.0923   XXXY      -0.7738   XXYY    -569.4669
      XYYY       5.8472   YYYY   -2572.2042   XXXZ     -49.3871
      XXYZ     -32.1325   XYYZ       1.9377   YYYZ     -76.4123
      XXZZ    -213.1399   XYZZ      -1.4274   YYZZ    -600.4594
      XZZZ     -44.6123   YZZZ    -108.1349   ZZZZ   -1061.1459
 -----------------------------------------------------------------
 Total job time:  595.47s(wall), 591.60s(cpu) 
 Sat Jul  9 00:38:36 2022

        *************************************************************
        *                                                           *
        *  Thank you very much for using Q-Chem.  Have a nice day.  *
        *                                                           *
        *************************************************************


remove work dirs ./qchem3243928.0 -- ./qchem3243928.-1
rm -rf ./qchem3243928
