You are running Q-Chem version: 5.4.0

#
# job setting
#
local host:  exp-2-51
current dir: /expanse/lustre/scratch/theleonzhang/temp_project/Interring_Bonds
input file:  Methylthiophene_Phi_40_Theta_170_Methylthiophene.qcin
output file: 
nprocs     : 0
nthreads   : 1
#
# qchem installation setting
#
QC:          /cm/shared/apps/spack/cpu/opt/spack/linux-centos8-zen2/gcc-10.2.0/qchem-5.4-akfmr7b3t57bfs6qan3padb2wnb2i7cl
QCAUX:       /cm/shared/apps/spack/cpu/opt/spack/linux-centos8-zen2/gcc-10.2.0/qchem-5.4-akfmr7b3t57bfs6qan3padb2wnb2i7cl/qcaux
QCPROG:      /cm/shared/apps/spack/cpu/opt/spack/linux-centos8-zen2/gcc-10.2.0/qchem-5.4-akfmr7b3t57bfs6qan3padb2wnb2i7cl/exe/qcprog.exe_s
QCPROG_S:    /cm/shared/apps/spack/cpu/opt/spack/linux-centos8-zen2/gcc-10.2.0/qchem-5.4-akfmr7b3t57bfs6qan3padb2wnb2i7cl/exe/qcprog.exe_s
PARALLEL:    -DSERIAL
QCMPI:       mpich
#
# qchem directory setting
#
qcrun:       qchem1562207
QCSCRATCH:   .
QCLOCALSCR:  
QCTMPDIR:    .
QCFILEPREF:  ./qchem1562207
QCSAVEDIR:   
workdirs:    ./qchem1562207
workdir0:    ./qchem1562207
partmpdirs =  
#
# parallel setting
#
QCRSH:           ssh
QCMPI:           mpich
QCMPIRUN:        /cm/shared/apps/spack/cpu/opt/spack/linux-centos8-zen2/gcc-10.2.0/qchem-5.4-akfmr7b3t57bfs6qan3padb2wnb2i7cl/bin/mpi/mpirun_qchem
QCMACHINEFILE:   ./qchem1562207/hostfile

#
# env setting
#
exported envs:   QC QCAUX QCSCRATCH QCRUNNAME QCFILEPREF QCPROG QCPROG_S GUIFILE

Running Job 1 of 1 Methylthiophene_Phi_40_Theta_170_Methylthiophene.qcin
qchem Methylthiophene_Phi_40_Theta_170_Methylthiophene.qcin_1562207.0 ./qchem1562207/ 0
/cm/shared/apps/spack/cpu/opt/spack/linux-centos8-zen2/gcc-10.2.0/qchem-5.4-akfmr7b3t57bfs6qan3padb2wnb2i7cl/exe/qcprog.exe_s Methylthiophene_Phi_40_Theta_170_Methylthiophene.qcin_1562207.0 ./qchem1562207/
                  Welcome to Q-Chem
     A Quantum Leap Into The Future Of Chemistry


 Q-Chem 5.4, Q-Chem, Inc., Pleasanton, CA (2021)

 License issued to: University of California, San Diego (site)

 E. Epifanovsky,  A. T. B. Gilbert,  Xintian Feng,  Joonho Lee,  Yuezhi Mao,  
 N. Mardirossian,  P. Pokhilko,  A. White,  M. Wormit,  M. P. Coons,  
 A. L. Dempwolff,  Zhengting Gan,  D. Hait,  P. R. Horn,  L. D. Jacobson,  
 I. Kaliman,  J. Kussmann,  A. W. Lange,  Ka Un Lao,  D. S. Levine,  Jie Liu,  
 S. C. McKenzie,  A. F. Morrison,  K. Nanda,  F. Plasser,  D. R. Rehn,  
 M. L. Vidal,  Zhi-Qiang You,  Ying Zhu,  B. Alam,  B. Albrecht,  
 A. Aldossary,  E. Alguire,  J. H. Andersen,  D. Barton,  K. Begam,  A. Behn,  
 Y. A. Bernard,  E. J. Berquist,  H. Burton,  A. Carreras,  K. Carter-Fenk,  
 R. Chakraborty,  A. D. Chien,  K. D. Closser,  V. Cofer-Shabica,  
 S. Dasgupta,  Jia Deng,  M. de Wergifosse,  M. Diedenhofen,  Hainam Do,  
 S. Ehlert,  Po-Tung Fang,  S. Fatehi,  Qingguo Feng,  J. Gayvert,  
 Qinghui Ge,  G. Gidofalvi,  M. Goldey,  J. Gomes,  C. Gonzalez-Espinoza,  
 S. Gulania,  A. Gunina,  M. W. D. Hanson-Heine,  P. H. P. Harbach,  
 A. W. Hauser,  M. F. Herbst,  M. Hernandez Vera,  M. Hodecker,  
 Z. C. Holden,  S. Houck,  Xunkun Huang,  Kerwin Hui,  B. C. Huynh,  
 M. Ivanov,  Hyunjun Ji,  Hanjie Jiang,  B. Kaduk,  S. Kaehler,  
 K. Khistyaev,  Jaehoon Kim,  P. Klunzinger,  Z. Koczor-Benda,  
 Joong Hoon Koh,  D. Kosenkov,  L. Koulias,  T. Kowalczyk,  C. M. Krauter,  
 K. Kue,  A. Kunitsa,  T. Kus,  A. Landau,  K. V. Lawler,  D. Lefrancois,  
 S. Lehtola,  Rain Li,  Yi-Pei Li,  Jiashu Liang,  M. Liebenthal,  
 Hung-Hsuan Lin,  You-Sheng Lin,  Fenglai Liu,  Kuan-Yu Liu,  
 M. Loipersberger,  A. Luenser,  A. Manjanath,  P. Manohar,  E. Mansoor,  
 S. F. Manzer,  Shan-Ping Mao,  A. V. Marenich,  T. Markovich,  S. Mason,  
 S. A. Maurer,  P. F. McLaughlin,  M. F. S. J. Menger,  J.-M. Mewes,  
 S. A. Mewes,  P. Morgante,  J. W. Mullinax,  T. S. Nguyen-Beck,  
 K. J. Oosterbaan,  G. Paran,  Alexander C. Paul,  Suranjan K. Paul,  
 F. Pavosevic,  Zheng Pei,  S. Prager,  E. I. Proynov,  E. Ramos,  B. Rana,  
 A. E. Rask,  A. Rettig,  R. M. Richard,  F. Rob,  E. Rossomme,  T. Scheele,  
 M. Scheurer,  M. Schneider,  N. Sergueev,  S. M. Sharada,  W. Skomorowski,  
 D. W. Small,  C. J. Stein,  Yu-Chuan Su,  E. J. Sundstrom,  Zhen Tao,  
 J. Thirman,  T. Tsuchimochi,  N. M. Tubman,  S. P. Veccham,  O. Vydrov,  
 J. Wenzel,  J. Witte,  A. Yamada,  Kun Yao,  S. Yeganeh,  S. R. Yost,  
 A. Zech,  Igor Ying Zhang,  Xing Zhang,  Yu Zhang,  D. Zuev,  
 A. Aspuru-Guzik,  A. T. Bell,  N. A. Besley,  K. B. Bravaya,  B. R. Brooks,  
 D. Casanova,  Jeng-Da Chai,  S. Coriani,  C. J. Cramer,  
 A. E. DePrince, III,  R. A. DiStasio Jr.,  A. Dreuw,  B. D. Dunietz,  
 T. R. Furlani,  W. A. Goddard III,  S. Grimme,  S. Hammes-Schiffer,  
 T. Head-Gordon,  W. J. Hehre,  Chao-Ping Hsu,  T.-C. Jagau,  Yousung Jung,  
 A. Klamt,  Jing Kong,  D. S. Lambrecht,  WanZhen Liang,  N. J. Mayhall,  
 C. W. McCurdy,  J. B. Neaton,  C. Ochsenfeld,  J. A. Parkhill,  R. Peverati,  
 V. A. Rassolov,  Yihan Shao,  L. V. Slipchenko,  T. Stauch,  R. P. Steele,  
 J. E. Subotnik,  A. J. W. Thom,  A. Tkatchenko,  D. G. Truhlar,  
 T. Van Voorhis,  T. A. Wesolowski,  K. B. Whaley,  H. L. Woodcock III,  
 P. M. Zimmerman,  S. Faraji,  P. M. W. Gill,  M. Head-Gordon,  
 J. M. Herbert,  A. I. Krylov

 Contributors to earlier versions of Q-Chem not listed above: 
 R. D. Adamson,  B. Austin,  R. Baer,  J. Baker,  G. J. O. Beran,  
 K. Brandhorst,  S. T. Brown,  E. F. C. Byrd,  A. K. Chakraborty,  
 G. K. L. Chan,  Chun-Min Chang,  Yunqing Chen,  C.-L. Cheng,  
 Siu Hung Chien,  D. M. Chipman,  D. L. Crittenden,  H. Dachsel,  
 R. J. Doerksen,  A. D. Dutoi,  R. G. Edgar,  J. Fosso-Tande,  
 L. Fusti-Molnar,  D. Ghosh,  A. Ghysels,  A. Golubeva-Zadorozhnaya,  
 J. Gonthier,  M. S. Gordon,  S. R. Gwaltney,  G. Hawkins,  J. E. Herr,  
 A. Heyden,  S. Hirata,  E. G. Hohenstein,  G. Kedziora,  F. J. Keil,  
 C. Kelley,  Jihan Kim,  R. A. King,  R. Z. Khaliullin,  P. P. Korambath,  
 W. Kurlancheek,  A. Laurent,  A. M. Lee,  M. S. Lee,  S. V. Levchenko,  
 Ching Yeh Lin,  D. Liotard,  E. Livshits,  R. C. Lochan,  I. Lotan,  
 L. A. Martinez-Martinez,  P. E. Maslen,  N. Nair,  D. P. O'Neill,  
 D. Neuhauser,  E. Neuscamman,  C. M. Oana,  R. Olivares-Amaya,  R. Olson,  
 T. M. Perrine,  B. Peters,  P. A. Pieniazek,  A. Prociuk,  Y. M. Rhee,  
 J. Ritchie,  M. A. Rohrdanz,  E. Rosta,  N. J. Russ,  H. F. Schaefer III,  
 M. W. Schmidt,  N. E. Schultz,  S. Sharma,  N. Shenvi,  C. D. Sherrill,  
 A. C. Simmonett,  A. Sodt,  T. Stein,  D. Stuck,  K. S. Thanthiriwatte,  
 V. Vanovschi,  L. Vogt,  Tao Wang,  A. Warshel,  M. A. Watson,  
 C. F. Williams,  Q. Wu,  X. Xu,  Jun Yang,  W. Zhang,  Yan Zhao

 Please cite Q-Chem as follows:
 Y. Shao et al., Mol. Phys. 113, 184-215 (2015)
 DOI: 10.1080/00268976.2014.952696

 Q-Chem 5.4.0 for Intel X86 EM64T Linux

 Parts of Q-Chem use Armadillo 9.800.1 (Horizon Scraper).
 http://arma.sourceforge.net/

 Q-Chem begins on Sat Jul  9 00:48:17 2022  

 Host: 
0

     Scratch files written to ./qchem1562207//
 May1621 |scratch|qcdevops|jenkins|workspace|build_RNUM    
 Processing $rem in /cm/shared/apps/spack/cpu/opt/spack/linux-centos8-zen2/gcc-10.2.0/qchem-5.4-akfmr7b3t57bfs6qan3padb2wnb2i7cl/config/preferences:
 Processing $rem in /home/theleonzhang/.qchemrc:
 Symmetry turned off for PCM/SM12/SMD calculation
 Core orbitals will be frozen

 Checking the input file for inconsistencies... 	...done.

--------------------------------------------------------------
User input:
--------------------------------------------------------------
$molecule
0 1
C	-0.133897	-3.866725	-0.763475
C	0.106669	-3.703963	0.603206
C	0.185154	-2.357056	1.050446
H	0.226709	-4.561092	1.283024
C	-0.000000	-1.440664	-0.000000
S	-0.268206	-2.286957	-1.521018
C	0.437628	-1.978743	2.483610
H	0.549717	-2.878678	3.118875
H	-0.394664	-1.376015	2.903464
H	1.363110	-1.375728	2.593726
H	-0.237880	-4.783437	-1.354522
C	0.000000	0.000000	0.000000
C	0.555137	0.661535	1.099446
C	1.444710	1.721658	0.776721
H	0.318072	0.379023	2.136088
C	1.586563	1.890676	-0.612546
S	0.605781	0.721904	-1.486809
C	2.143920	2.554907	1.814609
H	1.870325	2.228851	2.836676
H	1.880882	3.629742	1.726239
H	3.248098	2.482476	1.726228
H	2.196723	2.617806	-1.161575
$end

$rem
JOBTYPE		SP
EXCHANGE	HF
CORRELATION	pRIMP2
BASIS		cc-pvtz
METHOD		rimp2
AUX_BASIS	rimp2-cc-pvtz
SOLVENT_METHOD	PCM
PURECART	11111
SYMMETRY	false
MEM_TOTAL	110000
SCF_CONVERGENCE = 6
THRESH=10
$end



$solvent
dielectric 4.90
$end
--------------------------------------------------------------
 ----------------------------------------------------------------
             Standard Nuclear Orientation (Angstroms)
    I     Atom           X                Y                Z
 ----------------------------------------------------------------
    1      C      -0.1338970000    -3.8667250000    -0.7634750000
    2      C       0.1066690000    -3.7039630000     0.6032060000
    3      C       0.1851540000    -2.3570560000     1.0504460000
    4      H       0.2267090000    -4.5610920000     1.2830240000
    5      C       0.0000000000    -1.4406640000     0.0000000000
    6      S      -0.2682060000    -2.2869570000    -1.5210180000
    7      C       0.4376280000    -1.9787430000     2.4836100000
    8      H       0.5497170000    -2.8786780000     3.1188750000
    9      H      -0.3946640000    -1.3760150000     2.9034640000
   10      H       1.3631100000    -1.3757280000     2.5937260000
   11      H      -0.2378800000    -4.7834370000    -1.3545220000
   12      C       0.0000000000     0.0000000000     0.0000000000
   13      C       0.5551370000     0.6615350000     1.0994460000
   14      C       1.4447100000     1.7216580000     0.7767210000
   15      H       0.3180720000     0.3790230000     2.1360880000
   16      C       1.5865630000     1.8906760000    -0.6125460000
   17      S       0.6057810000     0.7219040000    -1.4868090000
   18      C       2.1439200000     2.5549070000     1.8146090000
   19      H       1.8703250000     2.2288510000     2.8366760000
   20      H       1.8808820000     3.6297420000     1.7262390000
   21      H       3.2480980000     2.4824760000     1.7262280000
   22      H       2.1967230000     2.6178060000    -1.1615750000
 ----------------------------------------------------------------
 Nuclear Repulsion Energy =         849.32462619 hartrees
 There are       51 alpha and       51 beta electrons

 Q-Chem warning in module forms1/BasisType.C, line 2236:

 You are not using the predefined 5D/6D in this basis set.

 Requested basis set is cc-pVTZ
 There are 184 shells and 508 basis functions

 Total QAlloc Memory Limit 110000 MB
 Mega-Array Size       188 MB
 MEM_STATIC part       192 MB
 Discretize the solute cavity surface with Lebedev spheres
	Using 110 Lebedev grid points for each H atom
	Using 194 Lebedev grid points for other atoms
	Atomic van der Waals radii will be scaled by 1.20
 Remove points where switching function is < 1.0e-08
 Keep 1507 surface tesserae and discard 1921 interior tesserae
 Molecular Surface Area = 226.778 Angst**2
 Requested basis set is rimp2-cc-pVTZ
 There are 394 shells and 1354 basis functions
 A cutoff of  1.0D-10 yielded  12689 shell pairs
 There are     94173 function pairs (    121454 Cartesian)
 Smallest overlap matrix eigenvalue = 6.24E-05

 Scale SEOQF with 1.000000e-01/1.000000e-01/1.000000e-01

 Standard Electronic Orientation quadrupole field applied
 Nucleus-field energy     =     0.0000000173 hartrees
 Guess from superposition of atomic densities
 Warning:  Energy on first SCF cycle will be non-variational
 SAD guess density has 102.000000 electrons

 -----------------------------------------------------------------------
  General SCF calculation program by
  Eric Jon Sundstrom, Paul Horn, Yuezhi Mao, Dmitri Zuev, Alec White,
  David Stuck, Shaama M.S., Shane Yost, Joonho Lee, David Small,
  Daniel Levine, Susi Lehtola, Hugh Burton, Evgeny Epifanovsky,
  Bang C. Huynh
 -----------------------------------------------------------------------
 Hartree-Fock
 A restricted SCF calculation will be
 performed using DIIS
 SCF converges when DIIS error is below 1.0e-06
 ---------------------------------------
  Cycle       Energy         DIIS error
 ---------------------------------------
    1   -1184.3198645964      2.39e-02  
    2   -1179.5100666690      1.60e-03  
    3   -1179.6315880891      6.09e-04  
    4   -1179.6452804510      3.34e-04  
    5   -1179.6500263733      6.28e-05  
    6   -1179.6502977994      2.97e-05  
    7   -1179.6503803933      1.29e-05  
    8   -1179.6504073721      5.28e-06  
    9   -1179.6504123636      2.00e-06  
   10   -1179.6504130050      7.76e-07  Convergence criterion met
 ---------------------------------------
 SCF time:   CPU 521.20s  wall 523.00s 

************** Final PCM Free Energy Summary **************
 G_electrostatic  =      -0.00927841 hartree =      -5.82229007 kcal/mol
 G_cavitation     =       0.00000000 hartree =       0.00000000 kcal/mol
 G_dispersion     =       0.00000000 hartree =       0.00000000 kcal/mol
 G_repulsion      =       0.00000000 hartree =       0.00000000 kcal/mol
 --------------------------------------------------
 Non-electrostatic Free Energy =       0.00000000 hartree =       0.00000000 kcal/mol
 Total                         =      -0.00927841 hartree =      -5.82229007 kcal/mol
 --------------------------------------------------
 SCF Energy (H0 + V/2)                       =   -1179.65041301 
 Solute Internal Energy (H0)                 =   -1179.64113460 
 Total Free Energy (H0 + V/2 + non-elec)     =   -1179.65041301 hartree
                                             = -740241.80662973 kcal/mol
***********************************************************

 SCF   energy in the final basis set =    -1179.6504130050
 Total energy in the final basis set =    -1179.6504130050


 --------------------------------------------------------------
  Generalized many-body perturbation theory program
  by Joonho Lee, Fazle Rob, Xintian Feng, Evgeny Epifanovsky

 No regularization used 
 (reg. param. = 0.0000e+00)
  (P|Q)^-1/2 Time:  CPU 1.72 s  wall 1.73 s

 In RI-MP2 calculation: 
 # of frozen core orbitals: 20

 Components of the RIMP2 correlation energy:
        aaaa    correlation energy =        -0.2546429772 a.u.
        abab    correlation energy =        -1.4796469153 a.u.
        bbbb    correlation energy =        -0.2546429772 a.u.
        non-Brillouin singles      =        -0.0000000000 a.u.
        total same-spin energy     =        -0.5092859544 a.u.
        total opposite-spin energy =        -1.4796469153 a.u.

 Total  RIMP2   correlation energy =        -1.9889328697 a.u.
        RIMP2         total energy =     -1181.6393458747 a.u.

 RI-MP2 Energy Time:  CPU 70.26 s  wall 70.54 s
 
 --------------------------------------------------------------
 
                    Orbital Energies (a.u.)
 --------------------------------------------------------------
 
 Alpha MOs
 -- Occupied --
-91.9843 -91.9786 -11.2785 -11.2765 -11.2722 -11.2651 -11.2537 -11.2501
-11.2451 -11.2406 -11.2308 -11.2297  -8.9847  -8.9790  -6.6656  -6.6649
 -6.6643  -6.6600  -6.6594  -6.6587  -1.1855  -1.1484  -1.0444  -1.0260
 -0.9959  -0.9552  -0.9133  -0.8945  -0.8004  -0.7563  -0.7289  -0.7020
 -0.6576  -0.6147  -0.5942  -0.5827  -0.5707  -0.5618  -0.5510  -0.5414
 -0.5298  -0.5230  -0.5046  -0.4896  -0.4807  -0.4722  -0.4478  -0.3690
 -0.3488  -0.3338  -0.2651
 -- Virtual --
  0.0565   0.1308   0.1357   0.1474   0.1630   0.1722   0.1801   0.1840
  0.1949   0.2061   0.2072   0.2184   0.2334   0.2383   0.2430   0.2559
  0.2719   0.2835   0.3070   0.3167   0.3266   0.3416   0.3620   0.3725
  0.3820   0.3831   0.3919   0.4035   0.4208   0.4219   0.4375   0.4391
  0.4486   0.4567   0.4727   0.4779   0.4786   0.4843   0.5049   0.5082
  0.5120   0.5157   0.5250   0.5342   0.5448   0.5529   0.5557   0.5708
  0.5771   0.5865   0.5985   0.6016   0.6069   0.6128   0.6159   0.6235
  0.6304   0.6310   0.6355   0.6391   0.6489   0.6634   0.6687   0.6780
  0.6813   0.6963   0.7002   0.7159   0.7167   0.7311   0.7454   0.7617
  0.7664   0.7795   0.7974   0.7986   0.8023   0.8143   0.8399   0.8521
  0.8553   0.8647   0.8753   0.8939   0.9030   0.9072   0.9413   0.9463
  0.9615   0.9628   0.9780   0.9848   1.0071   1.0158   1.0229   1.0357
  1.0440   1.0518   1.0674   1.0741   1.0814   1.0871   1.0913   1.0991
  1.1147   1.1342   1.1393   1.1454   1.1566   1.1612   1.1882   1.2045
  1.2128   1.2148   1.2277   1.2330   1.2530   1.2606   1.2656   1.2722
  1.2806   1.2847   1.3163   1.3212   1.3408   1.3434   1.3562   1.3742
  1.3775   1.3935   1.3978   1.4137   1.4200   1.4324   1.4453   1.4642
  1.4747   1.4871   1.5067   1.5187   1.5304   1.5378   1.5474   1.5549
  1.5644   1.5665   1.5728   1.5816   1.5934   1.6006   1.6168   1.6297
  1.6319   1.6652   1.6811   1.6896   1.7022   1.7087   1.7308   1.7393
  1.7596   1.7683   1.7882   1.7974   1.8030   1.8243   1.8367   1.8688
  1.8732   1.9047   1.9102   1.9231   1.9513   1.9673   1.9758   1.9950
  2.0088   2.0434   2.0696   2.1092   2.1280   2.1483   2.1646   2.1743
  2.1786   2.1926   2.2147   2.2325   2.2390   2.2645   2.2662   2.2793
  2.2874   2.2916   2.3204   2.3585   2.4066   2.4255   2.4339   2.4461
  2.4619   2.4850   2.5107   2.5210   2.5513   2.5699   2.5868   2.6058
  2.6309   2.6401   2.6582   2.6604   2.6808   2.7011   2.7189   2.7338
  2.7360   2.7461   2.7544   2.7635   2.7823   2.7867   2.7919   2.8179
  2.8297   2.8403   2.8483   2.8604   2.8733   2.9101   2.9342   2.9509
  2.9612   2.9676   2.9858   2.9919   3.0176   3.0278   3.0404   3.0505
  3.0679   3.0708   3.0788   3.1096   3.1106   3.1208   3.1375   3.1507
  3.1554   3.1675   3.1683   3.1768   3.1929   3.1960   3.2116   3.2256
  3.2369   3.2479   3.2590   3.2718   3.2835   3.2840   3.3041   3.3083
  3.3095   3.3245   3.3381   3.3463   3.3565   3.3716   3.3744   3.3824
  3.3882   3.3927   3.4050   3.4132   3.4198   3.4289   3.4372   3.4436
  3.4563   3.4649   3.4729   3.4876   3.4946   3.5022   3.5173   3.5227
  3.5303   3.5419   3.5484   3.5499   3.5531   3.5705   3.5749   3.5943
  3.6011   3.6118   3.6257   3.6362   3.6513   3.6646   3.6824   3.6834
  3.6890   3.6951   3.7045   3.7174   3.7273   3.7345   3.7467   3.7497
  3.7746   3.7833   3.7946   3.7982   3.8118   3.8279   3.8362   3.8446
  3.8614   3.8889   3.9087   3.9132   3.9302   3.9406   3.9560   3.9636
  3.9795   3.9850   4.0110   4.0180   4.0248   4.0339   4.0493   4.0566
  4.0637   4.0904   4.1098   4.1139   4.1275   4.1497   4.1524   4.1596
  4.1790   4.1923   4.1988   4.2043   4.2118   4.2159   4.2296   4.2399
  4.2587   4.2753   4.2813   4.2957   4.3091   4.3225   4.3298   4.3432
  4.3589   4.3670   4.3783   4.3956   4.4015   4.4030   4.4173   4.4366
  4.4510   4.4699   4.4720   4.4939   4.5311   4.5442   4.5497   4.5881
  4.6068   4.6181   4.6273   4.6316   4.6576   4.6642   4.6859   4.6918
  4.7099   4.7449   4.7516   4.7594   4.7866   4.8121   4.8567   4.8742
  4.8798   4.8963   4.9039   4.9472   4.9533   4.9670   4.9925   5.0586
  5.0957   5.1013   5.1096   5.1489   5.1688   5.1834   5.2068   5.2364
  5.2732   5.2787   5.3083   5.3122   5.3230   5.3722   5.3900   5.4028
  5.4170   5.4526   5.4621   5.4947   5.5110   5.5407   5.5523   5.5625
  5.5720   5.6131   5.6188   5.6386   5.6482   5.6985   5.7085   5.7300
  5.7802   5.8212   5.9141   5.9770   6.0421   6.0849   6.1186   6.2185
  6.2313   6.2688   6.2768   6.3078   6.3703   6.4066   6.5366   8.6311
  9.8155  11.5441  12.2443  12.8415  13.2590  13.7456  14.0352  14.2243
 14.4695
 --------------------------------------------------------------
 
          Ground-State Mulliken Net Atomic Charges

     Atom                 Charge (a.u.)
  ----------------------------------------
      1 C                    -0.228645
      2 C                    -0.248200
      3 C                     0.050998
      4 H                     0.183316
      5 C                    -0.028191
      6 S                     0.000370
      7 C                    -0.309440
      8 H                     0.115763
      9 H                     0.105367
     10 H                     0.109595
     11 H                     0.204354
     12 C                    -0.012906
     13 C                    -0.232682
     14 C                     0.028904
     15 H                     0.201840
     16 C                    -0.220323
     17 S                     0.027415
     18 C                    -0.269418
     19 H                     0.102057
     20 H                     0.109944
     21 H                     0.108357
     22 H                     0.201526
  ----------------------------------------
  Sum of atomic charges =     0.000000

 -----------------------------------------------------------------
                    Cartesian Multipole Moments
 -----------------------------------------------------------------
    Charge (ESU x 10^10)
                -0.0000
    Dipole Moment (Debye)
         X       1.9299      Y       0.8323      Z       3.0256
       Tot       3.6840
    Quadrupole Moments (Debye-Ang)
        XX     -87.4906     XY       5.4707     YY     -74.8747
        XZ       1.6024     YZ      -1.6038     ZZ     -80.3262
    Octopole Moments (Debye-Ang^2)
       XXX    -128.3939    XXY      80.2910    XYY     -30.2750
       YYY     134.4754    XXZ      -4.4260    XYZ      -5.8042
       YYZ      -7.4528    XZZ     -39.4471    YZZ      52.0452
       ZZZ      -0.4285
    Hexadecapole Moments (Debye-Ang^3)
      XXXX    -540.2875   XXXY    -222.0351   XXYY    -535.8004
      XYYY    -204.5575   YYYY   -2288.4771   XXXZ    -114.4178
      XXYZ     -32.0835   XYYZ     -26.5164   YYYZ     -52.0282
      XXZZ    -269.5402   XYZZ     -68.7852   YYZZ    -549.7474
      XZZZ    -107.9318   YZZZ     -83.0504   ZZZZ   -1063.9826
 -----------------------------------------------------------------
 Total job time:  596.64s(wall), 592.33s(cpu) 
 Sat Jul  9 00:58:14 2022

        *************************************************************
        *                                                           *
        *  Thank you very much for using Q-Chem.  Have a nice day.  *
        *                                                           *
        *************************************************************


remove work dirs ./qchem1562207.0 -- ./qchem1562207.-1
rm -rf ./qchem1562207
