You are running Q-Chem version: 5.4.0

#
# job setting
#
local host:  exp-3-19
current dir: /expanse/lustre/scratch/theleonzhang/temp_project/Interring_Bonds
input file:  Methylthiophene_Phi_20_Theta_120_Methylthiophene.qcin
output file: 
nprocs     : 0
nthreads   : 1
#
# qchem installation setting
#
QC:          /cm/shared/apps/spack/cpu/opt/spack/linux-centos8-zen2/gcc-10.2.0/qchem-5.4-akfmr7b3t57bfs6qan3padb2wnb2i7cl
QCAUX:       /cm/shared/apps/spack/cpu/opt/spack/linux-centos8-zen2/gcc-10.2.0/qchem-5.4-akfmr7b3t57bfs6qan3padb2wnb2i7cl/qcaux
QCPROG:      /cm/shared/apps/spack/cpu/opt/spack/linux-centos8-zen2/gcc-10.2.0/qchem-5.4-akfmr7b3t57bfs6qan3padb2wnb2i7cl/exe/qcprog.exe_s
QCPROG_S:    /cm/shared/apps/spack/cpu/opt/spack/linux-centos8-zen2/gcc-10.2.0/qchem-5.4-akfmr7b3t57bfs6qan3padb2wnb2i7cl/exe/qcprog.exe_s
PARALLEL:    -DSERIAL
QCMPI:       mpich
#
# qchem directory setting
#
qcrun:       qchem66235
QCSCRATCH:   .
QCLOCALSCR:  
QCTMPDIR:    .
QCFILEPREF:  ./qchem66235
QCSAVEDIR:   
workdirs:    ./qchem66235
workdir0:    ./qchem66235
partmpdirs =  
#
# parallel setting
#
QCRSH:           ssh
QCMPI:           mpich
QCMPIRUN:        /cm/shared/apps/spack/cpu/opt/spack/linux-centos8-zen2/gcc-10.2.0/qchem-5.4-akfmr7b3t57bfs6qan3padb2wnb2i7cl/bin/mpi/mpirun_qchem
QCMACHINEFILE:   ./qchem66235/hostfile

#
# env setting
#
exported envs:   QC QCAUX QCSCRATCH QCRUNNAME QCFILEPREF QCPROG QCPROG_S GUIFILE

Running Job 1 of 1 Methylthiophene_Phi_20_Theta_120_Methylthiophene.qcin
qchem Methylthiophene_Phi_20_Theta_120_Methylthiophene.qcin_66235.0 ./qchem66235/ 0
/cm/shared/apps/spack/cpu/opt/spack/linux-centos8-zen2/gcc-10.2.0/qchem-5.4-akfmr7b3t57bfs6qan3padb2wnb2i7cl/exe/qcprog.exe_s Methylthiophene_Phi_20_Theta_120_Methylthiophene.qcin_66235.0 ./qchem66235/
                  Welcome to Q-Chem
     A Quantum Leap Into The Future Of Chemistry


 Q-Chem 5.4, Q-Chem, Inc., Pleasanton, CA (2021)

 License issued to: University of California, San Diego (site)

 E. Epifanovsky,  A. T. B. Gilbert,  Xintian Feng,  Joonho Lee,  Yuezhi Mao,  
 N. Mardirossian,  P. Pokhilko,  A. White,  M. Wormit,  M. P. Coons,  
 A. L. Dempwolff,  Zhengting Gan,  D. Hait,  P. R. Horn,  L. D. Jacobson,  
 I. Kaliman,  J. Kussmann,  A. W. Lange,  Ka Un Lao,  D. S. Levine,  Jie Liu,  
 S. C. McKenzie,  A. F. Morrison,  K. Nanda,  F. Plasser,  D. R. Rehn,  
 M. L. Vidal,  Zhi-Qiang You,  Ying Zhu,  B. Alam,  B. Albrecht,  
 A. Aldossary,  E. Alguire,  J. H. Andersen,  D. Barton,  K. Begam,  A. Behn,  
 Y. A. Bernard,  E. J. Berquist,  H. Burton,  A. Carreras,  K. Carter-Fenk,  
 R. Chakraborty,  A. D. Chien,  K. D. Closser,  V. Cofer-Shabica,  
 S. Dasgupta,  Jia Deng,  M. de Wergifosse,  M. Diedenhofen,  Hainam Do,  
 S. Ehlert,  Po-Tung Fang,  S. Fatehi,  Qingguo Feng,  J. Gayvert,  
 Qinghui Ge,  G. Gidofalvi,  M. Goldey,  J. Gomes,  C. Gonzalez-Espinoza,  
 S. Gulania,  A. Gunina,  M. W. D. Hanson-Heine,  P. H. P. Harbach,  
 A. W. Hauser,  M. F. Herbst,  M. Hernandez Vera,  M. Hodecker,  
 Z. C. Holden,  S. Houck,  Xunkun Huang,  Kerwin Hui,  B. C. Huynh,  
 M. Ivanov,  Hyunjun Ji,  Hanjie Jiang,  B. Kaduk,  S. Kaehler,  
 K. Khistyaev,  Jaehoon Kim,  P. Klunzinger,  Z. Koczor-Benda,  
 Joong Hoon Koh,  D. Kosenkov,  L. Koulias,  T. Kowalczyk,  C. M. Krauter,  
 K. Kue,  A. Kunitsa,  T. Kus,  A. Landau,  K. V. Lawler,  D. Lefrancois,  
 S. Lehtola,  Rain Li,  Yi-Pei Li,  Jiashu Liang,  M. Liebenthal,  
 Hung-Hsuan Lin,  You-Sheng Lin,  Fenglai Liu,  Kuan-Yu Liu,  
 M. Loipersberger,  A. Luenser,  A. Manjanath,  P. Manohar,  E. Mansoor,  
 S. F. Manzer,  Shan-Ping Mao,  A. V. Marenich,  T. Markovich,  S. Mason,  
 S. A. Maurer,  P. F. McLaughlin,  M. F. S. J. Menger,  J.-M. Mewes,  
 S. A. Mewes,  P. Morgante,  J. W. Mullinax,  T. S. Nguyen-Beck,  
 K. J. Oosterbaan,  G. Paran,  Alexander C. Paul,  Suranjan K. Paul,  
 F. Pavosevic,  Zheng Pei,  S. Prager,  E. I. Proynov,  E. Ramos,  B. Rana,  
 A. E. Rask,  A. Rettig,  R. M. Richard,  F. Rob,  E. Rossomme,  T. Scheele,  
 M. Scheurer,  M. Schneider,  N. Sergueev,  S. M. Sharada,  W. Skomorowski,  
 D. W. Small,  C. J. Stein,  Yu-Chuan Su,  E. J. Sundstrom,  Zhen Tao,  
 J. Thirman,  T. Tsuchimochi,  N. M. Tubman,  S. P. Veccham,  O. Vydrov,  
 J. Wenzel,  J. Witte,  A. Yamada,  Kun Yao,  S. Yeganeh,  S. R. Yost,  
 A. Zech,  Igor Ying Zhang,  Xing Zhang,  Yu Zhang,  D. Zuev,  
 A. Aspuru-Guzik,  A. T. Bell,  N. A. Besley,  K. B. Bravaya,  B. R. Brooks,  
 D. Casanova,  Jeng-Da Chai,  S. Coriani,  C. J. Cramer,  
 A. E. DePrince, III,  R. A. DiStasio Jr.,  A. Dreuw,  B. D. Dunietz,  
 T. R. Furlani,  W. A. Goddard III,  S. Grimme,  S. Hammes-Schiffer,  
 T. Head-Gordon,  W. J. Hehre,  Chao-Ping Hsu,  T.-C. Jagau,  Yousung Jung,  
 A. Klamt,  Jing Kong,  D. S. Lambrecht,  WanZhen Liang,  N. J. Mayhall,  
 C. W. McCurdy,  J. B. Neaton,  C. Ochsenfeld,  J. A. Parkhill,  R. Peverati,  
 V. A. Rassolov,  Yihan Shao,  L. V. Slipchenko,  T. Stauch,  R. P. Steele,  
 J. E. Subotnik,  A. J. W. Thom,  A. Tkatchenko,  D. G. Truhlar,  
 T. Van Voorhis,  T. A. Wesolowski,  K. B. Whaley,  H. L. Woodcock III,  
 P. M. Zimmerman,  S. Faraji,  P. M. W. Gill,  M. Head-Gordon,  
 J. M. Herbert,  A. I. Krylov

 Contributors to earlier versions of Q-Chem not listed above: 
 R. D. Adamson,  B. Austin,  R. Baer,  J. Baker,  G. J. O. Beran,  
 K. Brandhorst,  S. T. Brown,  E. F. C. Byrd,  A. K. Chakraborty,  
 G. K. L. Chan,  Chun-Min Chang,  Yunqing Chen,  C.-L. Cheng,  
 Siu Hung Chien,  D. M. Chipman,  D. L. Crittenden,  H. Dachsel,  
 R. J. Doerksen,  A. D. Dutoi,  R. G. Edgar,  J. Fosso-Tande,  
 L. Fusti-Molnar,  D. Ghosh,  A. Ghysels,  A. Golubeva-Zadorozhnaya,  
 J. Gonthier,  M. S. Gordon,  S. R. Gwaltney,  G. Hawkins,  J. E. Herr,  
 A. Heyden,  S. Hirata,  E. G. Hohenstein,  G. Kedziora,  F. J. Keil,  
 C. Kelley,  Jihan Kim,  R. A. King,  R. Z. Khaliullin,  P. P. Korambath,  
 W. Kurlancheek,  A. Laurent,  A. M. Lee,  M. S. Lee,  S. V. Levchenko,  
 Ching Yeh Lin,  D. Liotard,  E. Livshits,  R. C. Lochan,  I. Lotan,  
 L. A. Martinez-Martinez,  P. E. Maslen,  N. Nair,  D. P. O'Neill,  
 D. Neuhauser,  E. Neuscamman,  C. M. Oana,  R. Olivares-Amaya,  R. Olson,  
 T. M. Perrine,  B. Peters,  P. A. Pieniazek,  A. Prociuk,  Y. M. Rhee,  
 J. Ritchie,  M. A. Rohrdanz,  E. Rosta,  N. J. Russ,  H. F. Schaefer III,  
 M. W. Schmidt,  N. E. Schultz,  S. Sharma,  N. Shenvi,  C. D. Sherrill,  
 A. C. Simmonett,  A. Sodt,  T. Stein,  D. Stuck,  K. S. Thanthiriwatte,  
 V. Vanovschi,  L. Vogt,  Tao Wang,  A. Warshel,  M. A. Watson,  
 C. F. Williams,  Q. Wu,  X. Xu,  Jun Yang,  W. Zhang,  Yan Zhao

 Please cite Q-Chem as follows:
 Y. Shao et al., Mol. Phys. 113, 184-215 (2015)
 DOI: 10.1080/00268976.2014.952696

 Q-Chem 5.4.0 for Intel X86 EM64T Linux

 Parts of Q-Chem use Armadillo 9.800.1 (Horizon Scraper).
 http://arma.sourceforge.net/

 Q-Chem begins on Fri Jul  8 23:42:58 2022  

 Host: 
0

     Scratch files written to ./qchem66235//
 May1621 |scratch|qcdevops|jenkins|workspace|build_RNUM    
 Processing $rem in /cm/shared/apps/spack/cpu/opt/spack/linux-centos8-zen2/gcc-10.2.0/qchem-5.4-akfmr7b3t57bfs6qan3padb2wnb2i7cl/config/preferences:
 Processing $rem in /home/theleonzhang/.qchemrc:
 Symmetry turned off for PCM/SM12/SMD calculation
 Core orbitals will be frozen

 Checking the input file for inconsistencies... 	...done.

--------------------------------------------------------------
User input:
--------------------------------------------------------------
$molecule
0 1
C	-0.670924	-3.866725	-0.388181
C	0.530648	-3.703963	0.306020
C	0.923703	-2.357056	0.533378
H	1.128579	-4.561092	0.651043
C	0.000000	-1.440664	0.000000
S	-1.337567	-2.286957	-0.772234
C	2.183857	-1.978743	1.261192
H	2.742548	-2.878678	1.583666
H	1.970497	-1.376015	2.168641
H	2.863099	-1.375728	0.623012
H	-1.190530	-4.783437	-0.688443
C	0.000000	0.000000	0.000000
C	0.295399	0.811508	1.099446
C	0.768742	2.111949	0.776721
H	0.169256	0.464952	2.136088
C	0.844232	2.319291	-0.612546
S	0.322342	0.885558	-1.486809
C	1.140796	3.134091	1.814609
H	0.995218	2.734123	2.836676
H	0.526006	4.054142	1.726239
H	2.203157	3.443680	1.726228
H	1.168902	3.211257	-1.161575
$end

$rem
JOBTYPE		SP
EXCHANGE	HF
CORRELATION	pRIMP2
BASIS		cc-pvtz
METHOD		rimp2
AUX_BASIS	rimp2-cc-pvtz
SOLVENT_METHOD	PCM
PURECART	11111
SYMMETRY	false
MEM_TOTAL	110000
SCF_CONVERGENCE = 6
THRESH=10
$end



$solvent
dielectric 4.90
$end
--------------------------------------------------------------
 ----------------------------------------------------------------
             Standard Nuclear Orientation (Angstroms)
    I     Atom           X                Y                Z
 ----------------------------------------------------------------
    1      C      -0.6709240000    -3.8667250000    -0.3881810000
    2      C       0.5306480000    -3.7039630000     0.3060200000
    3      C       0.9237030000    -2.3570560000     0.5333780000
    4      H       1.1285790000    -4.5610920000     0.6510430000
    5      C       0.0000000000    -1.4406640000     0.0000000000
    6      S      -1.3375670000    -2.2869570000    -0.7722340000
    7      C       2.1838570000    -1.9787430000     1.2611920000
    8      H       2.7425480000    -2.8786780000     1.5836660000
    9      H       1.9704970000    -1.3760150000     2.1686410000
   10      H       2.8630990000    -1.3757280000     0.6230120000
   11      H      -1.1905300000    -4.7834370000    -0.6884430000
   12      C       0.0000000000     0.0000000000     0.0000000000
   13      C       0.2953990000     0.8115080000     1.0994460000
   14      C       0.7687420000     2.1119490000     0.7767210000
   15      H       0.1692560000     0.4649520000     2.1360880000
   16      C       0.8442320000     2.3192910000    -0.6125460000
   17      S       0.3223420000     0.8855580000    -1.4868090000
   18      C       1.1407960000     3.1340910000     1.8146090000
   19      H       0.9952180000     2.7341230000     2.8366760000
   20      H       0.5260060000     4.0541420000     1.7262390000
   21      H       2.2031570000     3.4436800000     1.7262280000
   22      H       1.1689020000     3.2112570000    -1.1615750000
 ----------------------------------------------------------------
 Nuclear Repulsion Energy =         836.98708172 hartrees
 There are       51 alpha and       51 beta electrons

 Q-Chem warning in module forms1/BasisType.C, line 2236:

 You are not using the predefined 5D/6D in this basis set.

 Requested basis set is cc-pVTZ
 There are 184 shells and 508 basis functions

 Total QAlloc Memory Limit 110000 MB
 Mega-Array Size       188 MB
 MEM_STATIC part       192 MB
 Discretize the solute cavity surface with Lebedev spheres
	Using 110 Lebedev grid points for each H atom
	Using 194 Lebedev grid points for other atoms
	Atomic van der Waals radii will be scaled by 1.20
 Remove points where switching function is < 1.0e-08
 Keep 1546 surface tesserae and discard 1882 interior tesserae
 Molecular Surface Area = 234.811 Angst**2
 Requested basis set is rimp2-cc-pVTZ
 There are 394 shells and 1354 basis functions
 A cutoff of  1.0D-10 yielded  12458 shell pairs
 There are     92590 function pairs (    119498 Cartesian)
 Smallest overlap matrix eigenvalue = 5.83E-05

 Scale SEOQF with 1.000000e-01/1.000000e-01/1.000000e-01

 Standard Electronic Orientation quadrupole field applied
 Nucleus-field energy     =     0.0000000314 hartrees
 Guess from superposition of atomic densities
 Warning:  Energy on first SCF cycle will be non-variational
 SAD guess density has 102.000000 electrons

 -----------------------------------------------------------------------
  General SCF calculation program by
  Eric Jon Sundstrom, Paul Horn, Yuezhi Mao, Dmitri Zuev, Alec White,
  David Stuck, Shaama M.S., Shane Yost, Joonho Lee, David Small,
  Daniel Levine, Susi Lehtola, Hugh Burton, Evgeny Epifanovsky,
  Bang C. Huynh
 -----------------------------------------------------------------------
 Hartree-Fock
 A restricted SCF calculation will be
 performed using DIIS
 SCF converges when DIIS error is below 1.0e-06
 ---------------------------------------
  Cycle       Energy         DIIS error
 ---------------------------------------
    1   -1184.2166293102      2.38e-02  
    2   -1179.5409226934      1.59e-03  
    3   -1179.6604529927      6.07e-04  
    4   -1179.6737651605      3.38e-04  
    5   -1179.6785460128      6.66e-05  
    6   -1179.6788240732      3.02e-05  
    7   -1179.6789092169      1.28e-05  
    8   -1179.6789364616      5.34e-06  
    9   -1179.6789413453      1.72e-06  
   10   -1179.6789418143      5.35e-07  Convergence criterion met
 ---------------------------------------
 SCF time:   CPU 486.66s  wall 489.00s 

************** Final PCM Free Energy Summary **************
 G_electrostatic  =      -0.00826098 hartree =      -5.18384191 kcal/mol
 G_cavitation     =       0.00000000 hartree =       0.00000000 kcal/mol
 G_dispersion     =       0.00000000 hartree =       0.00000000 kcal/mol
 G_repulsion      =       0.00000000 hartree =       0.00000000 kcal/mol
 --------------------------------------------------
 Non-electrostatic Free Energy =       0.00000000 hartree =       0.00000000 kcal/mol
 Total                         =      -0.00826098 hartree =      -5.18384191 kcal/mol
 --------------------------------------------------
 SCF Energy (H0 + V/2)                       =   -1179.67894181 
 Solute Internal Energy (H0)                 =   -1179.67068084 
 Total Free Energy (H0 + V/2 + non-elec)     =   -1179.67894181 hartree
                                             = -740259.70872775 kcal/mol
***********************************************************

 SCF   energy in the final basis set =    -1179.6789418143
 Total energy in the final basis set =    -1179.6789418143


 --------------------------------------------------------------
  Generalized many-body perturbation theory program
  by Joonho Lee, Fazle Rob, Xintian Feng, Evgeny Epifanovsky

 No regularization used 
 (reg. param. = 0.0000e+00)
  (P|Q)^-1/2 Time:  CPU 1.68 s  wall 1.68 s

 In RI-MP2 calculation: 
 # of frozen core orbitals: 20

 Components of the RIMP2 correlation energy:
        aaaa    correlation energy =        -0.2528280318 a.u.
        abab    correlation energy =        -1.4750572208 a.u.
        bbbb    correlation energy =        -0.2528280318 a.u.
        non-Brillouin singles      =        -0.0000000000 a.u.
        total same-spin energy     =        -0.5056560635 a.u.
        total opposite-spin energy =        -1.4750572208 a.u.

 Total  RIMP2   correlation energy =        -1.9807132843 a.u.
        RIMP2         total energy =     -1181.6596550986 a.u.

 RI-MP2 Energy Time:  CPU 66.99 s  wall 67.10 s
 
 --------------------------------------------------------------
 
                    Orbital Energies (a.u.)
 --------------------------------------------------------------
 
 Alpha MOs
 -- Occupied --
-91.9852 -91.9827 -11.2763 -11.2738 -11.2716 -11.2672 -11.2534 -11.2516
-11.2438 -11.2420 -11.2295 -11.2289  -8.9848  -8.9826  -6.6656  -6.6651
 -6.6645  -6.6635  -6.6629  -6.6623  -1.1796  -1.1494  -1.0408  -1.0232
 -0.9966  -0.9548  -0.9130  -0.8925  -0.8003  -0.7529  -0.7318  -0.6969
 -0.6613  -0.6158  -0.5842  -0.5800  -0.5711  -0.5662  -0.5516  -0.5340
 -0.5286  -0.5216  -0.5086  -0.4914  -0.4837  -0.4665  -0.4596  -0.3450
 -0.3407  -0.3370  -0.2886
 -- Virtual --
  0.0775   0.1123   0.1378   0.1496   0.1631   0.1763   0.1776   0.1872
  0.1936   0.1961   0.1994   0.2178   0.2326   0.2372   0.2466   0.2476
  0.2570   0.2729   0.2871   0.3100   0.3418   0.3437   0.3579   0.3761
  0.3771   0.3843   0.3982   0.4012   0.4063   0.4157   0.4179   0.4355
  0.4449   0.4525   0.4640   0.4681   0.4727   0.4861   0.4938   0.4958
  0.5062   0.5185   0.5303   0.5367   0.5414   0.5552   0.5633   0.5698
  0.5768   0.5830   0.5890   0.5975   0.6013   0.6053   0.6154   0.6198
  0.6229   0.6321   0.6378   0.6426   0.6541   0.6553   0.6614   0.6663
  0.6672   0.6832   0.6952   0.7044   0.7152   0.7431   0.7454   0.7611
  0.7637   0.7704   0.7834   0.7915   0.8066   0.8213   0.8355   0.8434
  0.8493   0.8568   0.8813   0.8822   0.9011   0.9242   0.9298   0.9394
  0.9452   0.9759   0.9869   1.0027   1.0049   1.0201   1.0221   1.0356
  1.0427   1.0524   1.0651   1.0716   1.0754   1.0879   1.0890   1.1023
  1.1067   1.1295   1.1403   1.1484   1.1497   1.1726   1.1791   1.2031
  1.2037   1.2189   1.2239   1.2291   1.2474   1.2589   1.2629   1.2668
  1.2838   1.2850   1.3004   1.3199   1.3250   1.3473   1.3516   1.3668
  1.3785   1.3950   1.4048   1.4133   1.4201   1.4419   1.4512   1.4655
  1.4807   1.4888   1.4995   1.5008   1.5277   1.5319   1.5379   1.5435
  1.5550   1.5605   1.5730   1.5755   1.5840   1.6035   1.6234   1.6341
  1.6438   1.6571   1.6688   1.6925   1.6943   1.7052   1.7166   1.7294
  1.7468   1.7603   1.7626   1.7870   1.8022   1.8247   1.8331   1.8703
  1.8829   1.8917   1.9084   1.9272   1.9388   1.9497   1.9728   1.9855
  2.0226   2.0443   2.0564   2.1028   2.1116   2.1243   2.1461   2.1728
  2.1809   2.1940   2.2013   2.2295   2.2400   2.2475   2.2628   2.2806
  2.2853   2.3181   2.3265   2.3644   2.3969   2.4067   2.4448   2.4476
  2.4828   2.4902   2.5124   2.5322   2.5538   2.5676   2.5965   2.6115
  2.6268   2.6423   2.6430   2.6695   2.6723   2.6867   2.7224   2.7265
  2.7382   2.7450   2.7510   2.7602   2.7718   2.7785   2.7886   2.8204
  2.8385   2.8424   2.8485   2.8604   2.8766   2.8943   2.9042   2.9255
  2.9514   2.9637   2.9744   2.9885   2.9907   3.0158   3.0323   3.0385
  3.0427   3.0565   3.0893   3.1037   3.1110   3.1172   3.1263   3.1394
  3.1512   3.1551   3.1673   3.1749   3.1900   3.2033   3.2135   3.2177
  3.2362   3.2508   3.2644   3.2682   3.2818   3.2906   3.3025   3.3109
  3.3172   3.3314   3.3431   3.3483   3.3598   3.3645   3.3734   3.3824
  3.3868   3.3936   3.4025   3.4135   3.4211   3.4256   3.4325   3.4437
  3.4470   3.4589   3.4757   3.4862   3.4897   3.5106   3.5152   3.5242
  3.5287   3.5371   3.5415   3.5545   3.5636   3.5757   3.5803   3.5909
  3.5952   3.6157   3.6249   3.6346   3.6435   3.6538   3.6580   3.6704
  3.6779   3.6815   3.6961   3.7068   3.7223   3.7427   3.7487   3.7610
  3.7677   3.7746   3.7824   3.7954   3.8089   3.8141   3.8304   3.8439
  3.8581   3.8636   3.8944   3.8964   3.9073   3.9285   3.9479   3.9613
  3.9667   3.9735   3.9986   4.0106   4.0123   4.0214   4.0376   4.0525
  4.0697   4.0764   4.0948   4.1002   4.1146   4.1216   4.1432   4.1530
  4.1645   4.1788   4.1896   4.1951   4.2085   4.2093   4.2219   4.2361
  4.2540   4.2645   4.2746   4.2901   4.2923   4.3134   4.3212   4.3446
  4.3480   4.3636   4.3789   4.3831   4.4016   4.4102   4.4124   4.4241
  4.4385   4.4479   4.4632   4.4722   4.4835   4.5018   4.5391   4.5596
  4.5861   4.6135   4.6173   4.6205   4.6333   4.6432   4.6584   4.6713
  4.6858   4.7284   4.7366   4.7428   4.7720   4.7845   4.8226   4.8362
  4.8751   4.8925   4.9108   4.9181   4.9485   4.9507   4.9926   5.0575
  5.0831   5.1082   5.1150   5.1468   5.1635   5.1822   5.1963   5.2460
  5.2651   5.2767   5.2897   5.3041   5.3163   5.3657   5.3757   5.3986
  5.4054   5.4436   5.4686   5.4925   5.5155   5.5214   5.5455   5.5576
  5.5745   5.5896   5.6183   5.6242   5.6352   5.6975   5.7007   5.7344
  5.7749   5.8231   5.9222   5.9437   6.0014   6.0630   6.1293   6.2274
  6.2398   6.2420   6.2835   6.2945   6.3277   6.4361   6.5691   8.7570
  9.8281  11.5957  12.0371  12.8461  13.1774  13.7563  14.0003  14.2284
 14.4019
 --------------------------------------------------------------
 
          Ground-State Mulliken Net Atomic Charges

     Atom                 Charge (a.u.)
  ----------------------------------------
      1 C                    -0.212372
      2 C                    -0.251014
      3 C                     0.064315
      4 H                     0.183987
      5 C                    -0.035158
      6 S                     0.021113
      7 C                    -0.281817
      8 H                     0.111040
      9 H                     0.107966
     10 H                     0.114937
     11 H                     0.204497
     12 C                    -0.032483
     13 C                    -0.260964
     14 C                     0.037401
     15 H                     0.192345
     16 C                    -0.239249
     17 S                     0.027929
     18 C                    -0.270183
     19 H                     0.102462
     20 H                     0.108619
     21 H                     0.107986
     22 H                     0.198642
  ----------------------------------------
  Sum of atomic charges =     0.000000

 -----------------------------------------------------------------
                    Cartesian Multipole Moments
 -----------------------------------------------------------------
    Charge (ESU x 10^10)
                -0.0000
    Dipole Moment (Debye)
         X       2.0423      Y       0.3298      Z       2.2558
       Tot       3.0608
    Quadrupole Moments (Debye-Ang)
        XX     -86.5829     XY       1.7070     YY     -70.1109
        XZ       3.1437     YZ      -0.1608     ZZ     -85.0649
    Octopole Moments (Debye-Ang^2)
       XXX     -76.7769    XXY      39.6993    XYY     -16.4524
       YYY     102.0249    XXZ      -1.4953    XYZ     -11.3606
       YYZ      -6.1669    XZZ     -22.5215    YZZ      57.3691
       ZZZ       1.1403
    Hexadecapole Moments (Debye-Ang^3)
      XXXX    -666.1146   XXXY    -167.1618   XXYY    -549.2970
      XYYY     -96.3438   YYYY   -2498.2682   XXXZ    -149.2965
      XXYZ     -33.9039   XYYZ     -13.1507   YYYZ     -85.5723
      XXZZ    -225.4970   XYZZ     -46.9014   YYZZ    -594.1289
      XZZZ    -156.6117   YZZZ     -94.2647   ZZZZ    -670.5111
 -----------------------------------------------------------------
 Total job time:  557.88s(wall), 554.43s(cpu) 
 Fri Jul  8 23:52:16 2022

        *************************************************************
        *                                                           *
        *  Thank you very much for using Q-Chem.  Have a nice day.  *
        *                                                           *
        *************************************************************


remove work dirs ./qchem66235.0 -- ./qchem66235.-1
rm -rf ./qchem66235
