You are running Q-Chem version: 5.4.0

#
# job setting
#
local host:  exp-1-52
current dir: /expanse/lustre/scratch/theleonzhang/temp_project/Interring_Bonds
input file:  Methylthiophene_Phi_25_Theta_160_Methylthiophene.qcin
output file: 
nprocs     : 0
nthreads   : 1
#
# qchem installation setting
#
QC:          /cm/shared/apps/spack/cpu/opt/spack/linux-centos8-zen2/gcc-10.2.0/qchem-5.4-akfmr7b3t57bfs6qan3padb2wnb2i7cl
QCAUX:       /cm/shared/apps/spack/cpu/opt/spack/linux-centos8-zen2/gcc-10.2.0/qchem-5.4-akfmr7b3t57bfs6qan3padb2wnb2i7cl/qcaux
QCPROG:      /cm/shared/apps/spack/cpu/opt/spack/linux-centos8-zen2/gcc-10.2.0/qchem-5.4-akfmr7b3t57bfs6qan3padb2wnb2i7cl/exe/qcprog.exe_s
QCPROG_S:    /cm/shared/apps/spack/cpu/opt/spack/linux-centos8-zen2/gcc-10.2.0/qchem-5.4-akfmr7b3t57bfs6qan3padb2wnb2i7cl/exe/qcprog.exe_s
PARALLEL:    -DSERIAL
QCMPI:       mpich
#
# qchem directory setting
#
qcrun:       qchem2475395
QCSCRATCH:   .
QCLOCALSCR:  
QCTMPDIR:    .
QCFILEPREF:  ./qchem2475395
QCSAVEDIR:   
workdirs:    ./qchem2475395
workdir0:    ./qchem2475395
partmpdirs =  
#
# parallel setting
#
QCRSH:           ssh
QCMPI:           mpich
QCMPIRUN:        /cm/shared/apps/spack/cpu/opt/spack/linux-centos8-zen2/gcc-10.2.0/qchem-5.4-akfmr7b3t57bfs6qan3padb2wnb2i7cl/bin/mpi/mpirun_qchem
QCMACHINEFILE:   ./qchem2475395/hostfile

#
# env setting
#
exported envs:   QC QCAUX QCSCRATCH QCRUNNAME QCFILEPREF QCPROG QCPROG_S GUIFILE

Running Job 1 of 1 Methylthiophene_Phi_25_Theta_160_Methylthiophene.qcin
qchem Methylthiophene_Phi_25_Theta_160_Methylthiophene.qcin_2475395.0 ./qchem2475395/ 0
/cm/shared/apps/spack/cpu/opt/spack/linux-centos8-zen2/gcc-10.2.0/qchem-5.4-akfmr7b3t57bfs6qan3padb2wnb2i7cl/exe/qcprog.exe_s Methylthiophene_Phi_25_Theta_160_Methylthiophene.qcin_2475395.0 ./qchem2475395/
                  Welcome to Q-Chem
     A Quantum Leap Into The Future Of Chemistry


 Q-Chem 5.4, Q-Chem, Inc., Pleasanton, CA (2021)

 License issued to: University of California, San Diego (site)

 E. Epifanovsky,  A. T. B. Gilbert,  Xintian Feng,  Joonho Lee,  Yuezhi Mao,  
 N. Mardirossian,  P. Pokhilko,  A. White,  M. Wormit,  M. P. Coons,  
 A. L. Dempwolff,  Zhengting Gan,  D. Hait,  P. R. Horn,  L. D. Jacobson,  
 I. Kaliman,  J. Kussmann,  A. W. Lange,  Ka Un Lao,  D. S. Levine,  Jie Liu,  
 S. C. McKenzie,  A. F. Morrison,  K. Nanda,  F. Plasser,  D. R. Rehn,  
 M. L. Vidal,  Zhi-Qiang You,  Ying Zhu,  B. Alam,  B. Albrecht,  
 A. Aldossary,  E. Alguire,  J. H. Andersen,  D. Barton,  K. Begam,  A. Behn,  
 Y. A. Bernard,  E. J. Berquist,  H. Burton,  A. Carreras,  K. Carter-Fenk,  
 R. Chakraborty,  A. D. Chien,  K. D. Closser,  V. Cofer-Shabica,  
 S. Dasgupta,  Jia Deng,  M. de Wergifosse,  M. Diedenhofen,  Hainam Do,  
 S. Ehlert,  Po-Tung Fang,  S. Fatehi,  Qingguo Feng,  J. Gayvert,  
 Qinghui Ge,  G. Gidofalvi,  M. Goldey,  J. Gomes,  C. Gonzalez-Espinoza,  
 S. Gulania,  A. Gunina,  M. W. D. Hanson-Heine,  P. H. P. Harbach,  
 A. W. Hauser,  M. F. Herbst,  M. Hernandez Vera,  M. Hodecker,  
 Z. C. Holden,  S. Houck,  Xunkun Huang,  Kerwin Hui,  B. C. Huynh,  
 M. Ivanov,  Hyunjun Ji,  Hanjie Jiang,  B. Kaduk,  S. Kaehler,  
 K. Khistyaev,  Jaehoon Kim,  P. Klunzinger,  Z. Koczor-Benda,  
 Joong Hoon Koh,  D. Kosenkov,  L. Koulias,  T. Kowalczyk,  C. M. Krauter,  
 K. Kue,  A. Kunitsa,  T. Kus,  A. Landau,  K. V. Lawler,  D. Lefrancois,  
 S. Lehtola,  Rain Li,  Yi-Pei Li,  Jiashu Liang,  M. Liebenthal,  
 Hung-Hsuan Lin,  You-Sheng Lin,  Fenglai Liu,  Kuan-Yu Liu,  
 M. Loipersberger,  A. Luenser,  A. Manjanath,  P. Manohar,  E. Mansoor,  
 S. F. Manzer,  Shan-Ping Mao,  A. V. Marenich,  T. Markovich,  S. Mason,  
 S. A. Maurer,  P. F. McLaughlin,  M. F. S. J. Menger,  J.-M. Mewes,  
 S. A. Mewes,  P. Morgante,  J. W. Mullinax,  T. S. Nguyen-Beck,  
 K. J. Oosterbaan,  G. Paran,  Alexander C. Paul,  Suranjan K. Paul,  
 F. Pavosevic,  Zheng Pei,  S. Prager,  E. I. Proynov,  E. Ramos,  B. Rana,  
 A. E. Rask,  A. Rettig,  R. M. Richard,  F. Rob,  E. Rossomme,  T. Scheele,  
 M. Scheurer,  M. Schneider,  N. Sergueev,  S. M. Sharada,  W. Skomorowski,  
 D. W. Small,  C. J. Stein,  Yu-Chuan Su,  E. J. Sundstrom,  Zhen Tao,  
 J. Thirman,  T. Tsuchimochi,  N. M. Tubman,  S. P. Veccham,  O. Vydrov,  
 J. Wenzel,  J. Witte,  A. Yamada,  Kun Yao,  S. Yeganeh,  S. R. Yost,  
 A. Zech,  Igor Ying Zhang,  Xing Zhang,  Yu Zhang,  D. Zuev,  
 A. Aspuru-Guzik,  A. T. Bell,  N. A. Besley,  K. B. Bravaya,  B. R. Brooks,  
 D. Casanova,  Jeng-Da Chai,  S. Coriani,  C. J. Cramer,  
 A. E. DePrince, III,  R. A. DiStasio Jr.,  A. Dreuw,  B. D. Dunietz,  
 T. R. Furlani,  W. A. Goddard III,  S. Grimme,  S. Hammes-Schiffer,  
 T. Head-Gordon,  W. J. Hehre,  Chao-Ping Hsu,  T.-C. Jagau,  Yousung Jung,  
 A. Klamt,  Jing Kong,  D. S. Lambrecht,  WanZhen Liang,  N. J. Mayhall,  
 C. W. McCurdy,  J. B. Neaton,  C. Ochsenfeld,  J. A. Parkhill,  R. Peverati,  
 V. A. Rassolov,  Yihan Shao,  L. V. Slipchenko,  T. Stauch,  R. P. Steele,  
 J. E. Subotnik,  A. J. W. Thom,  A. Tkatchenko,  D. G. Truhlar,  
 T. Van Voorhis,  T. A. Wesolowski,  K. B. Whaley,  H. L. Woodcock III,  
 P. M. Zimmerman,  S. Faraji,  P. M. W. Gill,  M. Head-Gordon,  
 J. M. Herbert,  A. I. Krylov

 Contributors to earlier versions of Q-Chem not listed above: 
 R. D. Adamson,  B. Austin,  R. Baer,  J. Baker,  G. J. O. Beran,  
 K. Brandhorst,  S. T. Brown,  E. F. C. Byrd,  A. K. Chakraborty,  
 G. K. L. Chan,  Chun-Min Chang,  Yunqing Chen,  C.-L. Cheng,  
 Siu Hung Chien,  D. M. Chipman,  D. L. Crittenden,  H. Dachsel,  
 R. J. Doerksen,  A. D. Dutoi,  R. G. Edgar,  J. Fosso-Tande,  
 L. Fusti-Molnar,  D. Ghosh,  A. Ghysels,  A. Golubeva-Zadorozhnaya,  
 J. Gonthier,  M. S. Gordon,  S. R. Gwaltney,  G. Hawkins,  J. E. Herr,  
 A. Heyden,  S. Hirata,  E. G. Hohenstein,  G. Kedziora,  F. J. Keil,  
 C. Kelley,  Jihan Kim,  R. A. King,  R. Z. Khaliullin,  P. P. Korambath,  
 W. Kurlancheek,  A. Laurent,  A. M. Lee,  M. S. Lee,  S. V. Levchenko,  
 Ching Yeh Lin,  D. Liotard,  E. Livshits,  R. C. Lochan,  I. Lotan,  
 L. A. Martinez-Martinez,  P. E. Maslen,  N. Nair,  D. P. O'Neill,  
 D. Neuhauser,  E. Neuscamman,  C. M. Oana,  R. Olivares-Amaya,  R. Olson,  
 T. M. Perrine,  B. Peters,  P. A. Pieniazek,  A. Prociuk,  Y. M. Rhee,  
 J. Ritchie,  M. A. Rohrdanz,  E. Rosta,  N. J. Russ,  H. F. Schaefer III,  
 M. W. Schmidt,  N. E. Schultz,  S. Sharma,  N. Shenvi,  C. D. Sherrill,  
 A. C. Simmonett,  A. Sodt,  T. Stein,  D. Stuck,  K. S. Thanthiriwatte,  
 V. Vanovschi,  L. Vogt,  Tao Wang,  A. Warshel,  M. A. Watson,  
 C. F. Williams,  Q. Wu,  X. Xu,  Jun Yang,  W. Zhang,  Yan Zhao

 Please cite Q-Chem as follows:
 Y. Shao et al., Mol. Phys. 113, 184-215 (2015)
 DOI: 10.1080/00268976.2014.952696

 Q-Chem 5.4.0 for Intel X86 EM64T Linux

 Parts of Q-Chem use Armadillo 9.800.1 (Horizon Scraper).
 http://arma.sourceforge.net/

 Q-Chem begins on Sat Jul  9 14:32:58 2022  

 Host: 
0

     Scratch files written to ./qchem2475395//
 May1621 |scratch|qcdevops|jenkins|workspace|build_RNUM    
 Processing $rem in /cm/shared/apps/spack/cpu/opt/spack/linux-centos8-zen2/gcc-10.2.0/qchem-5.4-akfmr7b3t57bfs6qan3padb2wnb2i7cl/config/preferences:
 Processing $rem in /home/theleonzhang/.qchemrc:
 Symmetry turned off for PCM/SM12/SMD calculation
 Core orbitals will be frozen

 Checking the input file for inconsistencies... 	...done.

--------------------------------------------------------------
User input:
--------------------------------------------------------------
$molecule
0 1
C	-0.264439	-3.866725	-0.728625
C	0.209794	-3.703963	0.575519
C	0.364749	-2.357056	1.002336
H	0.446060	-4.561092	1.224165
C	-0.000000	-1.440664	-0.000000
S	-0.528253	-2.286957	-1.451336
C	0.862253	-1.978743	2.369885
H	1.082953	-2.878678	2.976034
H	0.115513	-1.376015	2.927887
H	1.792797	-1.375728	2.317620
H	-0.469476	-4.783437	-1.292636
C	0.000000	0.000000	0.000000
C	0.365003	0.782674	1.099446
C	0.949885	2.036912	0.776721
H	0.209135	0.448431	2.136088
C	1.043159	2.236886	-0.612546
S	0.398297	0.854094	-1.486809
C	1.409609	3.022738	1.814609
H	1.229726	2.636980	2.836676
H	0.877346	3.992870	1.726239
H	2.494910	3.238558	1.726228
H	1.444334	3.097160	-1.161575
$end

$rem
JOBTYPE		SP
EXCHANGE	HF
CORRELATION	pRIMP2
BASIS		cc-pvtz
METHOD		rimp2
AUX_BASIS	rimp2-cc-pvtz
SOLVENT_METHOD	PCM
PURECART	11111
SYMMETRY	false
MEM_TOTAL	110000
SCF_CONVERGENCE = 6
THRESH=10
$end



$solvent
dielectric 4.90
$end
--------------------------------------------------------------
 ----------------------------------------------------------------
             Standard Nuclear Orientation (Angstroms)
    I     Atom           X                Y                Z
 ----------------------------------------------------------------
    1      C      -0.2644390000    -3.8667250000    -0.7286250000
    2      C       0.2097940000    -3.7039630000     0.5755190000
    3      C       0.3647490000    -2.3570560000     1.0023360000
    4      H       0.4460600000    -4.5610920000     1.2241650000
    5      C       0.0000000000    -1.4406640000     0.0000000000
    6      S      -0.5282530000    -2.2869570000    -1.4513360000
    7      C       0.8622530000    -1.9787430000     2.3698850000
    8      H       1.0829530000    -2.8786780000     2.9760340000
    9      H       0.1155130000    -1.3760150000     2.9278870000
   10      H       1.7927970000    -1.3757280000     2.3176200000
   11      H      -0.4694760000    -4.7834370000    -1.2926360000
   12      C       0.0000000000     0.0000000000     0.0000000000
   13      C       0.3650030000     0.7826740000     1.0994460000
   14      C       0.9498850000     2.0369120000     0.7767210000
   15      H       0.2091350000     0.4484310000     2.1360880000
   16      C       1.0431590000     2.2368860000    -0.6125460000
   17      S       0.3982970000     0.8540940000    -1.4868090000
   18      C       1.4096090000     3.0227380000     1.8146090000
   19      H       1.2297260000     2.6369800000     2.8366760000
   20      H       0.8773460000     3.9928700000     1.7262390000
   21      H       2.4949100000     3.2385580000     1.7262280000
   22      H       1.4443340000     3.0971600000    -1.1615750000
 ----------------------------------------------------------------
 Nuclear Repulsion Energy =         841.47728642 hartrees
 There are       51 alpha and       51 beta electrons

 Q-Chem warning in module forms1/BasisType.C, line 2236:

 You are not using the predefined 5D/6D in this basis set.

 Requested basis set is cc-pVTZ
 There are 184 shells and 508 basis functions

 Total QAlloc Memory Limit 110000 MB
 Mega-Array Size       188 MB
 MEM_STATIC part       192 MB
 Discretize the solute cavity surface with Lebedev spheres
	Using 110 Lebedev grid points for each H atom
	Using 194 Lebedev grid points for other atoms
	Atomic van der Waals radii will be scaled by 1.20
 Remove points where switching function is < 1.0e-08
 Keep 1519 surface tesserae and discard 1909 interior tesserae
 Molecular Surface Area = 229.383 Angst**2
 Requested basis set is rimp2-cc-pVTZ
 There are 394 shells and 1354 basis functions
 A cutoff of  1.0D-10 yielded  12512 shell pairs
 There are     92762 function pairs (    119597 Cartesian)
 Smallest overlap matrix eigenvalue = 5.52E-05

 Scale SEOQF with 1.000000e-01/1.000000e-01/1.000000e-01

 Standard Electronic Orientation quadrupole field applied
 Nucleus-field energy     =     0.0000000205 hartrees
 Guess from superposition of atomic densities
 Warning:  Energy on first SCF cycle will be non-variational
 SAD guess density has 102.000000 electrons

 -----------------------------------------------------------------------
  General SCF calculation program by
  Eric Jon Sundstrom, Paul Horn, Yuezhi Mao, Dmitri Zuev, Alec White,
  David Stuck, Shaama M.S., Shane Yost, Joonho Lee, David Small,
  Daniel Levine, Susi Lehtola, Hugh Burton, Evgeny Epifanovsky,
  Bang C. Huynh
 -----------------------------------------------------------------------
 Hartree-Fock
 A restricted SCF calculation will be
 performed using DIIS
 SCF converges when DIIS error is below 1.0e-06
 ---------------------------------------
  Cycle       Energy         DIIS error
 ---------------------------------------
    1   -1184.2706186530      2.39e-02  
    2   -1179.5324552246      1.60e-03  
    3   -1179.6536094789      6.17e-04  
    4   -1179.6673746902      3.39e-04  
    5   -1179.6722130380      6.35e-05  
    6   -1179.6724790312      2.94e-05  
    7   -1179.6725582060      1.22e-05  
    8   -1179.6725826139      5.12e-06  
    9   -1179.6725868663      1.64e-06  
   10   -1179.6725872952      4.98e-07  Convergence criterion met
 ---------------------------------------
 SCF time:   CPU 532.92s  wall 535.00s 

************** Final PCM Free Energy Summary **************
 G_electrostatic  =      -0.00885148 hartree =      -5.55438477 kcal/mol
 G_cavitation     =       0.00000000 hartree =       0.00000000 kcal/mol
 G_dispersion     =       0.00000000 hartree =       0.00000000 kcal/mol
 G_repulsion      =       0.00000000 hartree =       0.00000000 kcal/mol
 --------------------------------------------------
 Non-electrostatic Free Energy =       0.00000000 hartree =       0.00000000 kcal/mol
 Total                         =      -0.00885148 hartree =      -5.55438477 kcal/mol
 --------------------------------------------------
 SCF Energy (H0 + V/2)                       =   -1179.67258730 
 Solute Internal Energy (H0)                 =   -1179.66373582 
 Total Free Energy (H0 + V/2 + non-elec)     =   -1179.67258730 hartree
                                             = -740255.72120683 kcal/mol
***********************************************************

 SCF   energy in the final basis set =    -1179.6725872952
 Total energy in the final basis set =    -1179.6725872952


 --------------------------------------------------------------
  Generalized many-body perturbation theory program
  by Joonho Lee, Fazle Rob, Xintian Feng, Evgeny Epifanovsky

 No regularization used 
 (reg. param. = 0.0000e+00)
  (P|Q)^-1/2 Time:  CPU 1.77 s  wall 1.78 s

 In RI-MP2 calculation: 
 # of frozen core orbitals: 20

 Components of the RIMP2 correlation energy:
        aaaa    correlation energy =        -0.2535900101 a.u.
        abab    correlation energy =        -1.4762884999 a.u.
        bbbb    correlation energy =        -0.2535900101 a.u.
        non-Brillouin singles      =        -0.0000000000 a.u.
        total same-spin energy     =        -0.5071800201 a.u.
        total opposite-spin energy =        -1.4762884999 a.u.

 Total  RIMP2   correlation energy =        -1.9834685200 a.u.
        RIMP2         total energy =     -1181.6560558152 a.u.

 RI-MP2 Energy Time:  CPU 72.31 s  wall 72.56 s
 
 --------------------------------------------------------------
 
                    Orbital Energies (a.u.)
 --------------------------------------------------------------
 
 Alpha MOs
 -- Occupied --
-91.9849 -91.9824 -11.2789 -11.2777 -11.2706 -11.2682 -11.2525 -11.2516
-11.2433 -11.2428 -11.2306 -11.2298  -8.9849  -8.9825  -6.6658  -6.6652
 -6.6646  -6.6635  -6.6629  -6.6623  -1.1823  -1.1497  -1.0425  -1.0266
 -0.9958  -0.9557  -0.9141  -0.8943  -0.8016  -0.7563  -0.7283  -0.7011
 -0.6605  -0.6144  -0.5914  -0.5818  -0.5707  -0.5630  -0.5515  -0.5400
 -0.5287  -0.5238  -0.5052  -0.4914  -0.4831  -0.4745  -0.4519  -0.3663
 -0.3467  -0.3376  -0.2695
 -- Virtual --
  0.0618   0.1319   0.1383   0.1469   0.1624   0.1733   0.1789   0.1862
  0.1954   0.2039   0.2055   0.2194   0.2342   0.2378   0.2428   0.2638
  0.2751   0.2827   0.3006   0.3168   0.3286   0.3528   0.3652   0.3722
  0.3837   0.3869   0.3940   0.4050   0.4129   0.4198   0.4363   0.4407
  0.4537   0.4666   0.4711   0.4742   0.4809   0.4892   0.5033   0.5080
  0.5137   0.5156   0.5247   0.5276   0.5407   0.5508   0.5569   0.5712
  0.5837   0.5853   0.5898   0.5981   0.6034   0.6127   0.6165   0.6192
  0.6240   0.6331   0.6378   0.6404   0.6448   0.6657   0.6711   0.6781
  0.6829   0.6943   0.7044   0.7130   0.7186   0.7349   0.7429   0.7631
  0.7678   0.7773   0.7940   0.7994   0.8058   0.8181   0.8374   0.8523
  0.8559   0.8622   0.8744   0.8909   0.9017   0.9205   0.9471   0.9502
  0.9562   0.9761   0.9830   0.9895   1.0057   1.0111   1.0191   1.0351
  1.0493   1.0549   1.0663   1.0768   1.0799   1.0880   1.0931   1.0958
  1.1104   1.1243   1.1339   1.1400   1.1517   1.1746   1.1887   1.2023
  1.2108   1.2188   1.2271   1.2341   1.2432   1.2574   1.2635   1.2678
  1.2751   1.2926   1.3031   1.3087   1.3314   1.3470   1.3554   1.3708
  1.3776   1.3888   1.4044   1.4079   1.4196   1.4341   1.4461   1.4620
  1.4813   1.4864   1.5082   1.5105   1.5225   1.5337   1.5374   1.5487
  1.5579   1.5708   1.5744   1.5807   1.5912   1.5972   1.6160   1.6258
  1.6396   1.6646   1.6698   1.6889   1.7040   1.7107   1.7257   1.7481
  1.7509   1.7773   1.7869   1.7955   1.8012   1.8288   1.8379   1.8708
  1.8761   1.8979   1.9045   1.9173   1.9517   1.9735   1.9752   1.9862
  2.0117   2.0444   2.0870   2.1104   2.1247   2.1421   2.1523   2.1717
  2.1894   2.1981   2.2264   2.2289   2.2463   2.2566   2.2657   2.2739
  2.2746   2.2893   2.3135   2.3645   2.4087   2.4208   2.4473   2.4525
  2.4789   2.4839   2.5151   2.5231   2.5555   2.5751   2.5795   2.6143
  2.6247   2.6301   2.6579   2.6606   2.6848   2.7083   2.7212   2.7340
  2.7398   2.7443   2.7567   2.7641   2.7742   2.7850   2.7914   2.8069
  2.8165   2.8434   2.8483   2.8588   2.8700   2.8926   2.9311   2.9350
  2.9595   2.9673   2.9866   2.9995   3.0033   3.0221   3.0305   3.0484
  3.0613   3.0724   3.1012   3.1075   3.1105   3.1301   3.1352   3.1404
  3.1537   3.1684   3.1735   3.1797   3.1817   3.1902   3.2093   3.2175
  3.2362   3.2392   3.2561   3.2711   3.2791   3.2841   3.2994   3.3087
  3.3124   3.3295   3.3389   3.3445   3.3566   3.3619   3.3713   3.3834
  3.3907   3.3973   3.4009   3.4048   3.4153   3.4234   3.4370   3.4455
  3.4473   3.4685   3.4732   3.4868   3.4908   3.5007   3.5080   3.5250
  3.5290   3.5316   3.5377   3.5470   3.5636   3.5669   3.5864   3.5937
  3.6031   3.6204   3.6266   3.6328   3.6401   3.6526   3.6651   3.6851
  3.6894   3.6949   3.7014   3.7062   3.7099   3.7238   3.7405   3.7549
  3.7639   3.7768   3.7929   3.7953   3.8036   3.8185   3.8312   3.8477
  3.8656   3.8689   3.9073   3.9112   3.9219   3.9314   3.9544   3.9615
  3.9679   3.9860   4.0085   4.0152   4.0207   4.0267   4.0388   4.0555
  4.0678   4.0928   4.1119   4.1160   4.1281   4.1407   4.1531   4.1576
  4.1634   4.1846   4.1907   4.1994   4.2061   4.2166   4.2197   4.2318
  4.2538   4.2661   4.2771   4.2929   4.3054   4.3247   4.3295   4.3479
  4.3542   4.3618   4.3743   4.3950   4.4019   4.4118   4.4153   4.4313
  4.4526   4.4737   4.4838   4.4901   4.5163   4.5350   4.5568   4.5637
  4.5979   4.6090   4.6208   4.6256   4.6397   4.6602   4.6681   4.6830
  4.7052   4.7170   4.7535   4.7669   4.7808   4.7957   4.8541   4.8646
  4.8776   4.8834   4.9079   4.9432   4.9627   4.9822   4.9939   5.0574
  5.0908   5.1034   5.1121   5.1518   5.1617   5.1852   5.2036   5.2683
  5.2729   5.2788   5.3091   5.3144   5.3283   5.3632   5.3824   5.4035
  5.4106   5.4438   5.4643   5.4968   5.5087   5.5254   5.5494   5.5630
  5.5733   5.6063   5.6165   5.6347   5.6419   5.6993   5.7142   5.7495
  5.7878   5.8302   5.9223   5.9790   6.0361   6.1116   6.1460   6.2284
  6.2387   6.2671   6.2827   6.3066   6.3567   6.4466   6.5772   8.6928
  9.9264  11.5407  12.0997  12.8402  13.1792  13.7403  14.1639  14.2851
 14.4840
 --------------------------------------------------------------
 
          Ground-State Mulliken Net Atomic Charges

     Atom                 Charge (a.u.)
  ----------------------------------------
      1 C                    -0.216737
      2 C                    -0.248768
      3 C                     0.060697
      4 H                     0.184374
      5 C                    -0.035697
      6 S                     0.008765
      7 C                    -0.310953
      8 H                     0.116640
      9 H                     0.105709
     10 H                     0.117130
     11 H                     0.206101
     12 C                     0.029181
     13 C                    -0.288899
     14 C                     0.051526
     15 H                     0.196819
     16 C                    -0.249892
     17 S                     0.024644
     18 C                    -0.269379
     19 H                     0.101991
     20 H                     0.108888
     21 H                     0.108754
     22 H                     0.199107
  ----------------------------------------
  Sum of atomic charges =     0.000000

 -----------------------------------------------------------------
                    Cartesian Multipole Moments
 -----------------------------------------------------------------
    Charge (ESU x 10^10)
                -0.0000
    Dipole Moment (Debye)
         X       1.4228      Y       0.3626      Z       2.9251
       Tot       3.2729
    Quadrupole Moments (Debye-Ang)
        XX     -89.9161     XY       3.5662     YY     -70.8292
        XZ       2.5285     YZ      -1.1990     ZZ     -80.9150
    Octopole Moments (Debye-Ang^2)
       XXX     -90.9379    XXY      59.9015    XYY     -17.3315
       YYY     106.8293    XXZ      -3.1501    XYZ      -8.9970
       YYZ      -8.2268    XZZ     -26.1337    YZZ      44.1345
       ZZZ      -0.3034
    Hexadecapole Moments (Debye-Ang^3)
      XXXX    -373.1384   XXXY    -188.1538   XXYY    -548.0630
      XYYY    -140.6262   YYYY   -2450.6889   XXXZ    -132.2384
      XXYZ     -33.0467   XYYZ     -16.7079   YYYZ     -67.1370
      XXZZ    -235.5372   XYZZ     -55.0501   YYZZ    -579.6295
      XZZZ    -126.7849   YZZZ     -96.8467   ZZZZ   -1017.5493
 -----------------------------------------------------------------
 Total job time:  609.95s(wall), 606.10s(cpu) 
 Sat Jul  9 14:43:08 2022

        *************************************************************
        *                                                           *
        *  Thank you very much for using Q-Chem.  Have a nice day.  *
        *                                                           *
        *************************************************************


remove work dirs ./qchem2475395.0 -- ./qchem2475395.-1
rm -rf ./qchem2475395
