You are running Q-Chem version: 5.4.0

#
# job setting
#
local host:  exp-1-52
current dir: /expanse/lustre/scratch/theleonzhang/temp_project/Interring_Bonds
input file:  Methylthiophene_Phi_25_Theta_270_Methylthiophene.qcin
output file: 
nprocs     : 0
nthreads   : 1
#
# qchem installation setting
#
QC:          /cm/shared/apps/spack/cpu/opt/spack/linux-centos8-zen2/gcc-10.2.0/qchem-5.4-akfmr7b3t57bfs6qan3padb2wnb2i7cl
QCAUX:       /cm/shared/apps/spack/cpu/opt/spack/linux-centos8-zen2/gcc-10.2.0/qchem-5.4-akfmr7b3t57bfs6qan3padb2wnb2i7cl/qcaux
QCPROG:      /cm/shared/apps/spack/cpu/opt/spack/linux-centos8-zen2/gcc-10.2.0/qchem-5.4-akfmr7b3t57bfs6qan3padb2wnb2i7cl/exe/qcprog.exe_s
QCPROG_S:    /cm/shared/apps/spack/cpu/opt/spack/linux-centos8-zen2/gcc-10.2.0/qchem-5.4-akfmr7b3t57bfs6qan3padb2wnb2i7cl/exe/qcprog.exe_s
PARALLEL:    -DSERIAL
QCMPI:       mpich
#
# qchem directory setting
#
qcrun:       qchem2534401
QCSCRATCH:   .
QCLOCALSCR:  
QCTMPDIR:    .
QCFILEPREF:  ./qchem2534401
QCSAVEDIR:   
workdirs:    ./qchem2534401
workdir0:    ./qchem2534401
partmpdirs =  
#
# parallel setting
#
QCRSH:           ssh
QCMPI:           mpich
QCMPIRUN:        /cm/shared/apps/spack/cpu/opt/spack/linux-centos8-zen2/gcc-10.2.0/qchem-5.4-akfmr7b3t57bfs6qan3padb2wnb2i7cl/bin/mpi/mpirun_qchem
QCMACHINEFILE:   ./qchem2534401/hostfile

#
# env setting
#
exported envs:   QC QCAUX QCSCRATCH QCRUNNAME QCFILEPREF QCPROG QCPROG_S GUIFILE

Running Job 1 of 1 Methylthiophene_Phi_25_Theta_270_Methylthiophene.qcin
qchem Methylthiophene_Phi_25_Theta_270_Methylthiophene.qcin_2534401.0 ./qchem2534401/ 0
/cm/shared/apps/spack/cpu/opt/spack/linux-centos8-zen2/gcc-10.2.0/qchem-5.4-akfmr7b3t57bfs6qan3padb2wnb2i7cl/exe/qcprog.exe_s Methylthiophene_Phi_25_Theta_270_Methylthiophene.qcin_2534401.0 ./qchem2534401/
                  Welcome to Q-Chem
     A Quantum Leap Into The Future Of Chemistry


 Q-Chem 5.4, Q-Chem, Inc., Pleasanton, CA (2021)

 License issued to: University of California, San Diego (site)

 E. Epifanovsky,  A. T. B. Gilbert,  Xintian Feng,  Joonho Lee,  Yuezhi Mao,  
 N. Mardirossian,  P. Pokhilko,  A. White,  M. Wormit,  M. P. Coons,  
 A. L. Dempwolff,  Zhengting Gan,  D. Hait,  P. R. Horn,  L. D. Jacobson,  
 I. Kaliman,  J. Kussmann,  A. W. Lange,  Ka Un Lao,  D. S. Levine,  Jie Liu,  
 S. C. McKenzie,  A. F. Morrison,  K. Nanda,  F. Plasser,  D. R. Rehn,  
 M. L. Vidal,  Zhi-Qiang You,  Ying Zhu,  B. Alam,  B. Albrecht,  
 A. Aldossary,  E. Alguire,  J. H. Andersen,  D. Barton,  K. Begam,  A. Behn,  
 Y. A. Bernard,  E. J. Berquist,  H. Burton,  A. Carreras,  K. Carter-Fenk,  
 R. Chakraborty,  A. D. Chien,  K. D. Closser,  V. Cofer-Shabica,  
 S. Dasgupta,  Jia Deng,  M. de Wergifosse,  M. Diedenhofen,  Hainam Do,  
 S. Ehlert,  Po-Tung Fang,  S. Fatehi,  Qingguo Feng,  J. Gayvert,  
 Qinghui Ge,  G. Gidofalvi,  M. Goldey,  J. Gomes,  C. Gonzalez-Espinoza,  
 S. Gulania,  A. Gunina,  M. W. D. Hanson-Heine,  P. H. P. Harbach,  
 A. W. Hauser,  M. F. Herbst,  M. Hernandez Vera,  M. Hodecker,  
 Z. C. Holden,  S. Houck,  Xunkun Huang,  Kerwin Hui,  B. C. Huynh,  
 M. Ivanov,  Hyunjun Ji,  Hanjie Jiang,  B. Kaduk,  S. Kaehler,  
 K. Khistyaev,  Jaehoon Kim,  P. Klunzinger,  Z. Koczor-Benda,  
 Joong Hoon Koh,  D. Kosenkov,  L. Koulias,  T. Kowalczyk,  C. M. Krauter,  
 K. Kue,  A. Kunitsa,  T. Kus,  A. Landau,  K. V. Lawler,  D. Lefrancois,  
 S. Lehtola,  Rain Li,  Yi-Pei Li,  Jiashu Liang,  M. Liebenthal,  
 Hung-Hsuan Lin,  You-Sheng Lin,  Fenglai Liu,  Kuan-Yu Liu,  
 M. Loipersberger,  A. Luenser,  A. Manjanath,  P. Manohar,  E. Mansoor,  
 S. F. Manzer,  Shan-Ping Mao,  A. V. Marenich,  T. Markovich,  S. Mason,  
 S. A. Maurer,  P. F. McLaughlin,  M. F. S. J. Menger,  J.-M. Mewes,  
 S. A. Mewes,  P. Morgante,  J. W. Mullinax,  T. S. Nguyen-Beck,  
 K. J. Oosterbaan,  G. Paran,  Alexander C. Paul,  Suranjan K. Paul,  
 F. Pavosevic,  Zheng Pei,  S. Prager,  E. I. Proynov,  E. Ramos,  B. Rana,  
 A. E. Rask,  A. Rettig,  R. M. Richard,  F. Rob,  E. Rossomme,  T. Scheele,  
 M. Scheurer,  M. Schneider,  N. Sergueev,  S. M. Sharada,  W. Skomorowski,  
 D. W. Small,  C. J. Stein,  Yu-Chuan Su,  E. J. Sundstrom,  Zhen Tao,  
 J. Thirman,  T. Tsuchimochi,  N. M. Tubman,  S. P. Veccham,  O. Vydrov,  
 J. Wenzel,  J. Witte,  A. Yamada,  Kun Yao,  S. Yeganeh,  S. R. Yost,  
 A. Zech,  Igor Ying Zhang,  Xing Zhang,  Yu Zhang,  D. Zuev,  
 A. Aspuru-Guzik,  A. T. Bell,  N. A. Besley,  K. B. Bravaya,  B. R. Brooks,  
 D. Casanova,  Jeng-Da Chai,  S. Coriani,  C. J. Cramer,  
 A. E. DePrince, III,  R. A. DiStasio Jr.,  A. Dreuw,  B. D. Dunietz,  
 T. R. Furlani,  W. A. Goddard III,  S. Grimme,  S. Hammes-Schiffer,  
 T. Head-Gordon,  W. J. Hehre,  Chao-Ping Hsu,  T.-C. Jagau,  Yousung Jung,  
 A. Klamt,  Jing Kong,  D. S. Lambrecht,  WanZhen Liang,  N. J. Mayhall,  
 C. W. McCurdy,  J. B. Neaton,  C. Ochsenfeld,  J. A. Parkhill,  R. Peverati,  
 V. A. Rassolov,  Yihan Shao,  L. V. Slipchenko,  T. Stauch,  R. P. Steele,  
 J. E. Subotnik,  A. J. W. Thom,  A. Tkatchenko,  D. G. Truhlar,  
 T. Van Voorhis,  T. A. Wesolowski,  K. B. Whaley,  H. L. Woodcock III,  
 P. M. Zimmerman,  S. Faraji,  P. M. W. Gill,  M. Head-Gordon,  
 J. M. Herbert,  A. I. Krylov

 Contributors to earlier versions of Q-Chem not listed above: 
 R. D. Adamson,  B. Austin,  R. Baer,  J. Baker,  G. J. O. Beran,  
 K. Brandhorst,  S. T. Brown,  E. F. C. Byrd,  A. K. Chakraborty,  
 G. K. L. Chan,  Chun-Min Chang,  Yunqing Chen,  C.-L. Cheng,  
 Siu Hung Chien,  D. M. Chipman,  D. L. Crittenden,  H. Dachsel,  
 R. J. Doerksen,  A. D. Dutoi,  R. G. Edgar,  J. Fosso-Tande,  
 L. Fusti-Molnar,  D. Ghosh,  A. Ghysels,  A. Golubeva-Zadorozhnaya,  
 J. Gonthier,  M. S. Gordon,  S. R. Gwaltney,  G. Hawkins,  J. E. Herr,  
 A. Heyden,  S. Hirata,  E. G. Hohenstein,  G. Kedziora,  F. J. Keil,  
 C. Kelley,  Jihan Kim,  R. A. King,  R. Z. Khaliullin,  P. P. Korambath,  
 W. Kurlancheek,  A. Laurent,  A. M. Lee,  M. S. Lee,  S. V. Levchenko,  
 Ching Yeh Lin,  D. Liotard,  E. Livshits,  R. C. Lochan,  I. Lotan,  
 L. A. Martinez-Martinez,  P. E. Maslen,  N. Nair,  D. P. O'Neill,  
 D. Neuhauser,  E. Neuscamman,  C. M. Oana,  R. Olivares-Amaya,  R. Olson,  
 T. M. Perrine,  B. Peters,  P. A. Pieniazek,  A. Prociuk,  Y. M. Rhee,  
 J. Ritchie,  M. A. Rohrdanz,  E. Rosta,  N. J. Russ,  H. F. Schaefer III,  
 M. W. Schmidt,  N. E. Schultz,  S. Sharma,  N. Shenvi,  C. D. Sherrill,  
 A. C. Simmonett,  A. Sodt,  T. Stein,  D. Stuck,  K. S. Thanthiriwatte,  
 V. Vanovschi,  L. Vogt,  Tao Wang,  A. Warshel,  M. A. Watson,  
 C. F. Williams,  Q. Wu,  X. Xu,  Jun Yang,  W. Zhang,  Yan Zhao

 Please cite Q-Chem as follows:
 Y. Shao et al., Mol. Phys. 113, 184-215 (2015)
 DOI: 10.1080/00268976.2014.952696

 Q-Chem 5.4.0 for Intel X86 EM64T Linux

 Parts of Q-Chem use Armadillo 9.800.1 (Horizon Scraper).
 http://arma.sourceforge.net/

 Q-Chem begins on Sat Jul  9 16:18:48 2022  

 Host: 
0

     Scratch files written to ./qchem2534401//
 May1621 |scratch|qcdevops|jenkins|workspace|build_RNUM    
 Processing $rem in /cm/shared/apps/spack/cpu/opt/spack/linux-centos8-zen2/gcc-10.2.0/qchem-5.4-akfmr7b3t57bfs6qan3padb2wnb2i7cl/config/preferences:
 Processing $rem in /home/theleonzhang/.qchemrc:
 Symmetry turned off for PCM/SM12/SMD calculation
 Core orbitals will be frozen

 Checking the input file for inconsistencies... 	...done.

--------------------------------------------------------------
User input:
--------------------------------------------------------------
$molecule
0 1
C	0.775127	-3.866725	0.000713
C	-0.612565	-3.703963	0.000302
C	-1.066639	-2.357056	-0.000067
H	-1.302900	-4.561092	0.000470
C	-0.000000	-1.440664	-0.000000
S	1.544483	-2.286957	-0.000009
C	-2.521872	-1.978743	-0.000295
H	-3.166949	-2.878678	-0.000221
H	-2.790821	-1.376015	-0.892850
H	-2.791023	-1.375728	0.892005
H	1.375251	-4.783437	0.000945
C	0.000000	0.000000	0.000000
C	0.365003	0.782674	1.099446
C	0.949885	2.036912	0.776721
H	0.209135	0.448431	2.136088
C	1.043159	2.236886	-0.612546
S	0.398297	0.854094	-1.486809
C	1.409609	3.022738	1.814609
H	1.229726	2.636980	2.836676
H	0.877346	3.992870	1.726239
H	2.494910	3.238558	1.726228
H	1.444334	3.097160	-1.161575
$end

$rem
JOBTYPE		SP
EXCHANGE	HF
CORRELATION	pRIMP2
BASIS		cc-pvtz
METHOD		rimp2
AUX_BASIS	rimp2-cc-pvtz
SOLVENT_METHOD	PCM
PURECART	11111
SYMMETRY	false
MEM_TOTAL	110000
SCF_CONVERGENCE = 6
THRESH=10
$end



$solvent
dielectric 4.90
$end
--------------------------------------------------------------
 ----------------------------------------------------------------
             Standard Nuclear Orientation (Angstroms)
    I     Atom           X                Y                Z
 ----------------------------------------------------------------
    1      C       0.7751270000    -3.8667250000     0.0007130000
    2      C      -0.6125650000    -3.7039630000     0.0003020000
    3      C      -1.0666390000    -2.3570560000    -0.0000670000
    4      H      -1.3029000000    -4.5610920000     0.0004700000
    5      C       0.0000000000    -1.4406640000     0.0000000000
    6      S       1.5444830000    -2.2869570000    -0.0000090000
    7      C      -2.5218720000    -1.9787430000    -0.0002950000
    8      H      -3.1669490000    -2.8786780000    -0.0002210000
    9      H      -2.7908210000    -1.3760150000    -0.8928500000
   10      H      -2.7910230000    -1.3757280000     0.8920050000
   11      H       1.3752510000    -4.7834370000     0.0009450000
   12      C       0.0000000000     0.0000000000     0.0000000000
   13      C       0.3650030000     0.7826740000     1.0994460000
   14      C       0.9498850000     2.0369120000     0.7767210000
   15      H       0.2091350000     0.4484310000     2.1360880000
   16      C       1.0431590000     2.2368860000    -0.6125460000
   17      S       0.3982970000     0.8540940000    -1.4868090000
   18      C       1.4096090000     3.0227380000     1.8146090000
   19      H       1.2297260000     2.6369800000     2.8366760000
   20      H       0.8773460000     3.9928700000     1.7262390000
   21      H       2.4949100000     3.2385580000     1.7262280000
   22      H       1.4443340000     3.0971600000    -1.1615750000
 ----------------------------------------------------------------
 Nuclear Repulsion Energy =         837.17032912 hartrees
 There are       51 alpha and       51 beta electrons

 Q-Chem warning in module forms1/BasisType.C, line 2236:

 You are not using the predefined 5D/6D in this basis set.

 Requested basis set is cc-pVTZ
 There are 184 shells and 508 basis functions

 Total QAlloc Memory Limit 110000 MB
 Mega-Array Size       188 MB
 MEM_STATIC part       192 MB
 Discretize the solute cavity surface with Lebedev spheres
	Using 110 Lebedev grid points for each H atom
	Using 194 Lebedev grid points for other atoms
	Atomic van der Waals radii will be scaled by 1.20
 Remove points where switching function is < 1.0e-08
 Keep 1560 surface tesserae and discard 1868 interior tesserae
 Molecular Surface Area = 237.453 Angst**2
 Requested basis set is rimp2-cc-pVTZ
 There are 394 shells and 1354 basis functions
 A cutoff of  1.0D-10 yielded  12207 shell pairs
 There are     90337 function pairs (    116577 Cartesian)
 Smallest overlap matrix eigenvalue = 7.11E-05

 Scale SEOQF with 1.000000e-01/1.000000e-01/1.000000e-01

 Standard Electronic Orientation quadrupole field applied
 Nucleus-field energy     =     0.0000000352 hartrees
 Guess from superposition of atomic densities
 Warning:  Energy on first SCF cycle will be non-variational
 SAD guess density has 102.000000 electrons

 -----------------------------------------------------------------------
  General SCF calculation program by
  Eric Jon Sundstrom, Paul Horn, Yuezhi Mao, Dmitri Zuev, Alec White,
  David Stuck, Shaama M.S., Shane Yost, Joonho Lee, David Small,
  Daniel Levine, Susi Lehtola, Hugh Burton, Evgeny Epifanovsky,
  Bang C. Huynh
 -----------------------------------------------------------------------
 Hartree-Fock
 A restricted SCF calculation will be
 performed using DIIS
 SCF converges when DIIS error is below 1.0e-06
 ---------------------------------------
  Cycle       Energy         DIIS error
 ---------------------------------------
    1   -1184.2120369349      2.38e-02  
    2   -1179.5368342169      1.59e-03  
    3   -1179.6559151474      5.99e-04  
    4   -1179.6690345700      3.33e-04  
    5   -1179.6736519502      6.68e-05  
    6   -1179.6739335788      3.11e-05  
    7   -1179.6740233118      1.30e-05  
    8   -1179.6740528308      5.30e-06  
    9   -1179.6740579068      1.70e-06  
   10   -1179.6740583575      5.05e-07  Convergence criterion met
 ---------------------------------------
 SCF time:   CPU 488.84s  wall 491.00s 

************** Final PCM Free Energy Summary **************
 G_electrostatic  =      -0.00793663 hartree =      -4.98031294 kcal/mol
 G_cavitation     =       0.00000000 hartree =       0.00000000 kcal/mol
 G_dispersion     =       0.00000000 hartree =       0.00000000 kcal/mol
 G_repulsion      =       0.00000000 hartree =       0.00000000 kcal/mol
 --------------------------------------------------
 Non-electrostatic Free Energy =       0.00000000 hartree =       0.00000000 kcal/mol
 Total                         =      -0.00793663 hartree =      -4.98031294 kcal/mol
 --------------------------------------------------
 SCF Energy (H0 + V/2)                       =   -1179.67405836 
 Solute Internal Energy (H0)                 =   -1179.66612172 
 Total Free Energy (H0 + V/2 + non-elec)     =   -1179.67405836 hartree
                                             = -740256.64431231 kcal/mol
***********************************************************

 SCF   energy in the final basis set =    -1179.6740583575
 Total energy in the final basis set =    -1179.6740583575


 --------------------------------------------------------------
  Generalized many-body perturbation theory program
  by Joonho Lee, Fazle Rob, Xintian Feng, Evgeny Epifanovsky

 No regularization used 
 (reg. param. = 0.0000e+00)
  (P|Q)^-1/2 Time:  CPU 1.68 s  wall 1.68 s

 In RI-MP2 calculation: 
 # of frozen core orbitals: 20

 Components of the RIMP2 correlation energy:
        aaaa    correlation energy =        -0.2525763828 a.u.
        abab    correlation energy =        -1.4751288381 a.u.
        bbbb    correlation energy =        -0.2525763828 a.u.
        non-Brillouin singles      =        -0.0000000000 a.u.
        total same-spin energy     =        -0.5051527656 a.u.
        total opposite-spin energy =        -1.4751288381 a.u.

 Total  RIMP2   correlation energy =        -1.9802816036 a.u.
        RIMP2         total energy =     -1181.6543399611 a.u.

 RI-MP2 Energy Time:  CPU 66.52 s  wall 66.76 s
 
 --------------------------------------------------------------
 
                    Orbital Energies (a.u.)
 --------------------------------------------------------------
 
 Alpha MOs
 -- Occupied --
-91.9844 -91.9828 -11.2736 -11.2712 -11.2711 -11.2687 -11.2510 -11.2510
-11.2456 -11.2403 -11.2291 -11.2287  -8.9841  -8.9825  -6.6650  -6.6644
 -6.6638  -6.6634  -6.6629  -6.6622  -1.1794  -1.1489  -1.0404  -1.0221
 -0.9971  -0.9531  -0.9128  -0.8918  -0.7998  -0.7528  -0.7317  -0.6933
 -0.6612  -0.6167  -0.5828  -0.5792  -0.5704  -0.5690  -0.5513  -0.5320
 -0.5295  -0.5189  -0.5081  -0.4915  -0.4818  -0.4643  -0.4630  -0.3501
 -0.3346  -0.3118  -0.3097
 -- Virtual --
  0.0856   0.0984   0.1426   0.1477   0.1629   0.1736   0.1747   0.1842
  0.1890   0.1964   0.2059   0.2180   0.2310   0.2314   0.2390   0.2472
  0.2546   0.2656   0.2935   0.3054   0.3367   0.3409   0.3540   0.3628
  0.3763   0.3827   0.3929   0.3986   0.4072   0.4138   0.4228   0.4315
  0.4386   0.4524   0.4660   0.4704   0.4737   0.4803   0.4854   0.4963
  0.5063   0.5140   0.5199   0.5365   0.5402   0.5540   0.5556   0.5594
  0.5753   0.5833   0.5931   0.6008   0.6043   0.6141   0.6196   0.6225
  0.6310   0.6321   0.6383   0.6414   0.6454   0.6483   0.6535   0.6688
  0.6740   0.6769   0.6836   0.7024   0.7172   0.7315   0.7418   0.7502
  0.7627   0.7847   0.8019   0.8027   0.8158   0.8232   0.8304   0.8407
  0.8435   0.8479   0.8652   0.8843   0.9015   0.9252   0.9331   0.9488
  0.9569   0.9615   0.9839   0.9920   1.0038   1.0115   1.0223   1.0336
  1.0382   1.0530   1.0587   1.0670   1.0695   1.0874   1.0917   1.1061
  1.1098   1.1263   1.1307   1.1446   1.1614   1.1752   1.1782   1.1859
  1.1914   1.2124   1.2182   1.2253   1.2471   1.2494   1.2585   1.2665
  1.2786   1.2824   1.2932   1.3097   1.3343   1.3492   1.3572   1.3632
  1.3746   1.3871   1.4013   1.4165   1.4235   1.4438   1.4486   1.4599
  1.4722   1.4817   1.5019   1.5069   1.5127   1.5298   1.5391   1.5479
  1.5565   1.5663   1.5690   1.5717   1.5849   1.5925   1.6021   1.6252
  1.6466   1.6607   1.6769   1.6827   1.7017   1.7045   1.7135   1.7178
  1.7403   1.7575   1.7655   1.7799   1.7894   1.8025   1.8282   1.8581
  1.8792   1.8813   1.8960   1.9229   1.9278   1.9553   1.9720   1.9970
  2.0041   2.0559   2.0660   2.0805   2.1046   2.1373   2.1433   2.1751
  2.1804   2.1897   2.1969   2.2258   2.2332   2.2414   2.2662   2.2802
  2.2970   2.3163   2.3287   2.3991   2.3996   2.4164   2.4303   2.4489
  2.4851   2.4920   2.5071   2.5300   2.5402   2.5660   2.5731   2.5823
  2.6162   2.6272   2.6400   2.6653   2.6731   2.6927   2.7220   2.7338
  2.7419   2.7455   2.7553   2.7615   2.7665   2.7832   2.8040   2.8194
  2.8246   2.8401   2.8444   2.8699   2.8828   2.8974   2.9045   2.9159
  2.9541   2.9630   2.9704   2.9878   2.9936   3.0140   3.0211   3.0378
  3.0414   3.0691   3.0916   3.1078   3.1140   3.1189   3.1222   3.1439
  3.1515   3.1554   3.1684   3.1728   3.1845   3.1941   3.2072   3.2203
  3.2466   3.2501   3.2597   3.2772   3.2809   3.2959   3.3073   3.3135
  3.3170   3.3257   3.3331   3.3433   3.3497   3.3537   3.3754   3.3770
  3.3870   3.3908   3.3982   3.4091   3.4181   3.4236   3.4361   3.4425
  3.4513   3.4562   3.4678   3.4895   3.5016   3.5059   3.5169   3.5201
  3.5326   3.5364   3.5424   3.5535   3.5568   3.5817   3.5881   3.6033
  3.6118   3.6177   3.6236   3.6302   3.6413   3.6489   3.6587   3.6666
  3.6809   3.6898   3.7074   3.7193   3.7292   3.7356   3.7408   3.7476
  3.7630   3.7768   3.7776   3.7889   3.8037   3.8132   3.8186   3.8489
  3.8616   3.8672   3.8756   3.8821   3.9058   3.9154   3.9343   3.9554
  3.9699   3.9779   3.9973   4.0111   4.0127   4.0241   4.0429   4.0448
  4.0673   4.0832   4.0869   4.1024   4.1191   4.1233   4.1299   4.1550
  4.1631   4.1720   4.1889   4.1956   4.2023   4.2156   4.2165   4.2328
  4.2547   4.2607   4.2658   4.2871   4.2966   4.3136   4.3242   4.3336
  4.3425   4.3599   4.3613   4.3757   4.3863   4.3995   4.4049   4.4238
  4.4266   4.4417   4.4644   4.4767   4.4840   4.4989   4.5266   4.5600
  4.5818   4.5945   4.6158   4.6231   4.6388   4.6434   4.6638   4.6848
  4.7088   4.7231   4.7307   4.7381   4.7672   4.7812   4.8258   4.8411
  4.8739   4.8857   4.8952   4.9241   4.9533   4.9718   5.0161   5.0557
  5.0834   5.1073   5.1107   5.1488   5.1598   5.1704   5.1898   5.2045
  5.2630   5.2781   5.2919   5.3021   5.3325   5.3655   5.3937   5.4000
  5.4291   5.4536   5.4642   5.4712   5.5191   5.5232   5.5428   5.5535
  5.5771   5.5914   5.6220   5.6263   5.6297   5.6818   5.7031   5.7132
  5.7697   5.8193   5.8938   5.9270   6.0016   6.0397   6.1139   6.2263
  6.2272   6.2351   6.2696   6.2837   6.3226   6.4209   6.5037   8.8967
  9.8008  11.6659  12.0692  12.8682  12.9787  13.7464  13.9048  14.2037
 14.3155
 --------------------------------------------------------------
 
          Ground-State Mulliken Net Atomic Charges

     Atom                 Charge (a.u.)
  ----------------------------------------
      1 C                    -0.205920
      2 C                    -0.253475
      3 C                     0.061204
      4 H                     0.182542
      5 C                    -0.066130
      6 S                     0.026754
      7 C                    -0.283972
      8 H                     0.106670
      9 H                     0.110514
     10 H                     0.109435
     11 H                     0.204105
     12 C                    -0.009837
     13 C                    -0.239727
     14 C                     0.031784
     15 H                     0.184436
     16 C                    -0.232980
     17 S                     0.027501
     18 C                    -0.269571
     19 H                     0.102804
     20 H                     0.107687
     21 H                     0.107936
     22 H                     0.198240
  ----------------------------------------
  Sum of atomic charges =     0.000000

 -----------------------------------------------------------------
                    Cartesian Multipole Moments
 -----------------------------------------------------------------
    Charge (ESU x 10^10)
                -0.0000
    Dipole Moment (Debye)
         X      -0.5764      Y       0.3827      Z       1.4811
       Tot       1.6347
    Quadrupole Moments (Debye-Ang)
        XX     -84.2053     XY       6.4150     YY     -71.0150
        XZ       0.4315     YZ       0.8907     ZZ     -86.5801
    Octopole Moments (Debye-Ang^2)
       XXX     -85.1229    XXY      38.3660    XYY     -10.1612
       YYY     107.4585    XXZ      -1.6260    XYZ      -1.1649
       YYZ      -3.5739    XZZ     -24.2328    YZZ      65.5258
       ZZZ       3.8970
    Hexadecapole Moments (Debye-Ang^3)
      XXXX    -859.9416   XXXY    -175.4399   XXYY    -541.1016
      XYYY    -187.4057   YYYY   -2456.8008   XXXZ     -40.1087
      XXYZ     -30.8577   XYYZ     -19.8407   YYYZ     -97.8887
      XXZZ    -238.7100   XYZZ     -51.3989   YYZZ    -587.6689
      XZZZ     -41.3300   YZZZ     -87.6733   ZZZZ    -526.4638
 -----------------------------------------------------------------
 Total job time:  559.67s(wall), 556.20s(cpu) 
 Sat Jul  9 16:28:08 2022

        *************************************************************
        *                                                           *
        *  Thank you very much for using Q-Chem.  Have a nice day.  *
        *                                                           *
        *************************************************************


remove work dirs ./qchem2534401.0 -- ./qchem2534401.-1
rm -rf ./qchem2534401
