You are running Q-Chem version: 5.4.0

#
# job setting
#
local host:  exp-1-52
current dir: /expanse/lustre/scratch/theleonzhang/temp_project/Interring_Bonds
input file:  Methylthiophene_Phi_25_Theta_60_Methylthiophene.qcin
output file: 
nprocs     : 0
nthreads   : 1
#
# qchem installation setting
#
QC:          /cm/shared/apps/spack/cpu/opt/spack/linux-centos8-zen2/gcc-10.2.0/qchem-5.4-akfmr7b3t57bfs6qan3padb2wnb2i7cl
QCAUX:       /cm/shared/apps/spack/cpu/opt/spack/linux-centos8-zen2/gcc-10.2.0/qchem-5.4-akfmr7b3t57bfs6qan3padb2wnb2i7cl/qcaux
QCPROG:      /cm/shared/apps/spack/cpu/opt/spack/linux-centos8-zen2/gcc-10.2.0/qchem-5.4-akfmr7b3t57bfs6qan3padb2wnb2i7cl/exe/qcprog.exe_s
QCPROG_S:    /cm/shared/apps/spack/cpu/opt/spack/linux-centos8-zen2/gcc-10.2.0/qchem-5.4-akfmr7b3t57bfs6qan3padb2wnb2i7cl/exe/qcprog.exe_s
PARALLEL:    -DSERIAL
QCMPI:       mpich
#
# qchem directory setting
#
qcrun:       qchem2426990
QCSCRATCH:   .
QCLOCALSCR:  
QCTMPDIR:    .
QCFILEPREF:  ./qchem2426990
QCSAVEDIR:   
workdirs:    ./qchem2426990
workdir0:    ./qchem2426990
partmpdirs =  
#
# parallel setting
#
QCRSH:           ssh
QCMPI:           mpich
QCMPIRUN:        /cm/shared/apps/spack/cpu/opt/spack/linux-centos8-zen2/gcc-10.2.0/qchem-5.4-akfmr7b3t57bfs6qan3padb2wnb2i7cl/bin/mpi/mpirun_qchem
QCMACHINEFILE:   ./qchem2426990/hostfile

#
# env setting
#
exported envs:   QC QCAUX QCSCRATCH QCRUNNAME QCFILEPREF QCPROG QCPROG_S GUIFILE

Running Job 1 of 1 Methylthiophene_Phi_25_Theta_60_Methylthiophene.qcin
qchem Methylthiophene_Phi_25_Theta_60_Methylthiophene.qcin_2426990.0 ./qchem2426990/ 0
/cm/shared/apps/spack/cpu/opt/spack/linux-centos8-zen2/gcc-10.2.0/qchem-5.4-akfmr7b3t57bfs6qan3padb2wnb2i7cl/exe/qcprog.exe_s Methylthiophene_Phi_25_Theta_60_Methylthiophene.qcin_2426990.0 ./qchem2426990/
                  Welcome to Q-Chem
     A Quantum Leap Into The Future Of Chemistry


 Q-Chem 5.4, Q-Chem, Inc., Pleasanton, CA (2021)

 License issued to: University of California, San Diego (site)

 E. Epifanovsky,  A. T. B. Gilbert,  Xintian Feng,  Joonho Lee,  Yuezhi Mao,  
 N. Mardirossian,  P. Pokhilko,  A. White,  M. Wormit,  M. P. Coons,  
 A. L. Dempwolff,  Zhengting Gan,  D. Hait,  P. R. Horn,  L. D. Jacobson,  
 I. Kaliman,  J. Kussmann,  A. W. Lange,  Ka Un Lao,  D. S. Levine,  Jie Liu,  
 S. C. McKenzie,  A. F. Morrison,  K. Nanda,  F. Plasser,  D. R. Rehn,  
 M. L. Vidal,  Zhi-Qiang You,  Ying Zhu,  B. Alam,  B. Albrecht,  
 A. Aldossary,  E. Alguire,  J. H. Andersen,  D. Barton,  K. Begam,  A. Behn,  
 Y. A. Bernard,  E. J. Berquist,  H. Burton,  A. Carreras,  K. Carter-Fenk,  
 R. Chakraborty,  A. D. Chien,  K. D. Closser,  V. Cofer-Shabica,  
 S. Dasgupta,  Jia Deng,  M. de Wergifosse,  M. Diedenhofen,  Hainam Do,  
 S. Ehlert,  Po-Tung Fang,  S. Fatehi,  Qingguo Feng,  J. Gayvert,  
 Qinghui Ge,  G. Gidofalvi,  M. Goldey,  J. Gomes,  C. Gonzalez-Espinoza,  
 S. Gulania,  A. Gunina,  M. W. D. Hanson-Heine,  P. H. P. Harbach,  
 A. W. Hauser,  M. F. Herbst,  M. Hernandez Vera,  M. Hodecker,  
 Z. C. Holden,  S. Houck,  Xunkun Huang,  Kerwin Hui,  B. C. Huynh,  
 M. Ivanov,  Hyunjun Ji,  Hanjie Jiang,  B. Kaduk,  S. Kaehler,  
 K. Khistyaev,  Jaehoon Kim,  P. Klunzinger,  Z. Koczor-Benda,  
 Joong Hoon Koh,  D. Kosenkov,  L. Koulias,  T. Kowalczyk,  C. M. Krauter,  
 K. Kue,  A. Kunitsa,  T. Kus,  A. Landau,  K. V. Lawler,  D. Lefrancois,  
 S. Lehtola,  Rain Li,  Yi-Pei Li,  Jiashu Liang,  M. Liebenthal,  
 Hung-Hsuan Lin,  You-Sheng Lin,  Fenglai Liu,  Kuan-Yu Liu,  
 M. Loipersberger,  A. Luenser,  A. Manjanath,  P. Manohar,  E. Mansoor,  
 S. F. Manzer,  Shan-Ping Mao,  A. V. Marenich,  T. Markovich,  S. Mason,  
 S. A. Maurer,  P. F. McLaughlin,  M. F. S. J. Menger,  J.-M. Mewes,  
 S. A. Mewes,  P. Morgante,  J. W. Mullinax,  T. S. Nguyen-Beck,  
 K. J. Oosterbaan,  G. Paran,  Alexander C. Paul,  Suranjan K. Paul,  
 F. Pavosevic,  Zheng Pei,  S. Prager,  E. I. Proynov,  E. Ramos,  B. Rana,  
 A. E. Rask,  A. Rettig,  R. M. Richard,  F. Rob,  E. Rossomme,  T. Scheele,  
 M. Scheurer,  M. Schneider,  N. Sergueev,  S. M. Sharada,  W. Skomorowski,  
 D. W. Small,  C. J. Stein,  Yu-Chuan Su,  E. J. Sundstrom,  Zhen Tao,  
 J. Thirman,  T. Tsuchimochi,  N. M. Tubman,  S. P. Veccham,  O. Vydrov,  
 J. Wenzel,  J. Witte,  A. Yamada,  Kun Yao,  S. Yeganeh,  S. R. Yost,  
 A. Zech,  Igor Ying Zhang,  Xing Zhang,  Yu Zhang,  D. Zuev,  
 A. Aspuru-Guzik,  A. T. Bell,  N. A. Besley,  K. B. Bravaya,  B. R. Brooks,  
 D. Casanova,  Jeng-Da Chai,  S. Coriani,  C. J. Cramer,  
 A. E. DePrince, III,  R. A. DiStasio Jr.,  A. Dreuw,  B. D. Dunietz,  
 T. R. Furlani,  W. A. Goddard III,  S. Grimme,  S. Hammes-Schiffer,  
 T. Head-Gordon,  W. J. Hehre,  Chao-Ping Hsu,  T.-C. Jagau,  Yousung Jung,  
 A. Klamt,  Jing Kong,  D. S. Lambrecht,  WanZhen Liang,  N. J. Mayhall,  
 C. W. McCurdy,  J. B. Neaton,  C. Ochsenfeld,  J. A. Parkhill,  R. Peverati,  
 V. A. Rassolov,  Yihan Shao,  L. V. Slipchenko,  T. Stauch,  R. P. Steele,  
 J. E. Subotnik,  A. J. W. Thom,  A. Tkatchenko,  D. G. Truhlar,  
 T. Van Voorhis,  T. A. Wesolowski,  K. B. Whaley,  H. L. Woodcock III,  
 P. M. Zimmerman,  S. Faraji,  P. M. W. Gill,  M. Head-Gordon,  
 J. M. Herbert,  A. I. Krylov

 Contributors to earlier versions of Q-Chem not listed above: 
 R. D. Adamson,  B. Austin,  R. Baer,  J. Baker,  G. J. O. Beran,  
 K. Brandhorst,  S. T. Brown,  E. F. C. Byrd,  A. K. Chakraborty,  
 G. K. L. Chan,  Chun-Min Chang,  Yunqing Chen,  C.-L. Cheng,  
 Siu Hung Chien,  D. M. Chipman,  D. L. Crittenden,  H. Dachsel,  
 R. J. Doerksen,  A. D. Dutoi,  R. G. Edgar,  J. Fosso-Tande,  
 L. Fusti-Molnar,  D. Ghosh,  A. Ghysels,  A. Golubeva-Zadorozhnaya,  
 J. Gonthier,  M. S. Gordon,  S. R. Gwaltney,  G. Hawkins,  J. E. Herr,  
 A. Heyden,  S. Hirata,  E. G. Hohenstein,  G. Kedziora,  F. J. Keil,  
 C. Kelley,  Jihan Kim,  R. A. King,  R. Z. Khaliullin,  P. P. Korambath,  
 W. Kurlancheek,  A. Laurent,  A. M. Lee,  M. S. Lee,  S. V. Levchenko,  
 Ching Yeh Lin,  D. Liotard,  E. Livshits,  R. C. Lochan,  I. Lotan,  
 L. A. Martinez-Martinez,  P. E. Maslen,  N. Nair,  D. P. O'Neill,  
 D. Neuhauser,  E. Neuscamman,  C. M. Oana,  R. Olivares-Amaya,  R. Olson,  
 T. M. Perrine,  B. Peters,  P. A. Pieniazek,  A. Prociuk,  Y. M. Rhee,  
 J. Ritchie,  M. A. Rohrdanz,  E. Rosta,  N. J. Russ,  H. F. Schaefer III,  
 M. W. Schmidt,  N. E. Schultz,  S. Sharma,  N. Shenvi,  C. D. Sherrill,  
 A. C. Simmonett,  A. Sodt,  T. Stein,  D. Stuck,  K. S. Thanthiriwatte,  
 V. Vanovschi,  L. Vogt,  Tao Wang,  A. Warshel,  M. A. Watson,  
 C. F. Williams,  Q. Wu,  X. Xu,  Jun Yang,  W. Zhang,  Yan Zhao

 Please cite Q-Chem as follows:
 Y. Shao et al., Mol. Phys. 113, 184-215 (2015)
 DOI: 10.1080/00268976.2014.952696

 Q-Chem 5.4.0 for Intel X86 EM64T Linux

 Parts of Q-Chem use Armadillo 9.800.1 (Horizon Scraper).
 http://arma.sourceforge.net/

 Q-Chem begins on Sat Jul  9 12:57:13 2022  

 Host: 
0

     Scratch files written to ./qchem2426990//
 May1621 |scratch|qcdevops|jenkins|workspace|build_RNUM    
 Processing $rem in /cm/shared/apps/spack/cpu/opt/spack/linux-centos8-zen2/gcc-10.2.0/qchem-5.4-akfmr7b3t57bfs6qan3padb2wnb2i7cl/config/preferences:
 Processing $rem in /home/theleonzhang/.qchemrc:
 Symmetry turned off for PCM/SM12/SMD calculation
 Core orbitals will be frozen

 Checking the input file for inconsistencies... 	...done.

--------------------------------------------------------------
User input:
--------------------------------------------------------------
$molecule
0 1
C	-0.671636	-3.866725	0.386946
C	0.530345	-3.703963	-0.306544
C	0.923770	-2.357056	-0.533261
H	1.128109	-4.561092	-0.651857
C	-0.000000	-1.440664	-0.000000
S	-1.337557	-2.286957	0.772250
C	2.184153	-1.978743	-1.260680
H	2.742769	-2.878678	-1.583283
H	2.863347	-1.376015	-0.622180
H	1.971094	-1.375728	-2.168011
H	-1.191474	-4.783437	0.686807
C	0.000000	0.000000	0.000000
C	0.365003	0.782674	1.099446
C	0.949885	2.036912	0.776721
H	0.209135	0.448431	2.136088
C	1.043159	2.236886	-0.612546
S	0.398297	0.854094	-1.486809
C	1.409609	3.022738	1.814609
H	1.229726	2.636980	2.836676
H	0.877346	3.992870	1.726239
H	2.494910	3.238558	1.726228
H	1.444334	3.097160	-1.161575
$end

$rem
JOBTYPE		SP
EXCHANGE	HF
CORRELATION	pRIMP2
BASIS		cc-pvtz
METHOD		rimp2
AUX_BASIS	rimp2-cc-pvtz
SOLVENT_METHOD	PCM
PURECART	11111
SYMMETRY	false
MEM_TOTAL	110000
SCF_CONVERGENCE = 6
THRESH=10
$end



$solvent
dielectric 4.90
$end
--------------------------------------------------------------
 ----------------------------------------------------------------
             Standard Nuclear Orientation (Angstroms)
    I     Atom           X                Y                Z
 ----------------------------------------------------------------
    1      C      -0.6716360000    -3.8667250000     0.3869460000
    2      C       0.5303450000    -3.7039630000    -0.3065440000
    3      C       0.9237700000    -2.3570560000    -0.5332610000
    4      H       1.1281090000    -4.5610920000    -0.6518570000
    5      C       0.0000000000    -1.4406640000     0.0000000000
    6      S      -1.3375570000    -2.2869570000     0.7722500000
    7      C       2.1841530000    -1.9787430000    -1.2606800000
    8      H       2.7427690000    -2.8786780000    -1.5832830000
    9      H       2.8633470000    -1.3760150000    -0.6221800000
   10      H       1.9710940000    -1.3757280000    -2.1680110000
   11      H      -1.1914740000    -4.7834370000     0.6868070000
   12      C       0.0000000000     0.0000000000     0.0000000000
   13      C       0.3650030000     0.7826740000     1.0994460000
   14      C       0.9498850000     2.0369120000     0.7767210000
   15      H       0.2091350000     0.4484310000     2.1360880000
   16      C       1.0431590000     2.2368860000    -0.6125460000
   17      S       0.3982970000     0.8540940000    -1.4868090000
   18      C       1.4096090000     3.0227380000     1.8146090000
   19      H       1.2297260000     2.6369800000     2.8366760000
   20      H       0.8773460000     3.9928700000     1.7262390000
   21      H       2.4949100000     3.2385580000     1.7262280000
   22      H       1.4443340000     3.0971600000    -1.1615750000
 ----------------------------------------------------------------
 Nuclear Repulsion Energy =         839.37058988 hartrees
 There are       51 alpha and       51 beta electrons

 Q-Chem warning in module forms1/BasisType.C, line 2236:

 You are not using the predefined 5D/6D in this basis set.

 Requested basis set is cc-pVTZ
 There are 184 shells and 508 basis functions

 Total QAlloc Memory Limit 110000 MB
 Mega-Array Size       188 MB
 MEM_STATIC part       192 MB
 Discretize the solute cavity surface with Lebedev spheres
	Using 110 Lebedev grid points for each H atom
	Using 194 Lebedev grid points for other atoms
	Atomic van der Waals radii will be scaled by 1.20
 Remove points where switching function is < 1.0e-08
 Keep 1539 surface tesserae and discard 1889 interior tesserae
 Molecular Surface Area = 233.242 Angst**2
 Requested basis set is rimp2-cc-pVTZ
 There are 394 shells and 1354 basis functions
 A cutoff of  1.0D-10 yielded  12440 shell pairs
 There are     92318 function pairs (    119163 Cartesian)
 Smallest overlap matrix eigenvalue = 6.09E-05

 Scale SEOQF with 1.000000e-01/1.000000e-01/1.000000e-01

 Standard Electronic Orientation quadrupole field applied
 Nucleus-field energy     =     0.0000000310 hartrees
 Guess from superposition of atomic densities
 Warning:  Energy on first SCF cycle will be non-variational
 SAD guess density has 102.000000 electrons

 -----------------------------------------------------------------------
  General SCF calculation program by
  Eric Jon Sundstrom, Paul Horn, Yuezhi Mao, Dmitri Zuev, Alec White,
  David Stuck, Shaama M.S., Shane Yost, Joonho Lee, David Small,
  Daniel Levine, Susi Lehtola, Hugh Burton, Evgeny Epifanovsky,
  Bang C. Huynh
 -----------------------------------------------------------------------
 Hartree-Fock
 A restricted SCF calculation will be
 performed using DIIS
 SCF converges when DIIS error is below 1.0e-06
 ---------------------------------------
  Cycle       Energy         DIIS error
 ---------------------------------------
    1   -1184.2301486543      2.38e-02  
    2   -1179.5341386361      1.59e-03  
    3   -1179.6540161559      5.98e-04  
    4   -1179.6672156168      3.32e-04  
    5   -1179.6718264274      6.70e-05  
    6   -1179.6721120996      3.07e-05  
    7   -1179.6722012820      1.30e-05  
    8   -1179.6722302808      5.27e-06  
    9   -1179.6722354109      1.74e-06  
   10   -1179.6722358686      5.35e-07  Convergence criterion met
 ---------------------------------------
 SCF time:   CPU 491.34s  wall 493.00s 

************** Final PCM Free Energy Summary **************
 G_electrostatic  =      -0.00755265 hartree =      -4.73936029 kcal/mol
 G_cavitation     =       0.00000000 hartree =       0.00000000 kcal/mol
 G_dispersion     =       0.00000000 hartree =       0.00000000 kcal/mol
 G_repulsion      =       0.00000000 hartree =       0.00000000 kcal/mol
 --------------------------------------------------
 Non-electrostatic Free Energy =       0.00000000 hartree =       0.00000000 kcal/mol
 Total                         =      -0.00755265 hartree =      -4.73936029 kcal/mol
 --------------------------------------------------
 SCF Energy (H0 + V/2)                       =   -1179.67223587 
 Solute Internal Energy (H0)                 =   -1179.66468322 
 Total Free Energy (H0 + V/2 + non-elec)     =   -1179.67223587 hartree
                                             = -740255.50068331 kcal/mol
***********************************************************

 SCF   energy in the final basis set =    -1179.6722358686
 Total energy in the final basis set =    -1179.6722358686


 --------------------------------------------------------------
  Generalized many-body perturbation theory program
  by Joonho Lee, Fazle Rob, Xintian Feng, Evgeny Epifanovsky

 No regularization used 
 (reg. param. = 0.0000e+00)
  (P|Q)^-1/2 Time:  CPU 1.69 s  wall 1.70 s

 In RI-MP2 calculation: 
 # of frozen core orbitals: 20

 Components of the RIMP2 correlation energy:
        aaaa    correlation energy =        -0.2532782335 a.u.
        abab    correlation energy =        -1.4763348714 a.u.
        bbbb    correlation energy =        -0.2532782335 a.u.
        non-Brillouin singles      =        -0.0000000000 a.u.
        total same-spin energy     =        -0.5065564671 a.u.
        total opposite-spin energy =        -1.4763348714 a.u.

 Total  RIMP2   correlation energy =        -1.9828913384 a.u.
        RIMP2         total energy =     -1181.6551272071 a.u.

 RI-MP2 Energy Time:  CPU 67.48 s  wall 67.63 s
 
 --------------------------------------------------------------
 
                    Orbital Energies (a.u.)
 --------------------------------------------------------------
 
 Alpha MOs
 -- Occupied --
-91.9847 -91.9823 -11.2758 -11.2747 -11.2692 -11.2688 -11.2518 -11.2501
-11.2466 -11.2412 -11.2295 -11.2263  -8.9844  -8.9820  -6.6653  -6.6647
 -6.6641  -6.6629  -6.6624  -6.6618  -1.1802  -1.1490  -1.0415  -1.0208
 -0.9983  -0.9535  -0.9127  -0.8924  -0.7986  -0.7577  -0.7279  -0.6952
 -0.6603  -0.6165  -0.5817  -0.5788  -0.5741  -0.5696  -0.5512  -0.5321
 -0.5278  -0.5198  -0.5111  -0.4928  -0.4804  -0.4655  -0.4567  -0.3509
 -0.3410  -0.3310  -0.2866
 -- Virtual --
  0.0753   0.1168   0.1417   0.1540   0.1618   0.1718   0.1768   0.1849
  0.1921   0.1966   0.2018   0.2119   0.2309   0.2405   0.2430   0.2443
  0.2564   0.2662   0.2933   0.3044   0.3360   0.3461   0.3549   0.3618
  0.3684   0.3849   0.3981   0.4032   0.4114   0.4196   0.4297   0.4401
  0.4438   0.4548   0.4673   0.4698   0.4754   0.4876   0.4924   0.5065
  0.5156   0.5173   0.5276   0.5378   0.5418   0.5557   0.5575   0.5641
  0.5758   0.5785   0.5846   0.5941   0.6098   0.6114   0.6121   0.6200
  0.6286   0.6380   0.6399   0.6434   0.6497   0.6548   0.6619   0.6655
  0.6764   0.6825   0.6880   0.7101   0.7147   0.7263   0.7369   0.7567
  0.7611   0.7747   0.7869   0.8009   0.8136   0.8304   0.8341   0.8416
  0.8500   0.8592   0.8708   0.8799   0.9025   0.9116   0.9169   0.9447
  0.9491   0.9612   0.9898   1.0067   1.0099   1.0222   1.0279   1.0295
  1.0445   1.0511   1.0605   1.0680   1.0713   1.0812   1.0929   1.1038
  1.1053   1.1227   1.1311   1.1402   1.1629   1.1688   1.1713   1.1911
  1.2127   1.2171   1.2290   1.2324   1.2430   1.2545   1.2589   1.2647
  1.2821   1.2885   1.2977   1.3063   1.3258   1.3313   1.3493   1.3720
  1.3760   1.3819   1.4042   1.4149   1.4268   1.4399   1.4491   1.4671
  1.4850   1.4919   1.4963   1.5066   1.5150   1.5285   1.5362   1.5433
  1.5566   1.5606   1.5650   1.5774   1.5839   1.5877   1.6241   1.6313
  1.6560   1.6664   1.6706   1.6842   1.6952   1.7023   1.7028   1.7301
  1.7481   1.7547   1.7704   1.7826   1.8011   1.8259   1.8302   1.8465
  1.8795   1.8945   1.9147   1.9268   1.9421   1.9587   1.9822   1.9950
  1.9970   2.0408   2.0720   2.0974   2.1041   2.1285   2.1474   2.1635
  2.1846   2.1908   2.2013   2.2408   2.2504   2.2586   2.2639   2.2815
  2.2958   2.3320   2.3428   2.3533   2.3784   2.4132   2.4264   2.4626
  2.4690   2.4936   2.5060   2.5187   2.5443   2.5642   2.5796   2.6199
  2.6265   2.6492   2.6623   2.6663   2.6834   2.6871   2.7151   2.7266
  2.7410   2.7459   2.7549   2.7643   2.7739   2.7777   2.7900   2.8019
  2.8190   2.8302   2.8428   2.8701   2.8849   2.8974   2.9191   2.9314
  2.9552   2.9567   2.9749   2.9971   3.0015   3.0084   3.0182   3.0347
  3.0392   3.0914   3.1003   3.1052   3.1116   3.1179   3.1257   3.1417
  3.1454   3.1593   3.1637   3.1784   3.1922   3.2031   3.2051   3.2310
  3.2374   3.2485   3.2531   3.2690   3.2751   3.2872   3.3001   3.3108
  3.3151   3.3283   3.3356   3.3468   3.3538   3.3641   3.3705   3.3775
  3.3832   3.3945   3.4082   3.4121   3.4214   3.4300   3.4359   3.4480
  3.4574   3.4657   3.4675   3.4802   3.4971   3.5007   3.5116   3.5165
  3.5210   3.5345   3.5473   3.5482   3.5593   3.5635   3.5898   3.6058
  3.6127   3.6174   3.6250   3.6327   3.6353   3.6428   3.6563   3.6672
  3.6814   3.6889   3.6995   3.7067   3.7307   3.7329   3.7384   3.7525
  3.7666   3.7747   3.7884   3.7937   3.7989   3.8238   3.8254   3.8478
  3.8640   3.8752   3.8824   3.8883   3.9064   3.9332   3.9412   3.9573
  3.9660   3.9727   3.9891   4.0133   4.0157   4.0343   4.0437   4.0527
  4.0653   4.0697   4.0918   4.1006   4.1161   4.1191   4.1400   4.1505
  4.1589   4.1828   4.1931   4.1968   4.2024   4.2177   4.2210   4.2351
  4.2560   4.2663   4.2813   4.2918   4.3036   4.3082   4.3275   4.3325
  4.3412   4.3581   4.3669   4.3751   4.3999   4.4014   4.4149   4.4198
  4.4404   4.4533   4.4583   4.4797   4.4906   4.4943   4.5177   4.5571
  4.5873   4.6067   4.6213   4.6265   4.6338   4.6429   4.6600   4.6676
  4.6925   4.7150   4.7330   4.7517   4.7574   4.7787   4.8135   4.8464
  4.8797   4.8940   4.9037   4.9290   4.9478   4.9812   5.0152   5.0565
  5.0904   5.1008   5.1131   5.1423   5.1609   5.1951   5.1992   5.2184
  5.2693   5.2762   5.2912   5.3072   5.3256   5.3627   5.3961   5.4019
  5.4136   5.4451   5.4619   5.4933   5.5211   5.5291   5.5468   5.5632
  5.5735   5.6015   5.6221   5.6296   5.6371   5.6677   5.6958   5.7122
  5.7730   5.8235   5.9226   5.9679   6.0057   6.0989   6.1447   6.2250
  6.2332   6.2449   6.2802   6.2962   6.3297   6.4029   6.5211   8.7366
  9.7752  11.6214  12.0977  12.8967  13.1588  13.7644  13.9270  14.2137
 14.3352
 --------------------------------------------------------------
 
          Ground-State Mulliken Net Atomic Charges

     Atom                 Charge (a.u.)
  ----------------------------------------
      1 C                    -0.217329
      2 C                    -0.251881
      3 C                     0.054160
      4 H                     0.183889
      5 C                    -0.025331
      6 S                     0.018456
      7 C                    -0.288872
      8 H                     0.108392
      9 H                     0.114152
     10 H                     0.113620
     11 H                     0.203486
     12 C                    -0.046965
     13 C                    -0.217066
     14 C                     0.017361
     15 H                     0.187973
     16 C                    -0.225101
     17 S                     0.023657
     18 C                    -0.269594
     19 H                     0.103054
     20 H                     0.108129
     21 H                     0.107429
     22 H                     0.198379
  ----------------------------------------
  Sum of atomic charges =     0.000000

 -----------------------------------------------------------------
                    Cartesian Multipole Moments
 -----------------------------------------------------------------
    Charge (ESU x 10^10)
                -0.0000
    Dipole Moment (Debye)
         X       2.2515      Y       0.5648      Z       0.6712
       Tot       2.4163
    Quadrupole Moments (Debye-Ang)
        XX     -86.0356     XY       2.4826     YY     -71.6701
        XZ      -2.4345     YZ       2.0011     ZZ     -84.8327
    Octopole Moments (Debye-Ang^2)
       XXX     -93.0017    XXY      45.1925    XYY     -20.2776
       YYY     110.1177    XXZ      -1.5943    XYZ       9.1430
       YYZ      -1.0121    XZZ     -27.2126    YZZ      59.7650
       ZZZ       6.1772
    Hexadecapole Moments (Debye-Ang^3)
      XXXX    -728.5342   XXXY    -193.1888   XXYY    -545.5702
      XYYY    -124.4954   YYYY   -2465.9243   XXXZ      77.0281
      XXYZ     -28.2557   XYYZ     -22.4983   YYYZ    -112.9375
      XXZZ    -233.6251   XYZZ     -55.4232   YYZZ    -586.6522
      XZZZ      81.2157   YZZZ     -84.5094   ZZZZ    -668.5230
 -----------------------------------------------------------------
 Total job time:  563.44s(wall), 559.64s(cpu) 
 Sat Jul  9 13:06:37 2022

        *************************************************************
        *                                                           *
        *  Thank you very much for using Q-Chem.  Have a nice day.  *
        *                                                           *
        *************************************************************


remove work dirs ./qchem2426990.0 -- ./qchem2426990.-1
rm -rf ./qchem2426990
