You are running Q-Chem version: 5.4.0

#
# job setting
#
local host:  exp-2-32
current dir: /expanse/lustre/scratch/theleonzhang/temp_project/Interring_Bonds
input file:  Methylthiophene_Phi_30_Theta_100_Methylthiophene.qcin
output file: 
nprocs     : 0
nthreads   : 1
#
# qchem installation setting
#
QC:          /cm/shared/apps/spack/cpu/opt/spack/linux-centos8-zen2/gcc-10.2.0/qchem-5.4-akfmr7b3t57bfs6qan3padb2wnb2i7cl
QCAUX:       /cm/shared/apps/spack/cpu/opt/spack/linux-centos8-zen2/gcc-10.2.0/qchem-5.4-akfmr7b3t57bfs6qan3padb2wnb2i7cl/qcaux
QCPROG:      /cm/shared/apps/spack/cpu/opt/spack/linux-centos8-zen2/gcc-10.2.0/qchem-5.4-akfmr7b3t57bfs6qan3padb2wnb2i7cl/exe/qcprog.exe_s
QCPROG_S:    /cm/shared/apps/spack/cpu/opt/spack/linux-centos8-zen2/gcc-10.2.0/qchem-5.4-akfmr7b3t57bfs6qan3padb2wnb2i7cl/exe/qcprog.exe_s
PARALLEL:    -DSERIAL
QCMPI:       mpich
#
# qchem directory setting
#
qcrun:       qchem3664451
QCSCRATCH:   .
QCLOCALSCR:  
QCTMPDIR:    .
QCFILEPREF:  ./qchem3664451
QCSAVEDIR:   
workdirs:    ./qchem3664451
workdir0:    ./qchem3664451
partmpdirs =  
#
# parallel setting
#
QCRSH:           ssh
QCMPI:           mpich
QCMPIRUN:        /cm/shared/apps/spack/cpu/opt/spack/linux-centos8-zen2/gcc-10.2.0/qchem-5.4-akfmr7b3t57bfs6qan3padb2wnb2i7cl/bin/mpi/mpirun_qchem
QCMACHINEFILE:   ./qchem3664451/hostfile

#
# env setting
#
exported envs:   QC QCAUX QCSCRATCH QCRUNNAME QCFILEPREF QCPROG QCPROG_S GUIFILE

Running Job 1 of 1 Methylthiophene_Phi_30_Theta_100_Methylthiophene.qcin
qchem Methylthiophene_Phi_30_Theta_100_Methylthiophene.qcin_3664451.0 ./qchem3664451/ 0
/cm/shared/apps/spack/cpu/opt/spack/linux-centos8-zen2/gcc-10.2.0/qchem-5.4-akfmr7b3t57bfs6qan3padb2wnb2i7cl/exe/qcprog.exe_s Methylthiophene_Phi_30_Theta_100_Methylthiophene.qcin_3664451.0 ./qchem3664451/
                  Welcome to Q-Chem
     A Quantum Leap Into The Future Of Chemistry


 Q-Chem 5.4, Q-Chem, Inc., Pleasanton, CA (2021)

 License issued to: University of California, San Diego (site)

 E. Epifanovsky,  A. T. B. Gilbert,  Xintian Feng,  Joonho Lee,  Yuezhi Mao,  
 N. Mardirossian,  P. Pokhilko,  A. White,  M. Wormit,  M. P. Coons,  
 A. L. Dempwolff,  Zhengting Gan,  D. Hait,  P. R. Horn,  L. D. Jacobson,  
 I. Kaliman,  J. Kussmann,  A. W. Lange,  Ka Un Lao,  D. S. Levine,  Jie Liu,  
 S. C. McKenzie,  A. F. Morrison,  K. Nanda,  F. Plasser,  D. R. Rehn,  
 M. L. Vidal,  Zhi-Qiang You,  Ying Zhu,  B. Alam,  B. Albrecht,  
 A. Aldossary,  E. Alguire,  J. H. Andersen,  D. Barton,  K. Begam,  A. Behn,  
 Y. A. Bernard,  E. J. Berquist,  H. Burton,  A. Carreras,  K. Carter-Fenk,  
 R. Chakraborty,  A. D. Chien,  K. D. Closser,  V. Cofer-Shabica,  
 S. Dasgupta,  Jia Deng,  M. de Wergifosse,  M. Diedenhofen,  Hainam Do,  
 S. Ehlert,  Po-Tung Fang,  S. Fatehi,  Qingguo Feng,  J. Gayvert,  
 Qinghui Ge,  G. Gidofalvi,  M. Goldey,  J. Gomes,  C. Gonzalez-Espinoza,  
 S. Gulania,  A. Gunina,  M. W. D. Hanson-Heine,  P. H. P. Harbach,  
 A. W. Hauser,  M. F. Herbst,  M. Hernandez Vera,  M. Hodecker,  
 Z. C. Holden,  S. Houck,  Xunkun Huang,  Kerwin Hui,  B. C. Huynh,  
 M. Ivanov,  Hyunjun Ji,  Hanjie Jiang,  B. Kaduk,  S. Kaehler,  
 K. Khistyaev,  Jaehoon Kim,  P. Klunzinger,  Z. Koczor-Benda,  
 Joong Hoon Koh,  D. Kosenkov,  L. Koulias,  T. Kowalczyk,  C. M. Krauter,  
 K. Kue,  A. Kunitsa,  T. Kus,  A. Landau,  K. V. Lawler,  D. Lefrancois,  
 S. Lehtola,  Rain Li,  Yi-Pei Li,  Jiashu Liang,  M. Liebenthal,  
 Hung-Hsuan Lin,  You-Sheng Lin,  Fenglai Liu,  Kuan-Yu Liu,  
 M. Loipersberger,  A. Luenser,  A. Manjanath,  P. Manohar,  E. Mansoor,  
 S. F. Manzer,  Shan-Ping Mao,  A. V. Marenich,  T. Markovich,  S. Mason,  
 S. A. Maurer,  P. F. McLaughlin,  M. F. S. J. Menger,  J.-M. Mewes,  
 S. A. Mewes,  P. Morgante,  J. W. Mullinax,  T. S. Nguyen-Beck,  
 K. J. Oosterbaan,  G. Paran,  Alexander C. Paul,  Suranjan K. Paul,  
 F. Pavosevic,  Zheng Pei,  S. Prager,  E. I. Proynov,  E. Ramos,  B. Rana,  
 A. E. Rask,  A. Rettig,  R. M. Richard,  F. Rob,  E. Rossomme,  T. Scheele,  
 M. Scheurer,  M. Schneider,  N. Sergueev,  S. M. Sharada,  W. Skomorowski,  
 D. W. Small,  C. J. Stein,  Yu-Chuan Su,  E. J. Sundstrom,  Zhen Tao,  
 J. Thirman,  T. Tsuchimochi,  N. M. Tubman,  S. P. Veccham,  O. Vydrov,  
 J. Wenzel,  J. Witte,  A. Yamada,  Kun Yao,  S. Yeganeh,  S. R. Yost,  
 A. Zech,  Igor Ying Zhang,  Xing Zhang,  Yu Zhang,  D. Zuev,  
 A. Aspuru-Guzik,  A. T. Bell,  N. A. Besley,  K. B. Bravaya,  B. R. Brooks,  
 D. Casanova,  Jeng-Da Chai,  S. Coriani,  C. J. Cramer,  
 A. E. DePrince, III,  R. A. DiStasio Jr.,  A. Dreuw,  B. D. Dunietz,  
 T. R. Furlani,  W. A. Goddard III,  S. Grimme,  S. Hammes-Schiffer,  
 T. Head-Gordon,  W. J. Hehre,  Chao-Ping Hsu,  T.-C. Jagau,  Yousung Jung,  
 A. Klamt,  Jing Kong,  D. S. Lambrecht,  WanZhen Liang,  N. J. Mayhall,  
 C. W. McCurdy,  J. B. Neaton,  C. Ochsenfeld,  J. A. Parkhill,  R. Peverati,  
 V. A. Rassolov,  Yihan Shao,  L. V. Slipchenko,  T. Stauch,  R. P. Steele,  
 J. E. Subotnik,  A. J. W. Thom,  A. Tkatchenko,  D. G. Truhlar,  
 T. Van Voorhis,  T. A. Wesolowski,  K. B. Whaley,  H. L. Woodcock III,  
 P. M. Zimmerman,  S. Faraji,  P. M. W. Gill,  M. Head-Gordon,  
 J. M. Herbert,  A. I. Krylov

 Contributors to earlier versions of Q-Chem not listed above: 
 R. D. Adamson,  B. Austin,  R. Baer,  J. Baker,  G. J. O. Beran,  
 K. Brandhorst,  S. T. Brown,  E. F. C. Byrd,  A. K. Chakraborty,  
 G. K. L. Chan,  Chun-Min Chang,  Yunqing Chen,  C.-L. Cheng,  
 Siu Hung Chien,  D. M. Chipman,  D. L. Crittenden,  H. Dachsel,  
 R. J. Doerksen,  A. D. Dutoi,  R. G. Edgar,  J. Fosso-Tande,  
 L. Fusti-Molnar,  D. Ghosh,  A. Ghysels,  A. Golubeva-Zadorozhnaya,  
 J. Gonthier,  M. S. Gordon,  S. R. Gwaltney,  G. Hawkins,  J. E. Herr,  
 A. Heyden,  S. Hirata,  E. G. Hohenstein,  G. Kedziora,  F. J. Keil,  
 C. Kelley,  Jihan Kim,  R. A. King,  R. Z. Khaliullin,  P. P. Korambath,  
 W. Kurlancheek,  A. Laurent,  A. M. Lee,  M. S. Lee,  S. V. Levchenko,  
 Ching Yeh Lin,  D. Liotard,  E. Livshits,  R. C. Lochan,  I. Lotan,  
 L. A. Martinez-Martinez,  P. E. Maslen,  N. Nair,  D. P. O'Neill,  
 D. Neuhauser,  E. Neuscamman,  C. M. Oana,  R. Olivares-Amaya,  R. Olson,  
 T. M. Perrine,  B. Peters,  P. A. Pieniazek,  A. Prociuk,  Y. M. Rhee,  
 J. Ritchie,  M. A. Rohrdanz,  E. Rosta,  N. J. Russ,  H. F. Schaefer III,  
 M. W. Schmidt,  N. E. Schultz,  S. Sharma,  N. Shenvi,  C. D. Sherrill,  
 A. C. Simmonett,  A. Sodt,  T. Stein,  D. Stuck,  K. S. Thanthiriwatte,  
 V. Vanovschi,  L. Vogt,  Tao Wang,  A. Warshel,  M. A. Watson,  
 C. F. Williams,  Q. Wu,  X. Xu,  Jun Yang,  W. Zhang,  Yan Zhao

 Please cite Q-Chem as follows:
 Y. Shao et al., Mol. Phys. 113, 184-215 (2015)
 DOI: 10.1080/00268976.2014.952696

 Q-Chem 5.4.0 for Intel X86 EM64T Linux

 Parts of Q-Chem use Armadillo 9.800.1 (Horizon Scraper).
 http://arma.sourceforge.net/

 Q-Chem begins on Fri Jul  8 23:30:04 2022  

 Host: 
0

     Scratch files written to ./qchem3664451//
 May1621 |scratch|qcdevops|jenkins|workspace|build_RNUM    
 Processing $rem in /cm/shared/apps/spack/cpu/opt/spack/linux-centos8-zen2/gcc-10.2.0/qchem-5.4-akfmr7b3t57bfs6qan3padb2wnb2i7cl/config/preferences:
 Processing $rem in /home/theleonzhang/.qchemrc:
 Symmetry turned off for PCM/SM12/SMD calculation
 Core orbitals will be frozen

 Checking the input file for inconsistencies... 	...done.

--------------------------------------------------------------
User input:
--------------------------------------------------------------
$molecule
0 1
C	-0.763228	-3.866725	-0.135301
C	0.603311	-3.703963	0.106073
C	1.050423	-2.357056	0.185286
H	1.283188	-4.561092	0.225783
C	0.000000	-1.440664	0.000000
S	-1.521021	-2.286957	-0.268187
C	2.483507	-1.978743	0.438209
H	3.118798	-2.878678	0.550153
H	2.593381	-1.376015	1.363906
H	2.903516	-1.375728	-0.393798
H	-1.354194	-4.783437	-0.239740
C	0.000000	0.000000	0.000000
C	0.431829	0.747884	1.099446
C	1.123799	1.946373	0.776721
H	0.247423	0.428497	2.136088
C	1.234147	2.137457	-0.612546
S	0.471221	0.816130	-1.486809
C	1.667694	2.888380	1.814609
H	1.454874	2.519768	2.836676
H	1.222009	3.901210	1.726239
H	2.767675	3.008788	1.726228
H	1.708773	2.959493	-1.161575
$end

$rem
JOBTYPE		SP
EXCHANGE	HF
CORRELATION	pRIMP2
BASIS		cc-pvtz
METHOD		rimp2
AUX_BASIS	rimp2-cc-pvtz
SOLVENT_METHOD	PCM
PURECART	11111
SYMMETRY	false
MEM_TOTAL	110000
SCF_CONVERGENCE = 6
THRESH=10
$end



$solvent
dielectric 4.90
$end
--------------------------------------------------------------
 ----------------------------------------------------------------
             Standard Nuclear Orientation (Angstroms)
    I     Atom           X                Y                Z
 ----------------------------------------------------------------
    1      C      -0.7632280000    -3.8667250000    -0.1353010000
    2      C       0.6033110000    -3.7039630000     0.1060730000
    3      C       1.0504230000    -2.3570560000     0.1852860000
    4      H       1.2831880000    -4.5610920000     0.2257830000
    5      C       0.0000000000    -1.4406640000     0.0000000000
    6      S      -1.5210210000    -2.2869570000    -0.2681870000
    7      C       2.4835070000    -1.9787430000     0.4382090000
    8      H       3.1187980000    -2.8786780000     0.5501530000
    9      H       2.5933810000    -1.3760150000     1.3639060000
   10      H       2.9035160000    -1.3757280000    -0.3937980000
   11      H      -1.3541940000    -4.7834370000    -0.2397400000
   12      C       0.0000000000     0.0000000000     0.0000000000
   13      C       0.4318290000     0.7478840000     1.0994460000
   14      C       1.1237990000     1.9463730000     0.7767210000
   15      H       0.2474230000     0.4284970000     2.1360880000
   16      C       1.2341470000     2.1374570000    -0.6125460000
   17      S       0.4712210000     0.8161300000    -1.4868090000
   18      C       1.6676940000     2.8883800000     1.8146090000
   19      H       1.4548740000     2.5197680000     2.8366760000
   20      H       1.2220090000     3.9012100000     1.7262390000
   21      H       2.7676750000     3.0087880000     1.7262280000
   22      H       1.7087730000     2.9594930000    -1.1615750000
 ----------------------------------------------------------------
 Nuclear Repulsion Energy =         840.48867370 hartrees
 There are       51 alpha and       51 beta electrons

 Q-Chem warning in module forms1/BasisType.C, line 2236:

 You are not using the predefined 5D/6D in this basis set.

 Requested basis set is cc-pVTZ
 There are 184 shells and 508 basis functions

 Total QAlloc Memory Limit 110000 MB
 Mega-Array Size       188 MB
 MEM_STATIC part       192 MB
 Discretize the solute cavity surface with Lebedev spheres
	Using 110 Lebedev grid points for each H atom
	Using 194 Lebedev grid points for other atoms
	Atomic van der Waals radii will be scaled by 1.20
 Remove points where switching function is < 1.0e-08
 Keep 1552 surface tesserae and discard 1876 interior tesserae
 Molecular Surface Area = 235.171 Angst**2
 Requested basis set is rimp2-cc-pVTZ
 There are 394 shells and 1354 basis functions
 A cutoff of  1.0D-10 yielded  12612 shell pairs
 There are     93722 function pairs (    120958 Cartesian)
 Smallest overlap matrix eigenvalue = 6.34E-05

 Scale SEOQF with 1.000000e-01/1.000000e-01/1.000000e-01

 Standard Electronic Orientation quadrupole field applied
 Nucleus-field energy     =     0.0000000341 hartrees
 Guess from superposition of atomic densities
 Warning:  Energy on first SCF cycle will be non-variational
 SAD guess density has 102.000000 electrons

 -----------------------------------------------------------------------
  General SCF calculation program by
  Eric Jon Sundstrom, Paul Horn, Yuezhi Mao, Dmitri Zuev, Alec White,
  David Stuck, Shaama M.S., Shane Yost, Joonho Lee, David Small,
  Daniel Levine, Susi Lehtola, Hugh Burton, Evgeny Epifanovsky,
  Bang C. Huynh
 -----------------------------------------------------------------------
 Hartree-Fock
 A restricted SCF calculation will be
 performed using DIIS
 SCF converges when DIIS error is below 1.0e-06
 ---------------------------------------
  Cycle       Energy         DIIS error
 ---------------------------------------
    1   -1184.2221412345      2.38e-02  
    2   -1179.5318967564      1.58e-03  
    3   -1179.6511385394      5.90e-04  
    4   -1179.6641179959      3.29e-04  
    5   -1179.6686662218      6.71e-05  
    6   -1179.6689495675      3.06e-05  
    7   -1179.6690384587      1.35e-05  
    8   -1179.6690680463      5.45e-06  
    9   -1179.6690734024      1.86e-06  
   10   -1179.6690739240      6.05e-07  Convergence criterion met
 ---------------------------------------
 SCF time:   CPU 498.29s  wall 500.00s 

************** Final PCM Free Energy Summary **************
 G_electrostatic  =      -0.00802421 hartree =      -5.03526996 kcal/mol
 G_cavitation     =       0.00000000 hartree =       0.00000000 kcal/mol
 G_dispersion     =       0.00000000 hartree =       0.00000000 kcal/mol
 G_repulsion      =       0.00000000 hartree =       0.00000000 kcal/mol
 --------------------------------------------------
 Non-electrostatic Free Energy =       0.00000000 hartree =       0.00000000 kcal/mol
 Total                         =      -0.00802421 hartree =      -5.03526996 kcal/mol
 --------------------------------------------------
 SCF Energy (H0 + V/2)                       =   -1179.66907392 
 Solute Internal Energy (H0)                 =   -1179.66104971 
 Total Free Energy (H0 + V/2 + non-elec)     =   -1179.66907392 hartree
                                             = -740253.51653312 kcal/mol
***********************************************************

 SCF   energy in the final basis set =    -1179.6690739240
 Total energy in the final basis set =    -1179.6690739240


 --------------------------------------------------------------
  Generalized many-body perturbation theory program
  by Joonho Lee, Fazle Rob, Xintian Feng, Evgeny Epifanovsky

 No regularization used 
 (reg. param. = 0.0000e+00)
  (P|Q)^-1/2 Time:  CPU 1.67 s  wall 1.67 s

 In RI-MP2 calculation: 
 # of frozen core orbitals: 20

 Components of the RIMP2 correlation energy:
        aaaa    correlation energy =        -0.2532868369 a.u.
        abab    correlation energy =        -1.4768611878 a.u.
        bbbb    correlation energy =        -0.2532868369 a.u.
        non-Brillouin singles      =        -0.0000000000 a.u.
        total same-spin energy     =        -0.5065736738 a.u.
        total opposite-spin energy =        -1.4768611878 a.u.

 Total  RIMP2   correlation energy =        -1.9834348616 a.u.
        RIMP2         total energy =     -1181.6525087856 a.u.

 RI-MP2 Energy Time:  CPU 67.47 s  wall 67.60 s
 
 --------------------------------------------------------------
 
                    Orbital Energies (a.u.)
 --------------------------------------------------------------
 
 Alpha MOs
 -- Occupied --
-91.9848 -91.9806 -11.2725 -11.2713 -11.2709 -11.2695 -11.2517 -11.2514
-11.2478 -11.2406 -11.2298 -11.2282  -8.9844  -8.9804  -6.6653  -6.6647
 -6.6641  -6.6613  -6.6607  -6.6602  -1.1800  -1.1487  -1.0411  -1.0211
 -0.9973  -0.9540  -0.9128  -0.8917  -0.7984  -0.7519  -0.7336  -0.6957
 -0.6601  -0.6167  -0.5822  -0.5800  -0.5720  -0.5683  -0.5510  -0.5320
 -0.5282  -0.5213  -0.5107  -0.4906  -0.4792  -0.4645  -0.4588  -0.3448
 -0.3398  -0.3198  -0.3021
 -- Virtual --
  0.0823   0.1020   0.1361   0.1530   0.1636   0.1749   0.1810   0.1858
  0.1883   0.1947   0.1977   0.2157   0.2327   0.2361   0.2443   0.2470
  0.2541   0.2618   0.2887   0.2978   0.3327   0.3503   0.3544   0.3691
  0.3760   0.3846   0.3935   0.4023   0.4044   0.4153   0.4166   0.4353
  0.4428   0.4508   0.4597   0.4644   0.4769   0.4833   0.4978   0.5015
  0.5056   0.5185   0.5289   0.5342   0.5396   0.5547   0.5603   0.5704
  0.5820   0.5848   0.5876   0.5967   0.6014   0.6061   0.6177   0.6187
  0.6249   0.6301   0.6375   0.6439   0.6492   0.6600   0.6621   0.6640
  0.6686   0.6730   0.6917   0.7100   0.7188   0.7401   0.7454   0.7541
  0.7651   0.7752   0.7865   0.8000   0.8053   0.8182   0.8296   0.8426
  0.8468   0.8564   0.8796   0.8911   0.9017   0.9192   0.9346   0.9357
  0.9462   0.9799   0.9885   0.9940   1.0066   1.0089   1.0247   1.0419
  1.0503   1.0538   1.0602   1.0680   1.0700   1.0865   1.0881   1.0913
  1.1053   1.1170   1.1202   1.1383   1.1534   1.1833   1.1878   1.1971
  1.2024   1.2166   1.2200   1.2368   1.2513   1.2586   1.2676   1.2694
  1.2806   1.2954   1.3031   1.3102   1.3156   1.3380   1.3476   1.3651
  1.3821   1.3893   1.4058   1.4170   1.4269   1.4301   1.4514   1.4634
  1.4791   1.4858   1.5009   1.5051   1.5277   1.5353   1.5388   1.5456
  1.5503   1.5606   1.5769   1.5817   1.5897   1.6008   1.6093   1.6239
  1.6467   1.6576   1.6757   1.6789   1.6932   1.7048   1.7143   1.7271
  1.7464   1.7488   1.7725   1.7873   1.8004   1.8219   1.8295   1.8725
  1.8823   1.8937   1.9004   1.9264   1.9369   1.9566   1.9598   1.9945
  2.0167   2.0446   2.0697   2.1061   2.1197   2.1340   2.1449   2.1682
  2.1848   2.1925   2.1933   2.2205   2.2365   2.2531   2.2670   2.2780
  2.2931   2.3198   2.3374   2.3473   2.3950   2.4091   2.4282   2.4520
  2.4771   2.4972   2.5126   2.5240   2.5437   2.5616   2.6061   2.6092
  2.6277   2.6453   2.6561   2.6590   2.6653   2.6833   2.6974   2.7335
  2.7363   2.7412   2.7539   2.7654   2.7687   2.7840   2.7910   2.8083
  2.8384   2.8439   2.8463   2.8671   2.8824   2.9033   2.9121   2.9370
  2.9413   2.9659   2.9767   2.9896   2.9971   3.0019   3.0203   3.0339
  3.0432   3.0591   3.0963   3.1076   3.1129   3.1172   3.1377   3.1384
  3.1490   3.1529   3.1579   3.1742   3.1891   3.1966   3.2244   3.2335
  3.2451   3.2520   3.2648   3.2694   3.2781   3.2965   3.3050   3.3123
  3.3196   3.3332   3.3386   3.3497   3.3573   3.3652   3.3723   3.3839
  3.3860   3.3922   3.4017   3.4101   3.4193   3.4277   3.4365   3.4436
  3.4473   3.4666   3.4771   3.4835   3.5044   3.5145   3.5183   3.5275
  3.5330   3.5388   3.5455   3.5565   3.5601   3.5789   3.5904   3.5977
  3.6086   3.6170   3.6262   3.6380   3.6411   3.6490   3.6515   3.6689
  3.6831   3.6933   3.7012   3.7136   3.7224   3.7351   3.7479   3.7544
  3.7576   3.7711   3.7795   3.7881   3.7988   3.8187   3.8209   3.8446
  3.8606   3.8813   3.8874   3.8967   3.8984   3.9250   3.9507   3.9620
  3.9730   3.9791   3.9939   4.0178   4.0187   4.0332   4.0456   4.0520
  4.0608   4.0839   4.0894   4.1093   4.1116   4.1236   4.1409   4.1446
  4.1751   4.1867   4.1935   4.1975   4.2114   4.2181   4.2243   4.2430
  4.2578   4.2688   4.2715   4.2884   4.2941   4.3131   4.3242   4.3372
  4.3454   4.3586   4.3709   4.3904   4.3963   4.4008   4.4029   4.4236
  4.4353   4.4461   4.4689   4.4870   4.4935   4.5022   4.5243   4.5583
  4.5861   4.6053   4.6157   4.6251   4.6312   4.6403   4.6691   4.6721
  4.6793   4.7219   4.7352   4.7446   4.7653   4.7859   4.8266   4.8385
  4.8831   4.8903   4.9176   4.9252   4.9497   4.9806   5.0004   5.0596
  5.0914   5.1086   5.1141   5.1382   5.1506   5.1793   5.1996   5.2166
  5.2656   5.2800   5.2906   5.3020   5.3209   5.3677   5.3776   5.4008
  5.4057   5.4451   5.4670   5.4908   5.5155   5.5259   5.5458   5.5575
  5.5702   5.5799   5.6197   5.6250   5.6318   5.6984   5.7015   5.7268
  5.7735   5.8180   5.9183   5.9562   5.9927   6.0304   6.1142   6.2272
  6.2311   6.2408   6.2814   6.2900   6.3343   6.4173   6.5361   8.7850
  9.7309  11.6397  12.1726  12.8467  13.1552  13.7570  13.9358  14.2161
 14.3331
 --------------------------------------------------------------
 
          Ground-State Mulliken Net Atomic Charges

     Atom                 Charge (a.u.)
  ----------------------------------------
      1 C                    -0.214739
      2 C                    -0.252065
      3 C                     0.071881
      4 H                     0.183594
      5 C                    -0.033692
      6 S                     0.020236
      7 C                    -0.284748
      8 H                     0.110892
      9 H                     0.109280
     10 H                     0.113010
     11 H                     0.202939
     12 C                    -0.053948
     13 C                    -0.252705
     14 C                     0.043615
     15 H                     0.189066
     16 C                    -0.231823
     17 S                     0.030472
     18 C                    -0.269161
     19 H                     0.102979
     20 H                     0.108517
     21 H                     0.107211
     22 H                     0.199187
  ----------------------------------------
  Sum of atomic charges =     0.000000

 -----------------------------------------------------------------
                    Cartesian Multipole Moments
 -----------------------------------------------------------------
    Charge (ESU x 10^10)
                -0.0000
    Dipole Moment (Debye)
         X       2.6637      Y       0.5193      Z       1.7775
       Tot       3.2441
    Quadrupole Moments (Debye-Ang)
        XX     -83.7793     XY       2.6747     YY     -72.1029
        XZ       1.5431     YZ       0.4469     ZZ     -86.3516
    Octopole Moments (Debye-Ang^2)
       XXX    -107.2038    XXY      45.1303    XYY     -24.6880
       YYY     114.6691    XXZ      -1.7862    XYZ      -5.4230
       YYZ      -4.3048    XZZ     -33.0622    YZZ      67.4691
       ZZZ       3.0755
    Hexadecapole Moments (Debye-Ang^3)
      XXXX    -914.5595   XXXY    -216.8704   XXYY    -537.3513
      XYYY    -145.8196   YYYY   -2405.2912   XXXZ     -94.0814
      XXYZ     -32.3591   XYYZ     -22.1064   YYYZ     -87.1309
      XXZZ    -248.0600   XYZZ     -61.4648   YYZZ    -577.8579
      XZZZ     -98.5043   YZZZ     -84.5108   ZZZZ    -543.9198
 -----------------------------------------------------------------
 Total job time:  568.92s(wall), 566.56s(cpu) 
 Fri Jul  8 23:39:33 2022

        *************************************************************
        *                                                           *
        *  Thank you very much for using Q-Chem.  Have a nice day.  *
        *                                                           *
        *************************************************************


remove work dirs ./qchem3664451.0 -- ./qchem3664451.-1
rm -rf ./qchem3664451
