You are running Q-Chem version: 5.4.0

#
# job setting
#
local host:  exp-1-46
current dir: /expanse/lustre/scratch/theleonzhang/temp_project/Interring_Bonds
input file:  Methylthiophene_Phi_0_Theta_330_Methylthiophene.qcin
output file: 
nprocs     : 0
nthreads   : 1
#
# qchem installation setting
#
QC:          /cm/shared/apps/spack/cpu/opt/spack/linux-centos8-zen2/gcc-10.2.0/qchem-5.4-akfmr7b3t57bfs6qan3padb2wnb2i7cl
QCAUX:       /cm/shared/apps/spack/cpu/opt/spack/linux-centos8-zen2/gcc-10.2.0/qchem-5.4-akfmr7b3t57bfs6qan3padb2wnb2i7cl/qcaux
QCPROG:      /cm/shared/apps/spack/cpu/opt/spack/linux-centos8-zen2/gcc-10.2.0/qchem-5.4-akfmr7b3t57bfs6qan3padb2wnb2i7cl/exe/qcprog.exe_s
QCPROG_S:    /cm/shared/apps/spack/cpu/opt/spack/linux-centos8-zen2/gcc-10.2.0/qchem-5.4-akfmr7b3t57bfs6qan3padb2wnb2i7cl/exe/qcprog.exe_s
PARALLEL:    -DSERIAL
QCMPI:       mpich
#
# qchem directory setting
#
qcrun:       qchem3536299
QCSCRATCH:   .
QCLOCALSCR:  
QCTMPDIR:    .
QCFILEPREF:  ./qchem3536299
QCSAVEDIR:   
workdirs:    ./qchem3536299
workdir0:    ./qchem3536299
partmpdirs =  
#
# parallel setting
#
QCRSH:           ssh
QCMPI:           mpich
QCMPIRUN:        /cm/shared/apps/spack/cpu/opt/spack/linux-centos8-zen2/gcc-10.2.0/qchem-5.4-akfmr7b3t57bfs6qan3padb2wnb2i7cl/bin/mpi/mpirun_qchem
QCMACHINEFILE:   ./qchem3536299/hostfile

#
# env setting
#
exported envs:   QC QCAUX QCSCRATCH QCRUNNAME QCFILEPREF QCPROG QCPROG_S GUIFILE

Running Job 1 of 1 Methylthiophene_Phi_0_Theta_330_Methylthiophene.qcin
qchem Methylthiophene_Phi_0_Theta_330_Methylthiophene.qcin_3536299.0 ./qchem3536299/ 0
/cm/shared/apps/spack/cpu/opt/spack/linux-centos8-zen2/gcc-10.2.0/qchem-5.4-akfmr7b3t57bfs6qan3padb2wnb2i7cl/exe/qcprog.exe_s Methylthiophene_Phi_0_Theta_330_Methylthiophene.qcin_3536299.0 ./qchem3536299/
                  Welcome to Q-Chem
     A Quantum Leap Into The Future Of Chemistry


 Q-Chem 5.4, Q-Chem, Inc., Pleasanton, CA (2021)

 License issued to: University of California, San Diego (site)

 E. Epifanovsky,  A. T. B. Gilbert,  Xintian Feng,  Joonho Lee,  Yuezhi Mao,  
 N. Mardirossian,  P. Pokhilko,  A. White,  M. Wormit,  M. P. Coons,  
 A. L. Dempwolff,  Zhengting Gan,  D. Hait,  P. R. Horn,  L. D. Jacobson,  
 I. Kaliman,  J. Kussmann,  A. W. Lange,  Ka Un Lao,  D. S. Levine,  Jie Liu,  
 S. C. McKenzie,  A. F. Morrison,  K. Nanda,  F. Plasser,  D. R. Rehn,  
 M. L. Vidal,  Zhi-Qiang You,  Ying Zhu,  B. Alam,  B. Albrecht,  
 A. Aldossary,  E. Alguire,  J. H. Andersen,  D. Barton,  K. Begam,  A. Behn,  
 Y. A. Bernard,  E. J. Berquist,  H. Burton,  A. Carreras,  K. Carter-Fenk,  
 R. Chakraborty,  A. D. Chien,  K. D. Closser,  V. Cofer-Shabica,  
 S. Dasgupta,  Jia Deng,  M. de Wergifosse,  M. Diedenhofen,  Hainam Do,  
 S. Ehlert,  Po-Tung Fang,  S. Fatehi,  Qingguo Feng,  J. Gayvert,  
 Qinghui Ge,  G. Gidofalvi,  M. Goldey,  J. Gomes,  C. Gonzalez-Espinoza,  
 S. Gulania,  A. Gunina,  M. W. D. Hanson-Heine,  P. H. P. Harbach,  
 A. W. Hauser,  M. F. Herbst,  M. Hernandez Vera,  M. Hodecker,  
 Z. C. Holden,  S. Houck,  Xunkun Huang,  Kerwin Hui,  B. C. Huynh,  
 M. Ivanov,  Hyunjun Ji,  Hanjie Jiang,  B. Kaduk,  S. Kaehler,  
 K. Khistyaev,  Jaehoon Kim,  P. Klunzinger,  Z. Koczor-Benda,  
 Joong Hoon Koh,  D. Kosenkov,  L. Koulias,  T. Kowalczyk,  C. M. Krauter,  
 K. Kue,  A. Kunitsa,  T. Kus,  A. Landau,  K. V. Lawler,  D. Lefrancois,  
 S. Lehtola,  Rain Li,  Yi-Pei Li,  Jiashu Liang,  M. Liebenthal,  
 Hung-Hsuan Lin,  You-Sheng Lin,  Fenglai Liu,  Kuan-Yu Liu,  
 M. Loipersberger,  A. Luenser,  A. Manjanath,  P. Manohar,  E. Mansoor,  
 S. F. Manzer,  Shan-Ping Mao,  A. V. Marenich,  T. Markovich,  S. Mason,  
 S. A. Maurer,  P. F. McLaughlin,  M. F. S. J. Menger,  J.-M. Mewes,  
 S. A. Mewes,  P. Morgante,  J. W. Mullinax,  T. S. Nguyen-Beck,  
 K. J. Oosterbaan,  G. Paran,  Alexander C. Paul,  Suranjan K. Paul,  
 F. Pavosevic,  Zheng Pei,  S. Prager,  E. I. Proynov,  E. Ramos,  B. Rana,  
 A. E. Rask,  A. Rettig,  R. M. Richard,  F. Rob,  E. Rossomme,  T. Scheele,  
 M. Scheurer,  M. Schneider,  N. Sergueev,  S. M. Sharada,  W. Skomorowski,  
 D. W. Small,  C. J. Stein,  Yu-Chuan Su,  E. J. Sundstrom,  Zhen Tao,  
 J. Thirman,  T. Tsuchimochi,  N. M. Tubman,  S. P. Veccham,  O. Vydrov,  
 J. Wenzel,  J. Witte,  A. Yamada,  Kun Yao,  S. Yeganeh,  S. R. Yost,  
 A. Zech,  Igor Ying Zhang,  Xing Zhang,  Yu Zhang,  D. Zuev,  
 A. Aspuru-Guzik,  A. T. Bell,  N. A. Besley,  K. B. Bravaya,  B. R. Brooks,  
 D. Casanova,  Jeng-Da Chai,  S. Coriani,  C. J. Cramer,  
 A. E. DePrince, III,  R. A. DiStasio Jr.,  A. Dreuw,  B. D. Dunietz,  
 T. R. Furlani,  W. A. Goddard III,  S. Grimme,  S. Hammes-Schiffer,  
 T. Head-Gordon,  W. J. Hehre,  Chao-Ping Hsu,  T.-C. Jagau,  Yousung Jung,  
 A. Klamt,  Jing Kong,  D. S. Lambrecht,  WanZhen Liang,  N. J. Mayhall,  
 C. W. McCurdy,  J. B. Neaton,  C. Ochsenfeld,  J. A. Parkhill,  R. Peverati,  
 V. A. Rassolov,  Yihan Shao,  L. V. Slipchenko,  T. Stauch,  R. P. Steele,  
 J. E. Subotnik,  A. J. W. Thom,  A. Tkatchenko,  D. G. Truhlar,  
 T. Van Voorhis,  T. A. Wesolowski,  K. B. Whaley,  H. L. Woodcock III,  
 P. M. Zimmerman,  S. Faraji,  P. M. W. Gill,  M. Head-Gordon,  
 J. M. Herbert,  A. I. Krylov

 Contributors to earlier versions of Q-Chem not listed above: 
 R. D. Adamson,  B. Austin,  R. Baer,  J. Baker,  G. J. O. Beran,  
 K. Brandhorst,  S. T. Brown,  E. F. C. Byrd,  A. K. Chakraborty,  
 G. K. L. Chan,  Chun-Min Chang,  Yunqing Chen,  C.-L. Cheng,  
 Siu Hung Chien,  D. M. Chipman,  D. L. Crittenden,  H. Dachsel,  
 R. J. Doerksen,  A. D. Dutoi,  R. G. Edgar,  J. Fosso-Tande,  
 L. Fusti-Molnar,  D. Ghosh,  A. Ghysels,  A. Golubeva-Zadorozhnaya,  
 J. Gonthier,  M. S. Gordon,  S. R. Gwaltney,  G. Hawkins,  J. E. Herr,  
 A. Heyden,  S. Hirata,  E. G. Hohenstein,  G. Kedziora,  F. J. Keil,  
 C. Kelley,  Jihan Kim,  R. A. King,  R. Z. Khaliullin,  P. P. Korambath,  
 W. Kurlancheek,  A. Laurent,  A. M. Lee,  M. S. Lee,  S. V. Levchenko,  
 Ching Yeh Lin,  D. Liotard,  E. Livshits,  R. C. Lochan,  I. Lotan,  
 L. A. Martinez-Martinez,  P. E. Maslen,  N. Nair,  D. P. O'Neill,  
 D. Neuhauser,  E. Neuscamman,  C. M. Oana,  R. Olivares-Amaya,  R. Olson,  
 T. M. Perrine,  B. Peters,  P. A. Pieniazek,  A. Prociuk,  Y. M. Rhee,  
 J. Ritchie,  M. A. Rohrdanz,  E. Rosta,  N. J. Russ,  H. F. Schaefer III,  
 M. W. Schmidt,  N. E. Schultz,  S. Sharma,  N. Shenvi,  C. D. Sherrill,  
 A. C. Simmonett,  A. Sodt,  T. Stein,  D. Stuck,  K. S. Thanthiriwatte,  
 V. Vanovschi,  L. Vogt,  Tao Wang,  A. Warshel,  M. A. Watson,  
 C. F. Williams,  Q. Wu,  X. Xu,  Jun Yang,  W. Zhang,  Yan Zhao

 Please cite Q-Chem as follows:
 Y. Shao et al., Mol. Phys. 113, 184-215 (2015)
 DOI: 10.1080/00268976.2014.952696

 Q-Chem 5.4.0 for Intel X86 EM64T Linux

 Parts of Q-Chem use Armadillo 9.800.1 (Horizon Scraper).
 http://arma.sourceforge.net/

 Q-Chem begins on Sat Jul  9 09:45:20 2022  

 Host: 
0

     Scratch files written to ./qchem3536299//
 May1621 |scratch|qcdevops|jenkins|workspace|build_RNUM    
 Processing $rem in /cm/shared/apps/spack/cpu/opt/spack/linux-centos8-zen2/gcc-10.2.0/qchem-5.4-akfmr7b3t57bfs6qan3padb2wnb2i7cl/config/preferences:
 Processing $rem in /home/theleonzhang/.qchemrc:
 Symmetry turned off for PCM/SM12/SMD calculation
 Core orbitals will be frozen

 Checking the input file for inconsistencies... 	...done.

--------------------------------------------------------------
User input:
--------------------------------------------------------------
$molecule
0 1
C	0.386946	-3.866725	0.671636
C	-0.306544	-3.703963	-0.530345
C	-0.533261	-2.357056	-0.923770
H	-0.651857	-4.561092	-1.128109
C	0.000000	-1.440664	0.000000
S	0.772250	-2.286957	1.337557
C	-1.260680	-1.978743	-2.184153
H	-1.583283	-2.878678	-2.742769
H	-0.622180	-1.376015	-2.863347
H	-2.168011	-1.375728	-1.971094
H	0.686807	-4.783437	1.191474
C	0.000000	0.000000	0.000000
C	0.000033	0.863600	1.099446
C	0.000052	2.247508	0.776721
H	0.000026	0.494801	2.136088
C	0.000074	2.468165	-0.612546
S	0.000024	0.942399	-1.486809
C	0.000075	3.335257	1.814609
H	0.000074	2.909620	2.836676
H	-0.892314	3.989552	1.726239
H	0.892483	3.989525	1.726228
H	0.000094	3.417382	-1.161575
$end

$rem
JOBTYPE		SP
EXCHANGE	HF
CORRELATION	pRIMP2
BASIS		cc-pvtz
METHOD		rimp2
AUX_BASIS	rimp2-cc-pvtz
SOLVENT_METHOD	PCM
PURECART	11111
SYMMETRY	false
MEM_TOTAL	110000
SCF_CONVERGENCE = 6
THRESH=10
$end



$solvent
dielectric 4.90
$end
--------------------------------------------------------------
 ----------------------------------------------------------------
             Standard Nuclear Orientation (Angstroms)
    I     Atom           X                Y                Z
 ----------------------------------------------------------------
    1      C       0.3869460000    -3.8667250000     0.6716360000
    2      C      -0.3065440000    -3.7039630000    -0.5303450000
    3      C      -0.5332610000    -2.3570560000    -0.9237700000
    4      H      -0.6518570000    -4.5610920000    -1.1281090000
    5      C       0.0000000000    -1.4406640000     0.0000000000
    6      S       0.7722500000    -2.2869570000     1.3375570000
    7      C      -1.2606800000    -1.9787430000    -2.1841530000
    8      H      -1.5832830000    -2.8786780000    -2.7427690000
    9      H      -0.6221800000    -1.3760150000    -2.8633470000
   10      H      -2.1680110000    -1.3757280000    -1.9710940000
   11      H       0.6868070000    -4.7834370000     1.1914740000
   12      C       0.0000000000     0.0000000000     0.0000000000
   13      C       0.0000330000     0.8636000000     1.0994460000
   14      C       0.0000520000     2.2475080000     0.7767210000
   15      H       0.0000260000     0.4948010000     2.1360880000
   16      C       0.0000740000     2.4681650000    -0.6125460000
   17      S       0.0000240000     0.9423990000    -1.4868090000
   18      C       0.0000750000     3.3352570000     1.8146090000
   19      H       0.0000740000     2.9096200000     2.8366760000
   20      H      -0.8923140000     3.9895520000     1.7262390000
   21      H       0.8924830000     3.9895250000     1.7262280000
   22      H       0.0000940000     3.4173820000    -1.1615750000
 ----------------------------------------------------------------
 Nuclear Repulsion Energy =         836.19987289 hartrees
 There are       51 alpha and       51 beta electrons

 Q-Chem warning in module forms1/BasisType.C, line 2236:

 You are not using the predefined 5D/6D in this basis set.

 Requested basis set is cc-pVTZ
 There are 184 shells and 508 basis functions

 Total QAlloc Memory Limit 110000 MB
 Mega-Array Size       188 MB
 MEM_STATIC part       192 MB
 Discretize the solute cavity surface with Lebedev spheres
	Using 110 Lebedev grid points for each H atom
	Using 194 Lebedev grid points for other atoms
	Atomic van der Waals radii will be scaled by 1.20
 Remove points where switching function is < 1.0e-08
 Keep 1519 surface tesserae and discard 1909 interior tesserae
 Molecular Surface Area = 231.967 Angst**2
 Requested basis set is rimp2-cc-pVTZ
 There are 394 shells and 1354 basis functions
 A cutoff of  1.0D-10 yielded  12150 shell pairs
 There are     90192 function pairs (    116408 Cartesian)
 Smallest overlap matrix eigenvalue = 5.24E-05

 Scale SEOQF with 1.000000e-01/1.000000e-01/1.000000e-01

 Standard Electronic Orientation quadrupole field applied
 Nucleus-field energy     =     0.0000000240 hartrees
 Guess from superposition of atomic densities
 Warning:  Energy on first SCF cycle will be non-variational
 SAD guess density has 102.000000 electrons

 -----------------------------------------------------------------------
  General SCF calculation program by
  Eric Jon Sundstrom, Paul Horn, Yuezhi Mao, Dmitri Zuev, Alec White,
  David Stuck, Shaama M.S., Shane Yost, Joonho Lee, David Small,
  Daniel Levine, Susi Lehtola, Hugh Burton, Evgeny Epifanovsky,
  Bang C. Huynh
 -----------------------------------------------------------------------
 Hartree-Fock
 A restricted SCF calculation will be
 performed using DIIS
 SCF converges when DIIS error is below 1.0e-06
 ---------------------------------------
  Cycle       Energy         DIIS error
 ---------------------------------------
    1   -1184.2327152997      2.38e-02  
    2   -1179.5473652178      1.60e-03  
    3   -1179.6681069749      6.13e-04  
    4   -1179.6817199531      3.34e-04  
    5   -1179.6864093961      6.46e-05  
    6   -1179.6866861344      3.02e-05  
    7   -1179.6867721478      1.24e-05  
    8   -1179.6867997186      5.19e-06  
    9   -1179.6868045474      1.61e-06  
   10   -1179.6868049792      5.35e-07  Convergence criterion met
 ---------------------------------------
 SCF time:   CPU 481.66s  wall 484.00s 

************** Final PCM Free Energy Summary **************
 G_electrostatic  =      -0.00773363 hartree =      -4.85292626 kcal/mol
 G_cavitation     =       0.00000000 hartree =       0.00000000 kcal/mol
 G_dispersion     =       0.00000000 hartree =       0.00000000 kcal/mol
 G_repulsion      =       0.00000000 hartree =       0.00000000 kcal/mol
 --------------------------------------------------
 Non-electrostatic Free Energy =       0.00000000 hartree =       0.00000000 kcal/mol
 Total                         =      -0.00773363 hartree =      -4.85292626 kcal/mol
 --------------------------------------------------
 SCF Energy (H0 + V/2)                       =   -1179.68680498 
 Solute Internal Energy (H0)                 =   -1179.67907135 
 Total Free Energy (H0 + V/2 + non-elec)     =   -1179.68680498 hartree
                                             = -740264.64293821 kcal/mol
***********************************************************

 SCF   energy in the final basis set =    -1179.6868049792
 Total energy in the final basis set =    -1179.6868049792


 --------------------------------------------------------------
  Generalized many-body perturbation theory program
  by Joonho Lee, Fazle Rob, Xintian Feng, Evgeny Epifanovsky

 No regularization used 
 (reg. param. = 0.0000e+00)
  (P|Q)^-1/2 Time:  CPU 2.03 s  wall 2.04 s

 In RI-MP2 calculation: 
 # of frozen core orbitals: 20

 Components of the RIMP2 correlation energy:
        aaaa    correlation energy =        -0.2528356017 a.u.
        abab    correlation energy =        -1.4739218669 a.u.
        bbbb    correlation energy =        -0.2528356017 a.u.
        non-Brillouin singles      =        -0.0000000000 a.u.
        total same-spin energy     =        -0.5056712034 a.u.
        total opposite-spin energy =        -1.4739218669 a.u.

 Total  RIMP2   correlation energy =        -1.9795930703 a.u.
        RIMP2         total energy =     -1181.6663980495 a.u.

 RI-MP2 Energy Time:  CPU 96.39 s  wall 96.86 s
 
 --------------------------------------------------------------
 
                    Orbital Energies (a.u.)
 --------------------------------------------------------------
 
 Alpha MOs
 -- Occupied --
-91.9854 -91.9852 -11.2832 -11.2771 -11.2726 -11.2629 -11.2537 -11.2518
-11.2433 -11.2404 -11.2298 -11.2289  -8.9852  -8.9849  -6.6661  -6.6658
 -6.6656  -6.6652  -6.6649  -6.6646  -1.1807  -1.1500  -1.0416  -1.0249
 -0.9988  -0.9528  -0.9149  -0.8942  -0.8007  -0.7635  -0.7216  -0.6954
 -0.6632  -0.6160  -0.5839  -0.5790  -0.5774  -0.5697  -0.5527  -0.5340
 -0.5253  -0.5201  -0.5102  -0.4958  -0.4894  -0.4677  -0.4542  -0.3636
 -0.3428  -0.3402  -0.2733
 -- Virtual --
  0.0659   0.1327   0.1437   0.1524   0.1615   0.1744   0.1795   0.1886
  0.1913   0.1986   0.2041   0.2184   0.2337   0.2380   0.2438   0.2463
  0.2644   0.2713   0.3036   0.3153   0.3417   0.3515   0.3620   0.3765
  0.3836   0.3854   0.3986   0.4071   0.4095   0.4273   0.4311   0.4458
  0.4545   0.4641   0.4681   0.4755   0.4806   0.4921   0.5001   0.5064
  0.5086   0.5296   0.5323   0.5387   0.5406   0.5484   0.5525   0.5679
  0.5792   0.5836   0.5870   0.5996   0.6038   0.6132   0.6172   0.6228
  0.6261   0.6315   0.6384   0.6425   0.6479   0.6535   0.6588   0.6667
  0.6805   0.6953   0.6990   0.7088   0.7149   0.7315   0.7440   0.7500
  0.7802   0.7907   0.7992   0.8096   0.8148   0.8346   0.8472   0.8522
  0.8614   0.8670   0.8739   0.8885   0.9008   0.9156   0.9329   0.9404
  0.9613   0.9661   0.9722   0.9883   1.0149   1.0171   1.0201   1.0291
  1.0445   1.0619   1.0672   1.0696   1.0753   1.0903   1.0937   1.0992
  1.1083   1.1168   1.1405   1.1485   1.1512   1.1620   1.1724   1.1827
  1.2052   1.2185   1.2332   1.2393   1.2484   1.2532   1.2599   1.2683
  1.2813   1.2878   1.3064   1.3266   1.3366   1.3432   1.3524   1.3660
  1.3710   1.3884   1.4059   1.4185   1.4236   1.4285   1.4514   1.4646
  1.4806   1.4909   1.5027   1.5079   1.5146   1.5331   1.5386   1.5474
  1.5588   1.5592   1.5641   1.5761   1.5765   1.5925   1.6163   1.6214
  1.6572   1.6629   1.6669   1.6875   1.6973   1.7022   1.7142   1.7330
  1.7465   1.7776   1.7910   1.7953   1.8022   1.8194   1.8394   1.8515
  1.8808   1.9023   1.9107   1.9270   1.9330   1.9615   1.9796   1.9856
  2.0015   2.0377   2.0571   2.0637   2.1210   2.1425   2.1512   2.1765
  2.1885   2.2018   2.2132   2.2378   2.2529   2.2601   2.2801   2.2868
  2.3045   2.3129   2.3283   2.3704   2.4055   2.4142   2.4293   2.4539
  2.4692   2.4937   2.5077   2.5285   2.5447   2.5732   2.6028   2.6132
  2.6266   2.6475   2.6568   2.6772   2.6813   2.7015   2.7119   2.7184
  2.7350   2.7384   2.7450   2.7553   2.7667   2.7703   2.7786   2.8079
  2.8226   2.8281   2.8508   2.8543   2.8735   2.9002   2.9142   2.9338
  2.9452   2.9623   2.9723   2.9868   2.9985   3.0150   3.0197   3.0377
  3.0494   3.0697   3.0804   3.0961   3.1123   3.1207   3.1358   3.1434
  3.1466   3.1476   3.1528   3.1685   3.1967   3.2001   3.2114   3.2273
  3.2377   3.2432   3.2598   3.2703   3.2792   3.2840   3.3082   3.3143
  3.3175   3.3278   3.3294   3.3383   3.3543   3.3587   3.3687   3.3733
  3.3835   3.3911   3.4036   3.4084   3.4117   3.4275   3.4334   3.4460
  3.4506   3.4570   3.4689   3.4777   3.4850   3.4919   3.5147   3.5215
  3.5241   3.5329   3.5362   3.5409   3.5564   3.5618   3.5707   3.5873
  3.5923   3.6156   3.6220   3.6319   3.6379   3.6536   3.6591   3.6592
  3.6714   3.6915   3.6994   3.7127   3.7283   3.7381   3.7418   3.7548
  3.7622   3.7696   3.7887   3.7941   3.8000   3.8096   3.8162   3.8372
  3.8588   3.8850   3.8896   3.9124   3.9230   3.9333   3.9363   3.9504
  3.9673   3.9915   3.9968   4.0053   4.0141   4.0196   4.0251   4.0518
  4.0608   4.0754   4.0894   4.1028   4.1105   4.1441   4.1495   4.1535
  4.1560   4.1775   4.1925   4.1941   4.2008   4.2134   4.2150   4.2348
  4.2409   4.2613   4.2857   4.2869   4.2961   4.3143   4.3291   4.3327
  4.3532   4.3590   4.3697   4.3763   4.3907   4.4011   4.4119   4.4271
  4.4316   4.4549   4.4656   4.4763   4.4953   4.5290   4.5434   4.5648
  4.5973   4.6175   4.6197   4.6233   4.6330   4.6392   4.6607   4.6807
  4.7111   4.7265   4.7430   4.7477   4.7682   4.7847   4.8277   4.8463
  4.8645   4.8723   4.8918   4.9270   4.9485   4.9641   5.0252   5.0547
  5.0803   5.0988   5.1136   5.1547   5.1819   5.2005   5.2087   5.2587
  5.2777   5.2835   5.3073   5.3079   5.3248   5.3743   5.3948   5.4033
  5.4120   5.4384   5.4640   5.4740   5.5240   5.5378   5.5491   5.5620
  5.5712   5.5785   5.6163   5.6231   5.6292   5.6967   5.7083   5.7177
  5.7922   5.8391   5.9215   5.9977   6.0356   6.1263   6.1663   6.2264
  6.2367   6.2537   6.2908   6.3145   6.3351   6.4682   6.5265   8.8525
  9.9675  11.5104  12.0356  12.9570  13.2370  13.7431  14.0088  14.2135
 14.4320
 --------------------------------------------------------------
 
          Ground-State Mulliken Net Atomic Charges

     Atom                 Charge (a.u.)
  ----------------------------------------
      1 C                    -0.214016
      2 C                    -0.249753
      3 C                     0.034327
      4 H                     0.184781
      5 C                    -0.023827
      6 S                     0.016330
      7 C                    -0.308295
      8 H                     0.112539
      9 H                     0.112213
     10 H                     0.119494
     11 H                     0.205967
     12 C                     0.045528
     13 C                    -0.264453
     14 C                     0.026921
     15 H                     0.182418
     16 C                    -0.248163
     17 S                     0.021510
     18 C                    -0.271824
     19 H                     0.103006
     20 H                     0.108205
     21 H                     0.108619
     22 H                     0.198472
  ----------------------------------------
  Sum of atomic charges =     0.000000

 -----------------------------------------------------------------
                    Cartesian Multipole Moments
 -----------------------------------------------------------------
    Charge (ESU x 10^10)
                -0.0000
    Dipole Moment (Debye)
         X      -0.7768      Y       0.1195      Z       0.0662
       Tot       0.7888
    Quadrupole Moments (Debye-Ang)
        XX     -91.0901     XY       1.1003     YY     -68.6097
        XZ       2.9588     YZ       2.9364     ZZ     -81.5900
    Octopole Moments (Debye-Ang^2)
       XXX       2.6327    XXY      42.1920    XYY       2.7690
       YYY      92.7227    XXZ      -0.0441    XYZ     -10.8317
       YYZ       1.2565    XZZ      -0.1569    YZZ      40.7594
       ZZZ       6.4367
    Hexadecapole Moments (Debye-Ang^3)
      XXXX    -270.6063   XXXY       3.1290   XXYY    -567.4726
      XYYY     -16.8984   YYYY   -2579.4854   XXXZ    -122.1800
      XXYZ     -27.5502   XYYZ       4.3950   YYYZ    -138.0964
      XXZZ    -208.4392   XYZZ       3.4505   YYZZ    -604.2518
      XZZZ    -115.8367   YZZZ     -88.5114   ZZZZ    -943.6015
 -----------------------------------------------------------------
 Total job time:  582.90s(wall), 578.95s(cpu) 
 Sat Jul  9 09:55:03 2022

        *************************************************************
        *                                                           *
        *  Thank you very much for using Q-Chem.  Have a nice day.  *
        *                                                           *
        *************************************************************


remove work dirs ./qchem3536299.0 -- ./qchem3536299.-1
rm -rf ./qchem3536299
