You are running Q-Chem version: 5.4.0

#
# job setting
#
local host:  exp-2-32
current dir: /expanse/lustre/scratch/theleonzhang/temp_project/Interring_Bonds
input file:  Methylthiophene_Phi_30_Theta_0_Methylthiophene.qcin
output file: 
nprocs     : 0
nthreads   : 1
#
# qchem installation setting
#
QC:          /cm/shared/apps/spack/cpu/opt/spack/linux-centos8-zen2/gcc-10.2.0/qchem-5.4-akfmr7b3t57bfs6qan3padb2wnb2i7cl
QCAUX:       /cm/shared/apps/spack/cpu/opt/spack/linux-centos8-zen2/gcc-10.2.0/qchem-5.4-akfmr7b3t57bfs6qan3padb2wnb2i7cl/qcaux
QCPROG:      /cm/shared/apps/spack/cpu/opt/spack/linux-centos8-zen2/gcc-10.2.0/qchem-5.4-akfmr7b3t57bfs6qan3padb2wnb2i7cl/exe/qcprog.exe_s
QCPROG_S:    /cm/shared/apps/spack/cpu/opt/spack/linux-centos8-zen2/gcc-10.2.0/qchem-5.4-akfmr7b3t57bfs6qan3padb2wnb2i7cl/exe/qcprog.exe_s
PARALLEL:    -DSERIAL
QCMPI:       mpich
#
# qchem directory setting
#
qcrun:       qchem3624884
QCSCRATCH:   .
QCLOCALSCR:  
QCTMPDIR:    .
QCFILEPREF:  ./qchem3624884
QCSAVEDIR:   
workdirs:    ./qchem3624884
workdir0:    ./qchem3624884
partmpdirs =  
#
# parallel setting
#
QCRSH:           ssh
QCMPI:           mpich
QCMPIRUN:        /cm/shared/apps/spack/cpu/opt/spack/linux-centos8-zen2/gcc-10.2.0/qchem-5.4-akfmr7b3t57bfs6qan3padb2wnb2i7cl/bin/mpi/mpirun_qchem
QCMACHINEFILE:   ./qchem3624884/hostfile

#
# env setting
#
exported envs:   QC QCAUX QCSCRATCH QCRUNNAME QCFILEPREF QCPROG QCPROG_S GUIFILE

Running Job 1 of 1 Methylthiophene_Phi_30_Theta_0_Methylthiophene.qcin
qchem Methylthiophene_Phi_30_Theta_0_Methylthiophene.qcin_3624884.0 ./qchem3624884/ 0
/cm/shared/apps/spack/cpu/opt/spack/linux-centos8-zen2/gcc-10.2.0/qchem-5.4-akfmr7b3t57bfs6qan3padb2wnb2i7cl/exe/qcprog.exe_s Methylthiophene_Phi_30_Theta_0_Methylthiophene.qcin_3624884.0 ./qchem3624884/
                  Welcome to Q-Chem
     A Quantum Leap Into The Future Of Chemistry


 Q-Chem 5.4, Q-Chem, Inc., Pleasanton, CA (2021)

 License issued to: University of California, San Diego (site)

 E. Epifanovsky,  A. T. B. Gilbert,  Xintian Feng,  Joonho Lee,  Yuezhi Mao,  
 N. Mardirossian,  P. Pokhilko,  A. White,  M. Wormit,  M. P. Coons,  
 A. L. Dempwolff,  Zhengting Gan,  D. Hait,  P. R. Horn,  L. D. Jacobson,  
 I. Kaliman,  J. Kussmann,  A. W. Lange,  Ka Un Lao,  D. S. Levine,  Jie Liu,  
 S. C. McKenzie,  A. F. Morrison,  K. Nanda,  F. Plasser,  D. R. Rehn,  
 M. L. Vidal,  Zhi-Qiang You,  Ying Zhu,  B. Alam,  B. Albrecht,  
 A. Aldossary,  E. Alguire,  J. H. Andersen,  D. Barton,  K. Begam,  A. Behn,  
 Y. A. Bernard,  E. J. Berquist,  H. Burton,  A. Carreras,  K. Carter-Fenk,  
 R. Chakraborty,  A. D. Chien,  K. D. Closser,  V. Cofer-Shabica,  
 S. Dasgupta,  Jia Deng,  M. de Wergifosse,  M. Diedenhofen,  Hainam Do,  
 S. Ehlert,  Po-Tung Fang,  S. Fatehi,  Qingguo Feng,  J. Gayvert,  
 Qinghui Ge,  G. Gidofalvi,  M. Goldey,  J. Gomes,  C. Gonzalez-Espinoza,  
 S. Gulania,  A. Gunina,  M. W. D. Hanson-Heine,  P. H. P. Harbach,  
 A. W. Hauser,  M. F. Herbst,  M. Hernandez Vera,  M. Hodecker,  
 Z. C. Holden,  S. Houck,  Xunkun Huang,  Kerwin Hui,  B. C. Huynh,  
 M. Ivanov,  Hyunjun Ji,  Hanjie Jiang,  B. Kaduk,  S. Kaehler,  
 K. Khistyaev,  Jaehoon Kim,  P. Klunzinger,  Z. Koczor-Benda,  
 Joong Hoon Koh,  D. Kosenkov,  L. Koulias,  T. Kowalczyk,  C. M. Krauter,  
 K. Kue,  A. Kunitsa,  T. Kus,  A. Landau,  K. V. Lawler,  D. Lefrancois,  
 S. Lehtola,  Rain Li,  Yi-Pei Li,  Jiashu Liang,  M. Liebenthal,  
 Hung-Hsuan Lin,  You-Sheng Lin,  Fenglai Liu,  Kuan-Yu Liu,  
 M. Loipersberger,  A. Luenser,  A. Manjanath,  P. Manohar,  E. Mansoor,  
 S. F. Manzer,  Shan-Ping Mao,  A. V. Marenich,  T. Markovich,  S. Mason,  
 S. A. Maurer,  P. F. McLaughlin,  M. F. S. J. Menger,  J.-M. Mewes,  
 S. A. Mewes,  P. Morgante,  J. W. Mullinax,  T. S. Nguyen-Beck,  
 K. J. Oosterbaan,  G. Paran,  Alexander C. Paul,  Suranjan K. Paul,  
 F. Pavosevic,  Zheng Pei,  S. Prager,  E. I. Proynov,  E. Ramos,  B. Rana,  
 A. E. Rask,  A. Rettig,  R. M. Richard,  F. Rob,  E. Rossomme,  T. Scheele,  
 M. Scheurer,  M. Schneider,  N. Sergueev,  S. M. Sharada,  W. Skomorowski,  
 D. W. Small,  C. J. Stein,  Yu-Chuan Su,  E. J. Sundstrom,  Zhen Tao,  
 J. Thirman,  T. Tsuchimochi,  N. M. Tubman,  S. P. Veccham,  O. Vydrov,  
 J. Wenzel,  J. Witte,  A. Yamada,  Kun Yao,  S. Yeganeh,  S. R. Yost,  
 A. Zech,  Igor Ying Zhang,  Xing Zhang,  Yu Zhang,  D. Zuev,  
 A. Aspuru-Guzik,  A. T. Bell,  N. A. Besley,  K. B. Bravaya,  B. R. Brooks,  
 D. Casanova,  Jeng-Da Chai,  S. Coriani,  C. J. Cramer,  
 A. E. DePrince, III,  R. A. DiStasio Jr.,  A. Dreuw,  B. D. Dunietz,  
 T. R. Furlani,  W. A. Goddard III,  S. Grimme,  S. Hammes-Schiffer,  
 T. Head-Gordon,  W. J. Hehre,  Chao-Ping Hsu,  T.-C. Jagau,  Yousung Jung,  
 A. Klamt,  Jing Kong,  D. S. Lambrecht,  WanZhen Liang,  N. J. Mayhall,  
 C. W. McCurdy,  J. B. Neaton,  C. Ochsenfeld,  J. A. Parkhill,  R. Peverati,  
 V. A. Rassolov,  Yihan Shao,  L. V. Slipchenko,  T. Stauch,  R. P. Steele,  
 J. E. Subotnik,  A. J. W. Thom,  A. Tkatchenko,  D. G. Truhlar,  
 T. Van Voorhis,  T. A. Wesolowski,  K. B. Whaley,  H. L. Woodcock III,  
 P. M. Zimmerman,  S. Faraji,  P. M. W. Gill,  M. Head-Gordon,  
 J. M. Herbert,  A. I. Krylov

 Contributors to earlier versions of Q-Chem not listed above: 
 R. D. Adamson,  B. Austin,  R. Baer,  J. Baker,  G. J. O. Beran,  
 K. Brandhorst,  S. T. Brown,  E. F. C. Byrd,  A. K. Chakraborty,  
 G. K. L. Chan,  Chun-Min Chang,  Yunqing Chen,  C.-L. Cheng,  
 Siu Hung Chien,  D. M. Chipman,  D. L. Crittenden,  H. Dachsel,  
 R. J. Doerksen,  A. D. Dutoi,  R. G. Edgar,  J. Fosso-Tande,  
 L. Fusti-Molnar,  D. Ghosh,  A. Ghysels,  A. Golubeva-Zadorozhnaya,  
 J. Gonthier,  M. S. Gordon,  S. R. Gwaltney,  G. Hawkins,  J. E. Herr,  
 A. Heyden,  S. Hirata,  E. G. Hohenstein,  G. Kedziora,  F. J. Keil,  
 C. Kelley,  Jihan Kim,  R. A. King,  R. Z. Khaliullin,  P. P. Korambath,  
 W. Kurlancheek,  A. Laurent,  A. M. Lee,  M. S. Lee,  S. V. Levchenko,  
 Ching Yeh Lin,  D. Liotard,  E. Livshits,  R. C. Lochan,  I. Lotan,  
 L. A. Martinez-Martinez,  P. E. Maslen,  N. Nair,  D. P. O'Neill,  
 D. Neuhauser,  E. Neuscamman,  C. M. Oana,  R. Olivares-Amaya,  R. Olson,  
 T. M. Perrine,  B. Peters,  P. A. Pieniazek,  A. Prociuk,  Y. M. Rhee,  
 J. Ritchie,  M. A. Rohrdanz,  E. Rosta,  N. J. Russ,  H. F. Schaefer III,  
 M. W. Schmidt,  N. E. Schultz,  S. Sharma,  N. Shenvi,  C. D. Sherrill,  
 A. C. Simmonett,  A. Sodt,  T. Stein,  D. Stuck,  K. S. Thanthiriwatte,  
 V. Vanovschi,  L. Vogt,  Tao Wang,  A. Warshel,  M. A. Watson,  
 C. F. Williams,  Q. Wu,  X. Xu,  Jun Yang,  W. Zhang,  Yan Zhao

 Please cite Q-Chem as follows:
 Y. Shao et al., Mol. Phys. 113, 184-215 (2015)
 DOI: 10.1080/00268976.2014.952696

 Q-Chem 5.4.0 for Intel X86 EM64T Linux

 Parts of Q-Chem use Armadillo 9.800.1 (Horizon Scraper).
 http://arma.sourceforge.net/

 Q-Chem begins on Fri Jul  8 21:55:14 2022  

 Host: 
0

     Scratch files written to ./qchem3624884//
 May1621 |scratch|qcdevops|jenkins|workspace|build_RNUM    
 Processing $rem in /cm/shared/apps/spack/cpu/opt/spack/linux-centos8-zen2/gcc-10.2.0/qchem-5.4-akfmr7b3t57bfs6qan3padb2wnb2i7cl/config/preferences:
 Processing $rem in /home/theleonzhang/.qchemrc:
 Symmetry turned off for PCM/SM12/SMD calculation
 Core orbitals will be frozen

 Checking the input file for inconsistencies... 	...done.

--------------------------------------------------------------
User input:
--------------------------------------------------------------
$molecule
0 1
C	0.670748	-3.808105	0.775127
C	0.642889	-3.647744	-0.612565
C	0.409365	-2.321236	-1.066639
H	0.791563	-4.491881	-1.302900
C	0.250169	-1.418777	0.000000
S	0.397135	-2.252211	1.544483
C	0.343896	-1.948630	-2.521872
H	0.500095	-2.834906	-3.166949
H	1.118228	-1.200068	-2.790821
H	-0.639561	-1.509723	-2.791023
H	0.829705	-4.710930	1.375251
C	0.000000	0.000000	0.000000
C	0.295399	0.811508	1.099446
C	0.768742	2.111949	0.776721
H	0.169256	0.464952	2.136088
C	0.844232	2.319291	-0.612546
S	0.322342	0.885558	-1.486809
C	1.140796	3.134091	1.814609
H	0.995218	2.734123	2.836676
H	0.526006	4.054142	1.726239
H	2.203157	3.443680	1.726228
H	1.168902	3.211257	-1.161575
$end

$rem
JOBTYPE		SP
EXCHANGE	HF
CORRELATION	pRIMP2
BASIS		cc-pvtz
METHOD		rimp2
AUX_BASIS	rimp2-cc-pvtz
SOLVENT_METHOD	PCM
PURECART	11111
SYMMETRY	false
MEM_TOTAL	110000
SCF_CONVERGENCE = 6
THRESH=10
$end



$solvent
dielectric 4.90
$end
--------------------------------------------------------------
 ----------------------------------------------------------------
             Standard Nuclear Orientation (Angstroms)
    I     Atom           X                Y                Z
 ----------------------------------------------------------------
    1      C       0.6707480000    -3.8081050000     0.7751270000
    2      C       0.6428890000    -3.6477440000    -0.6125650000
    3      C       0.4093650000    -2.3212360000    -1.0666390000
    4      H       0.7915630000    -4.4918810000    -1.3029000000
    5      C       0.2501690000    -1.4187770000     0.0000000000
    6      S       0.3971350000    -2.2522110000     1.5444830000
    7      C       0.3438960000    -1.9486300000    -2.5218720000
    8      H       0.5000950000    -2.8349060000    -3.1669490000
    9      H       1.1182280000    -1.2000680000    -2.7908210000
   10      H      -0.6395610000    -1.5097230000    -2.7910230000
   11      H       0.8297050000    -4.7109300000     1.3752510000
   12      C       0.0000000000     0.0000000000     0.0000000000
   13      C       0.2953990000     0.8115080000     1.0994460000
   14      C       0.7687420000     2.1119490000     0.7767210000
   15      H       0.1692560000     0.4649520000     2.1360880000
   16      C       0.8442320000     2.3192910000    -0.6125460000
   17      S       0.3223420000     0.8855580000    -1.4868090000
   18      C       1.1407960000     3.1340910000     1.8146090000
   19      H       0.9952180000     2.7341230000     2.8366760000
   20      H       0.5260060000     4.0541420000     1.7262390000
   21      H       2.2031570000     3.4436800000     1.7262280000
   22      H       1.1689020000     3.2112570000    -1.1615750000
 ----------------------------------------------------------------
 Nuclear Repulsion Energy =         844.27530340 hartrees
 There are       51 alpha and       51 beta electrons

 Q-Chem warning in module forms1/BasisType.C, line 2236:

 You are not using the predefined 5D/6D in this basis set.

 Requested basis set is cc-pVTZ
 There are 184 shells and 508 basis functions

 Total QAlloc Memory Limit 110000 MB
 Mega-Array Size       188 MB
 MEM_STATIC part       192 MB
 Discretize the solute cavity surface with Lebedev spheres
	Using 110 Lebedev grid points for each H atom
	Using 194 Lebedev grid points for other atoms
	Atomic van der Waals radii will be scaled by 1.20
 Remove points where switching function is < 1.0e-08
 Keep 1511 surface tesserae and discard 1917 interior tesserae
 Molecular Surface Area = 226.983 Angst**2
 Requested basis set is rimp2-cc-pVTZ
 There are 394 shells and 1354 basis functions
 A cutoff of  1.0D-10 yielded  12349 shell pairs
 There are     91629 function pairs (    118240 Cartesian)
 Smallest overlap matrix eigenvalue = 6.21E-05

 Scale SEOQF with 1.000000e-01/1.000000e-01/1.000000e-01

 Standard Electronic Orientation quadrupole field applied
 Nucleus-field energy     =     0.0000000185 hartrees
 Guess from superposition of atomic densities
 Warning:  Energy on first SCF cycle will be non-variational
 SAD guess density has 102.000000 electrons

 -----------------------------------------------------------------------
  General SCF calculation program by
  Eric Jon Sundstrom, Paul Horn, Yuezhi Mao, Dmitri Zuev, Alec White,
  David Stuck, Shaama M.S., Shane Yost, Joonho Lee, David Small,
  Daniel Levine, Susi Lehtola, Hugh Burton, Evgeny Epifanovsky,
  Bang C. Huynh
 -----------------------------------------------------------------------
 Hartree-Fock
 A restricted SCF calculation will be
 performed using DIIS
 SCF converges when DIIS error is below 1.0e-06
 ---------------------------------------
  Cycle       Energy         DIIS error
 ---------------------------------------
    1   -1184.2867853719      2.39e-02  
    2   -1179.5262710571      1.60e-03  
    3   -1179.6477912683      6.02e-04  
    4   -1179.6612954790      3.26e-04  
    5   -1179.6658065782      6.36e-05  
    6   -1179.6660819595      3.03e-05  
    7   -1179.6661677704      1.26e-05  
    8   -1179.6661959749      5.13e-06  
    9   -1179.6662010794      1.79e-06  
   10   -1179.6662015726      5.63e-07  Convergence criterion met
 ---------------------------------------
 SCF time:   CPU 497.33s  wall 499.00s 

************** Final PCM Free Energy Summary **************
 G_electrostatic  =      -0.00783079 hartree =      -4.91389424 kcal/mol
 G_cavitation     =       0.00000000 hartree =       0.00000000 kcal/mol
 G_dispersion     =       0.00000000 hartree =       0.00000000 kcal/mol
 G_repulsion      =       0.00000000 hartree =       0.00000000 kcal/mol
 --------------------------------------------------
 Non-electrostatic Free Energy =       0.00000000 hartree =       0.00000000 kcal/mol
 Total                         =      -0.00783079 hartree =      -4.91389424 kcal/mol
 --------------------------------------------------
 SCF Energy (H0 + V/2)                       =   -1179.66620157 
 Solute Internal Energy (H0)                 =   -1179.65837078 
 Total Free Energy (H0 + V/2 + non-elec)     =   -1179.66620157 hartree
                                             = -740251.71410541 kcal/mol
***********************************************************

 SCF   energy in the final basis set =    -1179.6662015726
 Total energy in the final basis set =    -1179.6662015726


 --------------------------------------------------------------
  Generalized many-body perturbation theory program
  by Joonho Lee, Fazle Rob, Xintian Feng, Evgeny Epifanovsky

 No regularization used 
 (reg. param. = 0.0000e+00)
  (P|Q)^-1/2 Time:  CPU 1.68 s  wall 1.68 s

 In RI-MP2 calculation: 
 # of frozen core orbitals: 20

 Components of the RIMP2 correlation energy:
        aaaa    correlation energy =        -0.2541558553 a.u.
        abab    correlation energy =        -1.4777129620 a.u.
        bbbb    correlation energy =        -0.2541558553 a.u.
        non-Brillouin singles      =        -0.0000000000 a.u.
        total same-spin energy     =        -0.5083117106 a.u.
        total opposite-spin energy =        -1.4777129620 a.u.

 Total  RIMP2   correlation energy =        -1.9860246726 a.u.
        RIMP2         total energy =     -1181.6522262452 a.u.

 RI-MP2 Energy Time:  CPU 67.20 s  wall 67.49 s
 
 --------------------------------------------------------------
 
                    Orbital Energies (a.u.)
 --------------------------------------------------------------
 
 Alpha MOs
 -- Occupied --
-91.9844 -91.9816 -11.2791 -11.2782 -11.2686 -11.2681 -11.2531 -11.2488
-11.2453 -11.2419 -11.2295 -11.2280  -8.9845  -8.9817  -6.6653  -6.6647
 -6.6641  -6.6627  -6.6621  -6.6615  -1.1834  -1.1491  -1.0434  -1.0246
 -0.9991  -0.9516  -0.9140  -0.8953  -0.7985  -0.7657  -0.7207  -0.6952
 -0.6611  -0.6163  -0.5847  -0.5828  -0.5780  -0.5698  -0.5524  -0.5340
 -0.5229  -0.5215  -0.5123  -0.4959  -0.4840  -0.4658  -0.4482  -0.3711
 -0.3424  -0.3398  -0.2657
 -- Virtual --
  0.0597   0.1319   0.1432   0.1552   0.1632   0.1719   0.1826   0.1896
  0.1923   0.1970   0.2088   0.2123   0.2356   0.2397   0.2419   0.2494
  0.2680   0.2764   0.2938   0.3142   0.3415   0.3597   0.3691   0.3744
  0.3780   0.3871   0.4057   0.4101   0.4162   0.4220   0.4460   0.4496
  0.4539   0.4583   0.4676   0.4759   0.4828   0.4890   0.4958   0.5106
  0.5144   0.5224   0.5255   0.5354   0.5466   0.5570   0.5593   0.5716
  0.5772   0.5851   0.5963   0.5984   0.6046   0.6130   0.6202   0.6244
  0.6286   0.6353   0.6391   0.6456   0.6466   0.6549   0.6598   0.6729
  0.6758   0.6883   0.7020   0.7099   0.7198   0.7381   0.7458   0.7558
  0.7742   0.7861   0.7966   0.7998   0.8211   0.8362   0.8387   0.8479
  0.8573   0.8623   0.8697   0.8859   0.8941   0.9092   0.9356   0.9462
  0.9543   0.9639   0.9800   0.9955   1.0075   1.0133   1.0198   1.0347
  1.0409   1.0569   1.0615   1.0739   1.0822   1.0843   1.0972   1.0992
  1.1096   1.1322   1.1345   1.1424   1.1509   1.1602   1.1720   1.1950
  1.2051   1.2210   1.2295   1.2430   1.2507   1.2547   1.2710   1.2725
  1.2775   1.2898   1.2964   1.3114   1.3312   1.3377   1.3587   1.3708
  1.3833   1.3910   1.4050   1.4163   1.4217   1.4312   1.4393   1.4525
  1.4834   1.4897   1.4981   1.5087   1.5152   1.5306   1.5347   1.5464
  1.5514   1.5620   1.5657   1.5712   1.5812   1.5995   1.6116   1.6221
  1.6568   1.6585   1.6819   1.6877   1.7025   1.7085   1.7115   1.7368
  1.7490   1.7684   1.7776   1.7878   1.8021   1.8276   1.8402   1.8619
  1.8741   1.8969   1.9245   1.9286   1.9376   1.9621   1.9784   1.9859
  2.0370   2.0558   2.0838   2.0965   2.1238   2.1327   2.1396   2.1780
  2.1832   2.1925   2.2022   2.2320   2.2503   2.2650   2.2759   2.2859
  2.2987   2.3085   2.3443   2.3762   2.3932   2.4266   2.4354   2.4507
  2.4706   2.4923   2.5004   2.5407   2.5434   2.5632   2.5880   2.6089
  2.6164   2.6259   2.6518   2.6625   2.6867   2.6983   2.7174   2.7267
  2.7335   2.7425   2.7541   2.7577   2.7783   2.7889   2.8004   2.8071
  2.8199   2.8340   2.8532   2.8551   2.8644   2.9063   2.9149   2.9494
  2.9643   2.9783   2.9885   2.9933   3.0106   3.0217   3.0370   3.0437
  3.0632   3.0709   3.0822   3.1058   3.1124   3.1256   3.1362   3.1385
  3.1457   3.1577   3.1728   3.1763   3.1822   3.1924   3.2113   3.2228
  3.2336   3.2421   3.2613   3.2709   3.2837   3.2894   3.2955   3.3029
  3.3089   3.3245   3.3352   3.3495   3.3520   3.3678   3.3731   3.3800
  3.3904   3.3963   3.4029   3.4171   3.4182   3.4277   3.4337   3.4404
  3.4443   3.4689   3.4793   3.4827   3.4957   3.5095   3.5200   3.5252
  3.5309   3.5362   3.5414   3.5580   3.5700   3.5831   3.5839   3.5905
  3.6153   3.6169   3.6306   3.6377   3.6439   3.6550   3.6625   3.6697
  3.6805   3.6919   3.7121   3.7208   3.7264   3.7422   3.7438   3.7493
  3.7615   3.7732   3.7798   3.7997   3.8123   3.8153   3.8355   3.8415
  3.8563   3.8699   3.8924   3.8976   3.9114   3.9303   3.9378   3.9703
  3.9746   3.9839   3.9882   4.0095   4.0160   4.0216   4.0271   4.0437
  4.0591   4.0854   4.0893   4.0926   4.1120   4.1255   4.1297   4.1635
  4.1744   4.1816   4.1941   4.1975   4.2078   4.2170   4.2286   4.2376
  4.2564   4.2677   4.2832   4.2953   4.3019   4.3160   4.3305   4.3410
  4.3454   4.3616   4.3664   4.3891   4.3957   4.4023   4.4067   4.4360
  4.4538   4.4623   4.4713   4.4906   4.4932   4.5233   4.5326   4.5642
  4.5946   4.6153   4.6242   4.6312   4.6409   4.6549   4.6869   4.6929
  4.7084   4.7147   4.7317   4.7463   4.7855   4.7901   4.8183   4.8396
  4.8529   4.8737   4.8995   4.9257   4.9493   4.9668   4.9883   5.0567
  5.0858   5.0905   5.1121   5.1588   5.1645   5.1821   5.2005   5.2276
  5.2825   5.2836   5.2911   5.3122   5.3225   5.3660   5.3952   5.4055
  5.4144   5.4376   5.4616   5.4794   5.5272   5.5293   5.5453   5.5638
  5.5664   5.6044   5.6214   5.6263   5.6356   5.6828   5.7017   5.7177
  5.7893   5.8283   5.9286   5.9622   6.0417   6.0742   6.1417   6.2267
  6.2279   6.2445   6.2818   6.2999   6.3540   6.4048   6.5238   8.6676
  9.7602  11.5243  12.1823  12.8850  13.2116  13.7288  13.8980  14.2214
 14.4659
 --------------------------------------------------------------
 
          Ground-State Mulliken Net Atomic Charges

     Atom                 Charge (a.u.)
  ----------------------------------------
      1 C                    -0.218485
      2 C                    -0.250627
      3 C                     0.048159
      4 H                     0.184119
      5 C                    -0.027886
      6 S                    -0.002432
      7 C                    -0.317968
      8 H                     0.114956
      9 H                     0.115334
     10 H                     0.115471
     11 H                     0.205538
     12 C                     0.034646
     13 C                    -0.254707
     14 C                     0.038480
     15 H                     0.178444
     16 C                    -0.247451
     17 S                     0.033095
     18 C                    -0.268024
     19 H                     0.103023
     20 H                     0.108607
     21 H                     0.108274
     22 H                     0.199433
  ----------------------------------------
  Sum of atomic charges =     0.000000

 -----------------------------------------------------------------
                    Cartesian Multipole Moments
 -----------------------------------------------------------------
    Charge (ESU x 10^10)
                -0.0000
    Dipole Moment (Debye)
         X       1.0233      Y       0.6478      Z      -0.1635
       Tot       1.2221
    Quadrupole Moments (Debye-Ang)
        XX     -90.9779     XY       1.5530     YY     -71.2968
        XZ      -0.1836     YZ       3.2501     ZZ     -79.8522
    Octopole Moments (Debye-Ang^2)
       XXX    -135.6908    XXY      53.7892    XYY     -17.6536
       YYY     104.9554    XXZ       0.4874    XYZ      -1.1477
       YYZ       1.2323    XZZ     -37.6637    YZZ      37.9982
       ZZZ       6.2756
    Hexadecapole Moments (Debye-Ang^3)
      XXXX    -308.9807   XXXY      21.4272   XXYY    -539.7586
      XYYY     -33.3463   YYYY   -2481.0826   XXXZ     -33.0410
      XXYZ     -29.9468   XYYZ     -10.6059   YYYZ    -130.6502
      XXZZ    -237.0823   XYZZ      -1.3563   YYZZ    -581.0281
      XZZZ     -36.8666   YZZZ     -79.2124   ZZZZ   -1074.9973
 -----------------------------------------------------------------
 Total job time:  569.74s(wall), 565.34s(cpu) 
 Fri Jul  8 22:04:44 2022

        *************************************************************
        *                                                           *
        *  Thank you very much for using Q-Chem.  Have a nice day.  *
        *                                                           *
        *************************************************************


remove work dirs ./qchem3624884.0 -- ./qchem3624884.-1
rm -rf ./qchem3624884
