You are running Q-Chem version: 5.4.0

#
# job setting
#
local host:  exp-1-37
current dir: /expanse/lustre/scratch/theleonzhang/temp_project/Interring_Bonds
input file:  Methylthiophene_Phi_40_Theta_310_Methylthiophene.qcin
output file: 
nprocs     : 0
nthreads   : 1
#
# qchem installation setting
#
QC:          /cm/shared/apps/spack/cpu/opt/spack/linux-centos8-zen2/gcc-10.2.0/qchem-5.4-akfmr7b3t57bfs6qan3padb2wnb2i7cl
QCAUX:       /cm/shared/apps/spack/cpu/opt/spack/linux-centos8-zen2/gcc-10.2.0/qchem-5.4-akfmr7b3t57bfs6qan3padb2wnb2i7cl/qcaux
QCPROG:      /cm/shared/apps/spack/cpu/opt/spack/linux-centos8-zen2/gcc-10.2.0/qchem-5.4-akfmr7b3t57bfs6qan3padb2wnb2i7cl/exe/qcprog.exe_s
QCPROG_S:    /cm/shared/apps/spack/cpu/opt/spack/linux-centos8-zen2/gcc-10.2.0/qchem-5.4-akfmr7b3t57bfs6qan3padb2wnb2i7cl/exe/qcprog.exe_s
PARALLEL:    -DSERIAL
QCMPI:       mpich
#
# qchem directory setting
#
qcrun:       qchem1625486
QCSCRATCH:   .
QCLOCALSCR:  
QCTMPDIR:    .
QCFILEPREF:  ./qchem1625486
QCSAVEDIR:   
workdirs:    ./qchem1625486
workdir0:    ./qchem1625486
partmpdirs =  
#
# parallel setting
#
QCRSH:           ssh
QCMPI:           mpich
QCMPIRUN:        /cm/shared/apps/spack/cpu/opt/spack/linux-centos8-zen2/gcc-10.2.0/qchem-5.4-akfmr7b3t57bfs6qan3padb2wnb2i7cl/bin/mpi/mpirun_qchem
QCMACHINEFILE:   ./qchem1625486/hostfile

#
# env setting
#
exported envs:   QC QCAUX QCSCRATCH QCRUNNAME QCFILEPREF QCPROG QCPROG_S GUIFILE

Running Job 1 of 1 Methylthiophene_Phi_40_Theta_310_Methylthiophene.qcin
qchem Methylthiophene_Phi_40_Theta_310_Methylthiophene.qcin_1625486.0 ./qchem1625486/ 0
/cm/shared/apps/spack/cpu/opt/spack/linux-centos8-zen2/gcc-10.2.0/qchem-5.4-akfmr7b3t57bfs6qan3padb2wnb2i7cl/exe/qcprog.exe_s Methylthiophene_Phi_40_Theta_310_Methylthiophene.qcin_1625486.0 ./qchem1625486/
                  Welcome to Q-Chem
     A Quantum Leap Into The Future Of Chemistry


 Q-Chem 5.4, Q-Chem, Inc., Pleasanton, CA (2021)

 License issued to: University of California, San Diego (site)

 E. Epifanovsky,  A. T. B. Gilbert,  Xintian Feng,  Joonho Lee,  Yuezhi Mao,  
 N. Mardirossian,  P. Pokhilko,  A. White,  M. Wormit,  M. P. Coons,  
 A. L. Dempwolff,  Zhengting Gan,  D. Hait,  P. R. Horn,  L. D. Jacobson,  
 I. Kaliman,  J. Kussmann,  A. W. Lange,  Ka Un Lao,  D. S. Levine,  Jie Liu,  
 S. C. McKenzie,  A. F. Morrison,  K. Nanda,  F. Plasser,  D. R. Rehn,  
 M. L. Vidal,  Zhi-Qiang You,  Ying Zhu,  B. Alam,  B. Albrecht,  
 A. Aldossary,  E. Alguire,  J. H. Andersen,  D. Barton,  K. Begam,  A. Behn,  
 Y. A. Bernard,  E. J. Berquist,  H. Burton,  A. Carreras,  K. Carter-Fenk,  
 R. Chakraborty,  A. D. Chien,  K. D. Closser,  V. Cofer-Shabica,  
 S. Dasgupta,  Jia Deng,  M. de Wergifosse,  M. Diedenhofen,  Hainam Do,  
 S. Ehlert,  Po-Tung Fang,  S. Fatehi,  Qingguo Feng,  J. Gayvert,  
 Qinghui Ge,  G. Gidofalvi,  M. Goldey,  J. Gomes,  C. Gonzalez-Espinoza,  
 S. Gulania,  A. Gunina,  M. W. D. Hanson-Heine,  P. H. P. Harbach,  
 A. W. Hauser,  M. F. Herbst,  M. Hernandez Vera,  M. Hodecker,  
 Z. C. Holden,  S. Houck,  Xunkun Huang,  Kerwin Hui,  B. C. Huynh,  
 M. Ivanov,  Hyunjun Ji,  Hanjie Jiang,  B. Kaduk,  S. Kaehler,  
 K. Khistyaev,  Jaehoon Kim,  P. Klunzinger,  Z. Koczor-Benda,  
 Joong Hoon Koh,  D. Kosenkov,  L. Koulias,  T. Kowalczyk,  C. M. Krauter,  
 K. Kue,  A. Kunitsa,  T. Kus,  A. Landau,  K. V. Lawler,  D. Lefrancois,  
 S. Lehtola,  Rain Li,  Yi-Pei Li,  Jiashu Liang,  M. Liebenthal,  
 Hung-Hsuan Lin,  You-Sheng Lin,  Fenglai Liu,  Kuan-Yu Liu,  
 M. Loipersberger,  A. Luenser,  A. Manjanath,  P. Manohar,  E. Mansoor,  
 S. F. Manzer,  Shan-Ping Mao,  A. V. Marenich,  T. Markovich,  S. Mason,  
 S. A. Maurer,  P. F. McLaughlin,  M. F. S. J. Menger,  J.-M. Mewes,  
 S. A. Mewes,  P. Morgante,  J. W. Mullinax,  T. S. Nguyen-Beck,  
 K. J. Oosterbaan,  G. Paran,  Alexander C. Paul,  Suranjan K. Paul,  
 F. Pavosevic,  Zheng Pei,  S. Prager,  E. I. Proynov,  E. Ramos,  B. Rana,  
 A. E. Rask,  A. Rettig,  R. M. Richard,  F. Rob,  E. Rossomme,  T. Scheele,  
 M. Scheurer,  M. Schneider,  N. Sergueev,  S. M. Sharada,  W. Skomorowski,  
 D. W. Small,  C. J. Stein,  Yu-Chuan Su,  E. J. Sundstrom,  Zhen Tao,  
 J. Thirman,  T. Tsuchimochi,  N. M. Tubman,  S. P. Veccham,  O. Vydrov,  
 J. Wenzel,  J. Witte,  A. Yamada,  Kun Yao,  S. Yeganeh,  S. R. Yost,  
 A. Zech,  Igor Ying Zhang,  Xing Zhang,  Yu Zhang,  D. Zuev,  
 A. Aspuru-Guzik,  A. T. Bell,  N. A. Besley,  K. B. Bravaya,  B. R. Brooks,  
 D. Casanova,  Jeng-Da Chai,  S. Coriani,  C. J. Cramer,  
 A. E. DePrince, III,  R. A. DiStasio Jr.,  A. Dreuw,  B. D. Dunietz,  
 T. R. Furlani,  W. A. Goddard III,  S. Grimme,  S. Hammes-Schiffer,  
 T. Head-Gordon,  W. J. Hehre,  Chao-Ping Hsu,  T.-C. Jagau,  Yousung Jung,  
 A. Klamt,  Jing Kong,  D. S. Lambrecht,  WanZhen Liang,  N. J. Mayhall,  
 C. W. McCurdy,  J. B. Neaton,  C. Ochsenfeld,  J. A. Parkhill,  R. Peverati,  
 V. A. Rassolov,  Yihan Shao,  L. V. Slipchenko,  T. Stauch,  R. P. Steele,  
 J. E. Subotnik,  A. J. W. Thom,  A. Tkatchenko,  D. G. Truhlar,  
 T. Van Voorhis,  T. A. Wesolowski,  K. B. Whaley,  H. L. Woodcock III,  
 P. M. Zimmerman,  S. Faraji,  P. M. W. Gill,  M. Head-Gordon,  
 J. M. Herbert,  A. I. Krylov

 Contributors to earlier versions of Q-Chem not listed above: 
 R. D. Adamson,  B. Austin,  R. Baer,  J. Baker,  G. J. O. Beran,  
 K. Brandhorst,  S. T. Brown,  E. F. C. Byrd,  A. K. Chakraborty,  
 G. K. L. Chan,  Chun-Min Chang,  Yunqing Chen,  C.-L. Cheng,  
 Siu Hung Chien,  D. M. Chipman,  D. L. Crittenden,  H. Dachsel,  
 R. J. Doerksen,  A. D. Dutoi,  R. G. Edgar,  J. Fosso-Tande,  
 L. Fusti-Molnar,  D. Ghosh,  A. Ghysels,  A. Golubeva-Zadorozhnaya,  
 J. Gonthier,  M. S. Gordon,  S. R. Gwaltney,  G. Hawkins,  J. E. Herr,  
 A. Heyden,  S. Hirata,  E. G. Hohenstein,  G. Kedziora,  F. J. Keil,  
 C. Kelley,  Jihan Kim,  R. A. King,  R. Z. Khaliullin,  P. P. Korambath,  
 W. Kurlancheek,  A. Laurent,  A. M. Lee,  M. S. Lee,  S. V. Levchenko,  
 Ching Yeh Lin,  D. Liotard,  E. Livshits,  R. C. Lochan,  I. Lotan,  
 L. A. Martinez-Martinez,  P. E. Maslen,  N. Nair,  D. P. O'Neill,  
 D. Neuhauser,  E. Neuscamman,  C. M. Oana,  R. Olivares-Amaya,  R. Olson,  
 T. M. Perrine,  B. Peters,  P. A. Pieniazek,  A. Prociuk,  Y. M. Rhee,  
 J. Ritchie,  M. A. Rohrdanz,  E. Rosta,  N. J. Russ,  H. F. Schaefer III,  
 M. W. Schmidt,  N. E. Schultz,  S. Sharma,  N. Shenvi,  C. D. Sherrill,  
 A. C. Simmonett,  A. Sodt,  T. Stein,  D. Stuck,  K. S. Thanthiriwatte,  
 V. Vanovschi,  L. Vogt,  Tao Wang,  A. Warshel,  M. A. Watson,  
 C. F. Williams,  Q. Wu,  X. Xu,  Jun Yang,  W. Zhang,  Yan Zhao

 Please cite Q-Chem as follows:
 Y. Shao et al., Mol. Phys. 113, 184-215 (2015)
 DOI: 10.1080/00268976.2014.952696

 Q-Chem 5.4.0 for Intel X86 EM64T Linux

 Parts of Q-Chem use Armadillo 9.800.1 (Horizon Scraper).
 http://arma.sourceforge.net/

 Q-Chem begins on Sat Jul  9 09:35:08 2022  

 Host: 
0

     Scratch files written to ./qchem1625486//
 May1621 |scratch|qcdevops|jenkins|workspace|build_RNUM    
 Processing $rem in /cm/shared/apps/spack/cpu/opt/spack/linux-centos8-zen2/gcc-10.2.0/qchem-5.4-akfmr7b3t57bfs6qan3padb2wnb2i7cl/config/preferences:
 Processing $rem in /home/theleonzhang/.qchemrc:
 Symmetry turned off for PCM/SM12/SMD calculation
 Core orbitals will be frozen

 Checking the input file for inconsistencies... 	...done.

--------------------------------------------------------------
User input:
--------------------------------------------------------------
$molecule
0 1
C	0.593324	-3.866725	0.498788
C	-0.469446	-3.703963	-0.393517
C	-0.817050	-2.357056	-0.685674
H	-0.998381	-4.561092	-0.837128
C	-0.000000	-1.440664	-0.000000
S	1.183149	-2.286957	0.992768
C	-1.931676	-1.978743	-1.621254
H	-2.425882	-2.878678	-2.035845
H	-1.563980	-1.376015	-2.477868
H	-2.711417	-1.375728	-1.110719
H	1.052896	-4.783437	0.884718
C	0.000000	0.000000	0.000000
C	0.555137	0.661535	1.099446
C	1.444710	1.721658	0.776721
H	0.318072	0.379023	2.136088
C	1.586563	1.890676	-0.612546
S	0.605781	0.721904	-1.486809
C	2.143920	2.554907	1.814609
H	1.870325	2.228851	2.836676
H	1.880882	3.629742	1.726239
H	3.248098	2.482476	1.726228
H	2.196723	2.617806	-1.161575
$end

$rem
JOBTYPE		SP
EXCHANGE	HF
CORRELATION	pRIMP2
BASIS		cc-pvtz
METHOD		rimp2
AUX_BASIS	rimp2-cc-pvtz
SOLVENT_METHOD	PCM
PURECART	11111
SYMMETRY	false
MEM_TOTAL	110000
SCF_CONVERGENCE = 6
THRESH=10
$end



$solvent
dielectric 4.90
$end
--------------------------------------------------------------
 ----------------------------------------------------------------
             Standard Nuclear Orientation (Angstroms)
    I     Atom           X                Y                Z
 ----------------------------------------------------------------
    1      C       0.5933240000    -3.8667250000     0.4987880000
    2      C      -0.4694460000    -3.7039630000    -0.3935170000
    3      C      -0.8170500000    -2.3570560000    -0.6856740000
    4      H      -0.9983810000    -4.5610920000    -0.8371280000
    5      C       0.0000000000    -1.4406640000     0.0000000000
    6      S       1.1831490000    -2.2869570000     0.9927680000
    7      C      -1.9316760000    -1.9787430000    -1.6212540000
    8      H      -2.4258820000    -2.8786780000    -2.0358450000
    9      H      -1.5639800000    -1.3760150000    -2.4778680000
   10      H      -2.7114170000    -1.3757280000    -1.1107190000
   11      H       1.0528960000    -4.7834370000     0.8847180000
   12      C       0.0000000000     0.0000000000     0.0000000000
   13      C       0.5551370000     0.6615350000     1.0994460000
   14      C       1.4447100000     1.7216580000     0.7767210000
   15      H       0.3180720000     0.3790230000     2.1360880000
   16      C       1.5865630000     1.8906760000    -0.6125460000
   17      S       0.6057810000     0.7219040000    -1.4868090000
   18      C       2.1439200000     2.5549070000     1.8146090000
   19      H       1.8703250000     2.2288510000     2.8366760000
   20      H       1.8808820000     3.6297420000     1.7262390000
   21      H       3.2480980000     2.4824760000     1.7262280000
   22      H       2.1967230000     2.6178060000    -1.1615750000
 ----------------------------------------------------------------
 Nuclear Repulsion Energy =         846.21373480 hartrees
 There are       51 alpha and       51 beta electrons

 Q-Chem warning in module forms1/BasisType.C, line 2236:

 You are not using the predefined 5D/6D in this basis set.

 Requested basis set is cc-pVTZ
 There are 184 shells and 508 basis functions

 Total QAlloc Memory Limit 110000 MB
 Mega-Array Size       188 MB
 MEM_STATIC part       192 MB
 Discretize the solute cavity surface with Lebedev spheres
	Using 110 Lebedev grid points for each H atom
	Using 194 Lebedev grid points for other atoms
	Atomic van der Waals radii will be scaled by 1.20
 Remove points where switching function is < 1.0e-08
 Keep 1535 surface tesserae and discard 1893 interior tesserae
 Molecular Surface Area = 232.883 Angst**2
 Requested basis set is rimp2-cc-pVTZ
 There are 394 shells and 1354 basis functions
 A cutoff of  1.0D-10 yielded  12359 shell pairs
 There are     91915 function pairs (    118763 Cartesian)
 Smallest overlap matrix eigenvalue = 7.18E-05

 Scale SEOQF with 1.000000e-01/1.000000e-01/1.000000e-01

 Standard Electronic Orientation quadrupole field applied
 Nucleus-field energy     =     0.0000000266 hartrees
 Guess from superposition of atomic densities
 Warning:  Energy on first SCF cycle will be non-variational
 SAD guess density has 102.000000 electrons

 -----------------------------------------------------------------------
  General SCF calculation program by
  Eric Jon Sundstrom, Paul Horn, Yuezhi Mao, Dmitri Zuev, Alec White,
  David Stuck, Shaama M.S., Shane Yost, Joonho Lee, David Small,
  Daniel Levine, Susi Lehtola, Hugh Burton, Evgeny Epifanovsky,
  Bang C. Huynh
 -----------------------------------------------------------------------
 Hartree-Fock
 A restricted SCF calculation will be
 performed using DIIS
 SCF converges when DIIS error is below 1.0e-06
 ---------------------------------------
  Cycle       Energy         DIIS error
 ---------------------------------------
    1   -1184.2564694420      2.39e-02  
    2   -1179.5203899619      1.58e-03  
    3   -1179.6402591457      5.85e-04  
    4   -1179.6533216952      3.15e-04  
    5   -1179.6575306618      6.19e-05  
    6   -1179.6577973118      3.05e-05  
    7   -1179.6578833002      1.33e-05  
    8   -1179.6579135459      5.19e-06  
    9   -1179.6579189045      1.81e-06  
   10   -1179.6579194163      5.46e-07  Convergence criterion met
 ---------------------------------------
 SCF time:   CPU 489.82s  wall 492.00s 

************** Final PCM Free Energy Summary **************
 G_electrostatic  =      -0.00819567 hartree =      -5.14286349 kcal/mol
 G_cavitation     =       0.00000000 hartree =       0.00000000 kcal/mol
 G_dispersion     =       0.00000000 hartree =       0.00000000 kcal/mol
 G_repulsion      =       0.00000000 hartree =       0.00000000 kcal/mol
 --------------------------------------------------
 Non-electrostatic Free Energy =       0.00000000 hartree =       0.00000000 kcal/mol
 Total                         =      -0.00819567 hartree =      -5.14286349 kcal/mol
 --------------------------------------------------
 SCF Energy (H0 + V/2)                       =   -1179.65791942 
 Solute Internal Energy (H0)                 =   -1179.64972374 
 Total Free Energy (H0 + V/2 + non-elec)     =   -1179.65791942 hartree
                                             = -740246.51697390 kcal/mol
***********************************************************

 SCF   energy in the final basis set =    -1179.6579194163
 Total energy in the final basis set =    -1179.6579194163


 --------------------------------------------------------------
  Generalized many-body perturbation theory program
  by Joonho Lee, Fazle Rob, Xintian Feng, Evgeny Epifanovsky

 No regularization used 
 (reg. param. = 0.0000e+00)
  (P|Q)^-1/2 Time:  CPU 1.68 s  wall 1.69 s

 In RI-MP2 calculation: 
 # of frozen core orbitals: 20

 Components of the RIMP2 correlation energy:
        aaaa    correlation energy =        -0.2538881527 a.u.
        abab    correlation energy =        -1.4782209590 a.u.
        bbbb    correlation energy =        -0.2538881527 a.u.
        non-Brillouin singles      =        -0.0000000000 a.u.
        total same-spin energy     =        -0.5077763053 a.u.
        total opposite-spin energy =        -1.4782209590 a.u.

 Total  RIMP2   correlation energy =        -1.9859972644 a.u.
        RIMP2         total energy =     -1181.6439166807 a.u.

 RI-MP2 Energy Time:  CPU 67.80 s  wall 68.05 s
 
 --------------------------------------------------------------
 
                    Orbital Energies (a.u.)
 --------------------------------------------------------------
 
 Alpha MOs
 -- Occupied --
-91.9847 -91.9821 -11.2761 -11.2728 -11.2692 -11.2664 -11.2534 -11.2502
-11.2447 -11.2396 -11.2301 -11.2279  -8.9847  -8.9818  -6.6656  -6.6649
 -6.6644  -6.6627  -6.6621  -6.6615  -1.1836  -1.1481  -1.0428  -1.0212
 -1.0001  -0.9502  -0.9144  -0.8917  -0.7983  -0.7600  -0.7275  -0.6909
 -0.6597  -0.6181  -0.5838  -0.5801  -0.5734  -0.5695  -0.5507  -0.5344
 -0.5274  -0.5174  -0.5082  -0.4936  -0.4766  -0.4676  -0.4579  -0.3470
 -0.3432  -0.3392  -0.2792
 -- Virtual --
  0.0631   0.1135   0.1407   0.1503   0.1621   0.1726   0.1793   0.1859
  0.1899   0.1975   0.2076   0.2242   0.2269   0.2368   0.2410   0.2471
  0.2582   0.2761   0.2944   0.3135   0.3238   0.3457   0.3594   0.3597
  0.3774   0.3858   0.3874   0.4102   0.4173   0.4211   0.4225   0.4323
  0.4461   0.4565   0.4618   0.4743   0.4775   0.4849   0.4913   0.5009
  0.5147   0.5179   0.5280   0.5348   0.5397   0.5487   0.5622   0.5647
  0.5694   0.5784   0.5983   0.6044   0.6063   0.6106   0.6167   0.6243
  0.6281   0.6330   0.6383   0.6466   0.6471   0.6513   0.6556   0.6582
  0.6806   0.6871   0.6924   0.7098   0.7179   0.7375   0.7475   0.7550
  0.7717   0.7787   0.7842   0.8038   0.8122   0.8169   0.8349   0.8405
  0.8500   0.8662   0.8751   0.8881   0.8996   0.9086   0.9325   0.9430
  0.9546   0.9617   0.9848   1.0021   1.0041   1.0163   1.0283   1.0396
  1.0456   1.0549   1.0649   1.0672   1.0796   1.0875   1.0906   1.0934
  1.1064   1.1211   1.1281   1.1500   1.1545   1.1618   1.1837   1.1976
  1.2119   1.2195   1.2243   1.2313   1.2506   1.2564   1.2688   1.2765
  1.2813   1.2899   1.2985   1.3097   1.3281   1.3497   1.3625   1.3667
  1.3694   1.3902   1.4082   1.4142   1.4285   1.4384   1.4402   1.4697
  1.4797   1.4857   1.4919   1.5066   1.5103   1.5218   1.5375   1.5443
  1.5533   1.5596   1.5681   1.5746   1.5805   1.5997   1.6189   1.6362
  1.6454   1.6580   1.6699   1.6770   1.6888   1.7201   1.7231   1.7285
  1.7409   1.7590   1.7719   1.7882   1.8019   1.8145   1.8366   1.8433
  1.8705   1.8888   1.9114   1.9375   1.9467   1.9588   1.9784   1.9828
  2.0069   2.0462   2.0719   2.1006   2.1219   2.1311   2.1441   2.1723
  2.1755   2.1861   2.2037   2.2245   2.2337   2.2634   2.2733   2.2762
  2.2838   2.3031   2.3171   2.3625   2.4009   2.4046   2.4178   2.4469
  2.4789   2.4898   2.5153   2.5243   2.5345   2.5685   2.5739   2.6098
  2.6262   2.6309   2.6435   2.6683   2.6737   2.6953   2.7142   2.7301
  2.7315   2.7493   2.7561   2.7649   2.7785   2.7815   2.7984   2.8128
  2.8188   2.8345   2.8402   2.8667   2.8734   2.8979   2.9040   2.9409
  2.9515   2.9598   2.9765   2.9886   2.9911   3.0145   3.0293   3.0400
  3.0442   3.0807   3.0897   3.1081   3.1155   3.1173   3.1315   3.1376
  3.1457   3.1555   3.1712   3.1789   3.1890   3.1985   3.2118   3.2189
  3.2332   3.2533   3.2642   3.2681   3.2758   3.2819   3.3022   3.3056
  3.3139   3.3256   3.3333   3.3405   3.3465   3.3606   3.3743   3.3771
  3.3843   3.3889   3.3964   3.4102   3.4173   3.4304   3.4393   3.4481
  3.4526   3.4680   3.4745   3.4854   3.5013   3.5063   3.5152   3.5229
  3.5366   3.5441   3.5485   3.5535   3.5598   3.5648   3.5818   3.6049
  3.6137   3.6270   3.6328   3.6416   3.6454   3.6531   3.6670   3.6792
  3.6937   3.7004   3.7047   3.7170   3.7278   3.7466   3.7503   3.7566
  3.7638   3.7755   3.7850   3.7986   3.8029   3.8177   3.8216   3.8422
  3.8696   3.8746   3.8881   3.9048   3.9206   3.9273   3.9378   3.9537
  3.9726   3.9900   3.9970   4.0022   4.0199   4.0232   4.0391   4.0456
  4.0577   4.0766   4.0910   4.1006   4.1144   4.1245   4.1454   4.1526
  4.1729   4.1826   4.1849   4.1965   4.2073   4.2175   4.2245   4.2468
  4.2531   4.2696   4.2811   4.2909   4.3006   4.3022   4.3080   4.3334
  4.3490   4.3616   4.3629   4.3796   4.3958   4.4034   4.4149   4.4205
  4.4340   4.4419   4.4580   4.4695   4.4997   4.5092   4.5328   4.5469
  4.5892   4.6009   4.6222   4.6334   4.6387   4.6586   4.6601   4.6959
  4.7094   4.7136   4.7363   4.7545   4.7712   4.7889   4.7963   4.8415
  4.8743   4.8959   4.9061   4.9135   4.9365   4.9414   4.9781   5.0586
  5.0794   5.0966   5.1111   5.1570   5.1646   5.1696   5.1875   5.2158
  5.2708   5.2828   5.2940   5.3132   5.3150   5.3689   5.3950   5.3983
  5.4095   5.4521   5.4656   5.4671   5.5214   5.5309   5.5454   5.5593
  5.5664   5.5909   5.6234   5.6283   5.6360   5.6811   5.7047   5.7143
  5.7748   5.8164   5.8930   5.9856   6.0122   6.0474   6.1029   6.2185
  6.2287   6.2298   6.2686   6.2848   6.3307   6.4179   6.5094   8.8011
  9.7654  11.5723  12.2586  12.8379  13.0389  13.7770  13.8564  14.2118
 14.4213
 --------------------------------------------------------------
 
          Ground-State Mulliken Net Atomic Charges

     Atom                 Charge (a.u.)
  ----------------------------------------
      1 C                    -0.227313
      2 C                    -0.244077
      3 C                     0.024320
      4 H                     0.182450
      5 C                    -0.008985
      6 S                     0.019886
      7 C                    -0.292132
      8 H                     0.108963
      9 H                     0.108369
     10 H                     0.110541
     11 H                     0.203167
     12 C                    -0.020460
     13 C                    -0.288249
     14 C                     0.054457
     15 H                     0.195175
     16 C                    -0.220500
     17 S                     0.041221
     18 C                    -0.266405
     19 H                     0.103417
     20 H                     0.108280
     21 H                     0.108324
     22 H                     0.199550
  ----------------------------------------
  Sum of atomic charges =     0.000000

 -----------------------------------------------------------------
                    Cartesian Multipole Moments
 -----------------------------------------------------------------
    Charge (ESU x 10^10)
                -0.0000
    Dipole Moment (Debye)
         X       0.5071      Y       0.6747      Z       0.5595
       Tot       1.0126
    Quadrupole Moments (Debye-Ang)
        XX     -84.0763     XY       7.5736     YY     -74.3821
        XZ       3.6767     YZ       2.1553     ZZ     -83.7299
    Octopole Moments (Debye-Ang^2)
       XXX    -123.5409    XXY      66.7152    XYY     -25.9258
       YYY     132.5132    XXZ      -1.8847    XYZ     -13.4706
       YYZ      -0.0257    XZZ     -38.8070    YZZ      64.9094
       ZZZ       7.7482
    Hexadecapole Moments (Debye-Ang^3)
      XXXX    -855.6403   XXXY    -214.8199   XXYY    -531.0918
      XYYY    -233.5190   YYYY   -2282.5661   XXXZ    -200.2491
      XXYZ     -26.8488   XYYZ     -24.0505   YYYZ     -98.6654
      XXZZ    -264.1182   XYZZ     -64.4786   YYZZ    -552.9134
      XZZZ    -200.3752   YZZZ     -68.6295   ZZZZ    -760.6090
 -----------------------------------------------------------------
 Total job time:  562.58s(wall), 558.42s(cpu) 
 Sat Jul  9 09:44:31 2022

        *************************************************************
        *                                                           *
        *  Thank you very much for using Q-Chem.  Have a nice day.  *
        *                                                           *
        *************************************************************


remove work dirs ./qchem1625486.0 -- ./qchem1625486.-1
rm -rf ./qchem1625486
