You are running Q-Chem version: 5.4.0

#
# job setting
#
local host:  exp-1-39
current dir: /expanse/lustre/scratch/theleonzhang/temp_project/Interring_Bonds
input file:  Methylthiophene_Phi_15_Theta_100_Methylthiophene.qcin
output file: 
nprocs     : 0
nthreads   : 1
#
# qchem installation setting
#
QC:          /cm/shared/apps/spack/cpu/opt/spack/linux-centos8-zen2/gcc-10.2.0/qchem-5.4-akfmr7b3t57bfs6qan3padb2wnb2i7cl
QCAUX:       /cm/shared/apps/spack/cpu/opt/spack/linux-centos8-zen2/gcc-10.2.0/qchem-5.4-akfmr7b3t57bfs6qan3padb2wnb2i7cl/qcaux
QCPROG:      /cm/shared/apps/spack/cpu/opt/spack/linux-centos8-zen2/gcc-10.2.0/qchem-5.4-akfmr7b3t57bfs6qan3padb2wnb2i7cl/exe/qcprog.exe_s
QCPROG_S:    /cm/shared/apps/spack/cpu/opt/spack/linux-centos8-zen2/gcc-10.2.0/qchem-5.4-akfmr7b3t57bfs6qan3padb2wnb2i7cl/exe/qcprog.exe_s
PARALLEL:    -DSERIAL
QCMPI:       mpich
#
# qchem directory setting
#
qcrun:       qchem3269007
QCSCRATCH:   .
QCLOCALSCR:  
QCTMPDIR:    .
QCFILEPREF:  ./qchem3269007
QCSAVEDIR:   
workdirs:    ./qchem3269007
workdir0:    ./qchem3269007
partmpdirs =  
#
# parallel setting
#
QCRSH:           ssh
QCMPI:           mpich
QCMPIRUN:        /cm/shared/apps/spack/cpu/opt/spack/linux-centos8-zen2/gcc-10.2.0/qchem-5.4-akfmr7b3t57bfs6qan3padb2wnb2i7cl/bin/mpi/mpirun_qchem
QCMACHINEFILE:   ./qchem3269007/hostfile

#
# env setting
#
exported envs:   QC QCAUX QCSCRATCH QCRUNNAME QCFILEPREF QCPROG QCPROG_S GUIFILE

Running Job 1 of 1 Methylthiophene_Phi_15_Theta_100_Methylthiophene.qcin
qchem Methylthiophene_Phi_15_Theta_100_Methylthiophene.qcin_3269007.0 ./qchem3269007/ 0
/cm/shared/apps/spack/cpu/opt/spack/linux-centos8-zen2/gcc-10.2.0/qchem-5.4-akfmr7b3t57bfs6qan3padb2wnb2i7cl/exe/qcprog.exe_s Methylthiophene_Phi_15_Theta_100_Methylthiophene.qcin_3269007.0 ./qchem3269007/
                  Welcome to Q-Chem
     A Quantum Leap Into The Future Of Chemistry


 Q-Chem 5.4, Q-Chem, Inc., Pleasanton, CA (2021)

 License issued to: University of California, San Diego (site)

 E. Epifanovsky,  A. T. B. Gilbert,  Xintian Feng,  Joonho Lee,  Yuezhi Mao,  
 N. Mardirossian,  P. Pokhilko,  A. White,  M. Wormit,  M. P. Coons,  
 A. L. Dempwolff,  Zhengting Gan,  D. Hait,  P. R. Horn,  L. D. Jacobson,  
 I. Kaliman,  J. Kussmann,  A. W. Lange,  Ka Un Lao,  D. S. Levine,  Jie Liu,  
 S. C. McKenzie,  A. F. Morrison,  K. Nanda,  F. Plasser,  D. R. Rehn,  
 M. L. Vidal,  Zhi-Qiang You,  Ying Zhu,  B. Alam,  B. Albrecht,  
 A. Aldossary,  E. Alguire,  J. H. Andersen,  D. Barton,  K. Begam,  A. Behn,  
 Y. A. Bernard,  E. J. Berquist,  H. Burton,  A. Carreras,  K. Carter-Fenk,  
 R. Chakraborty,  A. D. Chien,  K. D. Closser,  V. Cofer-Shabica,  
 S. Dasgupta,  Jia Deng,  M. de Wergifosse,  M. Diedenhofen,  Hainam Do,  
 S. Ehlert,  Po-Tung Fang,  S. Fatehi,  Qingguo Feng,  J. Gayvert,  
 Qinghui Ge,  G. Gidofalvi,  M. Goldey,  J. Gomes,  C. Gonzalez-Espinoza,  
 S. Gulania,  A. Gunina,  M. W. D. Hanson-Heine,  P. H. P. Harbach,  
 A. W. Hauser,  M. F. Herbst,  M. Hernandez Vera,  M. Hodecker,  
 Z. C. Holden,  S. Houck,  Xunkun Huang,  Kerwin Hui,  B. C. Huynh,  
 M. Ivanov,  Hyunjun Ji,  Hanjie Jiang,  B. Kaduk,  S. Kaehler,  
 K. Khistyaev,  Jaehoon Kim,  P. Klunzinger,  Z. Koczor-Benda,  
 Joong Hoon Koh,  D. Kosenkov,  L. Koulias,  T. Kowalczyk,  C. M. Krauter,  
 K. Kue,  A. Kunitsa,  T. Kus,  A. Landau,  K. V. Lawler,  D. Lefrancois,  
 S. Lehtola,  Rain Li,  Yi-Pei Li,  Jiashu Liang,  M. Liebenthal,  
 Hung-Hsuan Lin,  You-Sheng Lin,  Fenglai Liu,  Kuan-Yu Liu,  
 M. Loipersberger,  A. Luenser,  A. Manjanath,  P. Manohar,  E. Mansoor,  
 S. F. Manzer,  Shan-Ping Mao,  A. V. Marenich,  T. Markovich,  S. Mason,  
 S. A. Maurer,  P. F. McLaughlin,  M. F. S. J. Menger,  J.-M. Mewes,  
 S. A. Mewes,  P. Morgante,  J. W. Mullinax,  T. S. Nguyen-Beck,  
 K. J. Oosterbaan,  G. Paran,  Alexander C. Paul,  Suranjan K. Paul,  
 F. Pavosevic,  Zheng Pei,  S. Prager,  E. I. Proynov,  E. Ramos,  B. Rana,  
 A. E. Rask,  A. Rettig,  R. M. Richard,  F. Rob,  E. Rossomme,  T. Scheele,  
 M. Scheurer,  M. Schneider,  N. Sergueev,  S. M. Sharada,  W. Skomorowski,  
 D. W. Small,  C. J. Stein,  Yu-Chuan Su,  E. J. Sundstrom,  Zhen Tao,  
 J. Thirman,  T. Tsuchimochi,  N. M. Tubman,  S. P. Veccham,  O. Vydrov,  
 J. Wenzel,  J. Witte,  A. Yamada,  Kun Yao,  S. Yeganeh,  S. R. Yost,  
 A. Zech,  Igor Ying Zhang,  Xing Zhang,  Yu Zhang,  D. Zuev,  
 A. Aspuru-Guzik,  A. T. Bell,  N. A. Besley,  K. B. Bravaya,  B. R. Brooks,  
 D. Casanova,  Jeng-Da Chai,  S. Coriani,  C. J. Cramer,  
 A. E. DePrince, III,  R. A. DiStasio Jr.,  A. Dreuw,  B. D. Dunietz,  
 T. R. Furlani,  W. A. Goddard III,  S. Grimme,  S. Hammes-Schiffer,  
 T. Head-Gordon,  W. J. Hehre,  Chao-Ping Hsu,  T.-C. Jagau,  Yousung Jung,  
 A. Klamt,  Jing Kong,  D. S. Lambrecht,  WanZhen Liang,  N. J. Mayhall,  
 C. W. McCurdy,  J. B. Neaton,  C. Ochsenfeld,  J. A. Parkhill,  R. Peverati,  
 V. A. Rassolov,  Yihan Shao,  L. V. Slipchenko,  T. Stauch,  R. P. Steele,  
 J. E. Subotnik,  A. J. W. Thom,  A. Tkatchenko,  D. G. Truhlar,  
 T. Van Voorhis,  T. A. Wesolowski,  K. B. Whaley,  H. L. Woodcock III,  
 P. M. Zimmerman,  S. Faraji,  P. M. W. Gill,  M. Head-Gordon,  
 J. M. Herbert,  A. I. Krylov

 Contributors to earlier versions of Q-Chem not listed above: 
 R. D. Adamson,  B. Austin,  R. Baer,  J. Baker,  G. J. O. Beran,  
 K. Brandhorst,  S. T. Brown,  E. F. C. Byrd,  A. K. Chakraborty,  
 G. K. L. Chan,  Chun-Min Chang,  Yunqing Chen,  C.-L. Cheng,  
 Siu Hung Chien,  D. M. Chipman,  D. L. Crittenden,  H. Dachsel,  
 R. J. Doerksen,  A. D. Dutoi,  R. G. Edgar,  J. Fosso-Tande,  
 L. Fusti-Molnar,  D. Ghosh,  A. Ghysels,  A. Golubeva-Zadorozhnaya,  
 J. Gonthier,  M. S. Gordon,  S. R. Gwaltney,  G. Hawkins,  J. E. Herr,  
 A. Heyden,  S. Hirata,  E. G. Hohenstein,  G. Kedziora,  F. J. Keil,  
 C. Kelley,  Jihan Kim,  R. A. King,  R. Z. Khaliullin,  P. P. Korambath,  
 W. Kurlancheek,  A. Laurent,  A. M. Lee,  M. S. Lee,  S. V. Levchenko,  
 Ching Yeh Lin,  D. Liotard,  E. Livshits,  R. C. Lochan,  I. Lotan,  
 L. A. Martinez-Martinez,  P. E. Maslen,  N. Nair,  D. P. O'Neill,  
 D. Neuhauser,  E. Neuscamman,  C. M. Oana,  R. Olivares-Amaya,  R. Olson,  
 T. M. Perrine,  B. Peters,  P. A. Pieniazek,  A. Prociuk,  Y. M. Rhee,  
 J. Ritchie,  M. A. Rohrdanz,  E. Rosta,  N. J. Russ,  H. F. Schaefer III,  
 M. W. Schmidt,  N. E. Schultz,  S. Sharma,  N. Shenvi,  C. D. Sherrill,  
 A. C. Simmonett,  A. Sodt,  T. Stein,  D. Stuck,  K. S. Thanthiriwatte,  
 V. Vanovschi,  L. Vogt,  Tao Wang,  A. Warshel,  M. A. Watson,  
 C. F. Williams,  Q. Wu,  X. Xu,  Jun Yang,  W. Zhang,  Yan Zhao

 Please cite Q-Chem as follows:
 Y. Shao et al., Mol. Phys. 113, 184-215 (2015)
 DOI: 10.1080/00268976.2014.952696

 Q-Chem 5.4.0 for Intel X86 EM64T Linux

 Parts of Q-Chem use Armadillo 9.800.1 (Horizon Scraper).
 http://arma.sourceforge.net/

 Q-Chem begins on Sat Jul  9 13:28:14 2022  

 Host: 
0

     Scratch files written to ./qchem3269007//
 May1621 |scratch|qcdevops|jenkins|workspace|build_RNUM    
 Processing $rem in /cm/shared/apps/spack/cpu/opt/spack/linux-centos8-zen2/gcc-10.2.0/qchem-5.4-akfmr7b3t57bfs6qan3padb2wnb2i7cl/config/preferences:
 Processing $rem in /home/theleonzhang/.qchemrc:
 Symmetry turned off for PCM/SM12/SMD calculation
 Core orbitals will be frozen

 Checking the input file for inconsistencies... 	...done.

--------------------------------------------------------------
User input:
--------------------------------------------------------------
$molecule
0 1
C	-0.763228	-3.866725	-0.135301
C	0.603311	-3.703963	0.106073
C	1.050423	-2.357056	0.185286
H	1.283188	-4.561092	0.225783
C	0.000000	-1.440664	0.000000
S	-1.521021	-2.286957	-0.268187
C	2.483507	-1.978743	0.438209
H	3.118798	-2.878678	0.550153
H	2.593381	-1.376015	1.363906
H	2.903516	-1.375728	-0.393798
H	-1.354194	-4.783437	-0.239740
C	0.000000	0.000000	0.000000
C	0.223548	0.834165	1.099446
C	0.581748	2.170912	0.776721
H	0.128089	0.477934	2.136088
C	0.638880	2.384045	-0.612546
S	0.243934	0.910282	-1.486809
C	0.863301	3.221592	1.814609
H	0.753137	2.810458	2.836676
H	0.170663	4.084559	1.726239
H	1.894637	3.622593	1.726228
H	0.884575	3.300913	-1.161575
$end

$rem
JOBTYPE		SP
EXCHANGE	HF
CORRELATION	pRIMP2
BASIS		cc-pvtz
METHOD		rimp2
AUX_BASIS	rimp2-cc-pvtz
SOLVENT_METHOD	PCM
PURECART	11111
SYMMETRY	false
MEM_TOTAL	110000
SCF_CONVERGENCE = 6
THRESH=10
$end



$solvent
dielectric 4.90
$end
--------------------------------------------------------------
 ----------------------------------------------------------------
             Standard Nuclear Orientation (Angstroms)
    I     Atom           X                Y                Z
 ----------------------------------------------------------------
    1      C      -0.7632280000    -3.8667250000    -0.1353010000
    2      C       0.6033110000    -3.7039630000     0.1060730000
    3      C       1.0504230000    -2.3570560000     0.1852860000
    4      H       1.2831880000    -4.5610920000     0.2257830000
    5      C       0.0000000000    -1.4406640000     0.0000000000
    6      S      -1.5210210000    -2.2869570000    -0.2681870000
    7      C       2.4835070000    -1.9787430000     0.4382090000
    8      H       3.1187980000    -2.8786780000     0.5501530000
    9      H       2.5933810000    -1.3760150000     1.3639060000
   10      H       2.9035160000    -1.3757280000    -0.3937980000
   11      H      -1.3541940000    -4.7834370000    -0.2397400000
   12      C       0.0000000000     0.0000000000     0.0000000000
   13      C       0.2235480000     0.8341650000     1.0994460000
   14      C       0.5817480000     2.1709120000     0.7767210000
   15      H       0.1280890000     0.4779340000     2.1360880000
   16      C       0.6388800000     2.3840450000    -0.6125460000
   17      S       0.2439340000     0.9102820000    -1.4868090000
   18      C       0.8633010000     3.2215920000     1.8146090000
   19      H       0.7531370000     2.8104580000     2.8366760000
   20      H       0.1706630000     4.0845590000     1.7262390000
   21      H       1.8946370000     3.6225930000     1.7262280000
   22      H       0.8845750000     3.3009130000    -1.1615750000
 ----------------------------------------------------------------
 Nuclear Repulsion Energy =         834.61955966 hartrees
 There are       51 alpha and       51 beta electrons

 Q-Chem warning in module forms1/BasisType.C, line 2236:

 You are not using the predefined 5D/6D in this basis set.

 Requested basis set is cc-pVTZ
 There are 184 shells and 508 basis functions

 Total QAlloc Memory Limit 110000 MB
 Mega-Array Size       188 MB
 MEM_STATIC part       192 MB
 Discretize the solute cavity surface with Lebedev spheres
	Using 110 Lebedev grid points for each H atom
	Using 194 Lebedev grid points for other atoms
	Atomic van der Waals radii will be scaled by 1.20
 Remove points where switching function is < 1.0e-08
 Keep 1564 surface tesserae and discard 1864 interior tesserae
 Molecular Surface Area = 236.980 Angst**2
 Requested basis set is rimp2-cc-pVTZ
 There are 394 shells and 1354 basis functions
 A cutoff of  1.0D-10 yielded  12365 shell pairs
 There are     91911 function pairs (    118756 Cartesian)
 Smallest overlap matrix eigenvalue = 6.06E-05

 Scale SEOQF with 1.000000e-01/1.000000e-01/1.000000e-01

 Standard Electronic Orientation quadrupole field applied
 Nucleus-field energy     =     0.0000000355 hartrees
 Guess from superposition of atomic densities
 Warning:  Energy on first SCF cycle will be non-variational
 SAD guess density has 102.000000 electrons

 -----------------------------------------------------------------------
  General SCF calculation program by
  Eric Jon Sundstrom, Paul Horn, Yuezhi Mao, Dmitri Zuev, Alec White,
  David Stuck, Shaama M.S., Shane Yost, Joonho Lee, David Small,
  Daniel Levine, Susi Lehtola, Hugh Burton, Evgeny Epifanovsky,
  Bang C. Huynh
 -----------------------------------------------------------------------
 Hartree-Fock
 A restricted SCF calculation will be
 performed using DIIS
 SCF converges when DIIS error is below 1.0e-06
 ---------------------------------------
  Cycle       Energy         DIIS error
 ---------------------------------------
    1   -1184.2030840001      2.38e-02  
    2   -1179.5439540221      1.59e-03  
    3   -1179.6630911920      6.06e-04  
    4   -1179.6763065740      3.40e-04  
    5   -1179.6811060554      6.78e-05  
    6   -1179.6813890762      3.06e-05  
    7   -1179.6814761168      1.28e-05  
    8   -1179.6815039369      5.33e-06  
    9   -1179.6815088555      1.70e-06  
   10   -1179.6815092999      5.23e-07  Convergence criterion met
 ---------------------------------------
 SCF time:   CPU 485.75s  wall 487.00s 

************** Final PCM Free Energy Summary **************
 G_electrostatic  =      -0.00782713 hartree =      -4.91159544 kcal/mol
 G_cavitation     =       0.00000000 hartree =       0.00000000 kcal/mol
 G_dispersion     =       0.00000000 hartree =       0.00000000 kcal/mol
 G_repulsion      =       0.00000000 hartree =       0.00000000 kcal/mol
 --------------------------------------------------
 Non-electrostatic Free Energy =       0.00000000 hartree =       0.00000000 kcal/mol
 Total                         =      -0.00782713 hartree =      -4.91159544 kcal/mol
 --------------------------------------------------
 SCF Energy (H0 + V/2)                       =   -1179.68150930 
 Solute Internal Energy (H0)                 =   -1179.67368217 
 Total Free Energy (H0 + V/2 + non-elec)     =   -1179.68150930 hartree
                                             = -740261.31984926 kcal/mol
***********************************************************

 SCF   energy in the final basis set =    -1179.6815092999
 Total energy in the final basis set =    -1179.6815092999


 --------------------------------------------------------------
  Generalized many-body perturbation theory program
  by Joonho Lee, Fazle Rob, Xintian Feng, Evgeny Epifanovsky

 No regularization used 
 (reg. param. = 0.0000e+00)
  (P|Q)^-1/2 Time:  CPU 1.67 s  wall 1.68 s

 In RI-MP2 calculation: 
 # of frozen core orbitals: 20

 Components of the RIMP2 correlation energy:
        aaaa    correlation energy =        -0.2525067160 a.u.
        abab    correlation energy =        -1.4744149594 a.u.
        bbbb    correlation energy =        -0.2525067160 a.u.
        non-Brillouin singles      =        -0.0000000000 a.u.
        total same-spin energy     =        -0.5050134319 a.u.
        total opposite-spin energy =        -1.4744149594 a.u.

 Total  RIMP2   correlation energy =        -1.9794283913 a.u.
        RIMP2         total energy =     -1181.6609376912 a.u.

 RI-MP2 Energy Time:  CPU 66.97 s  wall 67.21 s
 
 --------------------------------------------------------------
 
                    Orbital Energies (a.u.)
 --------------------------------------------------------------
 
 Alpha MOs
 -- Occupied --
-91.9853 -91.9831 -11.2767 -11.2727 -11.2718 -11.2664 -11.2539 -11.2511
-11.2437 -11.2416 -11.2293 -11.2290  -8.9848  -8.9829  -6.6657  -6.6651
 -6.6645  -6.6638  -6.6632  -6.6626  -1.1786  -1.1494  -1.0402  -1.0226
 -0.9970  -0.9544  -0.9131  -0.8921  -0.8002  -0.7529  -0.7317  -0.6957
 -0.6617  -0.6162  -0.5821  -0.5796  -0.5713  -0.5685  -0.5517  -0.5313
 -0.5295  -0.5206  -0.5090  -0.4915  -0.4853  -0.4642  -0.4617  -0.3449
 -0.3393  -0.3208  -0.3037
 -- Virtual --
  0.0895   0.1015   0.1394   0.1504   0.1628   0.1756   0.1791   0.1875
  0.1884   0.1940   0.1992   0.2155   0.2315   0.2349   0.2450   0.2473
  0.2513   0.2667   0.2882   0.2991   0.3375   0.3501   0.3589   0.3659
  0.3758   0.3842   0.3939   0.3977   0.4053   0.4124   0.4186   0.4378
  0.4444   0.4541   0.4607   0.4668   0.4734   0.4824   0.4948   0.5031
  0.5093   0.5156   0.5300   0.5379   0.5402   0.5535   0.5618   0.5676
  0.5774   0.5842   0.5889   0.5971   0.6028   0.6052   0.6099   0.6197
  0.6260   0.6301   0.6337   0.6426   0.6487   0.6530   0.6590   0.6618
  0.6699   0.6728   0.6910   0.7098   0.7169   0.7372   0.7489   0.7521
  0.7634   0.7684   0.7924   0.7977   0.8142   0.8221   0.8305   0.8406
  0.8487   0.8552   0.8702   0.8897   0.8983   0.9306   0.9355   0.9394
  0.9432   0.9731   0.9770   0.9967   0.9987   1.0115   1.0244   1.0352
  1.0437   1.0464   1.0589   1.0647   1.0761   1.0860   1.0894   1.0983
  1.1079   1.1171   1.1251   1.1422   1.1493   1.1780   1.1883   1.1948
  1.1975   1.2132   1.2204   1.2300   1.2523   1.2588   1.2640   1.2736
  1.2822   1.2866   1.2974   1.3086   1.3207   1.3384   1.3548   1.3573
  1.3777   1.3887   1.4051   1.4166   1.4197   1.4275   1.4488   1.4593
  1.4813   1.4849   1.5008   1.5066   1.5171   1.5330   1.5414   1.5476
  1.5504   1.5667   1.5684   1.5805   1.5870   1.6018   1.6079   1.6328
  1.6489   1.6548   1.6716   1.6822   1.6912   1.7048   1.7168   1.7255
  1.7507   1.7589   1.7638   1.7868   1.8027   1.8150   1.8288   1.8627
  1.8783   1.8969   1.9060   1.9263   1.9311   1.9487   1.9562   1.9888
  2.0266   2.0479   2.0588   2.1065   2.1186   2.1382   2.1455   2.1766
  2.1829   2.1957   2.2008   2.2138   2.2317   2.2467   2.2660   2.2827
  2.2976   2.3184   2.3243   2.3728   2.3978   2.4024   2.4317   2.4496
  2.4764   2.4946   2.5142   2.5214   2.5501   2.5610   2.5934   2.6048
  2.6227   2.6310   2.6460   2.6523   2.6705   2.6838   2.7149   2.7299
  2.7331   2.7452   2.7523   2.7617   2.7654   2.7707   2.7902   2.8022
  2.8259   2.8428   2.8507   2.8658   2.8835   2.8912   2.9060   2.9158
  2.9448   2.9695   2.9794   2.9868   2.9960   3.0110   3.0264   3.0378
  3.0455   3.0755   3.0967   3.1103   3.1146   3.1214   3.1271   3.1379
  3.1509   3.1552   3.1622   3.1689   3.1847   3.2036   3.2108   3.2298
  3.2399   3.2475   3.2588   3.2670   3.2759   3.2936   3.2996   3.3126
  3.3255   3.3353   3.3401   3.3453   3.3487   3.3631   3.3683   3.3804
  3.3829   3.3876   3.3935   3.4140   3.4228   3.4292   3.4391   3.4429
  3.4530   3.4600   3.4826   3.4884   3.4962   3.5115   3.5128   3.5238
  3.5311   3.5349   3.5412   3.5499   3.5575   3.5766   3.5809   3.5967
  3.6008   3.6143   3.6253   3.6274   3.6398   3.6466   3.6547   3.6602
  3.6763   3.6875   3.6979   3.7098   3.7124   3.7288   3.7427   3.7486
  3.7694   3.7758   3.7797   3.7931   3.8051   3.8186   3.8278   3.8385
  3.8583   3.8751   3.8838   3.8909   3.8985   3.9336   3.9371   3.9610
  3.9708   3.9761   3.9874   4.0104   4.0148   4.0199   4.0392   4.0556
  4.0704   4.0791   4.0826   4.0994   4.1139   4.1262   4.1410   4.1446
  4.1659   4.1798   4.1940   4.1952   4.2060   4.2102   4.2190   4.2400
  4.2481   4.2597   4.2681   4.2880   4.2952   4.3118   4.3251   4.3287
  4.3443   4.3654   4.3699   4.3838   4.3959   4.4003   4.4016   4.4220
  4.4368   4.4450   4.4633   4.4810   4.4851   4.4984   4.5252   4.5583
  4.5868   4.6021   4.6140   4.6190   4.6325   4.6445   4.6580   4.6666
  4.6867   4.7270   4.7420   4.7485   4.7655   4.7844   4.8181   4.8337
  4.8787   4.8846   4.9132   4.9176   4.9664   4.9729   5.0144   5.0582
  5.0933   5.1056   5.1124   5.1404   5.1572   5.1875   5.2007   5.2423
  5.2696   5.2783   5.2892   5.3030   5.3251   5.3652   5.3842   5.3980
  5.4067   5.4445   5.4666   5.4937   5.5180   5.5268   5.5455   5.5567
  5.5755   5.5946   5.6218   5.6251   5.6296   5.6934   5.6977   5.7157
  5.7686   5.8238   5.9170   5.9518   5.9963   6.0506   6.1274   6.2258
  6.2337   6.2444   6.2749   6.2978   6.3220   6.4358   6.5382   8.8327
  9.8252  11.6590  12.0476  12.8857  13.1193  13.7544  13.9817  14.2247
 14.3160
 --------------------------------------------------------------
 
          Ground-State Mulliken Net Atomic Charges

     Atom                 Charge (a.u.)
  ----------------------------------------
      1 C                    -0.215373
      2 C                    -0.248774
      3 C                     0.062540
      4 H                     0.184078
      5 C                    -0.036929
      6 S                     0.027067
      7 C                    -0.280279
      8 H                     0.109082
      9 H                     0.109503
     10 H                     0.112080
     11 H                     0.203969
     12 C                    -0.038925
     13 C                    -0.237439
     14 C                     0.026097
     15 H                     0.187490
     16 C                    -0.238147
     17 S                     0.027895
     18 C                    -0.270875
     19 H                     0.102665
     20 H                     0.108363
     21 H                     0.107750
     22 H                     0.198163
  ----------------------------------------
  Sum of atomic charges =     0.000000

 -----------------------------------------------------------------
                    Cartesian Multipole Moments
 -----------------------------------------------------------------
    Charge (ESU x 10^10)
                -0.0000
    Dipole Moment (Debye)
         X       2.0297      Y       0.3179      Z       1.7321
       Tot       2.6872
    Quadrupole Moments (Debye-Ang)
        XX     -85.6903     XY       0.5936     YY     -69.5841
        XZ       1.3719     YZ       0.5961     ZZ     -86.5005
    Octopole Moments (Debye-Ang^2)
       XXX     -59.4345    XXY      30.2645    XYY     -13.6809
       YYY      98.8455    XXZ      -1.1703    XYZ      -4.8426
       YYZ      -4.5949    XZZ     -18.0924    YZZ      60.9444
       ZZZ       2.7551
    Hexadecapole Moments (Debye-Ang^3)
      XXXX    -733.6492   XXXY    -136.7194   XXYY    -553.1620
      XYYY     -63.0916   YYYY   -2537.4002   XXXZ     -69.3280
      XXYZ     -32.1204   XYYZ     -11.3768   YYYZ     -99.9121
      XXZZ    -222.7229   XYZZ     -36.1914   YYZZ    -602.6190
      XZZZ     -74.9464   YZZZ     -94.6904   ZZZZ    -544.6826
 -----------------------------------------------------------------
 Total job time:  557.57s(wall), 553.53s(cpu) 
 Sat Jul  9 13:37:32 2022

        *************************************************************
        *                                                           *
        *  Thank you very much for using Q-Chem.  Have a nice day.  *
        *                                                           *
        *************************************************************


remove work dirs ./qchem3269007.0 -- ./qchem3269007.-1
rm -rf ./qchem3269007
