You are running Q-Chem version: 5.4.0

#
# job setting
#
local host:  exp-1-29
current dir: /expanse/lustre/scratch/theleonzhang/temp_project/Interring_Bonds
input file:  Methylthiophene_Phi_20_Theta_230_Methylthiophene.qcin
output file: 
nprocs     : 0
nthreads   : 1
#
# qchem installation setting
#
QC:          /cm/shared/apps/spack/cpu/opt/spack/linux-centos8-zen2/gcc-10.2.0/qchem-5.4-akfmr7b3t57bfs6qan3padb2wnb2i7cl
QCAUX:       /cm/shared/apps/spack/cpu/opt/spack/linux-centos8-zen2/gcc-10.2.0/qchem-5.4-akfmr7b3t57bfs6qan3padb2wnb2i7cl/qcaux
QCPROG:      /cm/shared/apps/spack/cpu/opt/spack/linux-centos8-zen2/gcc-10.2.0/qchem-5.4-akfmr7b3t57bfs6qan3padb2wnb2i7cl/exe/qcprog.exe_s
QCPROG_S:    /cm/shared/apps/spack/cpu/opt/spack/linux-centos8-zen2/gcc-10.2.0/qchem-5.4-akfmr7b3t57bfs6qan3padb2wnb2i7cl/exe/qcprog.exe_s
PARALLEL:    -DSERIAL
QCMPI:       mpich
#
# qchem directory setting
#
qcrun:       qchem1275187
QCSCRATCH:   .
QCLOCALSCR:  
QCTMPDIR:    .
QCFILEPREF:  ./qchem1275187
QCSAVEDIR:   
workdirs:    ./qchem1275187
workdir0:    ./qchem1275187
partmpdirs =  
#
# parallel setting
#
QCRSH:           ssh
QCMPI:           mpich
QCMPIRUN:        /cm/shared/apps/spack/cpu/opt/spack/linux-centos8-zen2/gcc-10.2.0/qchem-5.4-akfmr7b3t57bfs6qan3padb2wnb2i7cl/bin/mpi/mpirun_qchem
QCMACHINEFILE:   ./qchem1275187/hostfile

#
# env setting
#
exported envs:   QC QCAUX QCSCRATCH QCRUNNAME QCFILEPREF QCPROG QCPROG_S GUIFILE

Running Job 1 of 1 Methylthiophene_Phi_20_Theta_230_Methylthiophene.qcin
qchem Methylthiophene_Phi_20_Theta_230_Methylthiophene.qcin_1275187.0 ./qchem1275187/ 0
/cm/shared/apps/spack/cpu/opt/spack/linux-centos8-zen2/gcc-10.2.0/qchem-5.4-akfmr7b3t57bfs6qan3padb2wnb2i7cl/exe/qcprog.exe_s Methylthiophene_Phi_20_Theta_230_Methylthiophene.qcin_1275187.0 ./qchem1275187/
                  Welcome to Q-Chem
     A Quantum Leap Into The Future Of Chemistry


 Q-Chem 5.4, Q-Chem, Inc., Pleasanton, CA (2021)

 License issued to: University of California, San Diego (site)

 E. Epifanovsky,  A. T. B. Gilbert,  Xintian Feng,  Joonho Lee,  Yuezhi Mao,  
 N. Mardirossian,  P. Pokhilko,  A. White,  M. Wormit,  M. P. Coons,  
 A. L. Dempwolff,  Zhengting Gan,  D. Hait,  P. R. Horn,  L. D. Jacobson,  
 I. Kaliman,  J. Kussmann,  A. W. Lange,  Ka Un Lao,  D. S. Levine,  Jie Liu,  
 S. C. McKenzie,  A. F. Morrison,  K. Nanda,  F. Plasser,  D. R. Rehn,  
 M. L. Vidal,  Zhi-Qiang You,  Ying Zhu,  B. Alam,  B. Albrecht,  
 A. Aldossary,  E. Alguire,  J. H. Andersen,  D. Barton,  K. Begam,  A. Behn,  
 Y. A. Bernard,  E. J. Berquist,  H. Burton,  A. Carreras,  K. Carter-Fenk,  
 R. Chakraborty,  A. D. Chien,  K. D. Closser,  V. Cofer-Shabica,  
 S. Dasgupta,  Jia Deng,  M. de Wergifosse,  M. Diedenhofen,  Hainam Do,  
 S. Ehlert,  Po-Tung Fang,  S. Fatehi,  Qingguo Feng,  J. Gayvert,  
 Qinghui Ge,  G. Gidofalvi,  M. Goldey,  J. Gomes,  C. Gonzalez-Espinoza,  
 S. Gulania,  A. Gunina,  M. W. D. Hanson-Heine,  P. H. P. Harbach,  
 A. W. Hauser,  M. F. Herbst,  M. Hernandez Vera,  M. Hodecker,  
 Z. C. Holden,  S. Houck,  Xunkun Huang,  Kerwin Hui,  B. C. Huynh,  
 M. Ivanov,  Hyunjun Ji,  Hanjie Jiang,  B. Kaduk,  S. Kaehler,  
 K. Khistyaev,  Jaehoon Kim,  P. Klunzinger,  Z. Koczor-Benda,  
 Joong Hoon Koh,  D. Kosenkov,  L. Koulias,  T. Kowalczyk,  C. M. Krauter,  
 K. Kue,  A. Kunitsa,  T. Kus,  A. Landau,  K. V. Lawler,  D. Lefrancois,  
 S. Lehtola,  Rain Li,  Yi-Pei Li,  Jiashu Liang,  M. Liebenthal,  
 Hung-Hsuan Lin,  You-Sheng Lin,  Fenglai Liu,  Kuan-Yu Liu,  
 M. Loipersberger,  A. Luenser,  A. Manjanath,  P. Manohar,  E. Mansoor,  
 S. F. Manzer,  Shan-Ping Mao,  A. V. Marenich,  T. Markovich,  S. Mason,  
 S. A. Maurer,  P. F. McLaughlin,  M. F. S. J. Menger,  J.-M. Mewes,  
 S. A. Mewes,  P. Morgante,  J. W. Mullinax,  T. S. Nguyen-Beck,  
 K. J. Oosterbaan,  G. Paran,  Alexander C. Paul,  Suranjan K. Paul,  
 F. Pavosevic,  Zheng Pei,  S. Prager,  E. I. Proynov,  E. Ramos,  B. Rana,  
 A. E. Rask,  A. Rettig,  R. M. Richard,  F. Rob,  E. Rossomme,  T. Scheele,  
 M. Scheurer,  M. Schneider,  N. Sergueev,  S. M. Sharada,  W. Skomorowski,  
 D. W. Small,  C. J. Stein,  Yu-Chuan Su,  E. J. Sundstrom,  Zhen Tao,  
 J. Thirman,  T. Tsuchimochi,  N. M. Tubman,  S. P. Veccham,  O. Vydrov,  
 J. Wenzel,  J. Witte,  A. Yamada,  Kun Yao,  S. Yeganeh,  S. R. Yost,  
 A. Zech,  Igor Ying Zhang,  Xing Zhang,  Yu Zhang,  D. Zuev,  
 A. Aspuru-Guzik,  A. T. Bell,  N. A. Besley,  K. B. Bravaya,  B. R. Brooks,  
 D. Casanova,  Jeng-Da Chai,  S. Coriani,  C. J. Cramer,  
 A. E. DePrince, III,  R. A. DiStasio Jr.,  A. Dreuw,  B. D. Dunietz,  
 T. R. Furlani,  W. A. Goddard III,  S. Grimme,  S. Hammes-Schiffer,  
 T. Head-Gordon,  W. J. Hehre,  Chao-Ping Hsu,  T.-C. Jagau,  Yousung Jung,  
 A. Klamt,  Jing Kong,  D. S. Lambrecht,  WanZhen Liang,  N. J. Mayhall,  
 C. W. McCurdy,  J. B. Neaton,  C. Ochsenfeld,  J. A. Parkhill,  R. Peverati,  
 V. A. Rassolov,  Yihan Shao,  L. V. Slipchenko,  T. Stauch,  R. P. Steele,  
 J. E. Subotnik,  A. J. W. Thom,  A. Tkatchenko,  D. G. Truhlar,  
 T. Van Voorhis,  T. A. Wesolowski,  K. B. Whaley,  H. L. Woodcock III,  
 P. M. Zimmerman,  S. Faraji,  P. M. W. Gill,  M. Head-Gordon,  
 J. M. Herbert,  A. I. Krylov

 Contributors to earlier versions of Q-Chem not listed above: 
 R. D. Adamson,  B. Austin,  R. Baer,  J. Baker,  G. J. O. Beran,  
 K. Brandhorst,  S. T. Brown,  E. F. C. Byrd,  A. K. Chakraborty,  
 G. K. L. Chan,  Chun-Min Chang,  Yunqing Chen,  C.-L. Cheng,  
 Siu Hung Chien,  D. M. Chipman,  D. L. Crittenden,  H. Dachsel,  
 R. J. Doerksen,  A. D. Dutoi,  R. G. Edgar,  J. Fosso-Tande,  
 L. Fusti-Molnar,  D. Ghosh,  A. Ghysels,  A. Golubeva-Zadorozhnaya,  
 J. Gonthier,  M. S. Gordon,  S. R. Gwaltney,  G. Hawkins,  J. E. Herr,  
 A. Heyden,  S. Hirata,  E. G. Hohenstein,  G. Kedziora,  F. J. Keil,  
 C. Kelley,  Jihan Kim,  R. A. King,  R. Z. Khaliullin,  P. P. Korambath,  
 W. Kurlancheek,  A. Laurent,  A. M. Lee,  M. S. Lee,  S. V. Levchenko,  
 Ching Yeh Lin,  D. Liotard,  E. Livshits,  R. C. Lochan,  I. Lotan,  
 L. A. Martinez-Martinez,  P. E. Maslen,  N. Nair,  D. P. O'Neill,  
 D. Neuhauser,  E. Neuscamman,  C. M. Oana,  R. Olivares-Amaya,  R. Olson,  
 T. M. Perrine,  B. Peters,  P. A. Pieniazek,  A. Prociuk,  Y. M. Rhee,  
 J. Ritchie,  M. A. Rohrdanz,  E. Rosta,  N. J. Russ,  H. F. Schaefer III,  
 M. W. Schmidt,  N. E. Schultz,  S. Sharma,  N. Shenvi,  C. D. Sherrill,  
 A. C. Simmonett,  A. Sodt,  T. Stein,  D. Stuck,  K. S. Thanthiriwatte,  
 V. Vanovschi,  L. Vogt,  Tao Wang,  A. Warshel,  M. A. Watson,  
 C. F. Williams,  Q. Wu,  X. Xu,  Jun Yang,  W. Zhang,  Yan Zhao

 Please cite Q-Chem as follows:
 Y. Shao et al., Mol. Phys. 113, 184-215 (2015)
 DOI: 10.1080/00268976.2014.952696

 Q-Chem 5.4.0 for Intel X86 EM64T Linux

 Parts of Q-Chem use Armadillo 9.800.1 (Horizon Scraper).
 http://arma.sourceforge.net/

 Q-Chem begins on Sat Jul  9 08:02:28 2022  

 Host: 
0

     Scratch files written to ./qchem1275187//
 May1621 |scratch|qcdevops|jenkins|workspace|build_RNUM    
 Processing $rem in /cm/shared/apps/spack/cpu/opt/spack/linux-centos8-zen2/gcc-10.2.0/qchem-5.4-akfmr7b3t57bfs6qan3padb2wnb2i7cl/config/preferences:
 Processing $rem in /home/theleonzhang/.qchemrc:
 Symmetry turned off for PCM/SM12/SMD calculation
 Core orbitals will be frozen

 Checking the input file for inconsistencies... 	...done.

--------------------------------------------------------------
User input:
--------------------------------------------------------------
$molecule
0 1
C	0.594240	-3.866725	-0.497696
C	-0.469057	-3.703963	0.393981
C	-0.817136	-2.357056	0.685571
H	-0.997777	-4.561092	0.837848
C	0.000000	-1.440664	0.000000
S	1.183137	-2.286957	-0.992782
C	-1.932056	-1.978743	1.620802
H	-2.426166	-2.878678	2.035506
H	-2.711806	-1.376015	1.109943
H	-1.564678	-1.375728	2.477350
H	1.054110	-4.783437	-0.883271
C	0.000000	0.000000	0.000000
C	0.295399	0.811508	1.099446
C	0.768742	2.111949	0.776721
H	0.169256	0.464952	2.136088
C	0.844232	2.319291	-0.612546
S	0.322342	0.885558	-1.486809
C	1.140796	3.134091	1.814609
H	0.995218	2.734123	2.836676
H	0.526006	4.054142	1.726239
H	2.203157	3.443680	1.726228
H	1.168902	3.211257	-1.161575
$end

$rem
JOBTYPE		SP
EXCHANGE	HF
CORRELATION	pRIMP2
BASIS		cc-pvtz
METHOD		rimp2
AUX_BASIS	rimp2-cc-pvtz
SOLVENT_METHOD	PCM
PURECART	11111
SYMMETRY	false
MEM_TOTAL	110000
SCF_CONVERGENCE = 6
THRESH=10
$end



$solvent
dielectric 4.90
$end
--------------------------------------------------------------
 ----------------------------------------------------------------
             Standard Nuclear Orientation (Angstroms)
    I     Atom           X                Y                Z
 ----------------------------------------------------------------
    1      C       0.5942400000    -3.8667250000    -0.4976960000
    2      C      -0.4690570000    -3.7039630000     0.3939810000
    3      C      -0.8171360000    -2.3570560000     0.6855710000
    4      H      -0.9977770000    -4.5610920000     0.8378480000
    5      C       0.0000000000    -1.4406640000     0.0000000000
    6      S       1.1831370000    -2.2869570000    -0.9927820000
    7      C      -1.9320560000    -1.9787430000     1.6208020000
    8      H      -2.4261660000    -2.8786780000     2.0355060000
    9      H      -2.7118060000    -1.3760150000     1.1099430000
   10      H      -1.5646780000    -1.3757280000     2.4773500000
   11      H       1.0541100000    -4.7834370000    -0.8832710000
   12      C       0.0000000000     0.0000000000     0.0000000000
   13      C       0.2953990000     0.8115080000     1.0994460000
   14      C       0.7687420000     2.1119490000     0.7767210000
   15      H       0.1692560000     0.4649520000     2.1360880000
   16      C       0.8442320000     2.3192910000    -0.6125460000
   17      S       0.3223420000     0.8855580000    -1.4868090000
   18      C       1.1407960000     3.1340910000     1.8146090000
   19      H       0.9952180000     2.7341230000     2.8366760000
   20      H       0.5260060000     4.0541420000     1.7262390000
   21      H       2.2031570000     3.4436800000     1.7262280000
   22      H       1.1689020000     3.2112570000    -1.1615750000
 ----------------------------------------------------------------
 Nuclear Repulsion Energy =         837.42277292 hartrees
 There are       51 alpha and       51 beta electrons

 Q-Chem warning in module forms1/BasisType.C, line 2236:

 You are not using the predefined 5D/6D in this basis set.

 Requested basis set is cc-pVTZ
 There are 184 shells and 508 basis functions

 Total QAlloc Memory Limit 110000 MB
 Mega-Array Size       188 MB
 MEM_STATIC part       192 MB
 Discretize the solute cavity surface with Lebedev spheres
	Using 110 Lebedev grid points for each H atom
	Using 194 Lebedev grid points for other atoms
	Atomic van der Waals radii will be scaled by 1.20
 Remove points where switching function is < 1.0e-08
 Keep 1554 surface tesserae and discard 1874 interior tesserae
 Molecular Surface Area = 234.319 Angst**2
 Requested basis set is rimp2-cc-pVTZ
 There are 394 shells and 1354 basis functions
 A cutoff of  1.0D-10 yielded  12273 shell pairs
 There are     91033 function pairs (    117503 Cartesian)
 Smallest overlap matrix eigenvalue = 7.17E-05

 Scale SEOQF with 1.000000e-01/1.000000e-01/1.000000e-01

 Standard Electronic Orientation quadrupole field applied
 Nucleus-field energy     =     0.0000000287 hartrees
 Guess from superposition of atomic densities
 Warning:  Energy on first SCF cycle will be non-variational
 SAD guess density has 102.000000 electrons

 -----------------------------------------------------------------------
  General SCF calculation program by
  Eric Jon Sundstrom, Paul Horn, Yuezhi Mao, Dmitri Zuev, Alec White,
  David Stuck, Shaama M.S., Shane Yost, Joonho Lee, David Small,
  Daniel Levine, Susi Lehtola, Hugh Burton, Evgeny Epifanovsky,
  Bang C. Huynh
 -----------------------------------------------------------------------
 Hartree-Fock
 A restricted SCF calculation will be
 performed using DIIS
 SCF converges when DIIS error is below 1.0e-06
 ---------------------------------------
  Cycle       Energy         DIIS error
 ---------------------------------------
    1   -1184.2226292399      2.38e-02  
    2   -1179.5400409137      1.60e-03  
    3   -1179.6599786843      6.18e-04  
    4   -1179.6735888241      3.43e-04  
    5   -1179.6784913327      6.60e-05  
    6   -1179.6787687436      3.05e-05  
    7   -1179.6788542355      1.25e-05  
    8   -1179.6788815166      5.27e-06  
    9   -1179.6788863186      1.65e-06  
   10   -1179.6788867669      4.99e-07  Convergence criterion met
 ---------------------------------------
 SCF time:   CPU 475.95s  wall 477.00s 

************** Final PCM Free Energy Summary **************
 G_electrostatic  =      -0.00834033 hartree =      -5.23363454 kcal/mol
 G_cavitation     =       0.00000000 hartree =       0.00000000 kcal/mol
 G_dispersion     =       0.00000000 hartree =       0.00000000 kcal/mol
 G_repulsion      =       0.00000000 hartree =       0.00000000 kcal/mol
 --------------------------------------------------
 Non-electrostatic Free Energy =       0.00000000 hartree =       0.00000000 kcal/mol
 Total                         =      -0.00834033 hartree =      -5.23363454 kcal/mol
 --------------------------------------------------
 SCF Energy (H0 + V/2)                       =   -1179.67888677 
 Solute Internal Energy (H0)                 =   -1179.67054644 
 Total Free Energy (H0 + V/2 + non-elec)     =   -1179.67888677 hartree
                                             = -740259.67418498 kcal/mol
***********************************************************

 SCF   energy in the final basis set =    -1179.6788867669
 Total energy in the final basis set =    -1179.6788867669


 --------------------------------------------------------------
  Generalized many-body perturbation theory program
  by Joonho Lee, Fazle Rob, Xintian Feng, Evgeny Epifanovsky

 No regularization used 
 (reg. param. = 0.0000e+00)
  (P|Q)^-1/2 Time:  CPU 1.67 s  wall 1.68 s

 In RI-MP2 calculation: 
 # of frozen core orbitals: 20

 Components of the RIMP2 correlation energy:
        aaaa    correlation energy =        -0.2527982884 a.u.
        abab    correlation energy =        -1.4747511826 a.u.
        bbbb    correlation energy =        -0.2527982884 a.u.
        non-Brillouin singles      =        -0.0000000000 a.u.
        total same-spin energy     =        -0.5055965769 a.u.
        total opposite-spin energy =        -1.4747511826 a.u.

 Total  RIMP2   correlation energy =        -1.9803477595 a.u.
        RIMP2         total energy =     -1181.6592345264 a.u.

 RI-MP2 Energy Time:  CPU 66.56 s  wall 66.78 s
 
 --------------------------------------------------------------
 
                    Orbital Energies (a.u.)
 --------------------------------------------------------------
 
 Alpha MOs
 -- Occupied --
-91.9863 -91.9844 -11.2789 -11.2754 -11.2695 -11.2670 -11.2523 -11.2500
-11.2443 -11.2417 -11.2295 -11.2292  -8.9859  -8.9841  -6.6668  -6.6663
 -6.6657  -6.6649  -6.6644  -6.6637  -1.1806  -1.1495  -1.0416  -1.0236
 -0.9964  -0.9557  -0.9122  -0.8932  -0.8020  -0.7527  -0.7313  -0.6963
 -0.6612  -0.6156  -0.5854  -0.5799  -0.5698  -0.5664  -0.5521  -0.5351
 -0.5302  -0.5203  -0.5077  -0.4910  -0.4841  -0.4717  -0.4577  -0.3561
 -0.3409  -0.3357  -0.2809
 -- Virtual --
  0.0718   0.1189   0.1417   0.1524   0.1626   0.1734   0.1779   0.1869
  0.1951   0.1991   0.2060   0.2229   0.2298   0.2369   0.2376   0.2438
  0.2570   0.2789   0.2922   0.3211   0.3378   0.3481   0.3588   0.3715
  0.3781   0.3840   0.3895   0.3987   0.4074   0.4114   0.4291   0.4331
  0.4401   0.4488   0.4693   0.4740   0.4777   0.4905   0.4947   0.5043
  0.5050   0.5171   0.5278   0.5334   0.5419   0.5485   0.5605   0.5644
  0.5715   0.5858   0.5905   0.5973   0.6026   0.6081   0.6141   0.6239
  0.6253   0.6312   0.6411   0.6445   0.6462   0.6507   0.6580   0.6670
  0.6825   0.6934   0.6983   0.7097   0.7188   0.7246   0.7316   0.7533
  0.7632   0.7801   0.7925   0.7980   0.8119   0.8248   0.8392   0.8426
  0.8541   0.8643   0.8750   0.8958   0.8992   0.9151   0.9257   0.9408
  0.9500   0.9560   0.9711   1.0000   1.0079   1.0170   1.0281   1.0369
  1.0434   1.0545   1.0625   1.0689   1.0761   1.0840   1.0866   1.1029
  1.1113   1.1217   1.1277   1.1399   1.1528   1.1676   1.1737   1.1993
  1.2019   1.2115   1.2215   1.2321   1.2403   1.2528   1.2609   1.2645
  1.2749   1.2795   1.3089   1.3160   1.3356   1.3395   1.3533   1.3703
  1.3784   1.3881   1.4041   1.4110   1.4187   1.4374   1.4471   1.4657
  1.4729   1.4807   1.5024   1.5082   1.5128   1.5176   1.5383   1.5445
  1.5540   1.5650   1.5668   1.5788   1.5820   1.5961   1.6019   1.6423
  1.6551   1.6642   1.6694   1.6803   1.6916   1.7148   1.7208   1.7305
  1.7430   1.7573   1.7607   1.7819   1.7968   1.8020   1.8416   1.8481
  1.8748   1.8964   1.9100   1.9147   1.9407   1.9602   1.9628   1.9787
  2.0084   2.0343   2.0942   2.0969   2.1301   2.1345   2.1443   2.1661
  2.1789   2.1916   2.2130   2.2225   2.2280   2.2592   2.2673   2.2723
  2.2909   2.2944   2.3180   2.3897   2.4029   2.4253   2.4384   2.4491
  2.4710   2.4912   2.5069   2.5196   2.5405   2.5609   2.5753   2.5906
  2.5987   2.6306   2.6462   2.6660   2.6713   2.6833   2.7223   2.7309
  2.7406   2.7481   2.7541   2.7624   2.7706   2.7789   2.8069   2.8100
  2.8289   2.8404   2.8494   2.8686   2.8844   2.9071   2.9108   2.9267
  2.9423   2.9659   2.9774   2.9916   3.0137   3.0220   3.0263   3.0346
  3.0374   3.0729   3.1000   3.1089   3.1111   3.1224   3.1326   3.1410
  3.1455   3.1521   3.1676   3.1779   3.1858   3.2001   3.2142   3.2171
  3.2426   3.2454   3.2524   3.2720   3.2750   3.2874   3.2943   3.3142
  3.3215   3.3249   3.3335   3.3488   3.3513   3.3640   3.3664   3.3768
  3.3904   3.3993   3.4045   3.4128   3.4155   3.4175   3.4268   3.4408
  3.4486   3.4639   3.4745   3.4761   3.4886   3.5065   3.5157   3.5213
  3.5295   3.5356   3.5399   3.5502   3.5515   3.5741   3.5865   3.6028
  3.6061   3.6190   3.6242   3.6329   3.6395   3.6413   3.6574   3.6622
  3.6724   3.6845   3.6916   3.7041   3.7212   3.7300   3.7413   3.7545
  3.7663   3.7692   3.7814   3.7908   3.7986   3.8141   3.8228   3.8436
  3.8464   3.8706   3.8798   3.8893   3.9138   3.9267   3.9405   3.9584
  3.9710   3.9867   3.9990   4.0025   4.0190   4.0344   4.0381   4.0470
  4.0603   4.0751   4.0912   4.1019   4.1047   4.1389   4.1422   4.1446
  4.1652   4.1690   4.1881   4.1968   4.2035   4.2143   4.2208   4.2266
  4.2466   4.2693   4.2773   4.2851   4.2897   4.3072   4.3204   4.3373
  4.3470   4.3542   4.3676   4.3944   4.4009   4.4057   4.4141   4.4202
  4.4425   4.4473   4.4639   4.4681   4.4908   4.5020   4.5378   4.5607
  4.5822   4.5932   4.6015   4.6147   4.6367   4.6480   4.6499   4.6719
  4.6959   4.7295   4.7380   4.7620   4.7639   4.7795   4.8284   4.8325
  4.8686   4.8951   4.9164   4.9218   4.9597   4.9826   5.0190   5.0562
  5.0924   5.0999   5.1182   5.1346   5.1706   5.1789   5.2005   5.2402
  5.2662   5.2781   5.2906   5.3078   5.3189   5.3699   5.3966   5.4025
  5.4204   5.4523   5.4652   5.4908   5.5165   5.5291   5.5478   5.5563
  5.5586   5.6129   5.6233   5.6305   5.6451   5.6674   5.6994   5.7109
  5.7738   5.8239   5.9111   5.9616   6.0235   6.0932   6.1237   6.2254
  6.2332   6.2410   6.2779   6.2887   6.3228   6.4253   6.5111   8.7809
  9.9001  11.6568  12.0681  12.9070  13.0471  13.7665  13.9664  14.2259
 14.3153
 --------------------------------------------------------------
 
          Ground-State Mulliken Net Atomic Charges

     Atom                 Charge (a.u.)
  ----------------------------------------
      1 C                    -0.217821
      2 C                    -0.248824
      3 C                     0.038615
      4 H                     0.183423
      5 C                    -0.034385
      6 S                     0.023318
      7 C                    -0.287302
      8 H                     0.108553
      9 H                     0.111156
     10 H                     0.107018
     11 H                     0.204359
     12 C                    -0.011461
     13 C                    -0.214839
     14 C                     0.014116
     15 H                     0.192323
     16 C                    -0.228113
     17 S                     0.013927
     18 C                    -0.271588
     19 H                     0.102295
     20 H                     0.108206
     21 H                     0.108404
     22 H                     0.198619
  ----------------------------------------
  Sum of atomic charges =     0.000000

 -----------------------------------------------------------------
                    Cartesian Multipole Moments
 -----------------------------------------------------------------
    Charge (ESU x 10^10)
                -0.0000
    Dipole Moment (Debye)
         X      -0.4047      Y       0.4549      Z       2.4076
       Tot       2.4834
    Quadrupole Moments (Debye-Ang)
        XX     -87.6375     XY       5.1745     YY     -70.4729
        XZ      -2.8178     YZ      -0.4581     ZZ     -83.9060
    Octopole Moments (Debye-Ang^2)
       XXX     -68.9975    XXY      43.6427    XYY      -7.7095
       YYY     104.2906    XXZ      -2.0072    XYZ      11.1916
       YYZ      -6.8979    XZZ     -20.2231    YZZ      53.6474
       ZZZ       0.0037
    Hexadecapole Moments (Debye-Ang^3)
      XXXX    -577.2258   XXXY    -153.4785   XXYY    -550.3797
      XYYY    -150.0303   YYYY   -2506.4030   XXXZ     103.3218
      XXYZ     -33.7035   XYYZ     -20.4370   YYYZ     -80.8304
      XXZZ    -223.7108   XYZZ     -41.4629   YYZZ    -592.6375
      XZZZ     104.3230   YZZZ     -95.6092   ZZZZ    -761.3816
 -----------------------------------------------------------------
 Total job time:  546.70s(wall), 543.31s(cpu) 
 Sat Jul  9 08:11:35 2022

        *************************************************************
        *                                                           *
        *  Thank you very much for using Q-Chem.  Have a nice day.  *
        *                                                           *
        *************************************************************


remove work dirs ./qchem1275187.0 -- ./qchem1275187.-1
rm -rf ./qchem1275187
