You are running Q-Chem version: 5.4.0

#
# job setting
#
local host:  exp-1-13
current dir: /expanse/lustre/scratch/theleonzhang/temp_project/Interring_Bonds
input file:  Methylthiophene_Phi_10_Theta_250_Methylthiophene.qcin
output file: 
nprocs     : 0
nthreads   : 1
#
# qchem installation setting
#
QC:          /cm/shared/apps/spack/cpu/opt/spack/linux-centos8-zen2/gcc-10.2.0/qchem-5.4-akfmr7b3t57bfs6qan3padb2wnb2i7cl
QCAUX:       /cm/shared/apps/spack/cpu/opt/spack/linux-centos8-zen2/gcc-10.2.0/qchem-5.4-akfmr7b3t57bfs6qan3padb2wnb2i7cl/qcaux
QCPROG:      /cm/shared/apps/spack/cpu/opt/spack/linux-centos8-zen2/gcc-10.2.0/qchem-5.4-akfmr7b3t57bfs6qan3padb2wnb2i7cl/exe/qcprog.exe_s
QCPROG_S:    /cm/shared/apps/spack/cpu/opt/spack/linux-centos8-zen2/gcc-10.2.0/qchem-5.4-akfmr7b3t57bfs6qan3padb2wnb2i7cl/exe/qcprog.exe_s
PARALLEL:    -DSERIAL
QCMPI:       mpich
#
# qchem directory setting
#
qcrun:       qchem949179
QCSCRATCH:   .
QCLOCALSCR:  
QCTMPDIR:    .
QCFILEPREF:  ./qchem949179
QCSAVEDIR:   
workdirs:    ./qchem949179
workdir0:    ./qchem949179
partmpdirs =  
#
# parallel setting
#
QCRSH:           ssh
QCMPI:           mpich
QCMPIRUN:        /cm/shared/apps/spack/cpu/opt/spack/linux-centos8-zen2/gcc-10.2.0/qchem-5.4-akfmr7b3t57bfs6qan3padb2wnb2i7cl/bin/mpi/mpirun_qchem
QCMACHINEFILE:   ./qchem949179/hostfile

#
# env setting
#
exported envs:   QC QCAUX QCSCRATCH QCRUNNAME QCFILEPREF QCPROG QCPROG_S GUIFILE

Running Job 1 of 1 Methylthiophene_Phi_10_Theta_250_Methylthiophene.qcin
qchem Methylthiophene_Phi_10_Theta_250_Methylthiophene.qcin_949179.0 ./qchem949179/ 0
/cm/shared/apps/spack/cpu/opt/spack/linux-centos8-zen2/gcc-10.2.0/qchem-5.4-akfmr7b3t57bfs6qan3padb2wnb2i7cl/exe/qcprog.exe_s Methylthiophene_Phi_10_Theta_250_Methylthiophene.qcin_949179.0 ./qchem949179/
                  Welcome to Q-Chem
     A Quantum Leap Into The Future Of Chemistry


 Q-Chem 5.4, Q-Chem, Inc., Pleasanton, CA (2021)

 License issued to: University of California, San Diego (site)

 E. Epifanovsky,  A. T. B. Gilbert,  Xintian Feng,  Joonho Lee,  Yuezhi Mao,  
 N. Mardirossian,  P. Pokhilko,  A. White,  M. Wormit,  M. P. Coons,  
 A. L. Dempwolff,  Zhengting Gan,  D. Hait,  P. R. Horn,  L. D. Jacobson,  
 I. Kaliman,  J. Kussmann,  A. W. Lange,  Ka Un Lao,  D. S. Levine,  Jie Liu,  
 S. C. McKenzie,  A. F. Morrison,  K. Nanda,  F. Plasser,  D. R. Rehn,  
 M. L. Vidal,  Zhi-Qiang You,  Ying Zhu,  B. Alam,  B. Albrecht,  
 A. Aldossary,  E. Alguire,  J. H. Andersen,  D. Barton,  K. Begam,  A. Behn,  
 Y. A. Bernard,  E. J. Berquist,  H. Burton,  A. Carreras,  K. Carter-Fenk,  
 R. Chakraborty,  A. D. Chien,  K. D. Closser,  V. Cofer-Shabica,  
 S. Dasgupta,  Jia Deng,  M. de Wergifosse,  M. Diedenhofen,  Hainam Do,  
 S. Ehlert,  Po-Tung Fang,  S. Fatehi,  Qingguo Feng,  J. Gayvert,  
 Qinghui Ge,  G. Gidofalvi,  M. Goldey,  J. Gomes,  C. Gonzalez-Espinoza,  
 S. Gulania,  A. Gunina,  M. W. D. Hanson-Heine,  P. H. P. Harbach,  
 A. W. Hauser,  M. F. Herbst,  M. Hernandez Vera,  M. Hodecker,  
 Z. C. Holden,  S. Houck,  Xunkun Huang,  Kerwin Hui,  B. C. Huynh,  
 M. Ivanov,  Hyunjun Ji,  Hanjie Jiang,  B. Kaduk,  S. Kaehler,  
 K. Khistyaev,  Jaehoon Kim,  P. Klunzinger,  Z. Koczor-Benda,  
 Joong Hoon Koh,  D. Kosenkov,  L. Koulias,  T. Kowalczyk,  C. M. Krauter,  
 K. Kue,  A. Kunitsa,  T. Kus,  A. Landau,  K. V. Lawler,  D. Lefrancois,  
 S. Lehtola,  Rain Li,  Yi-Pei Li,  Jiashu Liang,  M. Liebenthal,  
 Hung-Hsuan Lin,  You-Sheng Lin,  Fenglai Liu,  Kuan-Yu Liu,  
 M. Loipersberger,  A. Luenser,  A. Manjanath,  P. Manohar,  E. Mansoor,  
 S. F. Manzer,  Shan-Ping Mao,  A. V. Marenich,  T. Markovich,  S. Mason,  
 S. A. Maurer,  P. F. McLaughlin,  M. F. S. J. Menger,  J.-M. Mewes,  
 S. A. Mewes,  P. Morgante,  J. W. Mullinax,  T. S. Nguyen-Beck,  
 K. J. Oosterbaan,  G. Paran,  Alexander C. Paul,  Suranjan K. Paul,  
 F. Pavosevic,  Zheng Pei,  S. Prager,  E. I. Proynov,  E. Ramos,  B. Rana,  
 A. E. Rask,  A. Rettig,  R. M. Richard,  F. Rob,  E. Rossomme,  T. Scheele,  
 M. Scheurer,  M. Schneider,  N. Sergueev,  S. M. Sharada,  W. Skomorowski,  
 D. W. Small,  C. J. Stein,  Yu-Chuan Su,  E. J. Sundstrom,  Zhen Tao,  
 J. Thirman,  T. Tsuchimochi,  N. M. Tubman,  S. P. Veccham,  O. Vydrov,  
 J. Wenzel,  J. Witte,  A. Yamada,  Kun Yao,  S. Yeganeh,  S. R. Yost,  
 A. Zech,  Igor Ying Zhang,  Xing Zhang,  Yu Zhang,  D. Zuev,  
 A. Aspuru-Guzik,  A. T. Bell,  N. A. Besley,  K. B. Bravaya,  B. R. Brooks,  
 D. Casanova,  Jeng-Da Chai,  S. Coriani,  C. J. Cramer,  
 A. E. DePrince, III,  R. A. DiStasio Jr.,  A. Dreuw,  B. D. Dunietz,  
 T. R. Furlani,  W. A. Goddard III,  S. Grimme,  S. Hammes-Schiffer,  
 T. Head-Gordon,  W. J. Hehre,  Chao-Ping Hsu,  T.-C. Jagau,  Yousung Jung,  
 A. Klamt,  Jing Kong,  D. S. Lambrecht,  WanZhen Liang,  N. J. Mayhall,  
 C. W. McCurdy,  J. B. Neaton,  C. Ochsenfeld,  J. A. Parkhill,  R. Peverati,  
 V. A. Rassolov,  Yihan Shao,  L. V. Slipchenko,  T. Stauch,  R. P. Steele,  
 J. E. Subotnik,  A. J. W. Thom,  A. Tkatchenko,  D. G. Truhlar,  
 T. Van Voorhis,  T. A. Wesolowski,  K. B. Whaley,  H. L. Woodcock III,  
 P. M. Zimmerman,  S. Faraji,  P. M. W. Gill,  M. Head-Gordon,  
 J. M. Herbert,  A. I. Krylov

 Contributors to earlier versions of Q-Chem not listed above: 
 R. D. Adamson,  B. Austin,  R. Baer,  J. Baker,  G. J. O. Beran,  
 K. Brandhorst,  S. T. Brown,  E. F. C. Byrd,  A. K. Chakraborty,  
 G. K. L. Chan,  Chun-Min Chang,  Yunqing Chen,  C.-L. Cheng,  
 Siu Hung Chien,  D. M. Chipman,  D. L. Crittenden,  H. Dachsel,  
 R. J. Doerksen,  A. D. Dutoi,  R. G. Edgar,  J. Fosso-Tande,  
 L. Fusti-Molnar,  D. Ghosh,  A. Ghysels,  A. Golubeva-Zadorozhnaya,  
 J. Gonthier,  M. S. Gordon,  S. R. Gwaltney,  G. Hawkins,  J. E. Herr,  
 A. Heyden,  S. Hirata,  E. G. Hohenstein,  G. Kedziora,  F. J. Keil,  
 C. Kelley,  Jihan Kim,  R. A. King,  R. Z. Khaliullin,  P. P. Korambath,  
 W. Kurlancheek,  A. Laurent,  A. M. Lee,  M. S. Lee,  S. V. Levchenko,  
 Ching Yeh Lin,  D. Liotard,  E. Livshits,  R. C. Lochan,  I. Lotan,  
 L. A. Martinez-Martinez,  P. E. Maslen,  N. Nair,  D. P. O'Neill,  
 D. Neuhauser,  E. Neuscamman,  C. M. Oana,  R. Olivares-Amaya,  R. Olson,  
 T. M. Perrine,  B. Peters,  P. A. Pieniazek,  A. Prociuk,  Y. M. Rhee,  
 J. Ritchie,  M. A. Rohrdanz,  E. Rosta,  N. J. Russ,  H. F. Schaefer III,  
 M. W. Schmidt,  N. E. Schultz,  S. Sharma,  N. Shenvi,  C. D. Sherrill,  
 A. C. Simmonett,  A. Sodt,  T. Stein,  D. Stuck,  K. S. Thanthiriwatte,  
 V. Vanovschi,  L. Vogt,  Tao Wang,  A. Warshel,  M. A. Watson,  
 C. F. Williams,  Q. Wu,  X. Xu,  Jun Yang,  W. Zhang,  Yan Zhao

 Please cite Q-Chem as follows:
 Y. Shao et al., Mol. Phys. 113, 184-215 (2015)
 DOI: 10.1080/00268976.2014.952696

 Q-Chem 5.4.0 for Intel X86 EM64T Linux

 Parts of Q-Chem use Armadillo 9.800.1 (Horizon Scraper).
 http://arma.sourceforge.net/

 Q-Chem begins on Sat Jul  9 08:21:04 2022  

 Host: 
0

     Scratch files written to ./qchem949179//
 May1621 |scratch|qcdevops|jenkins|workspace|build_RNUM    
 Processing $rem in /cm/shared/apps/spack/cpu/opt/spack/linux-centos8-zen2/gcc-10.2.0/qchem-5.4-akfmr7b3t57bfs6qan3padb2wnb2i7cl/config/preferences:
 Processing $rem in /home/theleonzhang/.qchemrc:
 Symmetry turned off for PCM/SM12/SMD calculation
 Core orbitals will be frozen

 Checking the input file for inconsistencies... 	...done.

--------------------------------------------------------------
User input:
--------------------------------------------------------------
$molecule
0 1
C	0.728625	-3.866725	-0.264439
C	-0.575519	-3.703963	0.209794
C	-1.002336	-2.357056	0.364749
H	-1.224165	-4.561092	0.446060
C	-0.000000	-1.440664	-0.000000
S	1.451336	-2.286957	-0.528253
C	-2.369885	-1.978743	0.862253
H	-2.976034	-2.878678	1.082953
H	-2.927887	-1.376015	0.115513
H	-2.317620	-1.375728	1.792797
H	1.292636	-4.783437	-0.469476
C	0.000000	0.000000	0.000000
C	0.149995	0.850475	1.099446
C	0.390327	2.213354	0.776721
H	0.085947	0.487279	2.136088
C	0.428665	2.430655	-0.612546
S	0.163670	0.928078	-1.486809
C	0.579235	3.284574	1.814609
H	0.505323	2.865404	2.836676
H	-0.185980	4.083890	1.726239
H	1.571698	3.773937	1.726228
H	0.593515	3.365448	-1.161575
$end

$rem
JOBTYPE		SP
EXCHANGE	HF
CORRELATION	pRIMP2
BASIS		cc-pvtz
METHOD		rimp2
AUX_BASIS	rimp2-cc-pvtz
SOLVENT_METHOD	PCM
PURECART	11111
SYMMETRY	false
MEM_TOTAL	110000
SCF_CONVERGENCE = 6
THRESH=10
$end



$solvent
dielectric 4.90
$end
--------------------------------------------------------------
 ----------------------------------------------------------------
             Standard Nuclear Orientation (Angstroms)
    I     Atom           X                Y                Z
 ----------------------------------------------------------------
    1      C       0.7286250000    -3.8667250000    -0.2644390000
    2      C      -0.5755190000    -3.7039630000     0.2097940000
    3      C      -1.0023360000    -2.3570560000     0.3647490000
    4      H      -1.2241650000    -4.5610920000     0.4460600000
    5      C       0.0000000000    -1.4406640000     0.0000000000
    6      S       1.4513360000    -2.2869570000    -0.5282530000
    7      C      -2.3698850000    -1.9787430000     0.8622530000
    8      H      -2.9760340000    -2.8786780000     1.0829530000
    9      H      -2.9278870000    -1.3760150000     0.1155130000
   10      H      -2.3176200000    -1.3757280000     1.7927970000
   11      H       1.2926360000    -4.7834370000    -0.4694760000
   12      C       0.0000000000     0.0000000000     0.0000000000
   13      C       0.1499950000     0.8504750000     1.0994460000
   14      C       0.3903270000     2.2133540000     0.7767210000
   15      H       0.0859470000     0.4872790000     2.1360880000
   16      C       0.4286650000     2.4306550000    -0.6125460000
   17      S       0.1636700000     0.9280780000    -1.4868090000
   18      C       0.5792350000     3.2845740000     1.8146090000
   19      H       0.5053230000     2.8654040000     2.8366760000
   20      H      -0.1859800000     4.0838900000     1.7262390000
   21      H       1.5716980000     3.7739370000     1.7262280000
   22      H       0.5935150000     3.3654480000    -1.1615750000
 ----------------------------------------------------------------
 Nuclear Repulsion Energy =         833.67484317 hartrees
 There are       51 alpha and       51 beta electrons

 Q-Chem warning in module forms1/BasisType.C, line 2236:

 You are not using the predefined 5D/6D in this basis set.

 Requested basis set is cc-pVTZ
 There are 184 shells and 508 basis functions

 Total QAlloc Memory Limit 110000 MB
 Mega-Array Size       188 MB
 MEM_STATIC part       192 MB
 Discretize the solute cavity surface with Lebedev spheres
	Using 110 Lebedev grid points for each H atom
	Using 194 Lebedev grid points for other atoms
	Atomic van der Waals radii will be scaled by 1.20
 Remove points where switching function is < 1.0e-08
 Keep 1564 surface tesserae and discard 1864 interior tesserae
 Molecular Surface Area = 237.196 Angst**2
 Requested basis set is rimp2-cc-pVTZ
 There are 394 shells and 1354 basis functions
 A cutoff of  1.0D-10 yielded  12188 shell pairs
 There are     90444 function pairs (    116796 Cartesian)
 Smallest overlap matrix eigenvalue = 7.53E-05

 Scale SEOQF with 1.000000e-01/1.000000e-01/1.000000e-01

 Standard Electronic Orientation quadrupole field applied
 Nucleus-field energy     =     0.0000000343 hartrees
 Guess from superposition of atomic densities
 Warning:  Energy on first SCF cycle will be non-variational
 SAD guess density has 102.000000 electrons

 -----------------------------------------------------------------------
  General SCF calculation program by
  Eric Jon Sundstrom, Paul Horn, Yuezhi Mao, Dmitri Zuev, Alec White,
  David Stuck, Shaama M.S., Shane Yost, Joonho Lee, David Small,
  Daniel Levine, Susi Lehtola, Hugh Burton, Evgeny Epifanovsky,
  Bang C. Huynh
 -----------------------------------------------------------------------
 Hartree-Fock
 A restricted SCF calculation will be
 performed using DIIS
 SCF converges when DIIS error is below 1.0e-06
 ---------------------------------------
  Cycle       Energy         DIIS error
 ---------------------------------------
    1   -1184.2024679868      2.38e-02  
    2   -1179.5459672813      1.60e-03  
    3   -1179.6652548366      6.15e-04  
    4   -1179.6786942415      3.44e-04  
    5   -1179.6835956060      6.75e-05  
    6   -1179.6838774911      3.07e-05  
    7   -1179.6839643779      1.26e-05  
    8   -1179.6839919893      5.31e-06  
    9   -1179.6839968371      1.65e-06  
   10   -1179.6839972769      5.08e-07  Convergence criterion met
 ---------------------------------------
 SCF time:   CPU 488.16s  wall 490.00s 

************** Final PCM Free Energy Summary **************
 G_electrostatic  =      -0.00798407 hartree =      -5.01007996 kcal/mol
 G_cavitation     =       0.00000000 hartree =       0.00000000 kcal/mol
 G_dispersion     =       0.00000000 hartree =       0.00000000 kcal/mol
 G_repulsion      =       0.00000000 hartree =       0.00000000 kcal/mol
 --------------------------------------------------
 Non-electrostatic Free Energy =       0.00000000 hartree =       0.00000000 kcal/mol
 Total                         =      -0.00798407 hartree =      -5.01007996 kcal/mol
 --------------------------------------------------
 SCF Energy (H0 + V/2)                       =   -1179.68399728 
 Solute Internal Energy (H0)                 =   -1179.67601321 
 Total Free Energy (H0 + V/2 + non-elec)     =   -1179.68399728 hartree
                                             = -740262.88107838 kcal/mol
***********************************************************

 SCF   energy in the final basis set =    -1179.6839972769
 Total energy in the final basis set =    -1179.6839972769


 --------------------------------------------------------------
  Generalized many-body perturbation theory program
  by Joonho Lee, Fazle Rob, Xintian Feng, Evgeny Epifanovsky

 No regularization used 
 (reg. param. = 0.0000e+00)
  (P|Q)^-1/2 Time:  CPU 1.75 s  wall 1.76 s

 In RI-MP2 calculation: 
 # of frozen core orbitals: 20

 Components of the RIMP2 correlation energy:
        aaaa    correlation energy =        -0.2522738191 a.u.
        abab    correlation energy =        -1.4736636225 a.u.
        bbbb    correlation energy =        -0.2522738191 a.u.
        non-Brillouin singles      =        -0.0000000000 a.u.
        total same-spin energy     =        -0.5045476383 a.u.
        total opposite-spin energy =        -1.4736636225 a.u.

 Total  RIMP2   correlation energy =        -1.9782112608 a.u.
        RIMP2         total energy =     -1181.6622085376 a.u.

 RI-MP2 Energy Time:  CPU 75.46 s  wall 75.78 s
 
 --------------------------------------------------------------
 
                    Orbital Energies (a.u.)
 --------------------------------------------------------------
 
 Alpha MOs
 -- Occupied --
-91.9857 -91.9845 -11.2787 -11.2733 -11.2721 -11.2651 -11.2532 -11.2511
-11.2426 -11.2417 -11.2294 -11.2291  -8.9851  -8.9841  -6.6660  -6.6655
 -6.6650  -6.6649  -6.6645  -6.6638  -1.1788  -1.1495  -1.0403  -1.0234
 -0.9966  -0.9547  -0.9129  -0.8925  -0.8013  -0.7525  -0.7314  -0.6953
 -0.6622  -0.6160  -0.5833  -0.5794  -0.5700  -0.5682  -0.5521  -0.5321
 -0.5303  -0.5201  -0.5076  -0.4914  -0.4870  -0.4668  -0.4614  -0.3490
 -0.3378  -0.3281  -0.2955
 -- Virtual --
  0.0838   0.1080   0.1419   0.1491   0.1626   0.1746   0.1765   0.1878
  0.1906   0.1961   0.2025   0.2189   0.2317   0.2331   0.2391   0.2454
  0.2518   0.2732   0.2897   0.3107   0.3396   0.3480   0.3554   0.3660
  0.3770   0.3838   0.3913   0.3954   0.4066   0.4110   0.4203   0.4329
  0.4393   0.4527   0.4686   0.4744   0.4768   0.4832   0.4897   0.4992
  0.5077   0.5120   0.5219   0.5355   0.5453   0.5522   0.5548   0.5639
  0.5722   0.5862   0.5958   0.5973   0.6024   0.6083   0.6117   0.6228
  0.6276   0.6318   0.6376   0.6435   0.6484   0.6536   0.6581   0.6649
  0.6650   0.6851   0.6904   0.7097   0.7147   0.7234   0.7337   0.7530
  0.7660   0.7827   0.7935   0.8036   0.8174   0.8364   0.8381   0.8424
  0.8438   0.8531   0.8716   0.8879   0.9018   0.9173   0.9383   0.9408
  0.9489   0.9647   0.9724   0.9956   1.0045   1.0161   1.0197   1.0244
  1.0389   1.0492   1.0626   1.0697   1.0736   1.0787   1.0892   1.0990
  1.1063   1.1168   1.1285   1.1414   1.1621   1.1701   1.1817   1.1955
  1.2015   1.2144   1.2228   1.2308   1.2442   1.2459   1.2542   1.2651
  1.2765   1.2861   1.3048   1.3302   1.3346   1.3417   1.3459   1.3700
  1.3774   1.3897   1.4050   1.4124   1.4177   1.4338   1.4547   1.4668
  1.4761   1.4800   1.5008   1.5053   1.5133   1.5254   1.5363   1.5510
  1.5560   1.5632   1.5700   1.5835   1.5881   1.5978   1.6021   1.6305
  1.6524   1.6578   1.6816   1.6909   1.6926   1.7083   1.7184   1.7276
  1.7506   1.7555   1.7661   1.7815   1.7966   1.8045   1.8288   1.8547
  1.8822   1.8971   1.9025   1.9074   1.9398   1.9462   1.9686   1.9830
  2.0102   2.0456   2.0607   2.0963   2.1180   2.1322   2.1535   2.1656
  2.1828   2.1944   2.1996   2.2188   2.2339   2.2449   2.2668   2.2805
  2.3013   2.3074   2.3288   2.3958   2.4044   2.4283   2.4384   2.4548
  2.4688   2.4983   2.5021   2.5291   2.5390   2.5632   2.5755   2.5952
  2.6112   2.6195   2.6342   2.6596   2.6739   2.6871   2.7273   2.7312
  2.7392   2.7424   2.7488   2.7638   2.7658   2.7737   2.8006   2.8070
  2.8324   2.8414   2.8517   2.8605   2.8774   2.8891   2.9126   2.9160
  2.9347   2.9581   2.9701   2.9877   2.9961   3.0163   3.0234   3.0368
  3.0425   3.0815   3.0974   3.1111   3.1173   3.1270   3.1393   3.1411
  3.1447   3.1569   3.1672   3.1805   3.1862   3.2014   3.2139   3.2212
  3.2442   3.2459   3.2562   3.2735   3.2803   3.2846   3.3060   3.3131
  3.3223   3.3286   3.3390   3.3439   3.3551   3.3581   3.3655   3.3699
  3.3827   3.3933   3.3994   3.4093   3.4173   3.4235   3.4273   3.4399
  3.4460   3.4573   3.4731   3.4784   3.4882   3.5035   3.5161   3.5274
  3.5283   3.5321   3.5379   3.5469   3.5618   3.5671   3.5870   3.6007
  3.6091   3.6193   3.6278   3.6322   3.6333   3.6392   3.6484   3.6688
  3.6722   3.6831   3.6975   3.7002   3.7189   3.7231   3.7385   3.7489
  3.7561   3.7760   3.7831   3.8021   3.8041   3.8183   3.8295   3.8421
  3.8588   3.8709   3.8746   3.8934   3.9068   3.9250   3.9520   3.9647
  3.9839   3.9926   3.9932   4.0004   4.0154   4.0330   4.0402   4.0470
  4.0709   4.0873   4.0893   4.1120   4.1157   4.1353   4.1373   4.1505
  4.1510   4.1765   4.1880   4.1953   4.2010   4.2026   4.2193   4.2297
  4.2429   4.2593   4.2638   4.2887   4.2915   4.3113   4.3222   4.3293
  4.3475   4.3592   4.3804   4.3869   4.3962   4.4006   4.4105   4.4208
  4.4254   4.4448   4.4617   4.4799   4.4904   4.5012   4.5309   4.5648
  4.5873   4.5912   4.6071   4.6198   4.6328   4.6405   4.6581   4.6712
  4.7025   4.7257   4.7371   4.7511   4.7697   4.7715   4.8241   4.8298
  4.8648   4.8895   4.9038   4.9174   4.9658   4.9918   5.0153   5.0550
  5.0999   5.1105   5.1160   5.1341   5.1673   5.1814   5.2004   5.2470
  5.2664   5.2792   5.2908   5.3012   5.3267   5.3700   5.3945   5.3978
  5.4275   5.4470   5.4669   5.4880   5.5176   5.5291   5.5470   5.5543
  5.5671   5.6078   5.6226   5.6246   5.6443   5.6664   5.6987   5.7130
  5.7715   5.8246   5.9073   5.9545   6.0109   6.0687   6.1304   6.2251
  6.2299   6.2451   6.2750   6.3014   6.3189   6.4410   6.5087   8.8643
  9.9557  11.6981  12.0182  12.9118  13.0331  13.7592  13.9638  14.2224
 14.3066
 --------------------------------------------------------------
 
          Ground-State Mulliken Net Atomic Charges

     Atom                 Charge (a.u.)
  ----------------------------------------
      1 C                    -0.209771
      2 C                    -0.249766
      3 C                     0.049533
      4 H                     0.183990
      5 C                    -0.053796
      6 S                     0.024613
      7 C                    -0.282297
      8 H                     0.107664
      9 H                     0.111143
     10 H                     0.108560
     11 H                     0.204582
     12 C                    -0.007070
     13 C                    -0.226212
     14 C                     0.018523
     15 H                     0.187324
     16 C                    -0.236931
     17 S                     0.024985
     18 C                    -0.271586
     19 H                     0.102479
     20 H                     0.107844
     21 H                     0.108420
     22 H                     0.197771
  ----------------------------------------
  Sum of atomic charges =     0.000000

 -----------------------------------------------------------------
                    Cartesian Multipole Moments
 -----------------------------------------------------------------
    Charge (ESU x 10^10)
                -0.0000
    Dipole Moment (Debye)
         X      -1.0672      Y       0.2774      Z       1.9691
       Tot       2.2568
    Quadrupole Moments (Debye-Ang)
        XX     -86.6013     XY       3.8414     YY     -69.1207
        XZ      -1.9097     YZ       0.2550     ZZ     -85.9344
    Octopole Moments (Debye-Ang^2)
       XXX     -33.9599    XXY      29.2171    XYY      -0.1885
       YYY      96.2406    XXZ      -1.1215    XYZ       7.4413
       YYZ      -5.5638    XZZ      -9.1650    YZZ      57.6698
       ZZZ       1.5984
    Hexadecapole Moments (Debye-Ang^3)
      XXXX    -649.6396   XXXY     -77.6329   XXYY    -557.7856
      XYYY     -97.3531   YYYY   -2563.6850   XXXZ      69.7156
      XXYZ     -32.9439   XYYZ     -11.1997   YYYZ     -96.3890
      XXZZ    -215.5768   XYZZ     -21.5627   YYZZ    -606.9050
      XZZZ      75.3917   YZZZ     -97.6025   ZZZZ    -594.4962
 -----------------------------------------------------------------
 Total job time:  568.75s(wall), 564.55s(cpu) 
 Sat Jul  9 08:30:32 2022

        *************************************************************
        *                                                           *
        *  Thank you very much for using Q-Chem.  Have a nice day.  *
        *                                                           *
        *************************************************************


remove work dirs ./qchem949179.0 -- ./qchem949179.-1
rm -rf ./qchem949179
