You are running Q-Chem version: 5.4.0

#
# job setting
#
local host:  exp-1-55
current dir: /expanse/lustre/scratch/theleonzhang/temp_project/Interring_Bonds
input file:  Methylthiophene_Phi_5_Theta_260_Methylthiophene.qcin
output file: 
nprocs     : 0
nthreads   : 1
#
# qchem installation setting
#
QC:          /cm/shared/apps/spack/cpu/opt/spack/linux-centos8-zen2/gcc-10.2.0/qchem-5.4-akfmr7b3t57bfs6qan3padb2wnb2i7cl
QCAUX:       /cm/shared/apps/spack/cpu/opt/spack/linux-centos8-zen2/gcc-10.2.0/qchem-5.4-akfmr7b3t57bfs6qan3padb2wnb2i7cl/qcaux
QCPROG:      /cm/shared/apps/spack/cpu/opt/spack/linux-centos8-zen2/gcc-10.2.0/qchem-5.4-akfmr7b3t57bfs6qan3padb2wnb2i7cl/exe/qcprog.exe_s
QCPROG_S:    /cm/shared/apps/spack/cpu/opt/spack/linux-centos8-zen2/gcc-10.2.0/qchem-5.4-akfmr7b3t57bfs6qan3padb2wnb2i7cl/exe/qcprog.exe_s
PARALLEL:    -DSERIAL
QCMPI:       mpich
#
# qchem directory setting
#
qcrun:       qchem949901
QCSCRATCH:   .
QCLOCALSCR:  
QCTMPDIR:    .
QCFILEPREF:  ./qchem949901
QCSAVEDIR:   
workdirs:    ./qchem949901
workdir0:    ./qchem949901
partmpdirs =  
#
# parallel setting
#
QCRSH:           ssh
QCMPI:           mpich
QCMPIRUN:        /cm/shared/apps/spack/cpu/opt/spack/linux-centos8-zen2/gcc-10.2.0/qchem-5.4-akfmr7b3t57bfs6qan3padb2wnb2i7cl/bin/mpi/mpirun_qchem
QCMACHINEFILE:   ./qchem949901/hostfile

#
# env setting
#
exported envs:   QC QCAUX QCSCRATCH QCRUNNAME QCFILEPREF QCPROG QCPROG_S GUIFILE

Running Job 1 of 1 Methylthiophene_Phi_5_Theta_260_Methylthiophene.qcin
qchem Methylthiophene_Phi_5_Theta_260_Methylthiophene.qcin_949901.0 ./qchem949901/ 0
/cm/shared/apps/spack/cpu/opt/spack/linux-centos8-zen2/gcc-10.2.0/qchem-5.4-akfmr7b3t57bfs6qan3padb2wnb2i7cl/exe/qcprog.exe_s Methylthiophene_Phi_5_Theta_260_Methylthiophene.qcin_949901.0 ./qchem949901/
                  Welcome to Q-Chem
     A Quantum Leap Into The Future Of Chemistry


 Q-Chem 5.4, Q-Chem, Inc., Pleasanton, CA (2021)

 License issued to: University of California, San Diego (site)

 E. Epifanovsky,  A. T. B. Gilbert,  Xintian Feng,  Joonho Lee,  Yuezhi Mao,  
 N. Mardirossian,  P. Pokhilko,  A. White,  M. Wormit,  M. P. Coons,  
 A. L. Dempwolff,  Zhengting Gan,  D. Hait,  P. R. Horn,  L. D. Jacobson,  
 I. Kaliman,  J. Kussmann,  A. W. Lange,  Ka Un Lao,  D. S. Levine,  Jie Liu,  
 S. C. McKenzie,  A. F. Morrison,  K. Nanda,  F. Plasser,  D. R. Rehn,  
 M. L. Vidal,  Zhi-Qiang You,  Ying Zhu,  B. Alam,  B. Albrecht,  
 A. Aldossary,  E. Alguire,  J. H. Andersen,  D. Barton,  K. Begam,  A. Behn,  
 Y. A. Bernard,  E. J. Berquist,  H. Burton,  A. Carreras,  K. Carter-Fenk,  
 R. Chakraborty,  A. D. Chien,  K. D. Closser,  V. Cofer-Shabica,  
 S. Dasgupta,  Jia Deng,  M. de Wergifosse,  M. Diedenhofen,  Hainam Do,  
 S. Ehlert,  Po-Tung Fang,  S. Fatehi,  Qingguo Feng,  J. Gayvert,  
 Qinghui Ge,  G. Gidofalvi,  M. Goldey,  J. Gomes,  C. Gonzalez-Espinoza,  
 S. Gulania,  A. Gunina,  M. W. D. Hanson-Heine,  P. H. P. Harbach,  
 A. W. Hauser,  M. F. Herbst,  M. Hernandez Vera,  M. Hodecker,  
 Z. C. Holden,  S. Houck,  Xunkun Huang,  Kerwin Hui,  B. C. Huynh,  
 M. Ivanov,  Hyunjun Ji,  Hanjie Jiang,  B. Kaduk,  S. Kaehler,  
 K. Khistyaev,  Jaehoon Kim,  P. Klunzinger,  Z. Koczor-Benda,  
 Joong Hoon Koh,  D. Kosenkov,  L. Koulias,  T. Kowalczyk,  C. M. Krauter,  
 K. Kue,  A. Kunitsa,  T. Kus,  A. Landau,  K. V. Lawler,  D. Lefrancois,  
 S. Lehtola,  Rain Li,  Yi-Pei Li,  Jiashu Liang,  M. Liebenthal,  
 Hung-Hsuan Lin,  You-Sheng Lin,  Fenglai Liu,  Kuan-Yu Liu,  
 M. Loipersberger,  A. Luenser,  A. Manjanath,  P. Manohar,  E. Mansoor,  
 S. F. Manzer,  Shan-Ping Mao,  A. V. Marenich,  T. Markovich,  S. Mason,  
 S. A. Maurer,  P. F. McLaughlin,  M. F. S. J. Menger,  J.-M. Mewes,  
 S. A. Mewes,  P. Morgante,  J. W. Mullinax,  T. S. Nguyen-Beck,  
 K. J. Oosterbaan,  G. Paran,  Alexander C. Paul,  Suranjan K. Paul,  
 F. Pavosevic,  Zheng Pei,  S. Prager,  E. I. Proynov,  E. Ramos,  B. Rana,  
 A. E. Rask,  A. Rettig,  R. M. Richard,  F. Rob,  E. Rossomme,  T. Scheele,  
 M. Scheurer,  M. Schneider,  N. Sergueev,  S. M. Sharada,  W. Skomorowski,  
 D. W. Small,  C. J. Stein,  Yu-Chuan Su,  E. J. Sundstrom,  Zhen Tao,  
 J. Thirman,  T. Tsuchimochi,  N. M. Tubman,  S. P. Veccham,  O. Vydrov,  
 J. Wenzel,  J. Witte,  A. Yamada,  Kun Yao,  S. Yeganeh,  S. R. Yost,  
 A. Zech,  Igor Ying Zhang,  Xing Zhang,  Yu Zhang,  D. Zuev,  
 A. Aspuru-Guzik,  A. T. Bell,  N. A. Besley,  K. B. Bravaya,  B. R. Brooks,  
 D. Casanova,  Jeng-Da Chai,  S. Coriani,  C. J. Cramer,  
 A. E. DePrince, III,  R. A. DiStasio Jr.,  A. Dreuw,  B. D. Dunietz,  
 T. R. Furlani,  W. A. Goddard III,  S. Grimme,  S. Hammes-Schiffer,  
 T. Head-Gordon,  W. J. Hehre,  Chao-Ping Hsu,  T.-C. Jagau,  Yousung Jung,  
 A. Klamt,  Jing Kong,  D. S. Lambrecht,  WanZhen Liang,  N. J. Mayhall,  
 C. W. McCurdy,  J. B. Neaton,  C. Ochsenfeld,  J. A. Parkhill,  R. Peverati,  
 V. A. Rassolov,  Yihan Shao,  L. V. Slipchenko,  T. Stauch,  R. P. Steele,  
 J. E. Subotnik,  A. J. W. Thom,  A. Tkatchenko,  D. G. Truhlar,  
 T. Van Voorhis,  T. A. Wesolowski,  K. B. Whaley,  H. L. Woodcock III,  
 P. M. Zimmerman,  S. Faraji,  P. M. W. Gill,  M. Head-Gordon,  
 J. M. Herbert,  A. I. Krylov

 Contributors to earlier versions of Q-Chem not listed above: 
 R. D. Adamson,  B. Austin,  R. Baer,  J. Baker,  G. J. O. Beran,  
 K. Brandhorst,  S. T. Brown,  E. F. C. Byrd,  A. K. Chakraborty,  
 G. K. L. Chan,  Chun-Min Chang,  Yunqing Chen,  C.-L. Cheng,  
 Siu Hung Chien,  D. M. Chipman,  D. L. Crittenden,  H. Dachsel,  
 R. J. Doerksen,  A. D. Dutoi,  R. G. Edgar,  J. Fosso-Tande,  
 L. Fusti-Molnar,  D. Ghosh,  A. Ghysels,  A. Golubeva-Zadorozhnaya,  
 J. Gonthier,  M. S. Gordon,  S. R. Gwaltney,  G. Hawkins,  J. E. Herr,  
 A. Heyden,  S. Hirata,  E. G. Hohenstein,  G. Kedziora,  F. J. Keil,  
 C. Kelley,  Jihan Kim,  R. A. King,  R. Z. Khaliullin,  P. P. Korambath,  
 W. Kurlancheek,  A. Laurent,  A. M. Lee,  M. S. Lee,  S. V. Levchenko,  
 Ching Yeh Lin,  D. Liotard,  E. Livshits,  R. C. Lochan,  I. Lotan,  
 L. A. Martinez-Martinez,  P. E. Maslen,  N. Nair,  D. P. O'Neill,  
 D. Neuhauser,  E. Neuscamman,  C. M. Oana,  R. Olivares-Amaya,  R. Olson,  
 T. M. Perrine,  B. Peters,  P. A. Pieniazek,  A. Prociuk,  Y. M. Rhee,  
 J. Ritchie,  M. A. Rohrdanz,  E. Rosta,  N. J. Russ,  H. F. Schaefer III,  
 M. W. Schmidt,  N. E. Schultz,  S. Sharma,  N. Shenvi,  C. D. Sherrill,  
 A. C. Simmonett,  A. Sodt,  T. Stein,  D. Stuck,  K. S. Thanthiriwatte,  
 V. Vanovschi,  L. Vogt,  Tao Wang,  A. Warshel,  M. A. Watson,  
 C. F. Williams,  Q. Wu,  X. Xu,  Jun Yang,  W. Zhang,  Yan Zhao

 Please cite Q-Chem as follows:
 Y. Shao et al., Mol. Phys. 113, 184-215 (2015)
 DOI: 10.1080/00268976.2014.952696

 Q-Chem 5.4.0 for Intel X86 EM64T Linux

 Parts of Q-Chem use Armadillo 9.800.1 (Horizon Scraper).
 http://arma.sourceforge.net/

 Q-Chem begins on Sat Jul  9 15:52:38 2022  

 Host: 
0

     Scratch files written to ./qchem949901//
 May1621 |scratch|qcdevops|jenkins|workspace|build_RNUM    
 Processing $rem in /cm/shared/apps/spack/cpu/opt/spack/linux-centos8-zen2/gcc-10.2.0/qchem-5.4-akfmr7b3t57bfs6qan3padb2wnb2i7cl/config/preferences:
 Processing $rem in /home/theleonzhang/.qchemrc:
 Symmetry turned off for PCM/SM12/SMD calculation
 Core orbitals will be frozen

 Checking the input file for inconsistencies... 	...done.

--------------------------------------------------------------
User input:
--------------------------------------------------------------
$molecule
0 1
C	0.763475	-3.866725	-0.133897
C	-0.603206	-3.703963	0.106669
C	-1.050446	-2.357056	0.185154
H	-1.283024	-4.561092	0.226709
C	-0.000000	-1.440664	-0.000000
S	1.521018	-2.286957	-0.268206
C	-2.483610	-1.978743	0.437628
H	-3.118875	-2.878678	0.549717
H	-2.903464	-1.376015	-0.394664
H	-2.593726	-1.375728	1.363110
H	1.354522	-4.783437	-0.237880
C	0.000000	0.000000	0.000000
C	0.075300	0.860311	1.099446
C	0.195935	2.238951	0.776721
H	0.043151	0.492916	2.136088
C	0.215188	2.458766	-0.612546
S	0.082160	0.938811	-1.486809
C	0.290762	3.322559	1.814609
H	0.253664	2.898542	2.836676
H	-0.541206	4.052140	1.726239
H	1.236797	3.896558	1.726228
H	0.297938	3.404370	-1.161575
$end

$rem
JOBTYPE		SP
EXCHANGE	HF
CORRELATION	pRIMP2
BASIS		cc-pvtz
METHOD		rimp2
AUX_BASIS	rimp2-cc-pvtz
SOLVENT_METHOD	PCM
PURECART	11111
SYMMETRY	false
MEM_TOTAL	110000
SCF_CONVERGENCE = 6
THRESH=10
$end



$solvent
dielectric 4.90
$end
--------------------------------------------------------------
 ----------------------------------------------------------------
             Standard Nuclear Orientation (Angstroms)
    I     Atom           X                Y                Z
 ----------------------------------------------------------------
    1      C       0.7634750000    -3.8667250000    -0.1338970000
    2      C      -0.6032060000    -3.7039630000     0.1066690000
    3      C      -1.0504460000    -2.3570560000     0.1851540000
    4      H      -1.2830240000    -4.5610920000     0.2267090000
    5      C       0.0000000000    -1.4406640000     0.0000000000
    6      S       1.5210180000    -2.2869570000    -0.2682060000
    7      C      -2.4836100000    -1.9787430000     0.4376280000
    8      H      -3.1188750000    -2.8786780000     0.5497170000
    9      H      -2.9034640000    -1.3760150000    -0.3946640000
   10      H      -2.5937260000    -1.3757280000     1.3631100000
   11      H       1.3545220000    -4.7834370000    -0.2378800000
   12      C       0.0000000000     0.0000000000     0.0000000000
   13      C       0.0753000000     0.8603110000     1.0994460000
   14      C       0.1959350000     2.2389510000     0.7767210000
   15      H       0.0431510000     0.4929160000     2.1360880000
   16      C       0.2151880000     2.4587660000    -0.6125460000
   17      S       0.0821600000     0.9388110000    -1.4868090000
   18      C       0.2907620000     3.3225590000     1.8146090000
   19      H       0.2536640000     2.8985420000     2.8366760000
   20      H      -0.5412060000     4.0521400000     1.7262390000
   21      H       1.2367970000     3.8965580000     1.7262280000
   22      H       0.2979380000     3.4043700000    -1.1615750000
 ----------------------------------------------------------------
 Nuclear Repulsion Energy =         832.70712383 hartrees
 There are       51 alpha and       51 beta electrons

 Q-Chem warning in module forms1/BasisType.C, line 2236:

 You are not using the predefined 5D/6D in this basis set.

 Requested basis set is cc-pVTZ
 There are 184 shells and 508 basis functions

 Total QAlloc Memory Limit 110000 MB
 Mega-Array Size       188 MB
 MEM_STATIC part       192 MB
 Discretize the solute cavity surface with Lebedev spheres
	Using 110 Lebedev grid points for each H atom
	Using 194 Lebedev grid points for other atoms
	Atomic van der Waals radii will be scaled by 1.20
 Remove points where switching function is < 1.0e-08
 Keep 1576 surface tesserae and discard 1852 interior tesserae
 Molecular Surface Area = 238.634 Angst**2
 Requested basis set is rimp2-cc-pVTZ
 There are 394 shells and 1354 basis functions
 A cutoff of  1.0D-10 yielded  12174 shell pairs
 There are     90348 function pairs (    116699 Cartesian)
 Smallest overlap matrix eigenvalue = 7.28E-05

 Scale SEOQF with 1.000000e-01/1.000000e-01/1.000000e-01

 Standard Electronic Orientation quadrupole field applied
 Nucleus-field energy     =     0.0000000359 hartrees
 Guess from superposition of atomic densities
 Warning:  Energy on first SCF cycle will be non-variational
 SAD guess density has 102.000000 electrons

 -----------------------------------------------------------------------
  General SCF calculation program by
  Eric Jon Sundstrom, Paul Horn, Yuezhi Mao, Dmitri Zuev, Alec White,
  David Stuck, Shaama M.S., Shane Yost, Joonho Lee, David Small,
  Daniel Levine, Susi Lehtola, Hugh Burton, Evgeny Epifanovsky,
  Bang C. Huynh
 -----------------------------------------------------------------------
 Hartree-Fock
 A restricted SCF calculation will be
 performed using DIIS
 SCF converges when DIIS error is below 1.0e-06
 ---------------------------------------
  Cycle       Energy         DIIS error
 ---------------------------------------
    1   -1184.1980435260      2.38e-02  
    2   -1179.5473515975      1.59e-03  
    3   -1179.6664924719      6.13e-04  
    4   -1179.6798606133      3.43e-04  
    5   -1179.6847393297      6.76e-05  
    6   -1179.6850221699      3.06e-05  
    7   -1179.6851093956      1.26e-05  
    8   -1179.6851371229      5.30e-06  
    9   -1179.6851419641      1.64e-06  
   10   -1179.6851423913      5.07e-07  Convergence criterion met
 ---------------------------------------
 SCF time:   CPU 480.62s  wall 483.00s 

************** Final PCM Free Energy Summary **************
 G_electrostatic  =      -0.00784470 hartree =      -4.92262324 kcal/mol
 G_cavitation     =       0.00000000 hartree =       0.00000000 kcal/mol
 G_dispersion     =       0.00000000 hartree =       0.00000000 kcal/mol
 G_repulsion      =       0.00000000 hartree =       0.00000000 kcal/mol
 --------------------------------------------------
 Non-electrostatic Free Energy =       0.00000000 hartree =       0.00000000 kcal/mol
 Total                         =      -0.00784470 hartree =      -4.92262324 kcal/mol
 --------------------------------------------------
 SCF Energy (H0 + V/2)                       =   -1179.68514239 
 Solute Internal Energy (H0)                 =   -1179.67729769 
 Total Free Energy (H0 + V/2 + non-elec)     =   -1179.68514239 hartree
                                             = -740263.59964851 kcal/mol
***********************************************************

 SCF   energy in the final basis set =    -1179.6851423913
 Total energy in the final basis set =    -1179.6851423913


 --------------------------------------------------------------
  Generalized many-body perturbation theory program
  by Joonho Lee, Fazle Rob, Xintian Feng, Evgeny Epifanovsky

 No regularization used 
 (reg. param. = 0.0000e+00)
  (P|Q)^-1/2 Time:  CPU 1.68 s  wall 1.69 s

 In RI-MP2 calculation: 
 # of frozen core orbitals: 20

 Components of the RIMP2 correlation energy:
        aaaa    correlation energy =        -0.2521661335 a.u.
        abab    correlation energy =        -1.4734504181 a.u.
        bbbb    correlation energy =        -0.2521661335 a.u.
        non-Brillouin singles      =        -0.0000000000 a.u.
        total same-spin energy     =        -0.5043322671 a.u.
        total opposite-spin energy =        -1.4734504181 a.u.

 Total  RIMP2   correlation energy =        -1.9777826852 a.u.
        RIMP2         total energy =     -1181.6629250764 a.u.

 RI-MP2 Energy Time:  CPU 66.68 s  wall 66.94 s
 
 --------------------------------------------------------------
 
                    Orbital Energies (a.u.)
 --------------------------------------------------------------
 
 Alpha MOs
 -- Occupied --
-91.9854 -91.9844 -11.2786 -11.2727 -11.2725 -11.2647 -11.2540 -11.2508
-11.2424 -11.2417 -11.2294 -11.2290  -8.9849  -8.9841  -6.6658  -6.6652
 -6.6649  -6.6646  -6.6644  -6.6638  -1.1784  -1.1495  -1.0400  -1.0233
 -0.9968  -0.9544  -0.9132  -0.8923  -0.8010  -0.7530  -0.7310  -0.6951
 -0.6624  -0.6161  -0.5827  -0.5793  -0.5705  -0.5687  -0.5521  -0.5310
 -0.5306  -0.5201  -0.5075  -0.4915  -0.4879  -0.4649  -0.4626  -0.3473
 -0.3374  -0.3208  -0.3038
 -- Virtual --
  0.0904   0.1022   0.1421   0.1483   0.1626   0.1753   0.1760   0.1874
  0.1891   0.1947   0.2019   0.2178   0.2306   0.2338   0.2408   0.2467
  0.2511   0.2691   0.2898   0.3038   0.3391   0.3509   0.3532   0.3638
  0.3773   0.3831   0.3924   0.3942   0.4076   0.4110   0.4208   0.4337
  0.4421   0.4558   0.4674   0.4694   0.4738   0.4810   0.4900   0.5005
  0.5098   0.5125   0.5233   0.5358   0.5447   0.5501   0.5583   0.5644
  0.5748   0.5882   0.5903   0.5968   0.6017   0.6093   0.6132   0.6203
  0.6285   0.6323   0.6344   0.6444   0.6476   0.6500   0.6555   0.6629
  0.6711   0.6779   0.6877   0.7133   0.7156   0.7252   0.7378   0.7513
  0.7654   0.7819   0.7929   0.8072   0.8198   0.8325   0.8349   0.8382
  0.8470   0.8519   0.8692   0.8884   0.9010   0.9284   0.9399   0.9456
  0.9478   0.9627   0.9674   0.9924   1.0042   1.0155   1.0206   1.0217
  1.0400   1.0453   1.0631   1.0678   1.0734   1.0810   1.0907   1.0958
  1.1064   1.1152   1.1303   1.1454   1.1656   1.1755   1.1798   1.1934
  1.1954   1.2134   1.2241   1.2273   1.2483   1.2501   1.2558   1.2662
  1.2812   1.2875   1.3056   1.3236   1.3266   1.3427   1.3494   1.3680
  1.3711   1.3848   1.3991   1.4147   1.4206   1.4341   1.4532   1.4666
  1.4753   1.4819   1.4995   1.5046   1.5118   1.5317   1.5351   1.5541
  1.5562   1.5642   1.5703   1.5822   1.5919   1.5987   1.6082   1.6297
  1.6493   1.6581   1.6825   1.6887   1.6942   1.7067   1.7195   1.7228
  1.7554   1.7585   1.7645   1.7774   1.7994   1.8072   1.8256   1.8575
  1.8807   1.8942   1.8952   1.9127   1.9363   1.9458   1.9643   1.9876
  2.0183   2.0451   2.0561   2.1019   2.1183   2.1349   2.1534   2.1706
  2.1871   2.1959   2.1989   2.2146   2.2319   2.2410   2.2689   2.2808
  2.3023   2.3159   2.3292   2.3958   2.4051   2.4202   2.4306   2.4496
  2.4703   2.4941   2.5057   2.5271   2.5461   2.5655   2.5755   2.5994
  2.6118   2.6167   2.6390   2.6582   2.6746   2.6872   2.7231   2.7266
  2.7319   2.7438   2.7485   2.7623   2.7638   2.7686   2.7960   2.8001
  2.8327   2.8401   2.8521   2.8634   2.8777   2.8822   2.9070   2.9149
  2.9317   2.9624   2.9705   2.9884   2.9982   3.0156   3.0237   3.0373
  3.0511   3.0800   3.0971   3.1111   3.1170   3.1268   3.1375   3.1409
  3.1463   3.1568   3.1665   3.1695   3.1847   3.2073   3.2147   3.2290
  3.2419   3.2449   3.2544   3.2768   3.2800   3.2913   3.3045   3.3084
  3.3275   3.3345   3.3360   3.3465   3.3522   3.3580   3.3668   3.3732
  3.3818   3.3845   3.3941   3.4063   3.4201   3.4279   3.4324   3.4377
  3.4469   3.4591   3.4700   3.4825   3.4966   3.4991   3.5141   3.5261
  3.5301   3.5342   3.5392   3.5466   3.5611   3.5649   3.5862   3.5987
  3.6095   3.6195   3.6218   3.6261   3.6324   3.6375   3.6434   3.6667
  3.6718   3.6879   3.6979   3.7057   3.7174   3.7176   3.7352   3.7518
  3.7555   3.7763   3.7843   3.8029   3.8054   3.8186   3.8357   3.8387
  3.8597   3.8690   3.8787   3.8966   3.9054   3.9233   3.9517   3.9647
  3.9848   3.9867   3.9929   4.0037   4.0133   4.0292   4.0362   4.0480
  4.0761   4.0849   4.0896   4.1032   4.1216   4.1345   4.1397   4.1483
  4.1573   4.1758   4.1891   4.1945   4.1980   4.2060   4.2169   4.2344
  4.2412   4.2597   4.2625   4.2869   4.2934   4.3109   4.3254   4.3283
  4.3534   4.3579   4.3774   4.3833   4.3962   4.4000   4.4050   4.4211
  4.4241   4.4445   4.4574   4.4799   4.4930   4.5023   4.5282   4.5654
  4.5870   4.5965   4.6098   4.6161   4.6290   4.6371   4.6608   4.6704
  4.7047   4.7229   4.7429   4.7512   4.7686   4.7758   4.8206   4.8313
  4.8723   4.8858   4.9045   4.9186   4.9625   4.9947   5.0130   5.0551
  5.0982   5.1070   5.1137   5.1383   5.1662   5.1844   5.2007   5.2486
  5.2678   5.2788   5.2932   5.3007   5.3296   5.3695   5.3936   5.3973
  5.4251   5.4471   5.4666   5.4870   5.5183   5.5308   5.5459   5.5558
  5.5726   5.6063   5.6219   5.6246   5.6427   5.6678   5.6991   5.7127
  5.7715   5.8250   5.9076   5.9567   6.0065   6.0636   6.1308   6.2253
  6.2290   6.2461   6.2737   6.3029   6.3188   6.4473   6.5080   8.8948
  9.9473  11.7028  12.0109  12.9141  13.0367  13.7513  13.9633  14.2203
 14.3024
 --------------------------------------------------------------
 
          Ground-State Mulliken Net Atomic Charges

     Atom                 Charge (a.u.)
  ----------------------------------------
      1 C                    -0.210376
      2 C                    -0.248999
      3 C                     0.048517
      4 H                     0.184191
      5 C                    -0.053338
      6 S                     0.025054
      7 C                    -0.281510
      8 H                     0.107543
      9 H                     0.110867
     10 H                     0.109269
     11 H                     0.204493
     12 C                    -0.007595
     13 C                    -0.226262
     14 C                     0.017671
     15 H                     0.186276
     16 C                    -0.237944
     17 S                     0.027067
     18 C                    -0.271419
     19 H                     0.102615
     20 H                     0.107774
     21 H                     0.108381
     22 H                     0.197725
  ----------------------------------------
  Sum of atomic charges =     0.000000

 -----------------------------------------------------------------
                    Cartesian Multipole Moments
 -----------------------------------------------------------------
    Charge (ESU x 10^10)
                -0.0000
    Dipole Moment (Debye)
         X      -1.3166      Y       0.2434      Z       1.7121
       Tot       2.1735
    Quadrupole Moments (Debye-Ang)
        XX     -86.2540     XY       3.0411     YY     -68.7978
        XZ      -1.0175     YZ       0.6404     ZZ     -86.5303
    Octopole Moments (Debye-Ang^2)
       XXX     -15.4551    XXY      25.2216    XYY       2.8355
       YYY      94.4562    XXZ      -1.0246    XYZ       3.9651
       YYZ      -4.6810    XZZ      -3.4905    YZZ      58.9861
       ZZZ       2.5925
    Hexadecapole Moments (Debye-Ang^3)
      XXXX    -672.4024   XXXY     -33.7121   XXYY    -559.9968
      XYYY     -66.8814   YYYY   -2579.0400   XXXZ      37.2309
      XXYZ     -31.8284   XYYZ      -5.6651   YYYZ    -103.8295
      XXZZ    -214.4362   XYZZ     -10.3544   YYZZ    -610.6875
      XZZZ      41.0099   YZZZ     -97.6902   ZZZZ    -544.7378
 -----------------------------------------------------------------
 Total job time:  552.26s(wall), 548.12s(cpu) 
 Sat Jul  9 16:01:50 2022

        *************************************************************
        *                                                           *
        *  Thank you very much for using Q-Chem.  Have a nice day.  *
        *                                                           *
        *************************************************************


remove work dirs ./qchem949901.0 -- ./qchem949901.-1
rm -rf ./qchem949901
