You are running Q-Chem version: 5.4.0

#
# job setting
#
local host:  exp-1-37
current dir: /expanse/lustre/scratch/theleonzhang/temp_project/Interring_Bonds
input file:  Methylthiophene_Phi_40_Theta_270_Methylthiophene.qcin
output file: 
nprocs     : 0
nthreads   : 1
#
# qchem installation setting
#
QC:          /cm/shared/apps/spack/cpu/opt/spack/linux-centos8-zen2/gcc-10.2.0/qchem-5.4-akfmr7b3t57bfs6qan3padb2wnb2i7cl
QCAUX:       /cm/shared/apps/spack/cpu/opt/spack/linux-centos8-zen2/gcc-10.2.0/qchem-5.4-akfmr7b3t57bfs6qan3padb2wnb2i7cl/qcaux
QCPROG:      /cm/shared/apps/spack/cpu/opt/spack/linux-centos8-zen2/gcc-10.2.0/qchem-5.4-akfmr7b3t57bfs6qan3padb2wnb2i7cl/exe/qcprog.exe_s
QCPROG_S:    /cm/shared/apps/spack/cpu/opt/spack/linux-centos8-zen2/gcc-10.2.0/qchem-5.4-akfmr7b3t57bfs6qan3padb2wnb2i7cl/exe/qcprog.exe_s
PARALLEL:    -DSERIAL
QCMPI:       mpich
#
# qchem directory setting
#
qcrun:       qchem1601991
QCSCRATCH:   .
QCLOCALSCR:  
QCTMPDIR:    .
QCFILEPREF:  ./qchem1601991
QCSAVEDIR:   
workdirs:    ./qchem1601991
workdir0:    ./qchem1601991
partmpdirs =  
#
# parallel setting
#
QCRSH:           ssh
QCMPI:           mpich
QCMPIRUN:        /cm/shared/apps/spack/cpu/opt/spack/linux-centos8-zen2/gcc-10.2.0/qchem-5.4-akfmr7b3t57bfs6qan3padb2wnb2i7cl/bin/mpi/mpirun_qchem
QCMACHINEFILE:   ./qchem1601991/hostfile

#
# env setting
#
exported envs:   QC QCAUX QCSCRATCH QCRUNNAME QCFILEPREF QCPROG QCPROG_S GUIFILE

Running Job 1 of 1 Methylthiophene_Phi_40_Theta_270_Methylthiophene.qcin
qchem Methylthiophene_Phi_40_Theta_270_Methylthiophene.qcin_1601991.0 ./qchem1601991/ 0
/cm/shared/apps/spack/cpu/opt/spack/linux-centos8-zen2/gcc-10.2.0/qchem-5.4-akfmr7b3t57bfs6qan3padb2wnb2i7cl/exe/qcprog.exe_s Methylthiophene_Phi_40_Theta_270_Methylthiophene.qcin_1601991.0 ./qchem1601991/
                  Welcome to Q-Chem
     A Quantum Leap Into The Future Of Chemistry


 Q-Chem 5.4, Q-Chem, Inc., Pleasanton, CA (2021)

 License issued to: University of California, San Diego (site)

 E. Epifanovsky,  A. T. B. Gilbert,  Xintian Feng,  Joonho Lee,  Yuezhi Mao,  
 N. Mardirossian,  P. Pokhilko,  A. White,  M. Wormit,  M. P. Coons,  
 A. L. Dempwolff,  Zhengting Gan,  D. Hait,  P. R. Horn,  L. D. Jacobson,  
 I. Kaliman,  J. Kussmann,  A. W. Lange,  Ka Un Lao,  D. S. Levine,  Jie Liu,  
 S. C. McKenzie,  A. F. Morrison,  K. Nanda,  F. Plasser,  D. R. Rehn,  
 M. L. Vidal,  Zhi-Qiang You,  Ying Zhu,  B. Alam,  B. Albrecht,  
 A. Aldossary,  E. Alguire,  J. H. Andersen,  D. Barton,  K. Begam,  A. Behn,  
 Y. A. Bernard,  E. J. Berquist,  H. Burton,  A. Carreras,  K. Carter-Fenk,  
 R. Chakraborty,  A. D. Chien,  K. D. Closser,  V. Cofer-Shabica,  
 S. Dasgupta,  Jia Deng,  M. de Wergifosse,  M. Diedenhofen,  Hainam Do,  
 S. Ehlert,  Po-Tung Fang,  S. Fatehi,  Qingguo Feng,  J. Gayvert,  
 Qinghui Ge,  G. Gidofalvi,  M. Goldey,  J. Gomes,  C. Gonzalez-Espinoza,  
 S. Gulania,  A. Gunina,  M. W. D. Hanson-Heine,  P. H. P. Harbach,  
 A. W. Hauser,  M. F. Herbst,  M. Hernandez Vera,  M. Hodecker,  
 Z. C. Holden,  S. Houck,  Xunkun Huang,  Kerwin Hui,  B. C. Huynh,  
 M. Ivanov,  Hyunjun Ji,  Hanjie Jiang,  B. Kaduk,  S. Kaehler,  
 K. Khistyaev,  Jaehoon Kim,  P. Klunzinger,  Z. Koczor-Benda,  
 Joong Hoon Koh,  D. Kosenkov,  L. Koulias,  T. Kowalczyk,  C. M. Krauter,  
 K. Kue,  A. Kunitsa,  T. Kus,  A. Landau,  K. V. Lawler,  D. Lefrancois,  
 S. Lehtola,  Rain Li,  Yi-Pei Li,  Jiashu Liang,  M. Liebenthal,  
 Hung-Hsuan Lin,  You-Sheng Lin,  Fenglai Liu,  Kuan-Yu Liu,  
 M. Loipersberger,  A. Luenser,  A. Manjanath,  P. Manohar,  E. Mansoor,  
 S. F. Manzer,  Shan-Ping Mao,  A. V. Marenich,  T. Markovich,  S. Mason,  
 S. A. Maurer,  P. F. McLaughlin,  M. F. S. J. Menger,  J.-M. Mewes,  
 S. A. Mewes,  P. Morgante,  J. W. Mullinax,  T. S. Nguyen-Beck,  
 K. J. Oosterbaan,  G. Paran,  Alexander C. Paul,  Suranjan K. Paul,  
 F. Pavosevic,  Zheng Pei,  S. Prager,  E. I. Proynov,  E. Ramos,  B. Rana,  
 A. E. Rask,  A. Rettig,  R. M. Richard,  F. Rob,  E. Rossomme,  T. Scheele,  
 M. Scheurer,  M. Schneider,  N. Sergueev,  S. M. Sharada,  W. Skomorowski,  
 D. W. Small,  C. J. Stein,  Yu-Chuan Su,  E. J. Sundstrom,  Zhen Tao,  
 J. Thirman,  T. Tsuchimochi,  N. M. Tubman,  S. P. Veccham,  O. Vydrov,  
 J. Wenzel,  J. Witte,  A. Yamada,  Kun Yao,  S. Yeganeh,  S. R. Yost,  
 A. Zech,  Igor Ying Zhang,  Xing Zhang,  Yu Zhang,  D. Zuev,  
 A. Aspuru-Guzik,  A. T. Bell,  N. A. Besley,  K. B. Bravaya,  B. R. Brooks,  
 D. Casanova,  Jeng-Da Chai,  S. Coriani,  C. J. Cramer,  
 A. E. DePrince, III,  R. A. DiStasio Jr.,  A. Dreuw,  B. D. Dunietz,  
 T. R. Furlani,  W. A. Goddard III,  S. Grimme,  S. Hammes-Schiffer,  
 T. Head-Gordon,  W. J. Hehre,  Chao-Ping Hsu,  T.-C. Jagau,  Yousung Jung,  
 A. Klamt,  Jing Kong,  D. S. Lambrecht,  WanZhen Liang,  N. J. Mayhall,  
 C. W. McCurdy,  J. B. Neaton,  C. Ochsenfeld,  J. A. Parkhill,  R. Peverati,  
 V. A. Rassolov,  Yihan Shao,  L. V. Slipchenko,  T. Stauch,  R. P. Steele,  
 J. E. Subotnik,  A. J. W. Thom,  A. Tkatchenko,  D. G. Truhlar,  
 T. Van Voorhis,  T. A. Wesolowski,  K. B. Whaley,  H. L. Woodcock III,  
 P. M. Zimmerman,  S. Faraji,  P. M. W. Gill,  M. Head-Gordon,  
 J. M. Herbert,  A. I. Krylov

 Contributors to earlier versions of Q-Chem not listed above: 
 R. D. Adamson,  B. Austin,  R. Baer,  J. Baker,  G. J. O. Beran,  
 K. Brandhorst,  S. T. Brown,  E. F. C. Byrd,  A. K. Chakraborty,  
 G. K. L. Chan,  Chun-Min Chang,  Yunqing Chen,  C.-L. Cheng,  
 Siu Hung Chien,  D. M. Chipman,  D. L. Crittenden,  H. Dachsel,  
 R. J. Doerksen,  A. D. Dutoi,  R. G. Edgar,  J. Fosso-Tande,  
 L. Fusti-Molnar,  D. Ghosh,  A. Ghysels,  A. Golubeva-Zadorozhnaya,  
 J. Gonthier,  M. S. Gordon,  S. R. Gwaltney,  G. Hawkins,  J. E. Herr,  
 A. Heyden,  S. Hirata,  E. G. Hohenstein,  G. Kedziora,  F. J. Keil,  
 C. Kelley,  Jihan Kim,  R. A. King,  R. Z. Khaliullin,  P. P. Korambath,  
 W. Kurlancheek,  A. Laurent,  A. M. Lee,  M. S. Lee,  S. V. Levchenko,  
 Ching Yeh Lin,  D. Liotard,  E. Livshits,  R. C. Lochan,  I. Lotan,  
 L. A. Martinez-Martinez,  P. E. Maslen,  N. Nair,  D. P. O'Neill,  
 D. Neuhauser,  E. Neuscamman,  C. M. Oana,  R. Olivares-Amaya,  R. Olson,  
 T. M. Perrine,  B. Peters,  P. A. Pieniazek,  A. Prociuk,  Y. M. Rhee,  
 J. Ritchie,  M. A. Rohrdanz,  E. Rosta,  N. J. Russ,  H. F. Schaefer III,  
 M. W. Schmidt,  N. E. Schultz,  S. Sharma,  N. Shenvi,  C. D. Sherrill,  
 A. C. Simmonett,  A. Sodt,  T. Stein,  D. Stuck,  K. S. Thanthiriwatte,  
 V. Vanovschi,  L. Vogt,  Tao Wang,  A. Warshel,  M. A. Watson,  
 C. F. Williams,  Q. Wu,  X. Xu,  Jun Yang,  W. Zhang,  Yan Zhao

 Please cite Q-Chem as follows:
 Y. Shao et al., Mol. Phys. 113, 184-215 (2015)
 DOI: 10.1080/00268976.2014.952696

 Q-Chem 5.4.0 for Intel X86 EM64T Linux

 Parts of Q-Chem use Armadillo 9.800.1 (Horizon Scraper).
 http://arma.sourceforge.net/

 Q-Chem begins on Sat Jul  9 08:57:38 2022  

 Host: 
0

     Scratch files written to ./qchem1601991//
 May1621 |scratch|qcdevops|jenkins|workspace|build_RNUM    
 Processing $rem in /cm/shared/apps/spack/cpu/opt/spack/linux-centos8-zen2/gcc-10.2.0/qchem-5.4-akfmr7b3t57bfs6qan3padb2wnb2i7cl/config/preferences:
 Processing $rem in /home/theleonzhang/.qchemrc:
 Symmetry turned off for PCM/SM12/SMD calculation
 Core orbitals will be frozen

 Checking the input file for inconsistencies... 	...done.

--------------------------------------------------------------
User input:
--------------------------------------------------------------
$molecule
0 1
C	0.775127	-3.866725	0.000713
C	-0.612565	-3.703963	0.000302
C	-1.066639	-2.357056	-0.000067
H	-1.302900	-4.561092	0.000470
C	-0.000000	-1.440664	-0.000000
S	1.544483	-2.286957	-0.000009
C	-2.521872	-1.978743	-0.000295
H	-3.166949	-2.878678	-0.000221
H	-2.790821	-1.376015	-0.892850
H	-2.791023	-1.375728	0.892005
H	1.375251	-4.783437	0.000945
C	0.000000	0.000000	0.000000
C	0.555137	0.661535	1.099446
C	1.444710	1.721658	0.776721
H	0.318072	0.379023	2.136088
C	1.586563	1.890676	-0.612546
S	0.605781	0.721904	-1.486809
C	2.143920	2.554907	1.814609
H	1.870325	2.228851	2.836676
H	1.880882	3.629742	1.726239
H	3.248098	2.482476	1.726228
H	2.196723	2.617806	-1.161575
$end

$rem
JOBTYPE		SP
EXCHANGE	HF
CORRELATION	pRIMP2
BASIS		cc-pvtz
METHOD		rimp2
AUX_BASIS	rimp2-cc-pvtz
SOLVENT_METHOD	PCM
PURECART	11111
SYMMETRY	false
MEM_TOTAL	110000
SCF_CONVERGENCE = 6
THRESH=10
$end



$solvent
dielectric 4.90
$end
--------------------------------------------------------------
 ----------------------------------------------------------------
             Standard Nuclear Orientation (Angstroms)
    I     Atom           X                Y                Z
 ----------------------------------------------------------------
    1      C       0.7751270000    -3.8667250000     0.0007130000
    2      C      -0.6125650000    -3.7039630000     0.0003020000
    3      C      -1.0666390000    -2.3570560000    -0.0000670000
    4      H      -1.3029000000    -4.5610920000     0.0004700000
    5      C       0.0000000000    -1.4406640000     0.0000000000
    6      S       1.5444830000    -2.2869570000    -0.0000090000
    7      C      -2.5218720000    -1.9787430000    -0.0002950000
    8      H      -3.1669490000    -2.8786780000    -0.0002210000
    9      H      -2.7908210000    -1.3760150000    -0.8928500000
   10      H      -2.7910230000    -1.3757280000     0.8920050000
   11      H       1.3752510000    -4.7834370000     0.0009450000
   12      C       0.0000000000     0.0000000000     0.0000000000
   13      C       0.5551370000     0.6615350000     1.0994460000
   14      C       1.4447100000     1.7216580000     0.7767210000
   15      H       0.3180720000     0.3790230000     2.1360880000
   16      C       1.5865630000     1.8906760000    -0.6125460000
   17      S       0.6057810000     0.7219040000    -1.4868090000
   18      C       2.1439200000     2.5549070000     1.8146090000
   19      H       1.8703250000     2.2288510000     2.8366760000
   20      H       1.8808820000     3.6297420000     1.7262390000
   21      H       3.2480980000     2.4824760000     1.7262280000
   22      H       2.1967230000     2.6178060000    -1.1615750000
 ----------------------------------------------------------------
 Nuclear Repulsion Energy =         845.23244912 hartrees
 There are       51 alpha and       51 beta electrons

 Q-Chem warning in module forms1/BasisType.C, line 2236:

 You are not using the predefined 5D/6D in this basis set.

 Requested basis set is cc-pVTZ
 There are 184 shells and 508 basis functions

 Total QAlloc Memory Limit 110000 MB
 Mega-Array Size       188 MB
 MEM_STATIC part       192 MB
 Discretize the solute cavity surface with Lebedev spheres
	Using 110 Lebedev grid points for each H atom
	Using 194 Lebedev grid points for other atoms
	Atomic van der Waals radii will be scaled by 1.20
 Remove points where switching function is < 1.0e-08
 Keep 1538 surface tesserae and discard 1890 interior tesserae
 Molecular Surface Area = 235.486 Angst**2
 Requested basis set is rimp2-cc-pVTZ
 There are 394 shells and 1354 basis functions
 A cutoff of  1.0D-10 yielded  12342 shell pairs
 There are     91442 function pairs (    118052 Cartesian)
 Smallest overlap matrix eigenvalue = 7.06E-05

 Scale SEOQF with 1.000000e-01/1.000000e-01/1.000000e-01

 Standard Electronic Orientation quadrupole field applied
 Nucleus-field energy     =     0.0000000335 hartrees
 Guess from superposition of atomic densities
 Warning:  Energy on first SCF cycle will be non-variational
 SAD guess density has 102.000000 electrons

 -----------------------------------------------------------------------
  General SCF calculation program by
  Eric Jon Sundstrom, Paul Horn, Yuezhi Mao, Dmitri Zuev, Alec White,
  David Stuck, Shaama M.S., Shane Yost, Joonho Lee, David Small,
  Daniel Levine, Susi Lehtola, Hugh Burton, Evgeny Epifanovsky,
  Bang C. Huynh
 -----------------------------------------------------------------------
 Hartree-Fock
 A restricted SCF calculation will be
 performed using DIIS
 SCF converges when DIIS error is below 1.0e-06
 ---------------------------------------
  Cycle       Energy         DIIS error
 ---------------------------------------
    1   -1184.2410650042      2.39e-02  
    2   -1179.5184784071      1.58e-03  
    3   -1179.6377484129      5.82e-04  
    4   -1179.6507025492      3.17e-04  
    5   -1179.6549578058      6.38e-05  
    6   -1179.6552335180      3.10e-05  
    7   -1179.6553238791      1.38e-05  
    8   -1179.6553560368      5.36e-06  
    9   -1179.6553616037      1.85e-06  
   10   -1179.6553621258      5.65e-07  Convergence criterion met
 ---------------------------------------
 SCF time:   CPU 492.51s  wall 495.00s 

************** Final PCM Free Energy Summary **************
 G_electrostatic  =      -0.00823741 hartree =      -5.16905527 kcal/mol
 G_cavitation     =       0.00000000 hartree =       0.00000000 kcal/mol
 G_dispersion     =       0.00000000 hartree =       0.00000000 kcal/mol
 G_repulsion      =       0.00000000 hartree =       0.00000000 kcal/mol
 --------------------------------------------------
 Non-electrostatic Free Energy =       0.00000000 hartree =       0.00000000 kcal/mol
 Total                         =      -0.00823741 hartree =      -5.16905527 kcal/mol
 --------------------------------------------------
 SCF Energy (H0 + V/2)                       =   -1179.65536213 
 Solute Internal Energy (H0)                 =   -1179.64712471 
 Total Free Energy (H0 + V/2 + non-elec)     =   -1179.65536213 hartree
                                             = -740244.91224989 kcal/mol
***********************************************************

 SCF   energy in the final basis set =    -1179.6553621258
 Total energy in the final basis set =    -1179.6553621258


 --------------------------------------------------------------
  Generalized many-body perturbation theory program
  by Joonho Lee, Fazle Rob, Xintian Feng, Evgeny Epifanovsky

 No regularization used 
 (reg. param. = 0.0000e+00)
  (P|Q)^-1/2 Time:  CPU 1.68 s  wall 1.69 s

 In RI-MP2 calculation: 
 # of frozen core orbitals: 20

 Components of the RIMP2 correlation energy:
        aaaa    correlation energy =        -0.2534149792 a.u.
        abab    correlation energy =        -1.4779758180 a.u.
        bbbb    correlation energy =        -0.2534149792 a.u.
        non-Brillouin singles      =        -0.0000000000 a.u.
        total same-spin energy     =        -0.5068299584 a.u.
        total opposite-spin energy =        -1.4779758180 a.u.

 Total  RIMP2   correlation energy =        -1.9848057764 a.u.
        RIMP2         total energy =     -1181.6401679022 a.u.

 RI-MP2 Energy Time:  CPU 67.09 s  wall 67.36 s
 
 --------------------------------------------------------------
 
                    Orbital Energies (a.u.)
 --------------------------------------------------------------
 
 Alpha MOs
 -- Occupied --
-91.9835 -91.9796 -11.2758 -11.2701 -11.2686 -11.2655 -11.2522 -11.2512
-11.2466 -11.2383 -11.2297 -11.2274  -8.9834  -8.9795  -6.6643  -6.6636
 -6.6631  -6.6604  -6.6598  -6.6592  -1.1821  -1.1476  -1.0419  -1.0202
 -0.9978  -0.9520  -0.9121  -0.8913  -0.7984  -0.7515  -0.7344  -0.6915
 -0.6592  -0.6181  -0.5833  -0.5795  -0.5699  -0.5689  -0.5502  -0.5328
 -0.5297  -0.5176  -0.5087  -0.4906  -0.4730  -0.4647  -0.4619  -0.3544
 -0.3316  -0.3128  -0.3039
 -- Virtual --
  0.0733   0.1007   0.1412   0.1485   0.1635   0.1729   0.1738   0.1827
  0.1887   0.1991   0.2078   0.2170   0.2289   0.2326   0.2385   0.2472
  0.2568   0.2665   0.2945   0.3078   0.3260   0.3374   0.3540   0.3565
  0.3782   0.3843   0.3930   0.3997   0.4043   0.4173   0.4201   0.4229
  0.4424   0.4499   0.4639   0.4700   0.4763   0.4827   0.4921   0.4979
  0.5050   0.5130   0.5168   0.5347   0.5408   0.5498   0.5593   0.5684
  0.5724   0.5795   0.5926   0.6013   0.6070   0.6162   0.6194   0.6246
  0.6330   0.6370   0.6397   0.6438   0.6469   0.6499   0.6616   0.6654
  0.6721   0.6773   0.6854   0.7054   0.7186   0.7354   0.7455   0.7490
  0.7646   0.7783   0.7930   0.8075   0.8101   0.8240   0.8301   0.8411
  0.8460   0.8521   0.8665   0.8879   0.9083   0.9144   0.9255   0.9444
  0.9600   0.9731   0.9833   0.9877   0.9983   1.0161   1.0259   1.0330
  1.0479   1.0555   1.0605   1.0687   1.0751   1.0866   1.0931   1.1091
  1.1122   1.1344   1.1417   1.1479   1.1555   1.1698   1.1770   1.1915
  1.2088   1.2115   1.2199   1.2299   1.2455   1.2498   1.2603   1.2649
  1.2756   1.2802   1.2937   1.3086   1.3382   1.3509   1.3630   1.3633
  1.3857   1.3880   1.4042   1.4170   1.4284   1.4422   1.4429   1.4616
  1.4729   1.4801   1.5022   1.5064   1.5158   1.5352   1.5399   1.5479
  1.5578   1.5644   1.5681   1.5710   1.5800   1.5941   1.5981   1.6233
  1.6441   1.6545   1.6768   1.6857   1.7004   1.7045   1.7068   1.7266
  1.7456   1.7596   1.7641   1.7830   1.7913   1.7948   1.8365   1.8554
  1.8627   1.8939   1.8996   1.9276   1.9399   1.9518   1.9761   1.9988
  2.0025   2.0387   2.0586   2.0841   2.1014   2.1279   2.1528   2.1789
  2.1812   2.1833   2.1943   2.2261   2.2345   2.2411   2.2690   2.2738
  2.2904   2.3136   2.3330   2.3835   2.4038   2.4096   2.4412   2.4567
  2.4834   2.4993   2.5122   2.5321   2.5458   2.5565   2.5754   2.5848
  2.6152   2.6443   2.6476   2.6661   2.6821   2.7079   2.7169   2.7294
  2.7354   2.7521   2.7601   2.7696   2.7748   2.7869   2.8010   2.8145
  2.8249   2.8277   2.8478   2.8686   2.8845   2.8903   2.9073   2.9395
  2.9472   2.9626   2.9874   2.9899   2.9975   3.0053   3.0223   3.0353
  3.0497   3.0589   3.0862   3.1084   3.1135   3.1205   3.1339   3.1503
  3.1549   3.1641   3.1722   3.1757   3.1831   3.1964   3.2065   3.2162
  3.2441   3.2541   3.2633   3.2677   3.2718   3.2916   3.2965   3.3119
  3.3204   3.3243   3.3368   3.3406   3.3499   3.3555   3.3702   3.3807
  3.3835   3.3908   3.4035   3.4046   3.4173   3.4254   3.4354   3.4425
  3.4521   3.4633   3.4718   3.4890   3.5005   3.5071   3.5166   3.5288
  3.5346   3.5402   3.5448   3.5571   3.5585   3.5804   3.5859   3.6017
  3.6155   3.6170   3.6296   3.6339   3.6455   3.6544   3.6672   3.6711
  3.6839   3.6995   3.7092   3.7149   3.7232   3.7417   3.7515   3.7573
  3.7675   3.7758   3.7784   3.7831   3.8016   3.8200   3.8273   3.8502
  3.8681   3.8737   3.8836   3.8858   3.9146   3.9311   3.9484   3.9552
  3.9720   3.9802   3.9955   4.0138   4.0183   4.0268   4.0440   4.0508
  4.0665   4.0734   4.0846   4.1059   4.1152   4.1228   4.1261   4.1584
  4.1671   4.1770   4.1946   4.1969   4.2066   4.2140   4.2308   4.2395
  4.2567   4.2628   4.2666   4.2871   4.2984   4.3143   4.3292   4.3342
  4.3458   4.3533   4.3590   4.3651   4.3893   4.4006   4.4065   4.4233
  4.4284   4.4396   4.4623   4.4790   4.4892   4.5075   4.5193   4.5502
  4.5852   4.6034   4.6204   4.6287   4.6383   4.6611   4.6663   4.6782
  4.7004   4.7143   4.7389   4.7523   4.7623   4.7808   4.8211   4.8481
  4.8811   4.8948   4.9024   4.9325   4.9440   4.9705   5.0058   5.0583
  5.0800   5.1003   5.1154   5.1466   5.1597   5.1619   5.1865   5.2073
  5.2693   5.2779   5.2971   5.3020   5.3275   5.3686   5.3943   5.4059
  5.4121   5.4490   5.4668   5.4708   5.5205   5.5264   5.5435   5.5533
  5.5739   5.5876   5.6233   5.6274   5.6447   5.6637   5.6987   5.7125
  5.7659   5.8129   5.9028   5.9449   6.0057   6.0292   6.0976   6.2195
  6.2275   6.2306   6.2711   6.2748   6.3253   6.3957   6.5038   8.8251
  9.7431  11.6431  12.2918  12.8308  12.9530  13.7518  13.8731  14.2022
 14.3397
 --------------------------------------------------------------
 
          Ground-State Mulliken Net Atomic Charges

     Atom                 Charge (a.u.)
  ----------------------------------------
      1 C                    -0.210587
      2 C                    -0.254130
      3 C                     0.059881
      4 H                     0.181385
      5 C                    -0.066943
      6 S                     0.021142
      7 C                    -0.284055
      8 H                     0.106652
      9 H                     0.109993
     10 H                     0.108633
     11 H                     0.203328
     12 C                    -0.038949
     13 C                    -0.217118
     14 C                     0.028893
     15 H                     0.183957
     16 C                    -0.214082
     17 S                     0.032120
     18 C                    -0.267597
     19 H                     0.102908
     20 H                     0.107681
     21 H                     0.107394
     22 H                     0.199496
  ----------------------------------------
  Sum of atomic charges =     0.000000

 -----------------------------------------------------------------
                    Cartesian Multipole Moments
 -----------------------------------------------------------------
    Charge (ESU x 10^10)
                -0.0000
    Dipole Moment (Debye)
         X       0.1569      Y       0.5932      Z       1.5266
       Tot       1.6453
    Quadrupole Moments (Debye-Ang)
        XX     -81.5603     XY       7.9627     YY     -74.2873
        XZ       0.5458     YZ       0.7248     ZZ     -86.3075
    Octopole Moments (Debye-Ang^2)
       XXX    -123.4503    XXY      56.7633    XYY     -24.4858
       YYY     131.4152    XXZ      -2.6019    XYZ      -1.7648
       YYZ      -3.2272    XZZ     -37.7210    YZZ      74.5979
       ZZZ       4.2789
    Hexadecapole Moments (Debye-Ang^3)
      XXXX   -1080.5051   XXXY    -211.2287   XXYY    -529.4998
      XYYY    -244.6935   YYYY   -2279.2692   XXXZ     -64.9052
      XXYZ     -30.2800   XYYZ     -27.9683   YYYZ     -79.9894
      XXZZ    -270.8385   XYZZ     -66.3831   YYZZ    -555.8247
      XZZZ     -62.6636   YZZZ     -73.3518   ZZZZ    -525.0047
 -----------------------------------------------------------------
 Total job time:  565.08s(wall), 560.40s(cpu) 
 Sat Jul  9 09:07:03 2022

        *************************************************************
        *                                                           *
        *  Thank you very much for using Q-Chem.  Have a nice day.  *
        *                                                           *
        *************************************************************


remove work dirs ./qchem1601991.0 -- ./qchem1601991.-1
rm -rf ./qchem1601991
