You are running Q-Chem version: 5.4.0

#
# job setting
#
local host:  exp-2-18
current dir: /expanse/lustre/scratch/theleonzhang/temp_project/Interring_Bonds
input file:  Methylthiophene_Phi_50_Theta_60_Methylthiophene.qcin
output file: 
nprocs     : 0
nthreads   : 1
#
# qchem installation setting
#
QC:          /cm/shared/apps/spack/cpu/opt/spack/linux-centos8-zen2/gcc-10.2.0/qchem-5.4-akfmr7b3t57bfs6qan3padb2wnb2i7cl
QCAUX:       /cm/shared/apps/spack/cpu/opt/spack/linux-centos8-zen2/gcc-10.2.0/qchem-5.4-akfmr7b3t57bfs6qan3padb2wnb2i7cl/qcaux
QCPROG:      /cm/shared/apps/spack/cpu/opt/spack/linux-centos8-zen2/gcc-10.2.0/qchem-5.4-akfmr7b3t57bfs6qan3padb2wnb2i7cl/exe/qcprog.exe_s
QCPROG_S:    /cm/shared/apps/spack/cpu/opt/spack/linux-centos8-zen2/gcc-10.2.0/qchem-5.4-akfmr7b3t57bfs6qan3padb2wnb2i7cl/exe/qcprog.exe_s
PARALLEL:    -DSERIAL
QCMPI:       mpich
#
# qchem directory setting
#
qcrun:       qchem1043247
QCSCRATCH:   .
QCLOCALSCR:  
QCTMPDIR:    .
QCFILEPREF:  ./qchem1043247
QCSAVEDIR:   
workdirs:    ./qchem1043247
workdir0:    ./qchem1043247
partmpdirs =  
#
# parallel setting
#
QCRSH:           ssh
QCMPI:           mpich
QCMPIRUN:        /cm/shared/apps/spack/cpu/opt/spack/linux-centos8-zen2/gcc-10.2.0/qchem-5.4-akfmr7b3t57bfs6qan3padb2wnb2i7cl/bin/mpi/mpirun_qchem
QCMACHINEFILE:   ./qchem1043247/hostfile

#
# env setting
#
exported envs:   QC QCAUX QCSCRATCH QCRUNNAME QCFILEPREF QCPROG QCPROG_S GUIFILE

Running Job 1 of 1 Methylthiophene_Phi_50_Theta_60_Methylthiophene.qcin
qchem Methylthiophene_Phi_50_Theta_60_Methylthiophene.qcin_1043247.0 ./qchem1043247/ 0
/cm/shared/apps/spack/cpu/opt/spack/linux-centos8-zen2/gcc-10.2.0/qchem-5.4-akfmr7b3t57bfs6qan3padb2wnb2i7cl/exe/qcprog.exe_s Methylthiophene_Phi_50_Theta_60_Methylthiophene.qcin_1043247.0 ./qchem1043247/
                  Welcome to Q-Chem
     A Quantum Leap Into The Future Of Chemistry


 Q-Chem 5.4, Q-Chem, Inc., Pleasanton, CA (2021)

 License issued to: University of California, San Diego (site)

 E. Epifanovsky,  A. T. B. Gilbert,  Xintian Feng,  Joonho Lee,  Yuezhi Mao,  
 N. Mardirossian,  P. Pokhilko,  A. White,  M. Wormit,  M. P. Coons,  
 A. L. Dempwolff,  Zhengting Gan,  D. Hait,  P. R. Horn,  L. D. Jacobson,  
 I. Kaliman,  J. Kussmann,  A. W. Lange,  Ka Un Lao,  D. S. Levine,  Jie Liu,  
 S. C. McKenzie,  A. F. Morrison,  K. Nanda,  F. Plasser,  D. R. Rehn,  
 M. L. Vidal,  Zhi-Qiang You,  Ying Zhu,  B. Alam,  B. Albrecht,  
 A. Aldossary,  E. Alguire,  J. H. Andersen,  D. Barton,  K. Begam,  A. Behn,  
 Y. A. Bernard,  E. J. Berquist,  H. Burton,  A. Carreras,  K. Carter-Fenk,  
 R. Chakraborty,  A. D. Chien,  K. D. Closser,  V. Cofer-Shabica,  
 S. Dasgupta,  Jia Deng,  M. de Wergifosse,  M. Diedenhofen,  Hainam Do,  
 S. Ehlert,  Po-Tung Fang,  S. Fatehi,  Qingguo Feng,  J. Gayvert,  
 Qinghui Ge,  G. Gidofalvi,  M. Goldey,  J. Gomes,  C. Gonzalez-Espinoza,  
 S. Gulania,  A. Gunina,  M. W. D. Hanson-Heine,  P. H. P. Harbach,  
 A. W. Hauser,  M. F. Herbst,  M. Hernandez Vera,  M. Hodecker,  
 Z. C. Holden,  S. Houck,  Xunkun Huang,  Kerwin Hui,  B. C. Huynh,  
 M. Ivanov,  Hyunjun Ji,  Hanjie Jiang,  B. Kaduk,  S. Kaehler,  
 K. Khistyaev,  Jaehoon Kim,  P. Klunzinger,  Z. Koczor-Benda,  
 Joong Hoon Koh,  D. Kosenkov,  L. Koulias,  T. Kowalczyk,  C. M. Krauter,  
 K. Kue,  A. Kunitsa,  T. Kus,  A. Landau,  K. V. Lawler,  D. Lefrancois,  
 S. Lehtola,  Rain Li,  Yi-Pei Li,  Jiashu Liang,  M. Liebenthal,  
 Hung-Hsuan Lin,  You-Sheng Lin,  Fenglai Liu,  Kuan-Yu Liu,  
 M. Loipersberger,  A. Luenser,  A. Manjanath,  P. Manohar,  E. Mansoor,  
 S. F. Manzer,  Shan-Ping Mao,  A. V. Marenich,  T. Markovich,  S. Mason,  
 S. A. Maurer,  P. F. McLaughlin,  M. F. S. J. Menger,  J.-M. Mewes,  
 S. A. Mewes,  P. Morgante,  J. W. Mullinax,  T. S. Nguyen-Beck,  
 K. J. Oosterbaan,  G. Paran,  Alexander C. Paul,  Suranjan K. Paul,  
 F. Pavosevic,  Zheng Pei,  S. Prager,  E. I. Proynov,  E. Ramos,  B. Rana,  
 A. E. Rask,  A. Rettig,  R. M. Richard,  F. Rob,  E. Rossomme,  T. Scheele,  
 M. Scheurer,  M. Schneider,  N. Sergueev,  S. M. Sharada,  W. Skomorowski,  
 D. W. Small,  C. J. Stein,  Yu-Chuan Su,  E. J. Sundstrom,  Zhen Tao,  
 J. Thirman,  T. Tsuchimochi,  N. M. Tubman,  S. P. Veccham,  O. Vydrov,  
 J. Wenzel,  J. Witte,  A. Yamada,  Kun Yao,  S. Yeganeh,  S. R. Yost,  
 A. Zech,  Igor Ying Zhang,  Xing Zhang,  Yu Zhang,  D. Zuev,  
 A. Aspuru-Guzik,  A. T. Bell,  N. A. Besley,  K. B. Bravaya,  B. R. Brooks,  
 D. Casanova,  Jeng-Da Chai,  S. Coriani,  C. J. Cramer,  
 A. E. DePrince, III,  R. A. DiStasio Jr.,  A. Dreuw,  B. D. Dunietz,  
 T. R. Furlani,  W. A. Goddard III,  S. Grimme,  S. Hammes-Schiffer,  
 T. Head-Gordon,  W. J. Hehre,  Chao-Ping Hsu,  T.-C. Jagau,  Yousung Jung,  
 A. Klamt,  Jing Kong,  D. S. Lambrecht,  WanZhen Liang,  N. J. Mayhall,  
 C. W. McCurdy,  J. B. Neaton,  C. Ochsenfeld,  J. A. Parkhill,  R. Peverati,  
 V. A. Rassolov,  Yihan Shao,  L. V. Slipchenko,  T. Stauch,  R. P. Steele,  
 J. E. Subotnik,  A. J. W. Thom,  A. Tkatchenko,  D. G. Truhlar,  
 T. Van Voorhis,  T. A. Wesolowski,  K. B. Whaley,  H. L. Woodcock III,  
 P. M. Zimmerman,  S. Faraji,  P. M. W. Gill,  M. Head-Gordon,  
 J. M. Herbert,  A. I. Krylov

 Contributors to earlier versions of Q-Chem not listed above: 
 R. D. Adamson,  B. Austin,  R. Baer,  J. Baker,  G. J. O. Beran,  
 K. Brandhorst,  S. T. Brown,  E. F. C. Byrd,  A. K. Chakraborty,  
 G. K. L. Chan,  Chun-Min Chang,  Yunqing Chen,  C.-L. Cheng,  
 Siu Hung Chien,  D. M. Chipman,  D. L. Crittenden,  H. Dachsel,  
 R. J. Doerksen,  A. D. Dutoi,  R. G. Edgar,  J. Fosso-Tande,  
 L. Fusti-Molnar,  D. Ghosh,  A. Ghysels,  A. Golubeva-Zadorozhnaya,  
 J. Gonthier,  M. S. Gordon,  S. R. Gwaltney,  G. Hawkins,  J. E. Herr,  
 A. Heyden,  S. Hirata,  E. G. Hohenstein,  G. Kedziora,  F. J. Keil,  
 C. Kelley,  Jihan Kim,  R. A. King,  R. Z. Khaliullin,  P. P. Korambath,  
 W. Kurlancheek,  A. Laurent,  A. M. Lee,  M. S. Lee,  S. V. Levchenko,  
 Ching Yeh Lin,  D. Liotard,  E. Livshits,  R. C. Lochan,  I. Lotan,  
 L. A. Martinez-Martinez,  P. E. Maslen,  N. Nair,  D. P. O'Neill,  
 D. Neuhauser,  E. Neuscamman,  C. M. Oana,  R. Olivares-Amaya,  R. Olson,  
 T. M. Perrine,  B. Peters,  P. A. Pieniazek,  A. Prociuk,  Y. M. Rhee,  
 J. Ritchie,  M. A. Rohrdanz,  E. Rosta,  N. J. Russ,  H. F. Schaefer III,  
 M. W. Schmidt,  N. E. Schultz,  S. Sharma,  N. Shenvi,  C. D. Sherrill,  
 A. C. Simmonett,  A. Sodt,  T. Stein,  D. Stuck,  K. S. Thanthiriwatte,  
 V. Vanovschi,  L. Vogt,  Tao Wang,  A. Warshel,  M. A. Watson,  
 C. F. Williams,  Q. Wu,  X. Xu,  Jun Yang,  W. Zhang,  Yan Zhao

 Please cite Q-Chem as follows:
 Y. Shao et al., Mol. Phys. 113, 184-215 (2015)
 DOI: 10.1080/00268976.2014.952696

 Q-Chem 5.4.0 for Intel X86 EM64T Linux

 Parts of Q-Chem use Armadillo 9.800.1 (Horizon Scraper).
 http://arma.sourceforge.net/

 Q-Chem begins on Fri Jul  8 23:05:16 2022  

 Host: 
0

     Scratch files written to ./qchem1043247//
 May1621 |scratch|qcdevops|jenkins|workspace|build_RNUM    
 Processing $rem in /cm/shared/apps/spack/cpu/opt/spack/linux-centos8-zen2/gcc-10.2.0/qchem-5.4-akfmr7b3t57bfs6qan3padb2wnb2i7cl/config/preferences:
 Processing $rem in /home/theleonzhang/.qchemrc:
 Symmetry turned off for PCM/SM12/SMD calculation
 Core orbitals will be frozen

 Checking the input file for inconsistencies... 	...done.

--------------------------------------------------------------
User input:
--------------------------------------------------------------
$molecule
0 1
C	-0.671636	-3.866725	0.386946
C	0.530345	-3.703963	-0.306544
C	0.923770	-2.357056	-0.533261
H	1.128109	-4.561092	-0.651857
C	0.000000	-1.440664	0.000000
S	-1.337557	-2.286957	0.772250
C	2.184153	-1.978743	-1.260680
H	2.742769	-2.878678	-1.583283
H	2.863347	-1.376015	-0.622180
H	1.971094	-1.375728	-2.168011
H	-1.191474	-4.783437	0.686807
C	0.000000	0.000000	0.000000
C	0.661577	0.555087	1.099446
C	1.721724	1.444630	0.776721
H	0.379056	0.318032	2.136088
C	1.890772	1.586449	-0.612546
S	0.721935	0.605744	-1.486809
C	2.555004	2.143805	1.814609
H	2.228946	1.870211	2.836676
H	2.482605	3.247987	1.726239
H	3.629830	1.880735	1.726228
H	2.617927	2.196579	-1.161575
$end

$rem
JOBTYPE		SP
EXCHANGE	HF
CORRELATION	pRIMP2
BASIS		cc-pvtz
METHOD		rimp2
AUX_BASIS	rimp2-cc-pvtz
SOLVENT_METHOD	PCM
PURECART	11111
SYMMETRY	false
MEM_TOTAL	110000
SCF_CONVERGENCE = 6
THRESH=10
$end



$solvent
dielectric 4.90
$end
--------------------------------------------------------------
 ----------------------------------------------------------------
             Standard Nuclear Orientation (Angstroms)
    I     Atom           X                Y                Z
 ----------------------------------------------------------------
    1      C      -0.6716360000    -3.8667250000     0.3869460000
    2      C       0.5303450000    -3.7039630000    -0.3065440000
    3      C       0.9237700000    -2.3570560000    -0.5332610000
    4      H       1.1281090000    -4.5610920000    -0.6518570000
    5      C       0.0000000000    -1.4406640000     0.0000000000
    6      S      -1.3375570000    -2.2869570000     0.7722500000
    7      C       2.1841530000    -1.9787430000    -1.2606800000
    8      H       2.7427690000    -2.8786780000    -1.5832830000
    9      H       2.8633470000    -1.3760150000    -0.6221800000
   10      H       1.9710940000    -1.3757280000    -2.1680110000
   11      H      -1.1914740000    -4.7834370000     0.6868070000
   12      C       0.0000000000     0.0000000000     0.0000000000
   13      C       0.6615770000     0.5550870000     1.0994460000
   14      C       1.7217240000     1.4446300000     0.7767210000
   15      H       0.3790560000     0.3180320000     2.1360880000
   16      C       1.8907720000     1.5864490000    -0.6125460000
   17      S       0.7219350000     0.6057440000    -1.4868090000
   18      C       2.5550040000     2.1438050000     1.8146090000
   19      H       2.2289460000     1.8702110000     2.8366760000
   20      H       2.4826050000     3.2479870000     1.7262390000
   21      H       3.6298300000     1.8807350000     1.7262280000
   22      H       2.6179270000     2.1965790000    -1.1615750000
 ----------------------------------------------------------------
 Nuclear Repulsion Energy =         856.13135628 hartrees
 There are       51 alpha and       51 beta electrons

 Q-Chem warning in module forms1/BasisType.C, line 2236:

 You are not using the predefined 5D/6D in this basis set.

 Requested basis set is cc-pVTZ
 There are 184 shells and 508 basis functions

 Total QAlloc Memory Limit 110000 MB
 Mega-Array Size       188 MB
 MEM_STATIC part       192 MB
 Discretize the solute cavity surface with Lebedev spheres
	Using 110 Lebedev grid points for each H atom
	Using 194 Lebedev grid points for other atoms
	Atomic van der Waals radii will be scaled by 1.20
 Remove points where switching function is < 1.0e-08
 Keep 1503 surface tesserae and discard 1925 interior tesserae
 Molecular Surface Area = 227.626 Angst**2
 Requested basis set is rimp2-cc-pVTZ
 There are 394 shells and 1354 basis functions
 A cutoff of  1.0D-10 yielded  12906 shell pairs
 There are     95972 function pairs (    123944 Cartesian)
 Smallest overlap matrix eigenvalue = 6.98E-05

 Scale SEOQF with 1.000000e-01/1.000000e-01/1.000000e-01

 Standard Electronic Orientation quadrupole field applied
 Nucleus-field energy     =     0.0000000280 hartrees
 Guess from superposition of atomic densities
 Warning:  Energy on first SCF cycle will be non-variational
 SAD guess density has 102.000000 electrons

 -----------------------------------------------------------------------
  General SCF calculation program by
  Eric Jon Sundstrom, Paul Horn, Yuezhi Mao, Dmitri Zuev, Alec White,
  David Stuck, Shaama M.S., Shane Yost, Joonho Lee, David Small,
  Daniel Levine, Susi Lehtola, Hugh Burton, Evgeny Epifanovsky,
  Bang C. Huynh
 -----------------------------------------------------------------------
 Hartree-Fock
 A restricted SCF calculation will be
 performed using DIIS
 SCF converges when DIIS error is below 1.0e-06
 ---------------------------------------
  Cycle       Energy         DIIS error
 ---------------------------------------
    1   -1184.3264317475      2.40e-02  
    2   -1179.4892428852      1.58e-03  
    3   -1179.6103206577      5.72e-04  
    4   -1179.6234404459      3.07e-04  
    5   -1179.6275138436      6.41e-05  
    6   -1179.6278050264      3.07e-05  
    7   -1179.6279022336      1.51e-05  
    8   -1179.6279391408      5.95e-06  
    9   -1179.6279467597      2.34e-06  
   10   -1179.6279476131      9.23e-07  Convergence criterion met
 ---------------------------------------
 SCF time:   CPU 522.51s  wall 524.00s 

************** Final PCM Free Energy Summary **************
 G_electrostatic  =      -0.00849656 hartree =      -5.33166961 kcal/mol
 G_cavitation     =       0.00000000 hartree =       0.00000000 kcal/mol
 G_dispersion     =       0.00000000 hartree =       0.00000000 kcal/mol
 G_repulsion      =       0.00000000 hartree =       0.00000000 kcal/mol
 --------------------------------------------------
 Non-electrostatic Free Energy =       0.00000000 hartree =       0.00000000 kcal/mol
 Total                         =      -0.00849656 hartree =      -5.33166961 kcal/mol
 --------------------------------------------------
 SCF Energy (H0 + V/2)                       =   -1179.62794761 
 Solute Internal Energy (H0)                 =   -1179.61945106 
 Total Free Energy (H0 + V/2 + non-elec)     =   -1179.62794761 hartree
                                             = -740227.70938353 kcal/mol
***********************************************************

 SCF   energy in the final basis set =    -1179.6279476131
 Total energy in the final basis set =    -1179.6279476131


 --------------------------------------------------------------
  Generalized many-body perturbation theory program
  by Joonho Lee, Fazle Rob, Xintian Feng, Evgeny Epifanovsky

 No regularization used 
 (reg. param. = 0.0000e+00)
  (P|Q)^-1/2 Time:  CPU 1.68 s  wall 1.68 s

 In RI-MP2 calculation: 
 # of frozen core orbitals: 20

 Components of the RIMP2 correlation energy:
        aaaa    correlation energy =        -0.2557178826 a.u.
        abab    correlation energy =        -1.4834351256 a.u.
        bbbb    correlation energy =        -0.2557178826 a.u.
        non-Brillouin singles      =        -0.0000000000 a.u.
        total same-spin energy     =        -0.5114357652 a.u.
        total opposite-spin energy =        -1.4834351256 a.u.

 Total  RIMP2   correlation energy =        -1.9948708908 a.u.
        RIMP2         total energy =     -1181.6228185040 a.u.

 RI-MP2 Energy Time:  CPU 69.17 s  wall 69.37 s
 
 --------------------------------------------------------------
 
                    Orbital Energies (a.u.)
 --------------------------------------------------------------
 
 Alpha MOs
 -- Occupied --
-91.9823 -91.9759 -11.2827 -11.2761 -11.2613 -11.2612 -11.2594 -11.2537
-11.2409 -11.2380 -11.2311 -11.2209  -8.9830  -8.9760  -6.6637  -6.6629
 -6.6627  -6.6569  -6.6563  -6.6558  -1.1868  -1.1461  -1.0450  -1.0177
 -0.9995  -0.9526  -0.9110  -0.8916  -0.7951  -0.7573  -0.7320  -0.6948
 -0.6558  -0.6190  -0.5845  -0.5817  -0.5741  -0.5677  -0.5492  -0.5365
 -0.5251  -0.5219  -0.5119  -0.4912  -0.4669  -0.4625  -0.4476  -0.3551
 -0.3371  -0.3275  -0.2810
 -- Virtual --
  0.0631   0.1138   0.1372   0.1597   0.1630   0.1679   0.1752   0.1807
  0.1938   0.1968   0.2068   0.2131   0.2298   0.2361   0.2417   0.2511
  0.2611   0.2729   0.2883   0.2988   0.3292   0.3458   0.3552   0.3567
  0.3672   0.3822   0.3904   0.4019   0.4131   0.4216   0.4275   0.4409
  0.4447   0.4507   0.4603   0.4681   0.4752   0.4840   0.4891   0.5097
  0.5146   0.5211   0.5284   0.5379   0.5477   0.5545   0.5579   0.5708
  0.5821   0.5846   0.5893   0.5997   0.6089   0.6125   0.6168   0.6255
  0.6294   0.6347   0.6419   0.6475   0.6483   0.6556   0.6658   0.6727
  0.6808   0.6847   0.7004   0.7063   0.7160   0.7331   0.7452   0.7594
  0.7742   0.7902   0.7921   0.7963   0.8117   0.8274   0.8351   0.8397
  0.8565   0.8681   0.8872   0.8911   0.8991   0.9169   0.9356   0.9407
  0.9494   0.9688   0.9846   0.9942   1.0185   1.0284   1.0322   1.0430
  1.0504   1.0591   1.0677   1.0719   1.0812   1.0843   1.1015   1.1098
  1.1205   1.1259   1.1493   1.1604   1.1684   1.1861   1.1966   1.2020
  1.2113   1.2231   1.2273   1.2319   1.2439   1.2587   1.2613   1.2733
  1.2791   1.2873   1.3013   1.3168   1.3364   1.3468   1.3607   1.3778
  1.3821   1.3930   1.4091   1.4169   1.4358   1.4433   1.4477   1.4634
  1.4813   1.4912   1.4972   1.5074   1.5163   1.5222   1.5402   1.5509
  1.5618   1.5654   1.5711   1.5758   1.5867   1.5915   1.6156   1.6240
  1.6620   1.6787   1.6839   1.6955   1.6984   1.7079   1.7166   1.7265
  1.7421   1.7467   1.7679   1.7831   1.8059   1.8192   1.8293   1.8687
  1.8764   1.8976   1.9073   1.9470   1.9571   1.9764   1.9932   2.0097
  2.0227   2.0479   2.0569   2.0832   2.1175   2.1207   2.1492   2.1671
  2.1776   2.1901   2.2078   2.2235   2.2578   2.2631   2.2664   2.2806
  2.3009   2.3249   2.3368   2.3742   2.3938   2.4275   2.4346   2.4564
  2.4773   2.4917   2.5160   2.5343   2.5474   2.5829   2.6049   2.6261
  2.6349   2.6524   2.6658   2.6735   2.6836   2.6966   2.7144   2.7362
  2.7390   2.7561   2.7613   2.7707   2.7868   2.7966   2.8176   2.8268
  2.8334   2.8415   2.8501   2.8667   2.8790   2.9082   2.9133   2.9409
  2.9570   2.9708   2.9823   3.0011   3.0072   3.0210   3.0309   3.0387
  3.0481   3.0589   3.0915   3.1117   3.1153   3.1237   3.1467   3.1549
  3.1567   3.1620   3.1684   3.1835   3.1967   3.2095   3.2228   3.2283
  3.2450   3.2582   3.2659   3.2760   3.2914   3.3001   3.3073   3.3113
  3.3186   3.3290   3.3358   3.3461   3.3509   3.3700   3.3766   3.3799
  3.3880   3.3990   3.4124   3.4153   3.4272   3.4336   3.4472   3.4488
  3.4582   3.4661   3.4767   3.4849   3.5016   3.5108   3.5159   3.5271
  3.5312   3.5411   3.5429   3.5600   3.5678   3.5745   3.5779   3.5967
  3.6177   3.6260   3.6315   3.6399   3.6512   3.6586   3.6737   3.6911
  3.6947   3.7029   3.7149   3.7193   3.7289   3.7329   3.7563   3.7578
  3.7830   3.7865   3.8019   3.8065   3.8284   3.8308   3.8418   3.8629
  3.8699   3.8858   3.9034   3.9099   3.9313   3.9382   3.9603   3.9696
  3.9783   3.9948   4.0186   4.0239   4.0280   4.0365   4.0520   4.0543
  4.0700   4.0735   4.1054   4.1058   4.1173   4.1323   4.1561   4.1619
  4.1794   4.1877   4.1985   4.2003   4.2039   4.2316   4.2354   4.2546
  4.2691   4.2769   4.2832   4.2939   4.3057   4.3154   4.3238   4.3315
  4.3534   4.3649   4.3764   4.3916   4.3997   4.4046   4.4291   4.4320
  4.4421   4.4644   4.4827   4.4949   4.4996   4.5299   4.5347   4.5669
  4.5908   4.6008   4.6226   4.6347   4.6413   4.6502   4.6613   4.6681
  4.6953   4.7139   4.7381   4.7451   4.7695   4.7994   4.8181   4.8550
  4.8879   4.9083   4.9128   4.9251   4.9467   4.9933   5.0084   5.0625
  5.0671   5.1001   5.1067   5.1302   5.1636   5.1863   5.1927   5.2110
  5.2668   5.2790   5.2960   5.3020   5.3225   5.3671   5.3975   5.4095
  5.4185   5.4538   5.4646   5.4811   5.5175   5.5346   5.5467   5.5648
  5.5747   5.5955   5.6210   5.6292   5.6498   5.6686   5.6972   5.7215
  5.7875   5.8099   5.9315   5.9876   6.0130   6.0925   6.1940   6.2274
  6.2492   6.2636   6.2817   6.3023   6.3546   6.3813   6.5182   8.7619
  9.7151  11.6403  12.3364  12.8425  13.1685  13.7772  13.9412  14.2194
 14.3965
 --------------------------------------------------------------
 
          Ground-State Mulliken Net Atomic Charges

     Atom                 Charge (a.u.)
  ----------------------------------------
      1 C                    -0.226241
      2 C                    -0.257072
      3 C                     0.033008
      4 H                     0.182892
      5 C                     0.004982
      6 S                    -0.004049
      7 C                    -0.302737
      8 H                     0.108446
      9 H                     0.112854
     10 H                     0.118913
     11 H                     0.200314
     12 C                    -0.116363
     13 C                    -0.131438
     14 C                    -0.011244
     15 H                     0.190116
     16 C                    -0.188361
     17 S                     0.035206
     18 C                    -0.267341
     19 H                     0.103508
     20 H                     0.108152
     21 H                     0.105989
     22 H                     0.200468
  ----------------------------------------
  Sum of atomic charges =     0.000000

 -----------------------------------------------------------------
                    Cartesian Multipole Moments
 -----------------------------------------------------------------
    Charge (ESU x 10^10)
                -0.0000
    Dipole Moment (Debye)
         X       3.6352      Y       1.0838      Z       0.7079
       Tot       3.8588
    Quadrupole Moments (Debye-Ang)
        XX     -81.2007     XY       4.2709     YY     -78.6424
        XZ      -2.1538     YZ       1.8505     ZZ     -84.2394
    Octopole Moments (Debye-Ang^2)
       XXX    -149.4438    XXY      77.3732    XYY     -45.1095
       YYY     161.2651    XXZ      -3.4828    XYZ       7.4963
       YYZ      -0.4487    XZZ     -47.8148    YZZ      77.3025
       ZZZ       6.3020
    Hexadecapole Moments (Debye-Ang^3)
      XXXX   -1100.2472   XXXY    -212.1765   XXYY    -538.1274
      XYYY    -196.3822   YYYY   -2167.1465   XXXZ      37.3892
      XXYZ     -26.8513   XYYZ     -30.6145   YYYZ     -77.6783
      XXZZ    -289.4169   XYZZ     -69.9964   YYZZ    -533.8191
      XZZZ      48.2768   YZZZ     -57.1833   ZZZZ    -664.5334
 -----------------------------------------------------------------
 Total job time:  596.38s(wall), 592.49s(cpu) 
 Fri Jul  8 23:15:12 2022

        *************************************************************
        *                                                           *
        *  Thank you very much for using Q-Chem.  Have a nice day.  *
        *                                                           *
        *************************************************************


remove work dirs ./qchem1043247.0 -- ./qchem1043247.-1
rm -rf ./qchem1043247
