You are running Q-Chem version: 5.4.0

#
# job setting
#
local host:  exp-1-41
current dir: /expanse/lustre/scratch/theleonzhang/temp_project/Interring_Bonds
input file:  Methylthiophene_Phi_60_Theta_180_Methylthiophene.qcin
output file: 
nprocs     : 0
nthreads   : 1
#
# qchem installation setting
#
QC:          /cm/shared/apps/spack/cpu/opt/spack/linux-centos8-zen2/gcc-10.2.0/qchem-5.4-akfmr7b3t57bfs6qan3padb2wnb2i7cl
QCAUX:       /cm/shared/apps/spack/cpu/opt/spack/linux-centos8-zen2/gcc-10.2.0/qchem-5.4-akfmr7b3t57bfs6qan3padb2wnb2i7cl/qcaux
QCPROG:      /cm/shared/apps/spack/cpu/opt/spack/linux-centos8-zen2/gcc-10.2.0/qchem-5.4-akfmr7b3t57bfs6qan3padb2wnb2i7cl/exe/qcprog.exe_s
QCPROG_S:    /cm/shared/apps/spack/cpu/opt/spack/linux-centos8-zen2/gcc-10.2.0/qchem-5.4-akfmr7b3t57bfs6qan3padb2wnb2i7cl/exe/qcprog.exe_s
PARALLEL:    -DSERIAL
QCMPI:       mpich
#
# qchem directory setting
#
qcrun:       qchem498859
QCSCRATCH:   .
QCLOCALSCR:  
QCTMPDIR:    .
QCFILEPREF:  ./qchem498859
QCSAVEDIR:   
workdirs:    ./qchem498859
workdir0:    ./qchem498859
partmpdirs =  
#
# parallel setting
#
QCRSH:           ssh
QCMPI:           mpich
QCMPIRUN:        /cm/shared/apps/spack/cpu/opt/spack/linux-centos8-zen2/gcc-10.2.0/qchem-5.4-akfmr7b3t57bfs6qan3padb2wnb2i7cl/bin/mpi/mpirun_qchem
QCMACHINEFILE:   ./qchem498859/hostfile

#
# env setting
#
exported envs:   QC QCAUX QCSCRATCH QCRUNNAME QCFILEPREF QCPROG QCPROG_S GUIFILE

Running Job 1 of 1 Methylthiophene_Phi_60_Theta_180_Methylthiophene.qcin
qchem Methylthiophene_Phi_60_Theta_180_Methylthiophene.qcin_498859.0 ./qchem498859/ 0
/cm/shared/apps/spack/cpu/opt/spack/linux-centos8-zen2/gcc-10.2.0/qchem-5.4-akfmr7b3t57bfs6qan3padb2wnb2i7cl/exe/qcprog.exe_s Methylthiophene_Phi_60_Theta_180_Methylthiophene.qcin_498859.0 ./qchem498859/
                  Welcome to Q-Chem
     A Quantum Leap Into The Future Of Chemistry


 Q-Chem 5.4, Q-Chem, Inc., Pleasanton, CA (2021)

 License issued to: University of California, San Diego (site)

 E. Epifanovsky,  A. T. B. Gilbert,  Xintian Feng,  Joonho Lee,  Yuezhi Mao,  
 N. Mardirossian,  P. Pokhilko,  A. White,  M. Wormit,  M. P. Coons,  
 A. L. Dempwolff,  Zhengting Gan,  D. Hait,  P. R. Horn,  L. D. Jacobson,  
 I. Kaliman,  J. Kussmann,  A. W. Lange,  Ka Un Lao,  D. S. Levine,  Jie Liu,  
 S. C. McKenzie,  A. F. Morrison,  K. Nanda,  F. Plasser,  D. R. Rehn,  
 M. L. Vidal,  Zhi-Qiang You,  Ying Zhu,  B. Alam,  B. Albrecht,  
 A. Aldossary,  E. Alguire,  J. H. Andersen,  D. Barton,  K. Begam,  A. Behn,  
 Y. A. Bernard,  E. J. Berquist,  H. Burton,  A. Carreras,  K. Carter-Fenk,  
 R. Chakraborty,  A. D. Chien,  K. D. Closser,  V. Cofer-Shabica,  
 S. Dasgupta,  Jia Deng,  M. de Wergifosse,  M. Diedenhofen,  Hainam Do,  
 S. Ehlert,  Po-Tung Fang,  S. Fatehi,  Qingguo Feng,  J. Gayvert,  
 Qinghui Ge,  G. Gidofalvi,  M. Goldey,  J. Gomes,  C. Gonzalez-Espinoza,  
 S. Gulania,  A. Gunina,  M. W. D. Hanson-Heine,  P. H. P. Harbach,  
 A. W. Hauser,  M. F. Herbst,  M. Hernandez Vera,  M. Hodecker,  
 Z. C. Holden,  S. Houck,  Xunkun Huang,  Kerwin Hui,  B. C. Huynh,  
 M. Ivanov,  Hyunjun Ji,  Hanjie Jiang,  B. Kaduk,  S. Kaehler,  
 K. Khistyaev,  Jaehoon Kim,  P. Klunzinger,  Z. Koczor-Benda,  
 Joong Hoon Koh,  D. Kosenkov,  L. Koulias,  T. Kowalczyk,  C. M. Krauter,  
 K. Kue,  A. Kunitsa,  T. Kus,  A. Landau,  K. V. Lawler,  D. Lefrancois,  
 S. Lehtola,  Rain Li,  Yi-Pei Li,  Jiashu Liang,  M. Liebenthal,  
 Hung-Hsuan Lin,  You-Sheng Lin,  Fenglai Liu,  Kuan-Yu Liu,  
 M. Loipersberger,  A. Luenser,  A. Manjanath,  P. Manohar,  E. Mansoor,  
 S. F. Manzer,  Shan-Ping Mao,  A. V. Marenich,  T. Markovich,  S. Mason,  
 S. A. Maurer,  P. F. McLaughlin,  M. F. S. J. Menger,  J.-M. Mewes,  
 S. A. Mewes,  P. Morgante,  J. W. Mullinax,  T. S. Nguyen-Beck,  
 K. J. Oosterbaan,  G. Paran,  Alexander C. Paul,  Suranjan K. Paul,  
 F. Pavosevic,  Zheng Pei,  S. Prager,  E. I. Proynov,  E. Ramos,  B. Rana,  
 A. E. Rask,  A. Rettig,  R. M. Richard,  F. Rob,  E. Rossomme,  T. Scheele,  
 M. Scheurer,  M. Schneider,  N. Sergueev,  S. M. Sharada,  W. Skomorowski,  
 D. W. Small,  C. J. Stein,  Yu-Chuan Su,  E. J. Sundstrom,  Zhen Tao,  
 J. Thirman,  T. Tsuchimochi,  N. M. Tubman,  S. P. Veccham,  O. Vydrov,  
 J. Wenzel,  J. Witte,  A. Yamada,  Kun Yao,  S. Yeganeh,  S. R. Yost,  
 A. Zech,  Igor Ying Zhang,  Xing Zhang,  Yu Zhang,  D. Zuev,  
 A. Aspuru-Guzik,  A. T. Bell,  N. A. Besley,  K. B. Bravaya,  B. R. Brooks,  
 D. Casanova,  Jeng-Da Chai,  S. Coriani,  C. J. Cramer,  
 A. E. DePrince, III,  R. A. DiStasio Jr.,  A. Dreuw,  B. D. Dunietz,  
 T. R. Furlani,  W. A. Goddard III,  S. Grimme,  S. Hammes-Schiffer,  
 T. Head-Gordon,  W. J. Hehre,  Chao-Ping Hsu,  T.-C. Jagau,  Yousung Jung,  
 A. Klamt,  Jing Kong,  D. S. Lambrecht,  WanZhen Liang,  N. J. Mayhall,  
 C. W. McCurdy,  J. B. Neaton,  C. Ochsenfeld,  J. A. Parkhill,  R. Peverati,  
 V. A. Rassolov,  Yihan Shao,  L. V. Slipchenko,  T. Stauch,  R. P. Steele,  
 J. E. Subotnik,  A. J. W. Thom,  A. Tkatchenko,  D. G. Truhlar,  
 T. Van Voorhis,  T. A. Wesolowski,  K. B. Whaley,  H. L. Woodcock III,  
 P. M. Zimmerman,  S. Faraji,  P. M. W. Gill,  M. Head-Gordon,  
 J. M. Herbert,  A. I. Krylov

 Contributors to earlier versions of Q-Chem not listed above: 
 R. D. Adamson,  B. Austin,  R. Baer,  J. Baker,  G. J. O. Beran,  
 K. Brandhorst,  S. T. Brown,  E. F. C. Byrd,  A. K. Chakraborty,  
 G. K. L. Chan,  Chun-Min Chang,  Yunqing Chen,  C.-L. Cheng,  
 Siu Hung Chien,  D. M. Chipman,  D. L. Crittenden,  H. Dachsel,  
 R. J. Doerksen,  A. D. Dutoi,  R. G. Edgar,  J. Fosso-Tande,  
 L. Fusti-Molnar,  D. Ghosh,  A. Ghysels,  A. Golubeva-Zadorozhnaya,  
 J. Gonthier,  M. S. Gordon,  S. R. Gwaltney,  G. Hawkins,  J. E. Herr,  
 A. Heyden,  S. Hirata,  E. G. Hohenstein,  G. Kedziora,  F. J. Keil,  
 C. Kelley,  Jihan Kim,  R. A. King,  R. Z. Khaliullin,  P. P. Korambath,  
 W. Kurlancheek,  A. Laurent,  A. M. Lee,  M. S. Lee,  S. V. Levchenko,  
 Ching Yeh Lin,  D. Liotard,  E. Livshits,  R. C. Lochan,  I. Lotan,  
 L. A. Martinez-Martinez,  P. E. Maslen,  N. Nair,  D. P. O'Neill,  
 D. Neuhauser,  E. Neuscamman,  C. M. Oana,  R. Olivares-Amaya,  R. Olson,  
 T. M. Perrine,  B. Peters,  P. A. Pieniazek,  A. Prociuk,  Y. M. Rhee,  
 J. Ritchie,  M. A. Rohrdanz,  E. Rosta,  N. J. Russ,  H. F. Schaefer III,  
 M. W. Schmidt,  N. E. Schultz,  S. Sharma,  N. Shenvi,  C. D. Sherrill,  
 A. C. Simmonett,  A. Sodt,  T. Stein,  D. Stuck,  K. S. Thanthiriwatte,  
 V. Vanovschi,  L. Vogt,  Tao Wang,  A. Warshel,  M. A. Watson,  
 C. F. Williams,  Q. Wu,  X. Xu,  Jun Yang,  W. Zhang,  Yan Zhao

 Please cite Q-Chem as follows:
 Y. Shao et al., Mol. Phys. 113, 184-215 (2015)
 DOI: 10.1080/00268976.2014.952696

 Q-Chem 5.4.0 for Intel X86 EM64T Linux

 Parts of Q-Chem use Armadillo 9.800.1 (Horizon Scraper).
 http://arma.sourceforge.net/

 Q-Chem begins on Sat Jul  9 08:00:15 2022  

 Host: 
0

     Scratch files written to ./qchem498859//
 May1621 |scratch|qcdevops|jenkins|workspace|build_RNUM    
 Processing $rem in /cm/shared/apps/spack/cpu/opt/spack/linux-centos8-zen2/gcc-10.2.0/qchem-5.4-akfmr7b3t57bfs6qan3padb2wnb2i7cl/config/preferences:
 Processing $rem in /home/theleonzhang/.qchemrc:
 Symmetry turned off for PCM/SM12/SMD calculation
 Core orbitals will be frozen

 Checking the input file for inconsistencies... 	...done.

--------------------------------------------------------------
User input:
--------------------------------------------------------------
$molecule
0 1
C	0.000713	-3.866725	-0.775127
C	0.000302	-3.703963	0.612565
C	-0.000067	-2.357056	1.066639
H	0.000470	-4.561092	1.302900
C	0.000000	-1.440664	0.000000
S	-0.000009	-2.286957	-1.544483
C	-0.000295	-1.978743	2.521872
H	-0.000221	-2.878678	3.166949
H	-0.892850	-1.376015	2.790821
H	0.892005	-1.375728	2.791023
H	0.000945	-4.783437	-1.375251
C	0.000000	0.000000	0.000000
C	0.747916	0.431772	1.099446
C	1.946425	1.123709	0.776721
H	0.428523	0.247378	2.136088
C	2.137531	1.234018	-0.612546
S	0.816154	0.471179	-1.486809
C	2.888455	1.667564	1.814609
H	2.519842	1.454746	2.836676
H	3.008896	2.767543	1.726239
H	3.901271	1.221850	1.726228
H	2.959587	1.708609	-1.161575
$end

$rem
JOBTYPE		SP
EXCHANGE	HF
CORRELATION	pRIMP2
BASIS		cc-pvtz
METHOD		rimp2
AUX_BASIS	rimp2-cc-pvtz
SOLVENT_METHOD	PCM
PURECART	11111
SYMMETRY	false
MEM_TOTAL	110000
SCF_CONVERGENCE = 6
THRESH=10
$end



$solvent
dielectric 4.90
$end
--------------------------------------------------------------
 ----------------------------------------------------------------
             Standard Nuclear Orientation (Angstroms)
    I     Atom           X                Y                Z
 ----------------------------------------------------------------
    1      C       0.0007130000    -3.8667250000    -0.7751270000
    2      C       0.0003020000    -3.7039630000     0.6125650000
    3      C      -0.0000670000    -2.3570560000     1.0666390000
    4      H       0.0004700000    -4.5610920000     1.3029000000
    5      C       0.0000000000    -1.4406640000     0.0000000000
    6      S      -0.0000090000    -2.2869570000    -1.5444830000
    7      C      -0.0002950000    -1.9787430000     2.5218720000
    8      H      -0.0002210000    -2.8786780000     3.1669490000
    9      H      -0.8928500000    -1.3760150000     2.7908210000
   10      H       0.8920050000    -1.3757280000     2.7910230000
   11      H       0.0009450000    -4.7834370000    -1.3752510000
   12      C       0.0000000000     0.0000000000     0.0000000000
   13      C       0.7479160000     0.4317720000     1.0994460000
   14      C       1.9464250000     1.1237090000     0.7767210000
   15      H       0.4285230000     0.2473780000     2.1360880000
   16      C       2.1375310000     1.2340180000    -0.6125460000
   17      S       0.8161540000     0.4711790000    -1.4868090000
   18      C       2.8884550000     1.6675640000     1.8146090000
   19      H       2.5198420000     1.4547460000     2.8366760000
   20      H       3.0088960000     2.7675430000     1.7262390000
   21      H       3.9012710000     1.2218500000     1.7262280000
   22      H       2.9595870000     1.7086090000    -1.1615750000
 ----------------------------------------------------------------
 Nuclear Repulsion Energy =         865.51932164 hartrees
 There are       51 alpha and       51 beta electrons

 Q-Chem warning in module forms1/BasisType.C, line 2236:

 You are not using the predefined 5D/6D in this basis set.

 Requested basis set is cc-pVTZ
 There are 184 shells and 508 basis functions

 Total QAlloc Memory Limit 110000 MB
 Mega-Array Size       188 MB
 MEM_STATIC part       192 MB
 Discretize the solute cavity surface with Lebedev spheres
	Using 110 Lebedev grid points for each H atom
	Using 194 Lebedev grid points for other atoms
	Atomic van der Waals radii will be scaled by 1.20
 Remove points where switching function is < 1.0e-08
 Keep 1473 surface tesserae and discard 1955 interior tesserae
 Molecular Surface Area = 224.286 Angst**2
 Requested basis set is rimp2-cc-pVTZ
 There are 394 shells and 1354 basis functions
 A cutoff of  1.0D-10 yielded  12977 shell pairs
 There are     96359 function pairs (    124300 Cartesian)
 Smallest overlap matrix eigenvalue = 6.79E-05

 Scale SEOQF with 1.000000e-01/1.000000e-01/1.000000e-01

 Standard Electronic Orientation quadrupole field applied
 Nucleus-field energy     =     0.0000000144 hartrees
 Guess from superposition of atomic densities
 Warning:  Energy on first SCF cycle will be non-variational
 SAD guess density has 102.000000 electrons

 -----------------------------------------------------------------------
  General SCF calculation program by
  Eric Jon Sundstrom, Paul Horn, Yuezhi Mao, Dmitri Zuev, Alec White,
  David Stuck, Shaama M.S., Shane Yost, Joonho Lee, David Small,
  Daniel Levine, Susi Lehtola, Hugh Burton, Evgeny Epifanovsky,
  Bang C. Huynh
 -----------------------------------------------------------------------
 Hartree-Fock
 A restricted SCF calculation will be
 performed using DIIS
 SCF converges when DIIS error is below 1.0e-06
 ---------------------------------------
  Cycle       Energy         DIIS error
 ---------------------------------------
    1   -1184.4331430635      2.41e-02  
    2   -1179.4593706423      1.60e-03  
    3   -1179.5827515304      6.13e-04  
    4   -1179.5970833382      3.30e-04  
    5   -1179.6018375668      6.19e-05  
    6   -1179.6021422062      3.09e-05  
    7   -1179.6022459346      1.57e-05  
    8   -1179.6022873511      6.45e-06  
    9   -1179.6022963580      2.82e-06  
   10   -1179.6022977914      1.40e-06  
   11   -1179.6022981731      6.30e-07  Convergence criterion met
 ---------------------------------------
 SCF time:   CPU 582.95s  wall 586.00s 

************** Final PCM Free Energy Summary **************
 G_electrostatic  =      -0.01078717 hartree =      -6.76905015 kcal/mol
 G_cavitation     =       0.00000000 hartree =       0.00000000 kcal/mol
 G_dispersion     =       0.00000000 hartree =       0.00000000 kcal/mol
 G_repulsion      =       0.00000000 hartree =       0.00000000 kcal/mol
 --------------------------------------------------
 Non-electrostatic Free Energy =       0.00000000 hartree =       0.00000000 kcal/mol
 Total                         =      -0.01078717 hartree =      -6.76905015 kcal/mol
 --------------------------------------------------
 SCF Energy (H0 + V/2)                       =   -1179.60229817 
 Solute Internal Energy (H0)                 =   -1179.59151100 
 Total Free Energy (H0 + V/2 + non-elec)     =   -1179.60229817 hartree
                                             = -740211.61411696 kcal/mol
***********************************************************

 SCF   energy in the final basis set =    -1179.6022981731
 Total energy in the final basis set =    -1179.6022981731


 --------------------------------------------------------------
  Generalized many-body perturbation theory program
  by Joonho Lee, Fazle Rob, Xintian Feng, Evgeny Epifanovsky

 No regularization used 
 (reg. param. = 0.0000e+00)
  (P|Q)^-1/2 Time:  CPU 1.69 s  wall 1.70 s

 In RI-MP2 calculation: 
 # of frozen core orbitals: 20

 Components of the RIMP2 correlation energy:
        aaaa    correlation energy =        -0.2564738264 a.u.
        abab    correlation energy =        -1.4847422824 a.u.
        bbbb    correlation energy =        -0.2564738264 a.u.
        non-Brillouin singles      =        -0.0000000000 a.u.
        total same-spin energy     =        -0.5129476528 a.u.
        total opposite-spin energy =        -1.4847422824 a.u.

 Total  RIMP2   correlation energy =        -1.9976899351 a.u.
        RIMP2         total energy =     -1181.5999881082 a.u.

 RI-MP2 Energy Time:  CPU 69.98 s  wall 70.23 s
 
 --------------------------------------------------------------
 
                    Orbital Energies (a.u.)
 --------------------------------------------------------------
 
 Alpha MOs
 -- Occupied --
-91.9848 -91.9726 -11.2950 -11.2800 -11.2671 -11.2573 -11.2564 -11.2531
-11.2363 -11.2329 -11.2316 -11.2270  -8.9859  -8.9733  -6.6667  -6.6658
 -6.6655  -6.6543  -6.6536  -6.6529  -1.1955  -1.1446  -1.0492  -1.0260
 -0.9970  -0.9540  -0.9113  -0.8946  -0.8005  -0.7589  -0.7299  -0.7020
 -0.6526  -0.6184  -0.6010  -0.5842  -0.5706  -0.5585  -0.5502  -0.5435
 -0.5347  -0.5192  -0.5054  -0.4854  -0.4847  -0.4595  -0.4403  -0.3718
 -0.3517  -0.3252  -0.2600
 -- Virtual --
  0.0473   0.1272   0.1326   0.1495   0.1637   0.1702   0.1805   0.1831
  0.1945   0.2067   0.2106   0.2188   0.2310   0.2413   0.2419   0.2484
  0.2686   0.2764   0.3083   0.3139   0.3213   0.3296   0.3603   0.3721
  0.3738   0.3870   0.3894   0.3955   0.4197   0.4242   0.4318   0.4364
  0.4456   0.4560   0.4713   0.4779   0.4804   0.4852   0.5035   0.5086
  0.5124   0.5172   0.5234   0.5395   0.5445   0.5580   0.5610   0.5630
  0.5738   0.5829   0.5961   0.6012   0.6046   0.6169   0.6179   0.6274
  0.6285   0.6325   0.6345   0.6433   0.6478   0.6571   0.6690   0.6743
  0.6811   0.6927   0.7085   0.7192   0.7222   0.7377   0.7485   0.7528
  0.7666   0.7859   0.7938   0.8064   0.8132   0.8308   0.8405   0.8517
  0.8548   0.8733   0.8755   0.8854   0.9028   0.9141   0.9335   0.9425
  0.9583   0.9654   0.9774   0.9875   0.9998   1.0184   1.0324   1.0425
  1.0529   1.0647   1.0663   1.0728   1.0839   1.0855   1.1000   1.1099
  1.1218   1.1328   1.1408   1.1523   1.1547   1.1847   1.1890   1.2024
  1.2172   1.2227   1.2328   1.2404   1.2433   1.2592   1.2693   1.2714
  1.2817   1.3094   1.3196   1.3389   1.3485   1.3533   1.3600   1.3675
  1.3934   1.3944   1.3971   1.4136   1.4174   1.4279   1.4421   1.4622
  1.4802   1.4898   1.5036   1.5158   1.5392   1.5412   1.5453   1.5537
  1.5583   1.5696   1.5779   1.5853   1.5930   1.6128   1.6195   1.6344
  1.6475   1.6719   1.6770   1.6963   1.7035   1.7097   1.7287   1.7373
  1.7545   1.7688   1.7886   1.7955   1.8094   1.8241   1.8313   1.8728
  1.8837   1.8934   1.9190   1.9328   1.9591   1.9734   1.9905   2.0038
  2.0187   2.0328   2.0546   2.0939   2.1085   2.1332   2.1583   2.1850
  2.1877   2.1927   2.2071   2.2228   2.2467   2.2597   2.2627   2.2855
  2.2978   2.3231   2.3445   2.3939   2.4041   2.4154   2.4383   2.4565
  2.4783   2.4965   2.5050   2.5373   2.5596   2.5816   2.5986   2.6115
  2.6205   2.6440   2.6521   2.6710   2.6855   2.6974   2.7245   2.7270
  2.7397   2.7573   2.7652   2.7748   2.7770   2.7915   2.7980   2.8141
  2.8359   2.8469   2.8536   2.8720   2.8870   2.9115   2.9237   2.9338
  2.9592   2.9767   2.9921   3.0060   3.0098   3.0276   3.0374   3.0493
  3.0605   3.0672   3.0862   3.1087   3.1172   3.1302   3.1386   3.1444
  3.1521   3.1600   3.1680   3.1778   3.1971   3.2100   3.2289   3.2327
  3.2384   3.2514   3.2633   3.2729   3.2781   3.2915   3.2937   3.3098
  3.3184   3.3261   3.3345   3.3539   3.3598   3.3657   3.3778   3.3921
  3.3992   3.4045   3.4080   3.4136   3.4240   3.4380   3.4434   3.4532
  3.4545   3.4753   3.4771   3.4959   3.4995   3.5071   3.5146   3.5198
  3.5374   3.5382   3.5523   3.5568   3.5605   3.5696   3.5815   3.5941
  3.6010   3.6293   3.6329   3.6404   3.6603   3.6659   3.6816   3.6924
  3.6993   3.7069   3.7194   3.7298   3.7360   3.7436   3.7621   3.7768
  3.7883   3.7914   3.7926   3.8098   3.8213   3.8393   3.8539   3.8741
  3.8757   3.8943   3.9096   3.9184   3.9356   3.9489   3.9787   3.9885
  3.9907   4.0136   4.0229   4.0283   4.0339   4.0385   4.0585   4.0613
  4.0766   4.0882   4.1111   4.1184   4.1347   4.1444   4.1668   4.1695
  4.1842   4.1917   4.2061   4.2080   4.2187   4.2263   4.2341   4.2530
  4.2726   4.2754   4.2909   4.3112   4.3136   4.3228   4.3507   4.3572
  4.3734   4.3796   4.3846   4.3940   4.4017   4.4065   4.4264   4.4424
  4.4568   4.4766   4.4955   4.5185   4.5340   4.5484   4.5705   4.5968
  4.6089   4.6165   4.6309   4.6370   4.6477   4.6643   4.6811   4.7018
  4.7088   4.7279   4.7652   4.7835   4.8018   4.8107   4.8580   4.8762
  4.8900   4.9269   4.9312   4.9523   4.9672   4.9875   5.0218   5.0606
  5.0707   5.0914   5.1079   5.1423   5.1639   5.1924   5.2092   5.2339
  5.2689   5.2714   5.3037   5.3154   5.3317   5.3737   5.3995   5.4073
  5.4173   5.4519   5.4752   5.4818   5.5149   5.5370   5.5466   5.5568
  5.5956   5.6141   5.6284   5.6459   5.6542   5.6703   5.6994   5.7334
  5.7885   5.8104   5.9301   5.9826   6.0411   6.0889   6.1035   6.2079
  6.2345   6.2552   6.2761   6.3114   6.3607   6.3841   6.5317   8.6978
  9.7205  11.5758  12.4239  12.8005  13.3313  13.8281  13.9711  14.2300
 14.4860
 --------------------------------------------------------------
 
          Ground-State Mulliken Net Atomic Charges

     Atom                 Charge (a.u.)
  ----------------------------------------
      1 C                    -0.256515
      2 C                    -0.244291
      3 C                     0.019107
      4 H                     0.180130
      5 C                    -0.009301
      6 S                    -0.006974
      7 C                    -0.299449
      8 H                     0.112977
      9 H                     0.105966
     10 H                     0.096094
     11 H                     0.199834
     12 C                    -0.109837
     13 C                    -0.110339
     14 C                    -0.021133
     15 H                     0.204314
     16 C                    -0.158714
     17 S                     0.040219
     18 C                    -0.269798
     19 H                     0.102745
     20 H                     0.111262
     21 H                     0.108043
     22 H                     0.205660
  ----------------------------------------
  Sum of atomic charges =     0.000000

 -----------------------------------------------------------------
                    Cartesian Multipole Moments
 -----------------------------------------------------------------
    Charge (ESU x 10^10)
                -0.0000
    Dipole Moment (Debye)
         X       3.1338      Y       1.5686      Z       3.0045
       Tot       4.6161
    Quadrupole Moments (Debye-Ang)
        XX     -82.3643     XY       5.8712     YY     -82.2519
        XZ       0.3560     YZ      -1.9380     ZZ     -79.8937
    Octopole Moments (Debye-Ang^2)
       XXX    -153.3059    XXY     105.5786    XYY     -51.4577
       YYY     196.9945    XXZ      -7.0490    XYZ      -1.9541
       YYZ      -5.2581    XZZ     -52.1610    YZZ      70.3957
       ZZZ      -1.4085
    Hexadecapole Moments (Debye-Ang^3)
      XXXX    -794.9108   XXXY    -168.8292   XXYY    -544.8454
      XYYY    -201.5097   YYYY   -2057.6321   XXXZ     -97.1997
      XXYZ     -26.4843   XYYZ     -32.3449   YYYZ     -29.0853
      XXZZ    -314.9299   XYZZ     -59.1041   YYZZ    -510.2986
      XZZZ     -83.8761   YZZZ     -54.1128   ZZZZ   -1080.1711
 -----------------------------------------------------------------
 Total job time:  658.63s(wall), 653.77s(cpu) 
 Sat Jul  9 08:11:14 2022

        *************************************************************
        *                                                           *
        *  Thank you very much for using Q-Chem.  Have a nice day.  *
        *                                                           *
        *************************************************************


remove work dirs ./qchem498859.0 -- ./qchem498859.-1
rm -rf ./qchem498859
