You are running Q-Chem version: 5.4.0

#
# job setting
#
local host:  exp-2-41
current dir: /expanse/lustre/scratch/theleonzhang/temp_project/Interring_Bonds
input file:  Methylthiophene_Phi_10_Theta_20_Methylthiophene.qcin
output file: 
nprocs     : 0
nthreads   : 1
#
# qchem installation setting
#
QC:          /cm/shared/apps/spack/cpu/opt/spack/linux-centos8-zen2/gcc-10.2.0/qchem-5.4-akfmr7b3t57bfs6qan3padb2wnb2i7cl
QCAUX:       /cm/shared/apps/spack/cpu/opt/spack/linux-centos8-zen2/gcc-10.2.0/qchem-5.4-akfmr7b3t57bfs6qan3padb2wnb2i7cl/qcaux
QCPROG:      /cm/shared/apps/spack/cpu/opt/spack/linux-centos8-zen2/gcc-10.2.0/qchem-5.4-akfmr7b3t57bfs6qan3padb2wnb2i7cl/exe/qcprog.exe_s
QCPROG_S:    /cm/shared/apps/spack/cpu/opt/spack/linux-centos8-zen2/gcc-10.2.0/qchem-5.4-akfmr7b3t57bfs6qan3padb2wnb2i7cl/exe/qcprog.exe_s
PARALLEL:    -DSERIAL
QCMPI:       mpich
#
# qchem directory setting
#
qcrun:       qchem2990937
QCSCRATCH:   .
QCLOCALSCR:  
QCTMPDIR:    .
QCFILEPREF:  ./qchem2990937
QCSAVEDIR:   
workdirs:    ./qchem2990937
workdir0:    ./qchem2990937
partmpdirs =  
#
# parallel setting
#
QCRSH:           ssh
QCMPI:           mpich
QCMPIRUN:        /cm/shared/apps/spack/cpu/opt/spack/linux-centos8-zen2/gcc-10.2.0/qchem-5.4-akfmr7b3t57bfs6qan3padb2wnb2i7cl/bin/mpi/mpirun_qchem
QCMACHINEFILE:   ./qchem2990937/hostfile

#
# env setting
#
exported envs:   QC QCAUX QCSCRATCH QCRUNNAME QCFILEPREF QCPROG QCPROG_S GUIFILE

Running Job 1 of 1 Methylthiophene_Phi_10_Theta_20_Methylthiophene.qcin
qchem Methylthiophene_Phi_10_Theta_20_Methylthiophene.qcin_2990937.0 ./qchem2990937/ 0
/cm/shared/apps/spack/cpu/opt/spack/linux-centos8-zen2/gcc-10.2.0/qchem-5.4-akfmr7b3t57bfs6qan3padb2wnb2i7cl/exe/qcprog.exe_s Methylthiophene_Phi_10_Theta_20_Methylthiophene.qcin_2990937.0 ./qchem2990937/
                  Welcome to Q-Chem
     A Quantum Leap Into The Future Of Chemistry


 Q-Chem 5.4, Q-Chem, Inc., Pleasanton, CA (2021)

 License issued to: University of California, San Diego (site)

 E. Epifanovsky,  A. T. B. Gilbert,  Xintian Feng,  Joonho Lee,  Yuezhi Mao,  
 N. Mardirossian,  P. Pokhilko,  A. White,  M. Wormit,  M. P. Coons,  
 A. L. Dempwolff,  Zhengting Gan,  D. Hait,  P. R. Horn,  L. D. Jacobson,  
 I. Kaliman,  J. Kussmann,  A. W. Lange,  Ka Un Lao,  D. S. Levine,  Jie Liu,  
 S. C. McKenzie,  A. F. Morrison,  K. Nanda,  F. Plasser,  D. R. Rehn,  
 M. L. Vidal,  Zhi-Qiang You,  Ying Zhu,  B. Alam,  B. Albrecht,  
 A. Aldossary,  E. Alguire,  J. H. Andersen,  D. Barton,  K. Begam,  A. Behn,  
 Y. A. Bernard,  E. J. Berquist,  H. Burton,  A. Carreras,  K. Carter-Fenk,  
 R. Chakraborty,  A. D. Chien,  K. D. Closser,  V. Cofer-Shabica,  
 S. Dasgupta,  Jia Deng,  M. de Wergifosse,  M. Diedenhofen,  Hainam Do,  
 S. Ehlert,  Po-Tung Fang,  S. Fatehi,  Qingguo Feng,  J. Gayvert,  
 Qinghui Ge,  G. Gidofalvi,  M. Goldey,  J. Gomes,  C. Gonzalez-Espinoza,  
 S. Gulania,  A. Gunina,  M. W. D. Hanson-Heine,  P. H. P. Harbach,  
 A. W. Hauser,  M. F. Herbst,  M. Hernandez Vera,  M. Hodecker,  
 Z. C. Holden,  S. Houck,  Xunkun Huang,  Kerwin Hui,  B. C. Huynh,  
 M. Ivanov,  Hyunjun Ji,  Hanjie Jiang,  B. Kaduk,  S. Kaehler,  
 K. Khistyaev,  Jaehoon Kim,  P. Klunzinger,  Z. Koczor-Benda,  
 Joong Hoon Koh,  D. Kosenkov,  L. Koulias,  T. Kowalczyk,  C. M. Krauter,  
 K. Kue,  A. Kunitsa,  T. Kus,  A. Landau,  K. V. Lawler,  D. Lefrancois,  
 S. Lehtola,  Rain Li,  Yi-Pei Li,  Jiashu Liang,  M. Liebenthal,  
 Hung-Hsuan Lin,  You-Sheng Lin,  Fenglai Liu,  Kuan-Yu Liu,  
 M. Loipersberger,  A. Luenser,  A. Manjanath,  P. Manohar,  E. Mansoor,  
 S. F. Manzer,  Shan-Ping Mao,  A. V. Marenich,  T. Markovich,  S. Mason,  
 S. A. Maurer,  P. F. McLaughlin,  M. F. S. J. Menger,  J.-M. Mewes,  
 S. A. Mewes,  P. Morgante,  J. W. Mullinax,  T. S. Nguyen-Beck,  
 K. J. Oosterbaan,  G. Paran,  Alexander C. Paul,  Suranjan K. Paul,  
 F. Pavosevic,  Zheng Pei,  S. Prager,  E. I. Proynov,  E. Ramos,  B. Rana,  
 A. E. Rask,  A. Rettig,  R. M. Richard,  F. Rob,  E. Rossomme,  T. Scheele,  
 M. Scheurer,  M. Schneider,  N. Sergueev,  S. M. Sharada,  W. Skomorowski,  
 D. W. Small,  C. J. Stein,  Yu-Chuan Su,  E. J. Sundstrom,  Zhen Tao,  
 J. Thirman,  T. Tsuchimochi,  N. M. Tubman,  S. P. Veccham,  O. Vydrov,  
 J. Wenzel,  J. Witte,  A. Yamada,  Kun Yao,  S. Yeganeh,  S. R. Yost,  
 A. Zech,  Igor Ying Zhang,  Xing Zhang,  Yu Zhang,  D. Zuev,  
 A. Aspuru-Guzik,  A. T. Bell,  N. A. Besley,  K. B. Bravaya,  B. R. Brooks,  
 D. Casanova,  Jeng-Da Chai,  S. Coriani,  C. J. Cramer,  
 A. E. DePrince, III,  R. A. DiStasio Jr.,  A. Dreuw,  B. D. Dunietz,  
 T. R. Furlani,  W. A. Goddard III,  S. Grimme,  S. Hammes-Schiffer,  
 T. Head-Gordon,  W. J. Hehre,  Chao-Ping Hsu,  T.-C. Jagau,  Yousung Jung,  
 A. Klamt,  Jing Kong,  D. S. Lambrecht,  WanZhen Liang,  N. J. Mayhall,  
 C. W. McCurdy,  J. B. Neaton,  C. Ochsenfeld,  J. A. Parkhill,  R. Peverati,  
 V. A. Rassolov,  Yihan Shao,  L. V. Slipchenko,  T. Stauch,  R. P. Steele,  
 J. E. Subotnik,  A. J. W. Thom,  A. Tkatchenko,  D. G. Truhlar,  
 T. Van Voorhis,  T. A. Wesolowski,  K. B. Whaley,  H. L. Woodcock III,  
 P. M. Zimmerman,  S. Faraji,  P. M. W. Gill,  M. Head-Gordon,  
 J. M. Herbert,  A. I. Krylov

 Contributors to earlier versions of Q-Chem not listed above: 
 R. D. Adamson,  B. Austin,  R. Baer,  J. Baker,  G. J. O. Beran,  
 K. Brandhorst,  S. T. Brown,  E. F. C. Byrd,  A. K. Chakraborty,  
 G. K. L. Chan,  Chun-Min Chang,  Yunqing Chen,  C.-L. Cheng,  
 Siu Hung Chien,  D. M. Chipman,  D. L. Crittenden,  H. Dachsel,  
 R. J. Doerksen,  A. D. Dutoi,  R. G. Edgar,  J. Fosso-Tande,  
 L. Fusti-Molnar,  D. Ghosh,  A. Ghysels,  A. Golubeva-Zadorozhnaya,  
 J. Gonthier,  M. S. Gordon,  S. R. Gwaltney,  G. Hawkins,  J. E. Herr,  
 A. Heyden,  S. Hirata,  E. G. Hohenstein,  G. Kedziora,  F. J. Keil,  
 C. Kelley,  Jihan Kim,  R. A. King,  R. Z. Khaliullin,  P. P. Korambath,  
 W. Kurlancheek,  A. Laurent,  A. M. Lee,  M. S. Lee,  S. V. Levchenko,  
 Ching Yeh Lin,  D. Liotard,  E. Livshits,  R. C. Lochan,  I. Lotan,  
 L. A. Martinez-Martinez,  P. E. Maslen,  N. Nair,  D. P. O'Neill,  
 D. Neuhauser,  E. Neuscamman,  C. M. Oana,  R. Olivares-Amaya,  R. Olson,  
 T. M. Perrine,  B. Peters,  P. A. Pieniazek,  A. Prociuk,  Y. M. Rhee,  
 J. Ritchie,  M. A. Rohrdanz,  E. Rosta,  N. J. Russ,  H. F. Schaefer III,  
 M. W. Schmidt,  N. E. Schultz,  S. Sharma,  N. Shenvi,  C. D. Sherrill,  
 A. C. Simmonett,  A. Sodt,  T. Stein,  D. Stuck,  K. S. Thanthiriwatte,  
 V. Vanovschi,  L. Vogt,  Tao Wang,  A. Warshel,  M. A. Watson,  
 C. F. Williams,  Q. Wu,  X. Xu,  Jun Yang,  W. Zhang,  Yan Zhao

 Please cite Q-Chem as follows:
 Y. Shao et al., Mol. Phys. 113, 184-215 (2015)
 DOI: 10.1080/00268976.2014.952696

 Q-Chem 5.4.0 for Intel X86 EM64T Linux

 Parts of Q-Chem use Armadillo 9.800.1 (Horizon Scraper).
 http://arma.sourceforge.net/

 Q-Chem begins on Fri Jul  8 22:06:38 2022  

 Host: 
0

     Scratch files written to ./qchem2990937//
 May1621 |scratch|qcdevops|jenkins|workspace|build_RNUM    
 Processing $rem in /cm/shared/apps/spack/cpu/opt/spack/linux-centos8-zen2/gcc-10.2.0/qchem-5.4-akfmr7b3t57bfs6qan3padb2wnb2i7cl/config/preferences:
 Processing $rem in /home/theleonzhang/.qchemrc:
 Symmetry turned off for PCM/SM12/SMD calculation
 Core orbitals will be frozen

 Checking the input file for inconsistencies... 	...done.

--------------------------------------------------------------
User input:
--------------------------------------------------------------
$molecule
0 1
C	-0.265779	-3.866725	0.728138
C	0.209225	-3.703963	-0.575726
C	0.364875	-2.357056	-1.002290
H	0.445176	-4.561092	-1.224486
C	-0.000000	-1.440664	-0.000000
S	-0.528236	-2.286957	1.451343
C	0.862808	-1.978743	-2.369683
H	1.083368	-2.878678	-2.975883
H	1.793522	-1.376015	-2.317142
H	0.116375	-1.375728	-2.927787
H	-0.471251	-4.783437	1.291990
C	0.000000	0.000000	0.000000
C	0.149995	0.850475	1.099446
C	0.390327	2.213354	0.776721
H	0.085947	0.487279	2.136088
C	0.428665	2.430655	-0.612546
S	0.163670	0.928078	-1.486809
C	0.579235	3.284574	1.814609
H	0.505323	2.865404	2.836676
H	-0.185980	4.083890	1.726239
H	1.571698	3.773937	1.726228
H	0.593515	3.365448	-1.161575
$end

$rem
JOBTYPE		SP
EXCHANGE	HF
CORRELATION	pRIMP2
BASIS		cc-pvtz
METHOD		rimp2
AUX_BASIS	rimp2-cc-pvtz
SOLVENT_METHOD	PCM
PURECART	11111
SYMMETRY	false
MEM_TOTAL	110000
SCF_CONVERGENCE = 6
THRESH=10
$end



$solvent
dielectric 4.90
$end
--------------------------------------------------------------
 ----------------------------------------------------------------
             Standard Nuclear Orientation (Angstroms)
    I     Atom           X                Y                Z
 ----------------------------------------------------------------
    1      C      -0.2657790000    -3.8667250000     0.7281380000
    2      C       0.2092250000    -3.7039630000    -0.5757260000
    3      C       0.3648750000    -2.3570560000    -1.0022900000
    4      H       0.4451760000    -4.5610920000    -1.2244860000
    5      C       0.0000000000    -1.4406640000     0.0000000000
    6      S      -0.5282360000    -2.2869570000     1.4513430000
    7      C       0.8628080000    -1.9787430000    -2.3696830000
    8      H       1.0833680000    -2.8786780000    -2.9758830000
    9      H       1.7935220000    -1.3760150000    -2.3171420000
   10      H       0.1163750000    -1.3757280000    -2.9277870000
   11      H      -0.4712510000    -4.7834370000     1.2919900000
   12      C       0.0000000000     0.0000000000     0.0000000000
   13      C       0.1499950000     0.8504750000     1.0994460000
   14      C       0.3903270000     2.2133540000     0.7767210000
   15      H       0.0859470000     0.4872790000     2.1360880000
   16      C       0.4286650000     2.4306550000    -0.6125460000
   17      S       0.1636700000     0.9280780000    -1.4868090000
   18      C       0.5792350000     3.2845740000     1.8146090000
   19      H       0.5053230000     2.8654040000     2.8366760000
   20      H      -0.1859800000     4.0838900000     1.7262390000
   21      H       1.5716980000     3.7739370000     1.7262280000
   22      H       0.5935150000     3.3654480000    -1.1615750000
 ----------------------------------------------------------------
 Nuclear Repulsion Energy =         837.87888392 hartrees
 There are       51 alpha and       51 beta electrons

 Q-Chem warning in module forms1/BasisType.C, line 2236:

 You are not using the predefined 5D/6D in this basis set.

 Requested basis set is cc-pVTZ
 There are 184 shells and 508 basis functions

 Total QAlloc Memory Limit 110000 MB
 Mega-Array Size       188 MB
 MEM_STATIC part       192 MB
 Discretize the solute cavity surface with Lebedev spheres
	Using 110 Lebedev grid points for each H atom
	Using 194 Lebedev grid points for other atoms
	Atomic van der Waals radii will be scaled by 1.20
 Remove points where switching function is < 1.0e-08
 Keep 1521 surface tesserae and discard 1907 interior tesserae
 Molecular Surface Area = 229.280 Angst**2
 Requested basis set is rimp2-cc-pVTZ
 There are 394 shells and 1354 basis functions
 A cutoff of  1.0D-10 yielded  12195 shell pairs
 There are     90553 function pairs (    116866 Cartesian)
 Smallest overlap matrix eigenvalue = 5.02E-05

 Scale SEOQF with 1.000000e-01/1.000000e-01/1.000000e-01

 Standard Electronic Orientation quadrupole field applied
 Nucleus-field energy     =     0.0000000215 hartrees
 Guess from superposition of atomic densities
 Warning:  Energy on first SCF cycle will be non-variational
 SAD guess density has 102.000000 electrons

 -----------------------------------------------------------------------
  General SCF calculation program by
  Eric Jon Sundstrom, Paul Horn, Yuezhi Mao, Dmitri Zuev, Alec White,
  David Stuck, Shaama M.S., Shane Yost, Joonho Lee, David Small,
  Daniel Levine, Susi Lehtola, Hugh Burton, Evgeny Epifanovsky,
  Bang C. Huynh
 -----------------------------------------------------------------------
 Hartree-Fock
 A restricted SCF calculation will be
 performed using DIIS
 SCF converges when DIIS error is below 1.0e-06
 ---------------------------------------
  Cycle       Energy         DIIS error
 ---------------------------------------
    1   -1184.2485726725      2.38e-02  
    2   -1179.5437799367      1.60e-03  
    3   -1179.6649352826      6.13e-04  
    4   -1179.6785991516      3.33e-04  
    5   -1179.6832715941      6.43e-05  
    6   -1179.6835474364      3.01e-05  
    7   -1179.6836326345      1.23e-05  
    8   -1179.6836597939      5.13e-06  
    9   -1179.6836645492      1.61e-06  
   10   -1179.6836649667      5.19e-07  Convergence criterion met
 ---------------------------------------
 SCF time:   CPU 496.12s  wall 499.00s 

************** Final PCM Free Energy Summary **************
 G_electrostatic  =      -0.00771258 hartree =      -4.83971722 kcal/mol
 G_cavitation     =       0.00000000 hartree =       0.00000000 kcal/mol
 G_dispersion     =       0.00000000 hartree =       0.00000000 kcal/mol
 G_repulsion      =       0.00000000 hartree =       0.00000000 kcal/mol
 --------------------------------------------------
 Non-electrostatic Free Energy =       0.00000000 hartree =       0.00000000 kcal/mol
 Total                         =      -0.00771258 hartree =      -4.83971722 kcal/mol
 --------------------------------------------------
 SCF Energy (H0 + V/2)                       =   -1179.68366497 
 Solute Internal Energy (H0)                 =   -1179.67595239 
 Total Free Energy (H0 + V/2 + non-elec)     =   -1179.68366497 hartree
                                             = -740262.67255062 kcal/mol
***********************************************************

 SCF   energy in the final basis set =    -1179.6836649667
 Total energy in the final basis set =    -1179.6836649667


 --------------------------------------------------------------
  Generalized many-body perturbation theory program
  by Joonho Lee, Fazle Rob, Xintian Feng, Evgeny Epifanovsky

 No regularization used 
 (reg. param. = 0.0000e+00)
  (P|Q)^-1/2 Time:  CPU 1.70 s  wall 1.71 s

 In RI-MP2 calculation: 
 # of frozen core orbitals: 20

 Components of the RIMP2 correlation energy:
        aaaa    correlation energy =        -0.2531586281 a.u.
        abab    correlation energy =        -1.4746343747 a.u.
        bbbb    correlation energy =        -0.2531586281 a.u.
        non-Brillouin singles      =        -0.0000000000 a.u.
        total same-spin energy     =        -0.5063172561 a.u.
        total opposite-spin energy =        -1.4746343747 a.u.

 Total  RIMP2   correlation energy =        -1.9809516308 a.u.
        RIMP2         total energy =     -1181.6646165976 a.u.

 RI-MP2 Energy Time:  CPU 68.87 s  wall 69.14 s
 
 --------------------------------------------------------------
 
                    Orbital Energies (a.u.)
 --------------------------------------------------------------
 
 Alpha MOs
 -- Occupied --
-91.9848 -91.9846 -11.2833 -11.2782 -11.2724 -11.2626 -11.2535 -11.2519
-11.2434 -11.2405 -11.2296 -11.2288  -8.9846  -8.9845  -6.6655  -6.6655
 -6.6650  -6.6649  -6.6643  -6.6643  -1.1813  -1.1499  -1.0421  -1.0252
 -0.9987  -0.9527  -0.9147  -0.8949  -0.8002  -0.7646  -0.7205  -0.6959
 -0.6630  -0.6158  -0.5843  -0.5808  -0.5773  -0.5696  -0.5527  -0.5339
 -0.5247  -0.5205  -0.5114  -0.4961  -0.4887  -0.4672  -0.4517  -0.3685
 -0.3430  -0.3397  -0.2700
 -- Virtual --
  0.0642   0.1345   0.1438   0.1537   0.1617   0.1740   0.1803   0.1892
  0.1929   0.1993   0.2051   0.2134   0.2353   0.2381   0.2434   0.2492
  0.2665   0.2729   0.3005   0.3161   0.3448   0.3518   0.3677   0.3777
  0.3842   0.3861   0.4004   0.4084   0.4136   0.4286   0.4379   0.4491
  0.4573   0.4607   0.4685   0.4780   0.4807   0.4934   0.4975   0.5055
  0.5125   0.5291   0.5334   0.5387   0.5437   0.5468   0.5512   0.5754
  0.5792   0.5872   0.5916   0.5976   0.6091   0.6126   0.6186   0.6235
  0.6292   0.6306   0.6380   0.6437   0.6484   0.6523   0.6599   0.6676
  0.6799   0.6888   0.6962   0.7085   0.7143   0.7404   0.7505   0.7662
  0.7758   0.7883   0.7979   0.8071   0.8192   0.8390   0.8488   0.8545
  0.8593   0.8675   0.8725   0.8928   0.8979   0.9152   0.9308   0.9406
  0.9571   0.9689   0.9801   0.9971   1.0044   1.0159   1.0207   1.0274
  1.0465   1.0599   1.0674   1.0757   1.0801   1.0880   1.0951   1.1006
  1.1093   1.1235   1.1406   1.1475   1.1585   1.1657   1.1744   1.1809
  1.2014   1.2209   1.2324   1.2427   1.2461   1.2534   1.2607   1.2728
  1.2800   1.2847   1.2960   1.3232   1.3306   1.3386   1.3596   1.3707
  1.3746   1.3921   1.4095   1.4184   1.4228   1.4301   1.4473   1.4512
  1.4836   1.4895   1.5013   1.5110   1.5189   1.5354   1.5368   1.5511
  1.5555   1.5602   1.5652   1.5702   1.5808   1.5956   1.6181   1.6226
  1.6572   1.6669   1.6733   1.6905   1.6987   1.6992   1.7187   1.7230
  1.7495   1.7808   1.7853   1.7958   1.8111   1.8208   1.8507   1.8544
  1.8897   1.9011   1.9130   1.9158   1.9323   1.9621   1.9735   1.9922
  2.0155   2.0433   2.0681   2.0712   2.1188   2.1429   2.1495   2.1773
  2.1858   2.2069   2.2091   2.2471   2.2558   2.2580   2.2842   2.2888
  2.3045   2.3214   2.3500   2.3661   2.4049   2.4113   2.4342   2.4479
  2.4639   2.4939   2.5144   2.5295   2.5452   2.5729   2.5980   2.6117
  2.6174   2.6363   2.6598   2.6828   2.6897   2.6990   2.7166   2.7271
  2.7332   2.7464   2.7524   2.7543   2.7657   2.7757   2.7838   2.8107
  2.8219   2.8311   2.8458   2.8523   2.8817   2.8976   2.9158   2.9362
  2.9527   2.9682   2.9847   2.9954   3.0145   3.0175   3.0277   3.0420
  3.0597   3.0611   3.0827   3.0959   3.1129   3.1187   3.1387   3.1447
  3.1462   3.1570   3.1579   3.1701   3.1969   3.2075   3.2153   3.2234
  3.2295   3.2367   3.2561   3.2741   3.2789   3.2875   3.2995   3.3092
  3.3188   3.3308   3.3370   3.3459   3.3540   3.3625   3.3656   3.3739
  3.3837   3.3868   3.4071   3.4145   3.4214   3.4317   3.4332   3.4483
  3.4524   3.4606   3.4712   3.4819   3.4862   3.5057   3.5176   3.5202
  3.5314   3.5332   3.5391   3.5413   3.5501   3.5668   3.5697   3.5912
  3.5952   3.6073   3.6207   3.6312   3.6312   3.6464   3.6545   3.6587
  3.6773   3.6868   3.6982   3.7180   3.7309   3.7338   3.7380   3.7510
  3.7582   3.7634   3.7843   3.7938   3.8097   3.8146   3.8217   3.8433
  3.8569   3.8790   3.8947   3.9048   3.9237   3.9380   3.9454   3.9579
  3.9671   3.9893   3.9982   4.0072   4.0136   4.0206   4.0346   4.0425
  4.0598   4.0843   4.0924   4.0974   4.1028   4.1368   4.1455   4.1525
  4.1641   4.1736   4.1914   4.1950   4.2019   4.2124   4.2190   4.2315
  4.2441   4.2664   4.2856   4.2921   4.2961   4.3187   4.3282   4.3370
  4.3476   4.3569   4.3685   4.3817   4.3883   4.4018   4.4116   4.4295
  4.4374   4.4526   4.4650   4.4800   4.4970   4.5305   4.5412   4.5709
  4.5990   4.6141   4.6233   4.6258   4.6305   4.6500   4.6655   4.6866
  4.7093   4.7217   4.7382   4.7507   4.7744   4.7855   4.8194   4.8486
  4.8673   4.8712   4.8955   4.9255   4.9469   4.9722   5.0321   5.0547
  5.0841   5.1004   5.1141   5.1539   5.1800   5.1976   5.2142   5.2625
  5.2785   5.2865   5.3038   5.3087   5.3322   5.3696   5.3949   5.4020
  5.4207   5.4384   5.4620   5.4776   5.5279   5.5315   5.5491   5.5592
  5.5707   5.5908   5.6181   5.6228   5.6298   5.6943   5.7115   5.7144
  5.7938   5.8395   5.9413   5.9858   6.0546   6.1278   6.1707   6.2267
  6.2383   6.2495   6.2973   6.3091   6.3440   6.4546   6.5335   8.7840
  9.9341  11.5200  12.0688  12.9524  13.2872  13.7348  14.0167  14.2271
 14.4593
 --------------------------------------------------------------
 
          Ground-State Mulliken Net Atomic Charges

     Atom                 Charge (a.u.)
  ----------------------------------------
      1 C                    -0.213466
      2 C                    -0.251176
      3 C                     0.043096
      4 H                     0.184958
      5 C                    -0.027336
      6 S                     0.011680
      7 C                    -0.314496
      8 H                     0.114556
      9 H                     0.120915
     10 H                     0.110968
     11 H                     0.206510
     12 C                     0.044995
     13 C                    -0.252458
     14 C                     0.023992
     15 H                     0.179046
     16 C                    -0.246844
     17 S                     0.017297
     18 C                    -0.270860
     19 H                     0.102839
     20 H                     0.108461
     21 H                     0.108320
     22 H                     0.199001
  ----------------------------------------
  Sum of atomic charges =     0.000000

 -----------------------------------------------------------------
                    Cartesian Multipole Moments
 -----------------------------------------------------------------
    Charge (ESU x 10^10)
                -0.0000
    Dipole Moment (Debye)
         X       0.8751      Y       0.1166      Z      -0.0859
       Tot       0.8870
    Quadrupole Moments (Debye-Ang)
        XX     -91.6313     XY       1.0786     YY     -69.1162
        XZ      -2.0403     YZ       3.1157     ZZ     -80.6493
    Octopole Moments (Debye-Ang^2)
       XXX     -39.6424    XXY      47.9087    XYY      -7.3804
       YYY      94.5651    XXZ       0.2324    XYZ       7.6739
       YYZ       1.6732    XZZ     -10.4179    YZZ      38.4569
       ZZZ       6.1340
    Hexadecapole Moments (Debye-Ang^3)
      XXXX    -225.7034   XXXY     -89.2033   XXYY    -564.9620
      XYYY     -53.1497   YYYY   -2559.0341   XXXZ      75.8639
      XXYZ     -28.1885   XYYZ     -11.5513   YYYZ    -138.1468
      XXZZ    -214.8139   XYZZ     -26.4029   YYZZ    -599.2507
      XZZZ      67.4291   YZZZ     -85.4312   ZZZZ   -1013.6351
 -----------------------------------------------------------------
 Total job time:  569.62s(wall), 565.83s(cpu) 
 Fri Jul  8 22:16:07 2022

        *************************************************************
        *                                                           *
        *  Thank you very much for using Q-Chem.  Have a nice day.  *
        *                                                           *
        *************************************************************


remove work dirs ./qchem2990937.0 -- ./qchem2990937.-1
rm -rf ./qchem2990937
