You are running Q-Chem version: 5.4.0

#
# job setting
#
local host:  exp-1-13
current dir: /expanse/lustre/scratch/theleonzhang/temp_project/Interring_Bonds
input file:  Methylthiophene_Phi_10_Theta_320_Methylthiophene.qcin
output file: 
nprocs     : 0
nthreads   : 1
#
# qchem installation setting
#
QC:          /cm/shared/apps/spack/cpu/opt/spack/linux-centos8-zen2/gcc-10.2.0/qchem-5.4-akfmr7b3t57bfs6qan3padb2wnb2i7cl
QCAUX:       /cm/shared/apps/spack/cpu/opt/spack/linux-centos8-zen2/gcc-10.2.0/qchem-5.4-akfmr7b3t57bfs6qan3padb2wnb2i7cl/qcaux
QCPROG:      /cm/shared/apps/spack/cpu/opt/spack/linux-centos8-zen2/gcc-10.2.0/qchem-5.4-akfmr7b3t57bfs6qan3padb2wnb2i7cl/exe/qcprog.exe_s
QCPROG_S:    /cm/shared/apps/spack/cpu/opt/spack/linux-centos8-zen2/gcc-10.2.0/qchem-5.4-akfmr7b3t57bfs6qan3padb2wnb2i7cl/exe/qcprog.exe_s
PARALLEL:    -DSERIAL
QCMPI:       mpich
#
# qchem directory setting
#
qcrun:       qchem986060
QCSCRATCH:   .
QCLOCALSCR:  
QCTMPDIR:    .
QCFILEPREF:  ./qchem986060
QCSAVEDIR:   
workdirs:    ./qchem986060
workdir0:    ./qchem986060
partmpdirs =  
#
# parallel setting
#
QCRSH:           ssh
QCMPI:           mpich
QCMPIRUN:        /cm/shared/apps/spack/cpu/opt/spack/linux-centos8-zen2/gcc-10.2.0/qchem-5.4-akfmr7b3t57bfs6qan3padb2wnb2i7cl/bin/mpi/mpirun_qchem
QCMACHINEFILE:   ./qchem986060/hostfile

#
# env setting
#
exported envs:   QC QCAUX QCSCRATCH QCRUNNAME QCFILEPREF QCPROG QCPROG_S GUIFILE

Running Job 1 of 1 Methylthiophene_Phi_10_Theta_320_Methylthiophene.qcin
qchem Methylthiophene_Phi_10_Theta_320_Methylthiophene.qcin_986060.0 ./qchem986060/ 0
/cm/shared/apps/spack/cpu/opt/spack/linux-centos8-zen2/gcc-10.2.0/qchem-5.4-akfmr7b3t57bfs6qan3padb2wnb2i7cl/exe/qcprog.exe_s Methylthiophene_Phi_10_Theta_320_Methylthiophene.qcin_986060.0 ./qchem986060/
                  Welcome to Q-Chem
     A Quantum Leap Into The Future Of Chemistry


 Q-Chem 5.4, Q-Chem, Inc., Pleasanton, CA (2021)

 License issued to: University of California, San Diego (site)

 E. Epifanovsky,  A. T. B. Gilbert,  Xintian Feng,  Joonho Lee,  Yuezhi Mao,  
 N. Mardirossian,  P. Pokhilko,  A. White,  M. Wormit,  M. P. Coons,  
 A. L. Dempwolff,  Zhengting Gan,  D. Hait,  P. R. Horn,  L. D. Jacobson,  
 I. Kaliman,  J. Kussmann,  A. W. Lange,  Ka Un Lao,  D. S. Levine,  Jie Liu,  
 S. C. McKenzie,  A. F. Morrison,  K. Nanda,  F. Plasser,  D. R. Rehn,  
 M. L. Vidal,  Zhi-Qiang You,  Ying Zhu,  B. Alam,  B. Albrecht,  
 A. Aldossary,  E. Alguire,  J. H. Andersen,  D. Barton,  K. Begam,  A. Behn,  
 Y. A. Bernard,  E. J. Berquist,  H. Burton,  A. Carreras,  K. Carter-Fenk,  
 R. Chakraborty,  A. D. Chien,  K. D. Closser,  V. Cofer-Shabica,  
 S. Dasgupta,  Jia Deng,  M. de Wergifosse,  M. Diedenhofen,  Hainam Do,  
 S. Ehlert,  Po-Tung Fang,  S. Fatehi,  Qingguo Feng,  J. Gayvert,  
 Qinghui Ge,  G. Gidofalvi,  M. Goldey,  J. Gomes,  C. Gonzalez-Espinoza,  
 S. Gulania,  A. Gunina,  M. W. D. Hanson-Heine,  P. H. P. Harbach,  
 A. W. Hauser,  M. F. Herbst,  M. Hernandez Vera,  M. Hodecker,  
 Z. C. Holden,  S. Houck,  Xunkun Huang,  Kerwin Hui,  B. C. Huynh,  
 M. Ivanov,  Hyunjun Ji,  Hanjie Jiang,  B. Kaduk,  S. Kaehler,  
 K. Khistyaev,  Jaehoon Kim,  P. Klunzinger,  Z. Koczor-Benda,  
 Joong Hoon Koh,  D. Kosenkov,  L. Koulias,  T. Kowalczyk,  C. M. Krauter,  
 K. Kue,  A. Kunitsa,  T. Kus,  A. Landau,  K. V. Lawler,  D. Lefrancois,  
 S. Lehtola,  Rain Li,  Yi-Pei Li,  Jiashu Liang,  M. Liebenthal,  
 Hung-Hsuan Lin,  You-Sheng Lin,  Fenglai Liu,  Kuan-Yu Liu,  
 M. Loipersberger,  A. Luenser,  A. Manjanath,  P. Manohar,  E. Mansoor,  
 S. F. Manzer,  Shan-Ping Mao,  A. V. Marenich,  T. Markovich,  S. Mason,  
 S. A. Maurer,  P. F. McLaughlin,  M. F. S. J. Menger,  J.-M. Mewes,  
 S. A. Mewes,  P. Morgante,  J. W. Mullinax,  T. S. Nguyen-Beck,  
 K. J. Oosterbaan,  G. Paran,  Alexander C. Paul,  Suranjan K. Paul,  
 F. Pavosevic,  Zheng Pei,  S. Prager,  E. I. Proynov,  E. Ramos,  B. Rana,  
 A. E. Rask,  A. Rettig,  R. M. Richard,  F. Rob,  E. Rossomme,  T. Scheele,  
 M. Scheurer,  M. Schneider,  N. Sergueev,  S. M. Sharada,  W. Skomorowski,  
 D. W. Small,  C. J. Stein,  Yu-Chuan Su,  E. J. Sundstrom,  Zhen Tao,  
 J. Thirman,  T. Tsuchimochi,  N. M. Tubman,  S. P. Veccham,  O. Vydrov,  
 J. Wenzel,  J. Witte,  A. Yamada,  Kun Yao,  S. Yeganeh,  S. R. Yost,  
 A. Zech,  Igor Ying Zhang,  Xing Zhang,  Yu Zhang,  D. Zuev,  
 A. Aspuru-Guzik,  A. T. Bell,  N. A. Besley,  K. B. Bravaya,  B. R. Brooks,  
 D. Casanova,  Jeng-Da Chai,  S. Coriani,  C. J. Cramer,  
 A. E. DePrince, III,  R. A. DiStasio Jr.,  A. Dreuw,  B. D. Dunietz,  
 T. R. Furlani,  W. A. Goddard III,  S. Grimme,  S. Hammes-Schiffer,  
 T. Head-Gordon,  W. J. Hehre,  Chao-Ping Hsu,  T.-C. Jagau,  Yousung Jung,  
 A. Klamt,  Jing Kong,  D. S. Lambrecht,  WanZhen Liang,  N. J. Mayhall,  
 C. W. McCurdy,  J. B. Neaton,  C. Ochsenfeld,  J. A. Parkhill,  R. Peverati,  
 V. A. Rassolov,  Yihan Shao,  L. V. Slipchenko,  T. Stauch,  R. P. Steele,  
 J. E. Subotnik,  A. J. W. Thom,  A. Tkatchenko,  D. G. Truhlar,  
 T. Van Voorhis,  T. A. Wesolowski,  K. B. Whaley,  H. L. Woodcock III,  
 P. M. Zimmerman,  S. Faraji,  P. M. W. Gill,  M. Head-Gordon,  
 J. M. Herbert,  A. I. Krylov

 Contributors to earlier versions of Q-Chem not listed above: 
 R. D. Adamson,  B. Austin,  R. Baer,  J. Baker,  G. J. O. Beran,  
 K. Brandhorst,  S. T. Brown,  E. F. C. Byrd,  A. K. Chakraborty,  
 G. K. L. Chan,  Chun-Min Chang,  Yunqing Chen,  C.-L. Cheng,  
 Siu Hung Chien,  D. M. Chipman,  D. L. Crittenden,  H. Dachsel,  
 R. J. Doerksen,  A. D. Dutoi,  R. G. Edgar,  J. Fosso-Tande,  
 L. Fusti-Molnar,  D. Ghosh,  A. Ghysels,  A. Golubeva-Zadorozhnaya,  
 J. Gonthier,  M. S. Gordon,  S. R. Gwaltney,  G. Hawkins,  J. E. Herr,  
 A. Heyden,  S. Hirata,  E. G. Hohenstein,  G. Kedziora,  F. J. Keil,  
 C. Kelley,  Jihan Kim,  R. A. King,  R. Z. Khaliullin,  P. P. Korambath,  
 W. Kurlancheek,  A. Laurent,  A. M. Lee,  M. S. Lee,  S. V. Levchenko,  
 Ching Yeh Lin,  D. Liotard,  E. Livshits,  R. C. Lochan,  I. Lotan,  
 L. A. Martinez-Martinez,  P. E. Maslen,  N. Nair,  D. P. O'Neill,  
 D. Neuhauser,  E. Neuscamman,  C. M. Oana,  R. Olivares-Amaya,  R. Olson,  
 T. M. Perrine,  B. Peters,  P. A. Pieniazek,  A. Prociuk,  Y. M. Rhee,  
 J. Ritchie,  M. A. Rohrdanz,  E. Rosta,  N. J. Russ,  H. F. Schaefer III,  
 M. W. Schmidt,  N. E. Schultz,  S. Sharma,  N. Shenvi,  C. D. Sherrill,  
 A. C. Simmonett,  A. Sodt,  T. Stein,  D. Stuck,  K. S. Thanthiriwatte,  
 V. Vanovschi,  L. Vogt,  Tao Wang,  A. Warshel,  M. A. Watson,  
 C. F. Williams,  Q. Wu,  X. Xu,  Jun Yang,  W. Zhang,  Yan Zhao

 Please cite Q-Chem as follows:
 Y. Shao et al., Mol. Phys. 113, 184-215 (2015)
 DOI: 10.1080/00268976.2014.952696

 Q-Chem 5.4.0 for Intel X86 EM64T Linux

 Parts of Q-Chem use Armadillo 9.800.1 (Horizon Scraper).
 http://arma.sourceforge.net/

 Q-Chem begins on Sat Jul  9 09:26:35 2022  

 Host: 
0

     Scratch files written to ./qchem986060//
 May1621 |scratch|qcdevops|jenkins|workspace|build_RNUM    
 Processing $rem in /cm/shared/apps/spack/cpu/opt/spack/linux-centos8-zen2/gcc-10.2.0/qchem-5.4-akfmr7b3t57bfs6qan3padb2wnb2i7cl/config/preferences:
 Processing $rem in /home/theleonzhang/.qchemrc:
 Symmetry turned off for PCM/SM12/SMD calculation
 Core orbitals will be frozen

 Checking the input file for inconsistencies... 	...done.

--------------------------------------------------------------
User input:
--------------------------------------------------------------
$molecule
0 1
C	0.497696	-3.866725	0.594240
C	-0.393981	-3.703963	-0.469057
C	-0.685571	-2.357056	-0.817136
H	-0.837848	-4.561092	-0.997777
C	-0.000000	-1.440664	-0.000000
S	0.992782	-2.286957	1.183137
C	-1.620802	-1.978743	-1.932056
H	-2.035506	-2.878678	-2.426166
H	-1.109943	-1.376015	-2.711806
H	-2.477350	-1.375728	-1.564678
H	0.883271	-4.783437	1.054110
C	0.000000	0.000000	0.000000
C	0.149995	0.850475	1.099446
C	0.390327	2.213354	0.776721
H	0.085947	0.487279	2.136088
C	0.428665	2.430655	-0.612546
S	0.163670	0.928078	-1.486809
C	0.579235	3.284574	1.814609
H	0.505323	2.865404	2.836676
H	-0.185980	4.083890	1.726239
H	1.571698	3.773937	1.726228
H	0.593515	3.365448	-1.161575
$end

$rem
JOBTYPE		SP
EXCHANGE	HF
CORRELATION	pRIMP2
BASIS		cc-pvtz
METHOD		rimp2
AUX_BASIS	rimp2-cc-pvtz
SOLVENT_METHOD	PCM
PURECART	11111
SYMMETRY	false
MEM_TOTAL	110000
SCF_CONVERGENCE = 6
THRESH=10
$end



$solvent
dielectric 4.90
$end
--------------------------------------------------------------
 ----------------------------------------------------------------
             Standard Nuclear Orientation (Angstroms)
    I     Atom           X                Y                Z
 ----------------------------------------------------------------
    1      C       0.4976960000    -3.8667250000     0.5942400000
    2      C      -0.3939810000    -3.7039630000    -0.4690570000
    3      C      -0.6855710000    -2.3570560000    -0.8171360000
    4      H      -0.8378480000    -4.5610920000    -0.9977770000
    5      C       0.0000000000    -1.4406640000     0.0000000000
    6      S       0.9927820000    -2.2869570000     1.1831370000
    7      C      -1.6208020000    -1.9787430000    -1.9320560000
    8      H      -2.0355060000    -2.8786780000    -2.4261660000
    9      H      -1.1099430000    -1.3760150000    -2.7118060000
   10      H      -2.4773500000    -1.3757280000    -1.5646780000
   11      H       0.8832710000    -4.7834370000     1.0541100000
   12      C       0.0000000000     0.0000000000     0.0000000000
   13      C       0.1499950000     0.8504750000     1.0994460000
   14      C       0.3903270000     2.2133540000     0.7767210000
   15      H       0.0859470000     0.4872790000     2.1360880000
   16      C       0.4286650000     2.4306550000    -0.6125460000
   17      S       0.1636700000     0.9280780000    -1.4868090000
   18      C       0.5792350000     3.2845740000     1.8146090000
   19      H       0.5053230000     2.8654040000     2.8366760000
   20      H      -0.1859800000     4.0838900000     1.7262390000
   21      H       1.5716980000     3.7739370000     1.7262280000
   22      H       0.5935150000     3.3654480000    -1.1615750000
 ----------------------------------------------------------------
 Nuclear Repulsion Energy =         835.80624145 hartrees
 There are       51 alpha and       51 beta electrons

 Q-Chem warning in module forms1/BasisType.C, line 2236:

 You are not using the predefined 5D/6D in this basis set.

 Requested basis set is cc-pVTZ
 There are 184 shells and 508 basis functions

 Total QAlloc Memory Limit 110000 MB
 Mega-Array Size       188 MB
 MEM_STATIC part       192 MB
 Discretize the solute cavity surface with Lebedev spheres
	Using 110 Lebedev grid points for each H atom
	Using 194 Lebedev grid points for other atoms
	Atomic van der Waals radii will be scaled by 1.20
 Remove points where switching function is < 1.0e-08
 Keep 1537 surface tesserae and discard 1891 interior tesserae
 Molecular Surface Area = 232.518 Angst**2
 Requested basis set is rimp2-cc-pVTZ
 There are 394 shells and 1354 basis functions
 A cutoff of  1.0D-10 yielded  12137 shell pairs
 There are     90181 function pairs (    116443 Cartesian)
 Smallest overlap matrix eigenvalue = 6.00E-05

 Scale SEOQF with 1.000000e-01/1.000000e-01/1.000000e-01

 Standard Electronic Orientation quadrupole field applied
 Nucleus-field energy     =     0.0000000265 hartrees
 Guess from superposition of atomic densities
 Warning:  Energy on first SCF cycle will be non-variational
 SAD guess density has 102.000000 electrons

 -----------------------------------------------------------------------
  General SCF calculation program by
  Eric Jon Sundstrom, Paul Horn, Yuezhi Mao, Dmitri Zuev, Alec White,
  David Stuck, Shaama M.S., Shane Yost, Joonho Lee, David Small,
  Daniel Levine, Susi Lehtola, Hugh Burton, Evgeny Epifanovsky,
  Bang C. Huynh
 -----------------------------------------------------------------------
 Hartree-Fock
 A restricted SCF calculation will be
 performed using DIIS
 SCF converges when DIIS error is below 1.0e-06
 ---------------------------------------
  Cycle       Energy         DIIS error
 ---------------------------------------
    1   -1184.2225018448      2.38e-02  
    2   -1179.5470531577      1.60e-03  
    3   -1179.6672790830      6.10e-04  
    4   -1179.6807654337      3.34e-04  
    5   -1179.6854440799      6.51e-05  
    6   -1179.6857218080      3.05e-05  
    7   -1179.6858087919      1.25e-05  
    8   -1179.6858368636      5.22e-06  
    9   -1179.6858417723      1.63e-06  
   10   -1179.6858422124      5.32e-07  Convergence criterion met
 ---------------------------------------
 SCF time:   CPU 482.26s  wall 484.00s 

************** Final PCM Free Energy Summary **************
 G_electrostatic  =      -0.00775769 hartree =      -4.86802151 kcal/mol
 G_cavitation     =       0.00000000 hartree =       0.00000000 kcal/mol
 G_dispersion     =       0.00000000 hartree =       0.00000000 kcal/mol
 G_repulsion      =       0.00000000 hartree =       0.00000000 kcal/mol
 --------------------------------------------------
 Non-electrostatic Free Energy =       0.00000000 hartree =       0.00000000 kcal/mol
 Total                         =      -0.00775769 hartree =      -4.86802151 kcal/mol
 --------------------------------------------------
 SCF Energy (H0 + V/2)                       =   -1179.68584221 
 Solute Internal Energy (H0)                 =   -1179.67808453 
 Total Free Energy (H0 + V/2 + non-elec)     =   -1179.68584221 hartree
                                             = -740264.03879292 kcal/mol
***********************************************************

 SCF   energy in the final basis set =    -1179.6858422124
 Total energy in the final basis set =    -1179.6858422124


 --------------------------------------------------------------
  Generalized many-body perturbation theory program
  by Joonho Lee, Fazle Rob, Xintian Feng, Evgeny Epifanovsky

 No regularization used 
 (reg. param. = 0.0000e+00)
  (P|Q)^-1/2 Time:  CPU 1.70 s  wall 1.71 s

 In RI-MP2 calculation: 
 # of frozen core orbitals: 20

 Components of the RIMP2 correlation energy:
        aaaa    correlation energy =        -0.2526879956 a.u.
        abab    correlation energy =        -1.4738508571 a.u.
        bbbb    correlation energy =        -0.2526879956 a.u.
        non-Brillouin singles      =        -0.0000000000 a.u.
        total same-spin energy     =        -0.5053759912 a.u.
        total opposite-spin energy =        -1.4738508571 a.u.

 Total  RIMP2   correlation energy =        -1.9792268483 a.u.
        RIMP2         total energy =     -1181.6650690607 a.u.

 RI-MP2 Energy Time:  CPU 73.28 s  wall 73.55 s
 
 --------------------------------------------------------------
 
                    Orbital Energies (a.u.)
 --------------------------------------------------------------
 
 Alpha MOs
 -- Occupied --
-91.9856 -91.9853 -11.2816 -11.2757 -11.2721 -11.2644 -11.2529 -11.2518
-11.2428 -11.2414 -11.2298 -11.2290  -8.9852  -8.9849  -6.6661  -6.6658
 -6.6656  -6.6653  -6.6649  -6.6647  -1.1803  -1.1499  -1.0413  -1.0243
 -0.9989  -0.9526  -0.9150  -0.8934  -0.8007  -0.7620  -0.7231  -0.6945
 -0.6630  -0.6162  -0.5836  -0.5783  -0.5766  -0.5697  -0.5524  -0.5340
 -0.5259  -0.5197  -0.5090  -0.4955  -0.4886  -0.4678  -0.4566  -0.3566
 -0.3425  -0.3407  -0.2773
 -- Virtual --
  0.0682   0.1277   0.1432   0.1508   0.1614   0.1735   0.1794   0.1874
  0.1907   0.1977   0.2041   0.2221   0.2311   0.2383   0.2412   0.2466
  0.2619   0.2725   0.2999   0.3157   0.3395   0.3524   0.3585   0.3737
  0.3774   0.3852   0.3953   0.4042   0.4106   0.4228   0.4294   0.4437
  0.4521   0.4646   0.4676   0.4715   0.4801   0.4877   0.5001   0.5010
  0.5115   0.5258   0.5316   0.5406   0.5418   0.5449   0.5539   0.5650
  0.5712   0.5768   0.5861   0.6001   0.6048   0.6145   0.6186   0.6216
  0.6233   0.6313   0.6388   0.6429   0.6481   0.6508   0.6572   0.6664
  0.6797   0.6954   0.6984   0.7084   0.7215   0.7244   0.7294   0.7510
  0.7804   0.7906   0.7992   0.8082   0.8157   0.8244   0.8412   0.8475
  0.8616   0.8645   0.8735   0.8848   0.8966   0.9094   0.9341   0.9421
  0.9534   0.9636   0.9745   0.9888   1.0139   1.0214   1.0256   1.0352
  1.0460   1.0569   1.0632   1.0688   1.0737   1.0868   1.0967   1.0995
  1.1132   1.1150   1.1352   1.1432   1.1481   1.1636   1.1739   1.1831
  1.2078   1.2168   1.2289   1.2341   1.2433   1.2534   1.2635   1.2667
  1.2877   1.2903   1.3059   1.3202   1.3307   1.3426   1.3469   1.3685
  1.3731   1.3855   1.4067   1.4191   1.4259   1.4305   1.4538   1.4690
  1.4788   1.4919   1.5006   1.5073   1.5109   1.5326   1.5414   1.5441
  1.5553   1.5583   1.5660   1.5746   1.5829   1.5937   1.6137   1.6227
  1.6536   1.6578   1.6647   1.6837   1.6964   1.7077   1.7152   1.7335
  1.7460   1.7576   1.7753   1.7927   1.8014   1.8041   1.8279   1.8407
  1.8863   1.9016   1.9127   1.9178   1.9526   1.9605   1.9761   1.9882
  1.9915   2.0392   2.0487   2.0689   2.1291   2.1357   2.1436   2.1747
  2.1848   2.1993   2.2054   2.2357   2.2478   2.2620   2.2671   2.2765
  2.2908   2.3039   2.3236   2.3711   2.3993   2.4215   2.4278   2.4567
  2.4734   2.4939   2.5001   2.5281   2.5425   2.5704   2.5985   2.6119
  2.6321   2.6474   2.6528   2.6657   2.6724   2.6986   2.7061   2.7262
  2.7322   2.7431   2.7469   2.7563   2.7682   2.7700   2.7797   2.7953
  2.8268   2.8333   2.8498   2.8651   2.8715   2.8939   2.9130   2.9231
  2.9432   2.9635   2.9754   2.9848   2.9960   3.0109   3.0229   3.0386
  3.0539   3.0714   3.0865   3.1021   3.1111   3.1185   3.1265   3.1386
  3.1447   3.1496   3.1507   3.1700   3.1835   3.1965   3.2057   3.2257
  3.2373   3.2548   3.2630   3.2740   3.2790   3.2868   3.3062   3.3133
  3.3178   3.3213   3.3301   3.3378   3.3553   3.3615   3.3660   3.3779
  3.3800   3.3928   3.3980   3.4029   3.4169   3.4223   3.4365   3.4440
  3.4494   3.4556   3.4716   3.4794   3.4927   3.4957   3.5146   3.5210
  3.5228   3.5303   3.5389   3.5436   3.5580   3.5590   3.5763   3.5839
  3.5974   3.6146   3.6237   3.6329   3.6395   3.6511   3.6587   3.6686
  3.6773   3.6937   3.7035   3.7095   3.7252   3.7416   3.7456   3.7530
  3.7660   3.7758   3.7807   3.7904   3.7991   3.8060   3.8197   3.8347
  3.8599   3.8725   3.8861   3.9012   3.9199   3.9249   3.9504   3.9528
  3.9709   3.9859   3.9914   4.0022   4.0080   4.0194   4.0224   4.0487
  4.0621   4.0756   4.0870   4.1070   4.1184   4.1321   4.1447   4.1520
  4.1703   4.1821   4.1880   4.1946   4.2006   4.2100   4.2192   4.2340
  4.2532   4.2600   4.2825   4.2876   4.2910   4.3046   4.3281   4.3309
  4.3519   4.3599   4.3649   4.3811   4.3908   4.4015   4.4101   4.4245
  4.4266   4.4510   4.4668   4.4742   4.4845   4.5239   4.5467   4.5590
  4.5938   4.6040   4.6161   4.6233   4.6328   4.6494   4.6608   4.6842
  4.7067   4.7308   4.7373   4.7492   4.7610   4.7891   4.8301   4.8427
  4.8529   4.8791   4.8963   4.9310   4.9364   4.9515   5.0059   5.0557
  5.0787   5.0968   5.1113   5.1567   5.1770   5.1909   5.2050   5.2429
  5.2762   5.2805   5.2849   5.3088   5.3219   5.3733   5.3943   5.4055
  5.4113   5.4419   5.4641   5.4683   5.5180   5.5325   5.5464   5.5615
  5.5700   5.5760   5.6127   5.6239   5.6265   5.6977   5.7070   5.7214
  5.7898   5.8352   5.8975   5.9894   6.0216   6.0919   6.1501   6.2266
  6.2326   6.2485   6.2802   6.3093   6.3278   6.4685   6.5180   8.9149
  9.9112  11.5033  12.0076  12.9374  13.1431  13.7578  13.9564  14.2064
 14.4057
 --------------------------------------------------------------
 
          Ground-State Mulliken Net Atomic Charges

     Atom                 Charge (a.u.)
  ----------------------------------------
      1 C                    -0.213899
      2 C                    -0.247796
      3 C                     0.029592
      4 H                     0.184484
      5 C                    -0.021232
      6 S                     0.019990
      7 C                    -0.299202
      8 H                     0.110761
      9 H                     0.112159
     10 H                     0.115617
     11 H                     0.205185
     12 C                     0.039873
     13 C                    -0.285265
     14 C                     0.038995
     15 H                     0.186218
     16 C                    -0.249372
     17 S                     0.027608
     18 C                    -0.271617
     19 H                     0.102985
     20 H                     0.108107
     21 H                     0.108917
     22 H                     0.197892
  ----------------------------------------
  Sum of atomic charges =     0.000000

 -----------------------------------------------------------------
                    Cartesian Multipole Moments
 -----------------------------------------------------------------
    Charge (ESU x 10^10)
                -0.0000
    Dipole Moment (Debye)
         X      -0.6414      Y       0.1890      Z       0.2622
       Tot       0.7183
    Quadrupole Moments (Debye-Ang)
        XX     -89.6674     XY       3.2733     YY     -68.9385
        XZ       3.5159     YZ       2.6790     ZZ     -82.7333
    Octopole Moments (Debye-Ang^2)
       XXX     -34.5646    XXY      40.6397    XYY      -1.9014
       YYY      95.2538    XXZ      -0.4945    XYZ     -12.7036
       YYZ       0.6512    XZZ     -10.5988    YZZ      45.8732
       ZZZ       6.7533
    Hexadecapole Moments (Debye-Ang^3)
      XXXX    -393.0818   XXXY     -82.3334   XXYY    -561.5072
      XYYY     -86.1086   YYYY   -2559.2803   XXXZ    -152.7734
      XXYZ     -27.1460   XYYZ      -3.4595   YYYZ    -132.7701
      XXZZ    -211.1789   XYZZ     -19.8947   YYZZ    -601.7590
      XZZZ    -151.3423   YZZZ     -88.8056   ZZZZ    -856.2402
 -----------------------------------------------------------------
 Total job time:  560.12s(wall), 556.43s(cpu) 
 Sat Jul  9 09:35:55 2022

        *************************************************************
        *                                                           *
        *  Thank you very much for using Q-Chem.  Have a nice day.  *
        *                                                           *
        *************************************************************


remove work dirs ./qchem986060.0 -- ./qchem986060.-1
rm -rf ./qchem986060
