You are running Q-Chem version: 5.4.0

#
# job setting
#
local host:  exp-2-51
current dir: /expanse/lustre/scratch/theleonzhang/temp_project/Interring_Bonds
input file:  Methylthiophene_Phi_40_Theta_160_Methylthiophene.qcin
output file: 
nprocs     : 0
nthreads   : 1
#
# qchem installation setting
#
QC:          /cm/shared/apps/spack/cpu/opt/spack/linux-centos8-zen2/gcc-10.2.0/qchem-5.4-akfmr7b3t57bfs6qan3padb2wnb2i7cl
QCAUX:       /cm/shared/apps/spack/cpu/opt/spack/linux-centos8-zen2/gcc-10.2.0/qchem-5.4-akfmr7b3t57bfs6qan3padb2wnb2i7cl/qcaux
QCPROG:      /cm/shared/apps/spack/cpu/opt/spack/linux-centos8-zen2/gcc-10.2.0/qchem-5.4-akfmr7b3t57bfs6qan3padb2wnb2i7cl/exe/qcprog.exe_s
QCPROG_S:    /cm/shared/apps/spack/cpu/opt/spack/linux-centos8-zen2/gcc-10.2.0/qchem-5.4-akfmr7b3t57bfs6qan3padb2wnb2i7cl/exe/qcprog.exe_s
PARALLEL:    -DSERIAL
QCMPI:       mpich
#
# qchem directory setting
#
qcrun:       qchem1560496
QCSCRATCH:   .
QCLOCALSCR:  
QCTMPDIR:    .
QCFILEPREF:  ./qchem1560496
QCSAVEDIR:   
workdirs:    ./qchem1560496
workdir0:    ./qchem1560496
partmpdirs =  
#
# parallel setting
#
QCRSH:           ssh
QCMPI:           mpich
QCMPIRUN:        /cm/shared/apps/spack/cpu/opt/spack/linux-centos8-zen2/gcc-10.2.0/qchem-5.4-akfmr7b3t57bfs6qan3padb2wnb2i7cl/bin/mpi/mpirun_qchem
QCMACHINEFILE:   ./qchem1560496/hostfile

#
# env setting
#
exported envs:   QC QCAUX QCSCRATCH QCRUNNAME QCFILEPREF QCPROG QCPROG_S GUIFILE

Running Job 1 of 1 Methylthiophene_Phi_40_Theta_160_Methylthiophene.qcin
qchem Methylthiophene_Phi_40_Theta_160_Methylthiophene.qcin_1560496.0 ./qchem1560496/ 0
/cm/shared/apps/spack/cpu/opt/spack/linux-centos8-zen2/gcc-10.2.0/qchem-5.4-akfmr7b3t57bfs6qan3padb2wnb2i7cl/exe/qcprog.exe_s Methylthiophene_Phi_40_Theta_160_Methylthiophene.qcin_1560496.0 ./qchem1560496/
                  Welcome to Q-Chem
     A Quantum Leap Into The Future Of Chemistry


 Q-Chem 5.4, Q-Chem, Inc., Pleasanton, CA (2021)

 License issued to: University of California, San Diego (site)

 E. Epifanovsky,  A. T. B. Gilbert,  Xintian Feng,  Joonho Lee,  Yuezhi Mao,  
 N. Mardirossian,  P. Pokhilko,  A. White,  M. Wormit,  M. P. Coons,  
 A. L. Dempwolff,  Zhengting Gan,  D. Hait,  P. R. Horn,  L. D. Jacobson,  
 I. Kaliman,  J. Kussmann,  A. W. Lange,  Ka Un Lao,  D. S. Levine,  Jie Liu,  
 S. C. McKenzie,  A. F. Morrison,  K. Nanda,  F. Plasser,  D. R. Rehn,  
 M. L. Vidal,  Zhi-Qiang You,  Ying Zhu,  B. Alam,  B. Albrecht,  
 A. Aldossary,  E. Alguire,  J. H. Andersen,  D. Barton,  K. Begam,  A. Behn,  
 Y. A. Bernard,  E. J. Berquist,  H. Burton,  A. Carreras,  K. Carter-Fenk,  
 R. Chakraborty,  A. D. Chien,  K. D. Closser,  V. Cofer-Shabica,  
 S. Dasgupta,  Jia Deng,  M. de Wergifosse,  M. Diedenhofen,  Hainam Do,  
 S. Ehlert,  Po-Tung Fang,  S. Fatehi,  Qingguo Feng,  J. Gayvert,  
 Qinghui Ge,  G. Gidofalvi,  M. Goldey,  J. Gomes,  C. Gonzalez-Espinoza,  
 S. Gulania,  A. Gunina,  M. W. D. Hanson-Heine,  P. H. P. Harbach,  
 A. W. Hauser,  M. F. Herbst,  M. Hernandez Vera,  M. Hodecker,  
 Z. C. Holden,  S. Houck,  Xunkun Huang,  Kerwin Hui,  B. C. Huynh,  
 M. Ivanov,  Hyunjun Ji,  Hanjie Jiang,  B. Kaduk,  S. Kaehler,  
 K. Khistyaev,  Jaehoon Kim,  P. Klunzinger,  Z. Koczor-Benda,  
 Joong Hoon Koh,  D. Kosenkov,  L. Koulias,  T. Kowalczyk,  C. M. Krauter,  
 K. Kue,  A. Kunitsa,  T. Kus,  A. Landau,  K. V. Lawler,  D. Lefrancois,  
 S. Lehtola,  Rain Li,  Yi-Pei Li,  Jiashu Liang,  M. Liebenthal,  
 Hung-Hsuan Lin,  You-Sheng Lin,  Fenglai Liu,  Kuan-Yu Liu,  
 M. Loipersberger,  A. Luenser,  A. Manjanath,  P. Manohar,  E. Mansoor,  
 S. F. Manzer,  Shan-Ping Mao,  A. V. Marenich,  T. Markovich,  S. Mason,  
 S. A. Maurer,  P. F. McLaughlin,  M. F. S. J. Menger,  J.-M. Mewes,  
 S. A. Mewes,  P. Morgante,  J. W. Mullinax,  T. S. Nguyen-Beck,  
 K. J. Oosterbaan,  G. Paran,  Alexander C. Paul,  Suranjan K. Paul,  
 F. Pavosevic,  Zheng Pei,  S. Prager,  E. I. Proynov,  E. Ramos,  B. Rana,  
 A. E. Rask,  A. Rettig,  R. M. Richard,  F. Rob,  E. Rossomme,  T. Scheele,  
 M. Scheurer,  M. Schneider,  N. Sergueev,  S. M. Sharada,  W. Skomorowski,  
 D. W. Small,  C. J. Stein,  Yu-Chuan Su,  E. J. Sundstrom,  Zhen Tao,  
 J. Thirman,  T. Tsuchimochi,  N. M. Tubman,  S. P. Veccham,  O. Vydrov,  
 J. Wenzel,  J. Witte,  A. Yamada,  Kun Yao,  S. Yeganeh,  S. R. Yost,  
 A. Zech,  Igor Ying Zhang,  Xing Zhang,  Yu Zhang,  D. Zuev,  
 A. Aspuru-Guzik,  A. T. Bell,  N. A. Besley,  K. B. Bravaya,  B. R. Brooks,  
 D. Casanova,  Jeng-Da Chai,  S. Coriani,  C. J. Cramer,  
 A. E. DePrince, III,  R. A. DiStasio Jr.,  A. Dreuw,  B. D. Dunietz,  
 T. R. Furlani,  W. A. Goddard III,  S. Grimme,  S. Hammes-Schiffer,  
 T. Head-Gordon,  W. J. Hehre,  Chao-Ping Hsu,  T.-C. Jagau,  Yousung Jung,  
 A. Klamt,  Jing Kong,  D. S. Lambrecht,  WanZhen Liang,  N. J. Mayhall,  
 C. W. McCurdy,  J. B. Neaton,  C. Ochsenfeld,  J. A. Parkhill,  R. Peverati,  
 V. A. Rassolov,  Yihan Shao,  L. V. Slipchenko,  T. Stauch,  R. P. Steele,  
 J. E. Subotnik,  A. J. W. Thom,  A. Tkatchenko,  D. G. Truhlar,  
 T. Van Voorhis,  T. A. Wesolowski,  K. B. Whaley,  H. L. Woodcock III,  
 P. M. Zimmerman,  S. Faraji,  P. M. W. Gill,  M. Head-Gordon,  
 J. M. Herbert,  A. I. Krylov

 Contributors to earlier versions of Q-Chem not listed above: 
 R. D. Adamson,  B. Austin,  R. Baer,  J. Baker,  G. J. O. Beran,  
 K. Brandhorst,  S. T. Brown,  E. F. C. Byrd,  A. K. Chakraborty,  
 G. K. L. Chan,  Chun-Min Chang,  Yunqing Chen,  C.-L. Cheng,  
 Siu Hung Chien,  D. M. Chipman,  D. L. Crittenden,  H. Dachsel,  
 R. J. Doerksen,  A. D. Dutoi,  R. G. Edgar,  J. Fosso-Tande,  
 L. Fusti-Molnar,  D. Ghosh,  A. Ghysels,  A. Golubeva-Zadorozhnaya,  
 J. Gonthier,  M. S. Gordon,  S. R. Gwaltney,  G. Hawkins,  J. E. Herr,  
 A. Heyden,  S. Hirata,  E. G. Hohenstein,  G. Kedziora,  F. J. Keil,  
 C. Kelley,  Jihan Kim,  R. A. King,  R. Z. Khaliullin,  P. P. Korambath,  
 W. Kurlancheek,  A. Laurent,  A. M. Lee,  M. S. Lee,  S. V. Levchenko,  
 Ching Yeh Lin,  D. Liotard,  E. Livshits,  R. C. Lochan,  I. Lotan,  
 L. A. Martinez-Martinez,  P. E. Maslen,  N. Nair,  D. P. O'Neill,  
 D. Neuhauser,  E. Neuscamman,  C. M. Oana,  R. Olivares-Amaya,  R. Olson,  
 T. M. Perrine,  B. Peters,  P. A. Pieniazek,  A. Prociuk,  Y. M. Rhee,  
 J. Ritchie,  M. A. Rohrdanz,  E. Rosta,  N. J. Russ,  H. F. Schaefer III,  
 M. W. Schmidt,  N. E. Schultz,  S. Sharma,  N. Shenvi,  C. D. Sherrill,  
 A. C. Simmonett,  A. Sodt,  T. Stein,  D. Stuck,  K. S. Thanthiriwatte,  
 V. Vanovschi,  L. Vogt,  Tao Wang,  A. Warshel,  M. A. Watson,  
 C. F. Williams,  Q. Wu,  X. Xu,  Jun Yang,  W. Zhang,  Yan Zhao

 Please cite Q-Chem as follows:
 Y. Shao et al., Mol. Phys. 113, 184-215 (2015)
 DOI: 10.1080/00268976.2014.952696

 Q-Chem 5.4.0 for Intel X86 EM64T Linux

 Parts of Q-Chem use Armadillo 9.800.1 (Horizon Scraper).
 http://arma.sourceforge.net/

 Q-Chem begins on Sat Jul  9 00:38:20 2022  

 Host: 
0

     Scratch files written to ./qchem1560496//
 May1621 |scratch|qcdevops|jenkins|workspace|build_RNUM    
 Processing $rem in /cm/shared/apps/spack/cpu/opt/spack/linux-centos8-zen2/gcc-10.2.0/qchem-5.4-akfmr7b3t57bfs6qan3padb2wnb2i7cl/config/preferences:
 Processing $rem in /home/theleonzhang/.qchemrc:
 Symmetry turned off for PCM/SM12/SMD calculation
 Core orbitals will be frozen

 Checking the input file for inconsistencies... 	...done.

--------------------------------------------------------------
User input:
--------------------------------------------------------------
$molecule
0 1
C	-0.264439	-3.866725	-0.728625
C	0.209794	-3.703963	0.575519
C	0.364749	-2.357056	1.002336
H	0.446060	-4.561092	1.224165
C	-0.000000	-1.440664	-0.000000
S	-0.528253	-2.286957	-1.451336
C	0.862253	-1.978743	2.369885
H	1.082953	-2.878678	2.976034
H	0.115513	-1.376015	2.927887
H	1.792797	-1.375728	2.317620
H	-0.469476	-4.783437	-1.292636
C	0.000000	0.000000	0.000000
C	0.555137	0.661535	1.099446
C	1.444710	1.721658	0.776721
H	0.318072	0.379023	2.136088
C	1.586563	1.890676	-0.612546
S	0.605781	0.721904	-1.486809
C	2.143920	2.554907	1.814609
H	1.870325	2.228851	2.836676
H	1.880882	3.629742	1.726239
H	3.248098	2.482476	1.726228
H	2.196723	2.617806	-1.161575
$end

$rem
JOBTYPE		SP
EXCHANGE	HF
CORRELATION	pRIMP2
BASIS		cc-pvtz
METHOD		rimp2
AUX_BASIS	rimp2-cc-pvtz
SOLVENT_METHOD	PCM
PURECART	11111
SYMMETRY	false
MEM_TOTAL	110000
SCF_CONVERGENCE = 6
THRESH=10
$end



$solvent
dielectric 4.90
$end
--------------------------------------------------------------
 ----------------------------------------------------------------
             Standard Nuclear Orientation (Angstroms)
    I     Atom           X                Y                Z
 ----------------------------------------------------------------
    1      C      -0.2644390000    -3.8667250000    -0.7286250000
    2      C       0.2097940000    -3.7039630000     0.5755190000
    3      C       0.3647490000    -2.3570560000     1.0023360000
    4      H       0.4460600000    -4.5610920000     1.2241650000
    5      C       0.0000000000    -1.4406640000     0.0000000000
    6      S      -0.5282530000    -2.2869570000    -1.4513360000
    7      C       0.8622530000    -1.9787430000     2.3698850000
    8      H       1.0829530000    -2.8786780000     2.9760340000
    9      H       0.1155130000    -1.3760150000     2.9278870000
   10      H       1.7927970000    -1.3757280000     2.3176200000
   11      H      -0.4694760000    -4.7834370000    -1.2926360000
   12      C       0.0000000000     0.0000000000     0.0000000000
   13      C       0.5551370000     0.6615350000     1.0994460000
   14      C       1.4447100000     1.7216580000     0.7767210000
   15      H       0.3180720000     0.3790230000     2.1360880000
   16      C       1.5865630000     1.8906760000    -0.6125460000
   17      S       0.6057810000     0.7219040000    -1.4868090000
   18      C       2.1439200000     2.5549070000     1.8146090000
   19      H       1.8703250000     2.2288510000     2.8366760000
   20      H       1.8808820000     3.6297420000     1.7262390000
   21      H       3.2480980000     2.4824760000     1.7262280000
   22      H       2.1967230000     2.6178060000    -1.1615750000
 ----------------------------------------------------------------
 Nuclear Repulsion Energy =         849.06973667 hartrees
 There are       51 alpha and       51 beta electrons

 Q-Chem warning in module forms1/BasisType.C, line 2236:

 You are not using the predefined 5D/6D in this basis set.

 Requested basis set is cc-pVTZ
 There are 184 shells and 508 basis functions

 Total QAlloc Memory Limit 110000 MB
 Mega-Array Size       188 MB
 MEM_STATIC part       192 MB
 Discretize the solute cavity surface with Lebedev spheres
	Using 110 Lebedev grid points for each H atom
	Using 194 Lebedev grid points for other atoms
	Atomic van der Waals radii will be scaled by 1.20
 Remove points where switching function is < 1.0e-08
 Keep 1500 surface tesserae and discard 1928 interior tesserae
 Molecular Surface Area = 227.370 Angst**2
 Requested basis set is rimp2-cc-pVTZ
 There are 394 shells and 1354 basis functions
 A cutoff of  1.0D-10 yielded  12730 shell pairs
 There are     94542 function pairs (    121933 Cartesian)
 Smallest overlap matrix eigenvalue = 6.11E-05

 Scale SEOQF with 1.000000e-01/1.000000e-01/1.000000e-01

 Standard Electronic Orientation quadrupole field applied
 Nucleus-field energy     =     0.0000000188 hartrees
 Guess from superposition of atomic densities
 Warning:  Energy on first SCF cycle will be non-variational
 SAD guess density has 102.000000 electrons

 -----------------------------------------------------------------------
  General SCF calculation program by
  Eric Jon Sundstrom, Paul Horn, Yuezhi Mao, Dmitri Zuev, Alec White,
  David Stuck, Shaama M.S., Shane Yost, Joonho Lee, David Small,
  Daniel Levine, Susi Lehtola, Hugh Burton, Evgeny Epifanovsky,
  Bang C. Huynh
 -----------------------------------------------------------------------
 Hartree-Fock
 A restricted SCF calculation will be
 performed using DIIS
 SCF converges when DIIS error is below 1.0e-06
 ---------------------------------------
  Cycle       Energy         DIIS error
 ---------------------------------------
    1   -1184.3138456477      2.39e-02  
    2   -1179.5110613308      1.60e-03  
    3   -1179.6323971606      6.05e-04  
    4   -1179.6459891568      3.33e-04  
    5   -1179.6506986946      6.31e-05  
    6   -1179.6509724793      2.97e-05  
    7   -1179.6510559479      1.31e-05  
    8   -1179.6510833656      5.34e-06  
    9   -1179.6510884033      2.00e-06  
   10   -1179.6510890390      7.59e-07  Convergence criterion met
 ---------------------------------------
 SCF time:   CPU 521.73s  wall 524.00s 

************** Final PCM Free Energy Summary **************
 G_electrostatic  =      -0.00935002 hartree =      -5.86722613 kcal/mol
 G_cavitation     =       0.00000000 hartree =       0.00000000 kcal/mol
 G_dispersion     =       0.00000000 hartree =       0.00000000 kcal/mol
 G_repulsion      =       0.00000000 hartree =       0.00000000 kcal/mol
 --------------------------------------------------
 Non-electrostatic Free Energy =       0.00000000 hartree =       0.00000000 kcal/mol
 Total                         =      -0.00935002 hartree =      -5.86722613 kcal/mol
 --------------------------------------------------
 SCF Energy (H0 + V/2)                       =   -1179.65108904 
 Solute Internal Energy (H0)                 =   -1179.64173902 
 Total Free Energy (H0 + V/2 + non-elec)     =   -1179.65108904 hartree
                                             = -740242.23084744 kcal/mol
***********************************************************

 SCF   energy in the final basis set =    -1179.6510890390
 Total energy in the final basis set =    -1179.6510890390


 --------------------------------------------------------------
  Generalized many-body perturbation theory program
  by Joonho Lee, Fazle Rob, Xintian Feng, Evgeny Epifanovsky

 No regularization used 
 (reg. param. = 0.0000e+00)
  (P|Q)^-1/2 Time:  CPU 1.72 s  wall 1.73 s

 In RI-MP2 calculation: 
 # of frozen core orbitals: 20

 Components of the RIMP2 correlation energy:
        aaaa    correlation energy =        -0.2545715137 a.u.
        abab    correlation energy =        -1.4796043677 a.u.
        bbbb    correlation energy =        -0.2545715137 a.u.
        non-Brillouin singles      =        -0.0000000000 a.u.
        total same-spin energy     =        -0.5091430275 a.u.
        total opposite-spin energy =        -1.4796043677 a.u.

 Total  RIMP2   correlation energy =        -1.9887473952 a.u.
        RIMP2         total energy =     -1181.6398364342 a.u.

 RI-MP2 Energy Time:  CPU 70.27 s  wall 70.55 s
 
 --------------------------------------------------------------
 
                    Orbital Energies (a.u.)
 --------------------------------------------------------------
 
 Alpha MOs
 -- Occupied --
-91.9840 -91.9784 -11.2779 -11.2760 -11.2712 -11.2662 -11.2534 -11.2497
-11.2463 -11.2408 -11.2307 -11.2296  -8.9843  -8.9788  -6.6651  -6.6645
 -6.6639  -6.6598  -6.6592  -6.6586  -1.1850  -1.1484  -1.0440  -1.0258
 -0.9959  -0.9548  -0.9136  -0.8942  -0.7997  -0.7560  -0.7296  -0.7018
 -0.6577  -0.6151  -0.5939  -0.5825  -0.5708  -0.5617  -0.5507  -0.5410
 -0.5286  -0.5237  -0.5053  -0.4898  -0.4791  -0.4710  -0.4501  -0.3654
 -0.3473  -0.3355  -0.2672
 -- Virtual --
  0.0588   0.1260   0.1360   0.1471   0.1635   0.1725   0.1785   0.1865
  0.1940   0.2047   0.2061   0.2205   0.2327   0.2386   0.2456   0.2545
  0.2739   0.2806   0.3007   0.3177   0.3303   0.3426   0.3604   0.3699
  0.3825   0.3852   0.3910   0.4044   0.4191   0.4219   0.4392   0.4404
  0.4480   0.4599   0.4714   0.4753   0.4782   0.4864   0.5021   0.5066
  0.5123   0.5164   0.5241   0.5285   0.5411   0.5498   0.5584   0.5712
  0.5778   0.5872   0.5943   0.5987   0.6064   0.6133   0.6169   0.6196
  0.6259   0.6340   0.6360   0.6409   0.6487   0.6666   0.6704   0.6801
  0.6872   0.6946   0.6962   0.7108   0.7215   0.7286   0.7458   0.7656
  0.7665   0.7822   0.7932   0.8018   0.8066   0.8097   0.8401   0.8455
  0.8564   0.8640   0.8712   0.9007   0.9022   0.9050   0.9439   0.9506
  0.9583   0.9719   0.9859   0.9897   0.9971   1.0147   1.0219   1.0356
  1.0462   1.0490   1.0693   1.0798   1.0851   1.0903   1.0950   1.0984
  1.1163   1.1250   1.1388   1.1435   1.1513   1.1846   1.1892   1.2056
  1.2157   1.2173   1.2285   1.2374   1.2547   1.2610   1.2649   1.2707
  1.2812   1.2931   1.3119   1.3204   1.3381   1.3511   1.3620   1.3735
  1.3821   1.3967   1.4023   1.4084   1.4271   1.4350   1.4425   1.4583
  1.4742   1.4890   1.5053   1.5105   1.5273   1.5328   1.5412   1.5517
  1.5587   1.5686   1.5729   1.5748   1.5982   1.6067   1.6141   1.6253
  1.6372   1.6692   1.6807   1.6942   1.7055   1.7159   1.7312   1.7434
  1.7541   1.7780   1.7875   1.7983   1.8039   1.8221   1.8423   1.8667
  1.8791   1.8995   1.9122   1.9232   1.9476   1.9722   1.9861   1.9913
  2.0111   2.0400   2.0823   2.1067   2.1291   2.1413   2.1679   2.1770
  2.1813   2.1879   2.2161   2.2317   2.2390   2.2633   2.2676   2.2747
  2.2833   2.2920   2.3308   2.3431   2.4191   2.4230   2.4346   2.4515
  2.4648   2.4827   2.5170   2.5240   2.5511   2.5739   2.5814   2.6050
  2.6294   2.6429   2.6550   2.6687   2.6792   2.7059   2.7252   2.7305
  2.7370   2.7412   2.7512   2.7691   2.7797   2.7854   2.8008   2.8145
  2.8213   2.8403   2.8561   2.8593   2.8877   2.8975   2.9325   2.9595
  2.9635   2.9659   2.9866   3.0053   3.0127   3.0247   3.0348   3.0491
  3.0607   3.0718   3.0887   3.1071   3.1121   3.1286   3.1346   3.1512
  3.1601   3.1687   3.1774   3.1841   3.1934   3.1975   3.2124   3.2253
  3.2279   3.2536   3.2611   3.2660   3.2812   3.2863   3.3004   3.3106
  3.3137   3.3277   3.3397   3.3425   3.3607   3.3659   3.3733   3.3865
  3.3925   3.4008   3.4059   3.4150   3.4203   3.4281   3.4403   3.4423
  3.4519   3.4675   3.4762   3.4831   3.4956   3.5038   3.5138   3.5245
  3.5254   3.5404   3.5476   3.5525   3.5570   3.5700   3.5710   3.5893
  3.5994   3.6179   3.6247   3.6376   3.6522   3.6732   3.6788   3.6858
  3.7004   3.7050   3.7118   3.7188   3.7248   3.7288   3.7403   3.7507
  3.7752   3.7807   3.7928   3.8050   3.8230   3.8318   3.8375   3.8487
  3.8794   3.8889   3.9070   3.9146   3.9348   3.9442   3.9546   3.9654
  3.9836   4.0019   4.0163   4.0190   4.0263   4.0335   4.0473   4.0530
  4.0725   4.0977   4.1105   4.1203   4.1353   4.1421   4.1535   4.1612
  4.1792   4.1897   4.1991   4.2027   4.2086   4.2223   4.2310   4.2344
  4.2592   4.2704   4.2801   4.2975   4.3057   4.3244   4.3299   4.3389
  4.3574   4.3635   4.3738   4.3981   4.4014   4.4138   4.4178   4.4382
  4.4587   4.4766   4.4851   4.5043   4.5298   4.5451   4.5518   4.5732
  4.6052   4.6203   4.6269   4.6336   4.6466   4.6664   4.6848   4.6942
  4.7127   4.7417   4.7508   4.7627   4.7837   4.8104   4.8603   4.8689
  4.8803   4.8958   4.9001   4.9421   4.9584   4.9674   4.9885   5.0591
  5.0821   5.1025   5.1086   5.1474   5.1707   5.1882   5.2062   5.2411
  5.2683   5.2769   5.3106   5.3155   5.3235   5.3666   5.3871   5.4054
  5.4170   5.4502   5.4605   5.4899   5.5109   5.5355   5.5531   5.5614
  5.5721   5.6123   5.6211   5.6397   5.6495   5.7005   5.7109   5.7459
  5.7813   5.8223   5.9380   5.9753   6.0275   6.0829   6.1113   6.2250
  6.2339   6.2728   6.2770   6.3044   6.3700   6.4100   6.5453   8.6310
  9.8291  11.5553  12.2381  12.8293  13.2589  13.7178  14.1300  14.2289
 14.4469
 --------------------------------------------------------------
 
          Ground-State Mulliken Net Atomic Charges

     Atom                 Charge (a.u.)
  ----------------------------------------
      1 C                    -0.223198
      2 C                    -0.251044
      3 C                     0.052686
      4 H                     0.183465
      5 C                    -0.025098
      6 S                     0.000567
      7 C                    -0.307761
      8 H                     0.115741
      9 H                     0.102996
     10 H                     0.115134
     11 H                     0.204381
     12 C                    -0.017232
     13 C                    -0.251428
     14 C                     0.038255
     15 H                     0.202463
     16 C                    -0.223754
     17 S                     0.032114
     18 C                    -0.270271
     19 H                     0.102369
     20 H                     0.110545
     21 H                     0.108331
     22 H                     0.200740
  ----------------------------------------
  Sum of atomic charges =     0.000000

 -----------------------------------------------------------------
                    Cartesian Multipole Moments
 -----------------------------------------------------------------
    Charge (ESU x 10^10)
                -0.0000
    Dipole Moment (Debye)
         X       2.1733      Y       0.7470      Z       2.9969
       Tot       3.7766
    Quadrupole Moments (Debye-Ang)
        XX     -86.9716     XY       5.0526     YY     -74.6435
        XZ       2.5645     YZ      -1.4725     ZZ     -80.9241
    Octopole Moments (Debye-Ang^2)
       XXX    -129.4184    XXY      78.0521    XYY     -31.1394
       YYY     133.1297    XXZ      -4.0331    XYZ      -9.3624
       YYZ      -7.3583    XZZ     -39.6360    YZZ      54.1034
       ZZZ      -0.1046
    Hexadecapole Moments (Debye-Ang^3)
      XXXX    -590.6851   XXXY    -223.3076   XXYY    -535.0556
      XYYY    -199.7428   YYYY   -2283.4028   XXXZ    -157.1459
      XXYZ     -32.5064   XYYZ     -25.5236   YYYZ     -52.4718
      XXZZ    -267.6180   XYZZ     -69.8168   YYZZ    -550.5393
      XZZZ    -148.6860   YZZZ     -82.0765   ZZZZ   -1018.7861
 -----------------------------------------------------------------
 Total job time:  596.58s(wall), 592.86s(cpu) 
 Sat Jul  9 00:48:17 2022

        *************************************************************
        *                                                           *
        *  Thank you very much for using Q-Chem.  Have a nice day.  *
        *                                                           *
        *************************************************************


remove work dirs ./qchem1560496.0 -- ./qchem1560496.-1
rm -rf ./qchem1560496
