You are running Q-Chem version: 5.4.0

#
# job setting
#
local host:  exp-1-46
current dir: /expanse/lustre/scratch/theleonzhang/temp_project/Interring_Bonds
input file:  Methylthiophene_Phi_0_Theta_80_Methylthiophene.qcin
output file: 
nprocs     : 0
nthreads   : 1
#
# qchem installation setting
#
QC:          /cm/shared/apps/spack/cpu/opt/spack/linux-centos8-zen2/gcc-10.2.0/qchem-5.4-akfmr7b3t57bfs6qan3padb2wnb2i7cl
QCAUX:       /cm/shared/apps/spack/cpu/opt/spack/linux-centos8-zen2/gcc-10.2.0/qchem-5.4-akfmr7b3t57bfs6qan3padb2wnb2i7cl/qcaux
QCPROG:      /cm/shared/apps/spack/cpu/opt/spack/linux-centos8-zen2/gcc-10.2.0/qchem-5.4-akfmr7b3t57bfs6qan3padb2wnb2i7cl/exe/qcprog.exe_s
QCPROG_S:    /cm/shared/apps/spack/cpu/opt/spack/linux-centos8-zen2/gcc-10.2.0/qchem-5.4-akfmr7b3t57bfs6qan3padb2wnb2i7cl/exe/qcprog.exe_s
PARALLEL:    -DSERIAL
QCMPI:       mpich
#
# qchem directory setting
#
qcrun:       qchem3202240
QCSCRATCH:   .
QCLOCALSCR:  
QCTMPDIR:    .
QCFILEPREF:  ./qchem3202240
QCSAVEDIR:   
workdirs:    ./qchem3202240
workdir0:    ./qchem3202240
partmpdirs =  
#
# parallel setting
#
QCRSH:           ssh
QCMPI:           mpich
QCMPIRUN:        /cm/shared/apps/spack/cpu/opt/spack/linux-centos8-zen2/gcc-10.2.0/qchem-5.4-akfmr7b3t57bfs6qan3padb2wnb2i7cl/bin/mpi/mpirun_qchem
QCMACHINEFILE:   ./qchem3202240/hostfile

#
# env setting
#
exported envs:   QC QCAUX QCSCRATCH QCRUNNAME QCFILEPREF QCPROG QCPROG_S GUIFILE

Running Job 1 of 1 Methylthiophene_Phi_0_Theta_80_Methylthiophene.qcin
qchem Methylthiophene_Phi_0_Theta_80_Methylthiophene.qcin_3202240.0 ./qchem3202240/ 0
/cm/shared/apps/spack/cpu/opt/spack/linux-centos8-zen2/gcc-10.2.0/qchem-5.4-akfmr7b3t57bfs6qan3padb2wnb2i7cl/exe/qcprog.exe_s Methylthiophene_Phi_0_Theta_80_Methylthiophene.qcin_3202240.0 ./qchem3202240/
                  Welcome to Q-Chem
     A Quantum Leap Into The Future Of Chemistry


 Q-Chem 5.4, Q-Chem, Inc., Pleasanton, CA (2021)

 License issued to: University of California, San Diego (site)

 E. Epifanovsky,  A. T. B. Gilbert,  Xintian Feng,  Joonho Lee,  Yuezhi Mao,  
 N. Mardirossian,  P. Pokhilko,  A. White,  M. Wormit,  M. P. Coons,  
 A. L. Dempwolff,  Zhengting Gan,  D. Hait,  P. R. Horn,  L. D. Jacobson,  
 I. Kaliman,  J. Kussmann,  A. W. Lange,  Ka Un Lao,  D. S. Levine,  Jie Liu,  
 S. C. McKenzie,  A. F. Morrison,  K. Nanda,  F. Plasser,  D. R. Rehn,  
 M. L. Vidal,  Zhi-Qiang You,  Ying Zhu,  B. Alam,  B. Albrecht,  
 A. Aldossary,  E. Alguire,  J. H. Andersen,  D. Barton,  K. Begam,  A. Behn,  
 Y. A. Bernard,  E. J. Berquist,  H. Burton,  A. Carreras,  K. Carter-Fenk,  
 R. Chakraborty,  A. D. Chien,  K. D. Closser,  V. Cofer-Shabica,  
 S. Dasgupta,  Jia Deng,  M. de Wergifosse,  M. Diedenhofen,  Hainam Do,  
 S. Ehlert,  Po-Tung Fang,  S. Fatehi,  Qingguo Feng,  J. Gayvert,  
 Qinghui Ge,  G. Gidofalvi,  M. Goldey,  J. Gomes,  C. Gonzalez-Espinoza,  
 S. Gulania,  A. Gunina,  M. W. D. Hanson-Heine,  P. H. P. Harbach,  
 A. W. Hauser,  M. F. Herbst,  M. Hernandez Vera,  M. Hodecker,  
 Z. C. Holden,  S. Houck,  Xunkun Huang,  Kerwin Hui,  B. C. Huynh,  
 M. Ivanov,  Hyunjun Ji,  Hanjie Jiang,  B. Kaduk,  S. Kaehler,  
 K. Khistyaev,  Jaehoon Kim,  P. Klunzinger,  Z. Koczor-Benda,  
 Joong Hoon Koh,  D. Kosenkov,  L. Koulias,  T. Kowalczyk,  C. M. Krauter,  
 K. Kue,  A. Kunitsa,  T. Kus,  A. Landau,  K. V. Lawler,  D. Lefrancois,  
 S. Lehtola,  Rain Li,  Yi-Pei Li,  Jiashu Liang,  M. Liebenthal,  
 Hung-Hsuan Lin,  You-Sheng Lin,  Fenglai Liu,  Kuan-Yu Liu,  
 M. Loipersberger,  A. Luenser,  A. Manjanath,  P. Manohar,  E. Mansoor,  
 S. F. Manzer,  Shan-Ping Mao,  A. V. Marenich,  T. Markovich,  S. Mason,  
 S. A. Maurer,  P. F. McLaughlin,  M. F. S. J. Menger,  J.-M. Mewes,  
 S. A. Mewes,  P. Morgante,  J. W. Mullinax,  T. S. Nguyen-Beck,  
 K. J. Oosterbaan,  G. Paran,  Alexander C. Paul,  Suranjan K. Paul,  
 F. Pavosevic,  Zheng Pei,  S. Prager,  E. I. Proynov,  E. Ramos,  B. Rana,  
 A. E. Rask,  A. Rettig,  R. M. Richard,  F. Rob,  E. Rossomme,  T. Scheele,  
 M. Scheurer,  M. Schneider,  N. Sergueev,  S. M. Sharada,  W. Skomorowski,  
 D. W. Small,  C. J. Stein,  Yu-Chuan Su,  E. J. Sundstrom,  Zhen Tao,  
 J. Thirman,  T. Tsuchimochi,  N. M. Tubman,  S. P. Veccham,  O. Vydrov,  
 J. Wenzel,  J. Witte,  A. Yamada,  Kun Yao,  S. Yeganeh,  S. R. Yost,  
 A. Zech,  Igor Ying Zhang,  Xing Zhang,  Yu Zhang,  D. Zuev,  
 A. Aspuru-Guzik,  A. T. Bell,  N. A. Besley,  K. B. Bravaya,  B. R. Brooks,  
 D. Casanova,  Jeng-Da Chai,  S. Coriani,  C. J. Cramer,  
 A. E. DePrince, III,  R. A. DiStasio Jr.,  A. Dreuw,  B. D. Dunietz,  
 T. R. Furlani,  W. A. Goddard III,  S. Grimme,  S. Hammes-Schiffer,  
 T. Head-Gordon,  W. J. Hehre,  Chao-Ping Hsu,  T.-C. Jagau,  Yousung Jung,  
 A. Klamt,  Jing Kong,  D. S. Lambrecht,  WanZhen Liang,  N. J. Mayhall,  
 C. W. McCurdy,  J. B. Neaton,  C. Ochsenfeld,  J. A. Parkhill,  R. Peverati,  
 V. A. Rassolov,  Yihan Shao,  L. V. Slipchenko,  T. Stauch,  R. P. Steele,  
 J. E. Subotnik,  A. J. W. Thom,  A. Tkatchenko,  D. G. Truhlar,  
 T. Van Voorhis,  T. A. Wesolowski,  K. B. Whaley,  H. L. Woodcock III,  
 P. M. Zimmerman,  S. Faraji,  P. M. W. Gill,  M. Head-Gordon,  
 J. M. Herbert,  A. I. Krylov

 Contributors to earlier versions of Q-Chem not listed above: 
 R. D. Adamson,  B. Austin,  R. Baer,  J. Baker,  G. J. O. Beran,  
 K. Brandhorst,  S. T. Brown,  E. F. C. Byrd,  A. K. Chakraborty,  
 G. K. L. Chan,  Chun-Min Chang,  Yunqing Chen,  C.-L. Cheng,  
 Siu Hung Chien,  D. M. Chipman,  D. L. Crittenden,  H. Dachsel,  
 R. J. Doerksen,  A. D. Dutoi,  R. G. Edgar,  J. Fosso-Tande,  
 L. Fusti-Molnar,  D. Ghosh,  A. Ghysels,  A. Golubeva-Zadorozhnaya,  
 J. Gonthier,  M. S. Gordon,  S. R. Gwaltney,  G. Hawkins,  J. E. Herr,  
 A. Heyden,  S. Hirata,  E. G. Hohenstein,  G. Kedziora,  F. J. Keil,  
 C. Kelley,  Jihan Kim,  R. A. King,  R. Z. Khaliullin,  P. P. Korambath,  
 W. Kurlancheek,  A. Laurent,  A. M. Lee,  M. S. Lee,  S. V. Levchenko,  
 Ching Yeh Lin,  D. Liotard,  E. Livshits,  R. C. Lochan,  I. Lotan,  
 L. A. Martinez-Martinez,  P. E. Maslen,  N. Nair,  D. P. O'Neill,  
 D. Neuhauser,  E. Neuscamman,  C. M. Oana,  R. Olivares-Amaya,  R. Olson,  
 T. M. Perrine,  B. Peters,  P. A. Pieniazek,  A. Prociuk,  Y. M. Rhee,  
 J. Ritchie,  M. A. Rohrdanz,  E. Rosta,  N. J. Russ,  H. F. Schaefer III,  
 M. W. Schmidt,  N. E. Schultz,  S. Sharma,  N. Shenvi,  C. D. Sherrill,  
 A. C. Simmonett,  A. Sodt,  T. Stein,  D. Stuck,  K. S. Thanthiriwatte,  
 V. Vanovschi,  L. Vogt,  Tao Wang,  A. Warshel,  M. A. Watson,  
 C. F. Williams,  Q. Wu,  X. Xu,  Jun Yang,  W. Zhang,  Yan Zhao

 Please cite Q-Chem as follows:
 Y. Shao et al., Mol. Phys. 113, 184-215 (2015)
 DOI: 10.1080/00268976.2014.952696

 Q-Chem 5.4.0 for Intel X86 EM64T Linux

 Parts of Q-Chem use Armadillo 9.800.1 (Horizon Scraper).
 http://arma.sourceforge.net/

 Q-Chem begins on Fri Jul  8 23:01:02 2022  

 Host: 
0

     Scratch files written to ./qchem3202240//
 May1621 |scratch|qcdevops|jenkins|workspace|build_RNUM    
 Processing $rem in /cm/shared/apps/spack/cpu/opt/spack/linux-centos8-zen2/gcc-10.2.0/qchem-5.4-akfmr7b3t57bfs6qan3padb2wnb2i7cl/config/preferences:
 Processing $rem in /home/theleonzhang/.qchemrc:
 Symmetry turned off for PCM/SM12/SMD calculation
 Core orbitals will be frozen

 Checking the input file for inconsistencies... 	...done.

--------------------------------------------------------------
User input:
--------------------------------------------------------------
$molecule
0 1
C	-0.763475	-3.866725	0.133897
C	0.603206	-3.703963	-0.106669
C	1.050446	-2.357056	-0.185154
H	1.283024	-4.561092	-0.226709
C	0.000000	-1.440664	0.000000
S	-1.521018	-2.286957	0.268206
C	2.483610	-1.978743	-0.437628
H	3.118875	-2.878678	-0.549717
H	2.903464	-1.376015	0.394664
H	2.593726	-1.375728	-1.363110
H	-1.354522	-4.783437	0.237880
C	0.000000	0.000000	0.000000
C	0.000033	0.863600	1.099446
C	0.000052	2.247508	0.776721
H	0.000026	0.494801	2.136088
C	0.000074	2.468165	-0.612546
S	0.000024	0.942399	-1.486809
C	0.000075	3.335257	1.814609
H	0.000074	2.909620	2.836676
H	-0.892314	3.989552	1.726239
H	0.892483	3.989525	1.726228
H	0.000094	3.417382	-1.161575
$end

$rem
JOBTYPE		SP
EXCHANGE	HF
CORRELATION	pRIMP2
BASIS		cc-pvtz
METHOD		rimp2
AUX_BASIS	rimp2-cc-pvtz
SOLVENT_METHOD	PCM
PURECART	11111
SYMMETRY	false
MEM_TOTAL	110000
SCF_CONVERGENCE = 6
THRESH=10
$end



$solvent
dielectric 4.90
$end
--------------------------------------------------------------
 ----------------------------------------------------------------
             Standard Nuclear Orientation (Angstroms)
    I     Atom           X                Y                Z
 ----------------------------------------------------------------
    1      C      -0.7634750000    -3.8667250000     0.1338970000
    2      C       0.6032060000    -3.7039630000    -0.1066690000
    3      C       1.0504460000    -2.3570560000    -0.1851540000
    4      H       1.2830240000    -4.5610920000    -0.2267090000
    5      C       0.0000000000    -1.4406640000     0.0000000000
    6      S      -1.5210180000    -2.2869570000     0.2682060000
    7      C       2.4836100000    -1.9787430000    -0.4376280000
    8      H       3.1188750000    -2.8786780000    -0.5497170000
    9      H       2.9034640000    -1.3760150000     0.3946640000
   10      H       2.5937260000    -1.3757280000    -1.3631100000
   11      H      -1.3545220000    -4.7834370000     0.2378800000
   12      C       0.0000000000     0.0000000000     0.0000000000
   13      C       0.0000330000     0.8636000000     1.0994460000
   14      C       0.0000520000     2.2475080000     0.7767210000
   15      H       0.0000260000     0.4948010000     2.1360880000
   16      C       0.0000740000     2.4681650000    -0.6125460000
   17      S       0.0000240000     0.9423990000    -1.4868090000
   18      C       0.0000750000     3.3352570000     1.8146090000
   19      H       0.0000740000     2.9096200000     2.8366760000
   20      H      -0.8923140000     3.9895520000     1.7262390000
   21      H       0.8924830000     3.9895250000     1.7262280000
   22      H       0.0000940000     3.4173820000    -1.1615750000
 ----------------------------------------------------------------
 Nuclear Repulsion Energy =         832.57029136 hartrees
 There are       51 alpha and       51 beta electrons

 Q-Chem warning in module forms1/BasisType.C, line 2236:

 You are not using the predefined 5D/6D in this basis set.

 Requested basis set is cc-pVTZ
 There are 184 shells and 508 basis functions

 Total QAlloc Memory Limit 110000 MB
 Mega-Array Size       188 MB
 MEM_STATIC part       192 MB
 Discretize the solute cavity surface with Lebedev spheres
	Using 110 Lebedev grid points for each H atom
	Using 194 Lebedev grid points for other atoms
	Atomic van der Waals radii will be scaled by 1.20
 Remove points where switching function is < 1.0e-08
 Keep 1572 surface tesserae and discard 1856 interior tesserae
 Molecular Surface Area = 238.846 Angst**2
 Requested basis set is rimp2-cc-pVTZ
 There are 394 shells and 1354 basis functions
 A cutoff of  1.0D-10 yielded  12173 shell pairs
 There are     90537 function pairs (    117047 Cartesian)
 Smallest overlap matrix eigenvalue = 6.65E-05

 Scale SEOQF with 1.000000e-01/1.000000e-01/1.000000e-01

 Standard Electronic Orientation quadrupole field applied
 Nucleus-field energy     =     0.0000000360 hartrees
 Guess from superposition of atomic densities
 Warning:  Energy on first SCF cycle will be non-variational
 SAD guess density has 102.000000 electrons

 -----------------------------------------------------------------------
  General SCF calculation program by
  Eric Jon Sundstrom, Paul Horn, Yuezhi Mao, Dmitri Zuev, Alec White,
  David Stuck, Shaama M.S., Shane Yost, Joonho Lee, David Small,
  Daniel Levine, Susi Lehtola, Hugh Burton, Evgeny Epifanovsky,
  Bang C. Huynh
 -----------------------------------------------------------------------
 Hartree-Fock
 A restricted SCF calculation will be
 performed using DIIS
 SCF converges when DIIS error is below 1.0e-06
 ---------------------------------------
  Cycle       Energy         DIIS error
 ---------------------------------------
    1   -1184.1977392261      2.38e-02  
    2   -1179.5480698380      1.59e-03  
    3   -1179.6672405544      6.11e-04  
    4   -1179.6805554698      3.41e-04  
    5   -1179.6853859772      6.76e-05  
    6   -1179.6856705039      3.07e-05  
    7   -1179.6857586349      1.27e-05  
    8   -1179.6857866830      5.28e-06  
    9   -1179.6857915313      1.64e-06  
   10   -1179.6857919431      5.03e-07  Convergence criterion met
 ---------------------------------------
 SCF time:   CPU 480.76s  wall 483.00s 

************** Final PCM Free Energy Summary **************
 G_electrostatic  =      -0.00766918 hartree =      -4.81248074 kcal/mol
 G_cavitation     =       0.00000000 hartree =       0.00000000 kcal/mol
 G_dispersion     =       0.00000000 hartree =       0.00000000 kcal/mol
 G_repulsion      =       0.00000000 hartree =       0.00000000 kcal/mol
 --------------------------------------------------
 Non-electrostatic Free Energy =       0.00000000 hartree =       0.00000000 kcal/mol
 Total                         =      -0.00766918 hartree =      -4.81248074 kcal/mol
 --------------------------------------------------
 SCF Energy (H0 + V/2)                       =   -1179.68579194 
 Solute Internal Energy (H0)                 =   -1179.67812277 
 Total Free Energy (H0 + V/2 + non-elec)     =   -1179.68579194 hartree
                                             = -740264.00724841 kcal/mol
***********************************************************

 SCF   energy in the final basis set =    -1179.6857919431
 Total energy in the final basis set =    -1179.6857919431


 --------------------------------------------------------------
  Generalized many-body perturbation theory program
  by Joonho Lee, Fazle Rob, Xintian Feng, Evgeny Epifanovsky

 No regularization used 
 (reg. param. = 0.0000e+00)
  (P|Q)^-1/2 Time:  CPU 2.04 s  wall 2.05 s

 In RI-MP2 calculation: 
 # of frozen core orbitals: 20

 Components of the RIMP2 correlation energy:
        aaaa    correlation energy =        -0.2521850909 a.u.
        abab    correlation energy =        -1.4734131175 a.u.
        bbbb    correlation energy =        -0.2521850909 a.u.
        non-Brillouin singles      =        -0.0000000000 a.u.
        total same-spin energy     =        -0.5043701818 a.u.
        total opposite-spin energy =        -1.4734131175 a.u.

 Total  RIMP2   correlation energy =        -1.9777832994 a.u.
        RIMP2         total energy =     -1181.6635752424 a.u.

 RI-MP2 Energy Time:  CPU 96.03 s  wall 96.41 s
 
 --------------------------------------------------------------
 
                    Orbital Energies (a.u.)
 --------------------------------------------------------------
 
 Alpha MOs
 -- Occupied --
-91.9853 -91.9846 -11.2789 -11.2728 -11.2724 -11.2647 -11.2541 -11.2508
-11.2424 -11.2419 -11.2293 -11.2289  -8.9848  -8.9842  -6.6657  -6.6651
 -6.6651  -6.6645  -6.6645  -6.6639  -1.1783  -1.1496  -1.0400  -1.0229
 -0.9974  -0.9538  -0.9137  -0.8921  -0.8006  -0.7551  -0.7292  -0.6948
 -0.6624  -0.6163  -0.5823  -0.5789  -0.5717  -0.5693  -0.5520  -0.5318
 -0.5288  -0.5198  -0.5078  -0.4923  -0.4882  -0.4646  -0.4620  -0.3455
 -0.3392  -0.3209  -0.3039
 -- Virtual --
  0.0897   0.1042   0.1429   0.1485   0.1622   0.1737   0.1780   0.1853
  0.1887   0.1949   0.2023   0.2161   0.2314   0.2347   0.2417   0.2487
  0.2528   0.2632   0.2916   0.2990   0.3385   0.3494   0.3542   0.3622
  0.3761   0.3821   0.3949   0.3987   0.4070   0.4145   0.4206   0.4431
  0.4474   0.4581   0.4612   0.4693   0.4738   0.4794   0.4888   0.4991
  0.5137   0.5179   0.5311   0.5363   0.5438   0.5503   0.5573   0.5638
  0.5761   0.5829   0.5854   0.5953   0.5980   0.6097   0.6179   0.6191
  0.6228   0.6354   0.6395   0.6422   0.6452   0.6498   0.6520   0.6662
  0.6696   0.6845   0.6890   0.7146   0.7183   0.7259   0.7358   0.7532
  0.7642   0.7769   0.7982   0.8141   0.8147   0.8280   0.8283   0.8411
  0.8420   0.8550   0.8667   0.8877   0.8977   0.9164   0.9350   0.9412
  0.9549   0.9597   0.9769   0.9951   1.0074   1.0163   1.0234   1.0302
  1.0373   1.0532   1.0647   1.0683   1.0759   1.0866   1.0921   1.0943
  1.1117   1.1131   1.1271   1.1435   1.1578   1.1719   1.1759   1.1838
  1.2024   1.2153   1.2231   1.2311   1.2544   1.2579   1.2617   1.2798
  1.2863   1.2928   1.2988   1.3183   1.3221   1.3381   1.3410   1.3599
  1.3703   1.3821   1.4001   1.4166   1.4237   1.4445   1.4496   1.4567
  1.4739   1.4860   1.5011   1.5041   1.5089   1.5314   1.5333   1.5523
  1.5559   1.5643   1.5723   1.5762   1.5894   1.5994   1.6099   1.6442
  1.6503   1.6591   1.6797   1.6870   1.7026   1.7037   1.7177   1.7203
  1.7563   1.7609   1.7664   1.7704   1.8051   1.8112   1.8298   1.8424
  1.8819   1.8849   1.9014   1.9222   1.9302   1.9420   1.9501   1.9943
  2.0235   2.0444   2.0495   2.1084   2.1300   2.1400   2.1456   2.1730
  2.1905   2.1952   2.1995   2.2158   2.2382   2.2476   2.2707   2.2805
  2.2968   2.3198   2.3413   2.3885   2.3986   2.4065   2.4206   2.4560
  2.4659   2.4859   2.5079   2.5253   2.5467   2.5683   2.5801   2.5978
  2.6132   2.6244   2.6506   2.6587   2.6738   2.6837   2.7068   2.7231
  2.7332   2.7442   2.7538   2.7599   2.7620   2.7663   2.7891   2.7952
  2.8276   2.8386   2.8511   2.8590   2.8859   2.8897   2.9052   2.9148
  2.9329   2.9680   2.9787   2.9890   3.0013   3.0154   3.0259   3.0372
  3.0566   3.0874   3.0969   3.1077   3.1134   3.1183   3.1348   3.1411
  3.1452   3.1550   3.1578   3.1665   3.1837   3.2091   3.2138   3.2337
  3.2386   3.2437   3.2554   3.2762   3.2823   3.2928   3.2974   3.3077
  3.3252   3.3265   3.3327   3.3382   3.3546   3.3574   3.3582   3.3764
  3.3848   3.3925   3.3989   3.4098   3.4172   3.4321   3.4381   3.4424
  3.4523   3.4659   3.4705   3.4865   3.5019   3.5089   3.5216   3.5248
  3.5267   3.5321   3.5391   3.5460   3.5564   3.5607   3.5793   3.5988
  3.5993   3.6121   3.6180   3.6205   3.6315   3.6353   3.6570   3.6643
  3.6742   3.6913   3.6972   3.7121   3.7135   3.7322   3.7429   3.7456
  3.7610   3.7744   3.7902   3.8050   3.8070   3.8144   3.8238   3.8413
  3.8576   3.8646   3.8810   3.8964   3.9083   3.9204   3.9397   3.9660
  3.9749   3.9845   3.9948   4.0008   4.0127   4.0250   4.0316   4.0493
  4.0725   4.0844   4.0898   4.0983   4.1270   4.1371   4.1386   4.1447
  4.1663   4.1710   4.1848   4.1951   4.2025   4.2081   4.2131   4.2380
  4.2510   4.2721   4.2753   4.2833   4.2951   4.3123   4.3245   4.3308
  4.3497   4.3535   4.3686   4.3859   4.3951   4.3978   4.4040   4.4169
  4.4270   4.4404   4.4538   4.4746   4.4930   4.5046   4.5288   4.5673
  4.5825   4.6078   4.6117   4.6142   4.6279   4.6399   4.6644   4.6694
  4.7082   4.7258   4.7428   4.7486   4.7675   4.7810   4.8171   4.8380
  4.8805   4.8855   4.9078   4.9208   4.9531   4.9917   5.0027   5.0553
  5.0893   5.1005   5.1131   5.1480   5.1711   5.1904   5.2028   5.2379
  5.2711   5.2838   5.2918   5.3028   5.3324   5.3699   5.3934   5.4004
  5.4191   5.4488   5.4647   5.4849   5.5193   5.5297   5.5476   5.5595
  5.5760   5.6044   5.6195   5.6267   5.6361   5.6730   5.7004   5.7123
  5.7754   5.8267   5.9095   5.9625   6.0059   6.0562   6.1340   6.2263
  6.2285   6.2472   6.2731   6.3040   6.3219   6.4516   6.5063   8.9084
  9.9202  11.6772  11.9981  12.9236  13.0627  13.7491  13.9553  14.2129
 14.3092
 --------------------------------------------------------------
 
          Ground-State Mulliken Net Atomic Charges

     Atom                 Charge (a.u.)
  ----------------------------------------
      1 C                    -0.213401
      2 C                    -0.248144
      3 C                     0.042649
      4 H                     0.184324
      5 C                    -0.043760
      6 S                     0.025969
      7 C                    -0.280828
      8 H                     0.107371
      9 H                     0.110375
     10 H                     0.109881
     11 H                     0.204360
     12 C                    -0.008971
     13 C                    -0.230024
     14 C                     0.018367
     15 H                     0.186770
     16 C                    -0.237693
     17 S                     0.027325
     18 C                    -0.271239
     19 H                     0.102770
     20 H                     0.108323
     21 H                     0.107820
     22 H                     0.197755
  ----------------------------------------
  Sum of atomic charges =     0.000000

 -----------------------------------------------------------------
                    Cartesian Multipole Moments
 -----------------------------------------------------------------
    Charge (ESU x 10^10)
                -0.0000
    Dipole Moment (Debye)
         X       1.4842      Y       0.2422      Z       1.1749
       Tot       1.9084
    Quadrupole Moments (Debye-Ang)
        XX     -86.3450     XY      -2.1097     YY     -68.7284
        XZ      -1.1528     YZ       1.4159     ZZ     -86.5277
    Octopole Moments (Debye-Ang^2)
       XXX      -3.5487    XXY      24.6184    XYY      -5.4693
       YYY      94.0740    XXZ      -1.2295    XYZ       4.2291
       YYZ      -2.8106    XZZ      -1.9294    YZZ      58.7176
       ZZZ       4.7380
    Hexadecapole Moments (Debye-Ang^3)
      XXXX    -664.6285   XXXY     -10.8883   XXYY    -561.1498
      XYYY      33.7788   YYYY   -2584.8976   XXXZ      44.9183
      XXYZ     -28.9939   XYYZ      -1.5842   YYYZ    -116.0951
      XXZZ    -213.3329   XYZZ      -1.7326   YYZZ    -611.6748
      XZZZ      49.4401   YZZZ     -96.4501   ZZZZ    -544.7453
 -----------------------------------------------------------------
 Total job time:  581.12s(wall), 577.69s(cpu) 
 Fri Jul  8 23:10:43 2022

        *************************************************************
        *                                                           *
        *  Thank you very much for using Q-Chem.  Have a nice day.  *
        *                                                           *
        *************************************************************


remove work dirs ./qchem3202240.0 -- ./qchem3202240.-1
rm -rf ./qchem3202240
