You are running Q-Chem version: 5.4.0

#
# job setting
#
local host:  exp-2-51
current dir: /expanse/lustre/scratch/theleonzhang/temp_project/Interring_Bonds
input file:  Methylthiophene_Phi_40_Theta_50_Methylthiophene.qcin
output file: 
nprocs     : 0
nthreads   : 1
#
# qchem installation setting
#
QC:          /cm/shared/apps/spack/cpu/opt/spack/linux-centos8-zen2/gcc-10.2.0/qchem-5.4-akfmr7b3t57bfs6qan3padb2wnb2i7cl
QCAUX:       /cm/shared/apps/spack/cpu/opt/spack/linux-centos8-zen2/gcc-10.2.0/qchem-5.4-akfmr7b3t57bfs6qan3padb2wnb2i7cl/qcaux
QCPROG:      /cm/shared/apps/spack/cpu/opt/spack/linux-centos8-zen2/gcc-10.2.0/qchem-5.4-akfmr7b3t57bfs6qan3padb2wnb2i7cl/exe/qcprog.exe_s
QCPROG_S:    /cm/shared/apps/spack/cpu/opt/spack/linux-centos8-zen2/gcc-10.2.0/qchem-5.4-akfmr7b3t57bfs6qan3padb2wnb2i7cl/exe/qcprog.exe_s
PARALLEL:    -DSERIAL
QCMPI:       mpich
#
# qchem directory setting
#
qcrun:       qchem1512720
QCSCRATCH:   .
QCLOCALSCR:  
QCTMPDIR:    .
QCFILEPREF:  ./qchem1512720
QCSAVEDIR:   
workdirs:    ./qchem1512720
workdir0:    ./qchem1512720
partmpdirs =  
#
# parallel setting
#
QCRSH:           ssh
QCMPI:           mpich
QCMPIRUN:        /cm/shared/apps/spack/cpu/opt/spack/linux-centos8-zen2/gcc-10.2.0/qchem-5.4-akfmr7b3t57bfs6qan3padb2wnb2i7cl/bin/mpi/mpirun_qchem
QCMACHINEFILE:   ./qchem1512720/hostfile

#
# env setting
#
exported envs:   QC QCAUX QCSCRATCH QCRUNNAME QCFILEPREF QCPROG QCPROG_S GUIFILE

Running Job 1 of 1 Methylthiophene_Phi_40_Theta_50_Methylthiophene.qcin
qchem Methylthiophene_Phi_40_Theta_50_Methylthiophene.qcin_1512720.0 ./qchem1512720/ 0
/cm/shared/apps/spack/cpu/opt/spack/linux-centos8-zen2/gcc-10.2.0/qchem-5.4-akfmr7b3t57bfs6qan3padb2wnb2i7cl/exe/qcprog.exe_s Methylthiophene_Phi_40_Theta_50_Methylthiophene.qcin_1512720.0 ./qchem1512720/
                  Welcome to Q-Chem
     A Quantum Leap Into The Future Of Chemistry


 Q-Chem 5.4, Q-Chem, Inc., Pleasanton, CA (2021)

 License issued to: University of California, San Diego (site)

 E. Epifanovsky,  A. T. B. Gilbert,  Xintian Feng,  Joonho Lee,  Yuezhi Mao,  
 N. Mardirossian,  P. Pokhilko,  A. White,  M. Wormit,  M. P. Coons,  
 A. L. Dempwolff,  Zhengting Gan,  D. Hait,  P. R. Horn,  L. D. Jacobson,  
 I. Kaliman,  J. Kussmann,  A. W. Lange,  Ka Un Lao,  D. S. Levine,  Jie Liu,  
 S. C. McKenzie,  A. F. Morrison,  K. Nanda,  F. Plasser,  D. R. Rehn,  
 M. L. Vidal,  Zhi-Qiang You,  Ying Zhu,  B. Alam,  B. Albrecht,  
 A. Aldossary,  E. Alguire,  J. H. Andersen,  D. Barton,  K. Begam,  A. Behn,  
 Y. A. Bernard,  E. J. Berquist,  H. Burton,  A. Carreras,  K. Carter-Fenk,  
 R. Chakraborty,  A. D. Chien,  K. D. Closser,  V. Cofer-Shabica,  
 S. Dasgupta,  Jia Deng,  M. de Wergifosse,  M. Diedenhofen,  Hainam Do,  
 S. Ehlert,  Po-Tung Fang,  S. Fatehi,  Qingguo Feng,  J. Gayvert,  
 Qinghui Ge,  G. Gidofalvi,  M. Goldey,  J. Gomes,  C. Gonzalez-Espinoza,  
 S. Gulania,  A. Gunina,  M. W. D. Hanson-Heine,  P. H. P. Harbach,  
 A. W. Hauser,  M. F. Herbst,  M. Hernandez Vera,  M. Hodecker,  
 Z. C. Holden,  S. Houck,  Xunkun Huang,  Kerwin Hui,  B. C. Huynh,  
 M. Ivanov,  Hyunjun Ji,  Hanjie Jiang,  B. Kaduk,  S. Kaehler,  
 K. Khistyaev,  Jaehoon Kim,  P. Klunzinger,  Z. Koczor-Benda,  
 Joong Hoon Koh,  D. Kosenkov,  L. Koulias,  T. Kowalczyk,  C. M. Krauter,  
 K. Kue,  A. Kunitsa,  T. Kus,  A. Landau,  K. V. Lawler,  D. Lefrancois,  
 S. Lehtola,  Rain Li,  Yi-Pei Li,  Jiashu Liang,  M. Liebenthal,  
 Hung-Hsuan Lin,  You-Sheng Lin,  Fenglai Liu,  Kuan-Yu Liu,  
 M. Loipersberger,  A. Luenser,  A. Manjanath,  P. Manohar,  E. Mansoor,  
 S. F. Manzer,  Shan-Ping Mao,  A. V. Marenich,  T. Markovich,  S. Mason,  
 S. A. Maurer,  P. F. McLaughlin,  M. F. S. J. Menger,  J.-M. Mewes,  
 S. A. Mewes,  P. Morgante,  J. W. Mullinax,  T. S. Nguyen-Beck,  
 K. J. Oosterbaan,  G. Paran,  Alexander C. Paul,  Suranjan K. Paul,  
 F. Pavosevic,  Zheng Pei,  S. Prager,  E. I. Proynov,  E. Ramos,  B. Rana,  
 A. E. Rask,  A. Rettig,  R. M. Richard,  F. Rob,  E. Rossomme,  T. Scheele,  
 M. Scheurer,  M. Schneider,  N. Sergueev,  S. M. Sharada,  W. Skomorowski,  
 D. W. Small,  C. J. Stein,  Yu-Chuan Su,  E. J. Sundstrom,  Zhen Tao,  
 J. Thirman,  T. Tsuchimochi,  N. M. Tubman,  S. P. Veccham,  O. Vydrov,  
 J. Wenzel,  J. Witte,  A. Yamada,  Kun Yao,  S. Yeganeh,  S. R. Yost,  
 A. Zech,  Igor Ying Zhang,  Xing Zhang,  Yu Zhang,  D. Zuev,  
 A. Aspuru-Guzik,  A. T. Bell,  N. A. Besley,  K. B. Bravaya,  B. R. Brooks,  
 D. Casanova,  Jeng-Da Chai,  S. Coriani,  C. J. Cramer,  
 A. E. DePrince, III,  R. A. DiStasio Jr.,  A. Dreuw,  B. D. Dunietz,  
 T. R. Furlani,  W. A. Goddard III,  S. Grimme,  S. Hammes-Schiffer,  
 T. Head-Gordon,  W. J. Hehre,  Chao-Ping Hsu,  T.-C. Jagau,  Yousung Jung,  
 A. Klamt,  Jing Kong,  D. S. Lambrecht,  WanZhen Liang,  N. J. Mayhall,  
 C. W. McCurdy,  J. B. Neaton,  C. Ochsenfeld,  J. A. Parkhill,  R. Peverati,  
 V. A. Rassolov,  Yihan Shao,  L. V. Slipchenko,  T. Stauch,  R. P. Steele,  
 J. E. Subotnik,  A. J. W. Thom,  A. Tkatchenko,  D. G. Truhlar,  
 T. Van Voorhis,  T. A. Wesolowski,  K. B. Whaley,  H. L. Woodcock III,  
 P. M. Zimmerman,  S. Faraji,  P. M. W. Gill,  M. Head-Gordon,  
 J. M. Herbert,  A. I. Krylov

 Contributors to earlier versions of Q-Chem not listed above: 
 R. D. Adamson,  B. Austin,  R. Baer,  J. Baker,  G. J. O. Beran,  
 K. Brandhorst,  S. T. Brown,  E. F. C. Byrd,  A. K. Chakraborty,  
 G. K. L. Chan,  Chun-Min Chang,  Yunqing Chen,  C.-L. Cheng,  
 Siu Hung Chien,  D. M. Chipman,  D. L. Crittenden,  H. Dachsel,  
 R. J. Doerksen,  A. D. Dutoi,  R. G. Edgar,  J. Fosso-Tande,  
 L. Fusti-Molnar,  D. Ghosh,  A. Ghysels,  A. Golubeva-Zadorozhnaya,  
 J. Gonthier,  M. S. Gordon,  S. R. Gwaltney,  G. Hawkins,  J. E. Herr,  
 A. Heyden,  S. Hirata,  E. G. Hohenstein,  G. Kedziora,  F. J. Keil,  
 C. Kelley,  Jihan Kim,  R. A. King,  R. Z. Khaliullin,  P. P. Korambath,  
 W. Kurlancheek,  A. Laurent,  A. M. Lee,  M. S. Lee,  S. V. Levchenko,  
 Ching Yeh Lin,  D. Liotard,  E. Livshits,  R. C. Lochan,  I. Lotan,  
 L. A. Martinez-Martinez,  P. E. Maslen,  N. Nair,  D. P. O'Neill,  
 D. Neuhauser,  E. Neuscamman,  C. M. Oana,  R. Olivares-Amaya,  R. Olson,  
 T. M. Perrine,  B. Peters,  P. A. Pieniazek,  A. Prociuk,  Y. M. Rhee,  
 J. Ritchie,  M. A. Rohrdanz,  E. Rosta,  N. J. Russ,  H. F. Schaefer III,  
 M. W. Schmidt,  N. E. Schultz,  S. Sharma,  N. Shenvi,  C. D. Sherrill,  
 A. C. Simmonett,  A. Sodt,  T. Stein,  D. Stuck,  K. S. Thanthiriwatte,  
 V. Vanovschi,  L. Vogt,  Tao Wang,  A. Warshel,  M. A. Watson,  
 C. F. Williams,  Q. Wu,  X. Xu,  Jun Yang,  W. Zhang,  Yan Zhao

 Please cite Q-Chem as follows:
 Y. Shao et al., Mol. Phys. 113, 184-215 (2015)
 DOI: 10.1080/00268976.2014.952696

 Q-Chem 5.4.0 for Intel X86 EM64T Linux

 Parts of Q-Chem use Armadillo 9.800.1 (Horizon Scraper).
 http://arma.sourceforge.net/

 Q-Chem begins on Fri Jul  8 22:48:14 2022  

 Host: 
0

     Scratch files written to ./qchem1512720//
 May1621 |scratch|qcdevops|jenkins|workspace|build_RNUM    
 Processing $rem in /cm/shared/apps/spack/cpu/opt/spack/linux-centos8-zen2/gcc-10.2.0/qchem-5.4-akfmr7b3t57bfs6qan3padb2wnb2i7cl/config/preferences:
 Processing $rem in /home/theleonzhang/.qchemrc:
 Symmetry turned off for PCM/SM12/SMD calculation
 Core orbitals will be frozen

 Checking the input file for inconsistencies... 	...done.

--------------------------------------------------------------
User input:
--------------------------------------------------------------
$molecule
0 1
C	-0.594240	-3.866725	0.497696
C	0.469057	-3.703963	-0.393981
C	0.817136	-2.357056	-0.685571
H	0.997777	-4.561092	-0.837848
C	-0.000000	-1.440664	-0.000000
S	-1.183137	-2.286957	0.992782
C	1.932056	-1.978743	-1.620802
H	2.426166	-2.878678	-2.035506
H	2.711806	-1.376015	-1.109943
H	1.564678	-1.375728	-2.477350
H	-1.054110	-4.783437	0.883271
C	0.000000	0.000000	0.000000
C	0.555137	0.661535	1.099446
C	1.444710	1.721658	0.776721
H	0.318072	0.379023	2.136088
C	1.586563	1.890676	-0.612546
S	0.605781	0.721904	-1.486809
C	2.143920	2.554907	1.814609
H	1.870325	2.228851	2.836676
H	1.880882	3.629742	1.726239
H	3.248098	2.482476	1.726228
H	2.196723	2.617806	-1.161575
$end

$rem
JOBTYPE		SP
EXCHANGE	HF
CORRELATION	pRIMP2
BASIS		cc-pvtz
METHOD		rimp2
AUX_BASIS	rimp2-cc-pvtz
SOLVENT_METHOD	PCM
PURECART	11111
SYMMETRY	false
MEM_TOTAL	110000
SCF_CONVERGENCE = 6
THRESH=10
$end



$solvent
dielectric 4.90
$end
--------------------------------------------------------------
 ----------------------------------------------------------------
             Standard Nuclear Orientation (Angstroms)
    I     Atom           X                Y                Z
 ----------------------------------------------------------------
    1      C      -0.5942400000    -3.8667250000     0.4976960000
    2      C       0.4690570000    -3.7039630000    -0.3939810000
    3      C       0.8171360000    -2.3570560000    -0.6855710000
    4      H       0.9977770000    -4.5610920000    -0.8378480000
    5      C       0.0000000000    -1.4406640000     0.0000000000
    6      S      -1.1831370000    -2.2869570000     0.9927820000
    7      C       1.9320560000    -1.9787430000    -1.6208020000
    8      H       2.4261660000    -2.8786780000    -2.0355060000
    9      H       2.7118060000    -1.3760150000    -1.1099430000
   10      H       1.5646780000    -1.3757280000    -2.4773500000
   11      H      -1.0541100000    -4.7834370000     0.8832710000
   12      C       0.0000000000     0.0000000000     0.0000000000
   13      C       0.5551370000     0.6615350000     1.0994460000
   14      C       1.4447100000     1.7216580000     0.7767210000
   15      H       0.3180720000     0.3790230000     2.1360880000
   16      C       1.5865630000     1.8906760000    -0.6125460000
   17      S       0.6057810000     0.7219040000    -1.4868090000
   18      C       2.1439200000     2.5549070000     1.8146090000
   19      H       1.8703250000     2.2288510000     2.8366760000
   20      H       1.8808820000     3.6297420000     1.7262390000
   21      H       3.2480980000     2.4824760000     1.7262280000
   22      H       2.1967230000     2.6178060000    -1.1615750000
 ----------------------------------------------------------------
 Nuclear Repulsion Energy =         848.64607326 hartrees
 There are       51 alpha and       51 beta electrons

 Q-Chem warning in module forms1/BasisType.C, line 2236:

 You are not using the predefined 5D/6D in this basis set.

 Requested basis set is cc-pVTZ
 There are 184 shells and 508 basis functions

 Total QAlloc Memory Limit 110000 MB
 Mega-Array Size       188 MB
 MEM_STATIC part       192 MB
 Discretize the solute cavity surface with Lebedev spheres
	Using 110 Lebedev grid points for each H atom
	Using 194 Lebedev grid points for other atoms
	Atomic van der Waals radii will be scaled by 1.20
 Remove points where switching function is < 1.0e-08
 Keep 1508 surface tesserae and discard 1920 interior tesserae
 Molecular Surface Area = 229.557 Angst**2
 Requested basis set is rimp2-cc-pVTZ
 There are 394 shells and 1354 basis functions
 A cutoff of  1.0D-10 yielded  12659 shell pairs
 There are     94059 function pairs (    121435 Cartesian)
 Smallest overlap matrix eigenvalue = 6.49E-05

 Scale SEOQF with 1.000000e-01/1.000000e-01/1.000000e-01

 Standard Electronic Orientation quadrupole field applied
 Nucleus-field energy     =     0.0000000266 hartrees
 Guess from superposition of atomic densities
 Warning:  Energy on first SCF cycle will be non-variational
 SAD guess density has 102.000000 electrons

 -----------------------------------------------------------------------
  General SCF calculation program by
  Eric Jon Sundstrom, Paul Horn, Yuezhi Mao, Dmitri Zuev, Alec White,
  David Stuck, Shaama M.S., Shane Yost, Joonho Lee, David Small,
  Daniel Levine, Susi Lehtola, Hugh Burton, Evgeny Epifanovsky,
  Bang C. Huynh
 -----------------------------------------------------------------------
 Hartree-Fock
 A restricted SCF calculation will be
 performed using DIIS
 SCF converges when DIIS error is below 1.0e-06
 ---------------------------------------
  Cycle       Energy         DIIS error
 ---------------------------------------
    1   -1184.2906622766      2.39e-02  
    2   -1179.5083251019      1.59e-03  
    3   -1179.6291300813      5.86e-04  
    4   -1179.6423289235      3.19e-04  
    5   -1179.6466710216      6.58e-05  
    6   -1179.6469600213      3.09e-05  
    7   -1179.6470534786      1.39e-05  
    8   -1179.6470859315      5.53e-06  
    9   -1179.6470921297      2.05e-06  
   10   -1179.6470927698      7.29e-07  Convergence criterion met
 ---------------------------------------
 SCF time:   CPU 514.48s  wall 517.00s 

************** Final PCM Free Energy Summary **************
 G_electrostatic  =      -0.00790774 hartree =      -4.96218263 kcal/mol
 G_cavitation     =       0.00000000 hartree =       0.00000000 kcal/mol
 G_dispersion     =       0.00000000 hartree =       0.00000000 kcal/mol
 G_repulsion      =       0.00000000 hartree =       0.00000000 kcal/mol
 --------------------------------------------------
 Non-electrostatic Free Energy =       0.00000000 hartree =       0.00000000 kcal/mol
 Total                         =      -0.00790774 hartree =      -4.96218263 kcal/mol
 --------------------------------------------------
 SCF Energy (H0 + V/2)                       =   -1179.64709277 
 Solute Internal Energy (H0)                 =   -1179.63918503 
 Total Free Energy (H0 + V/2 + non-elec)     =   -1179.64709277 hartree
                                             = -740239.72315066 kcal/mol
***********************************************************

 SCF   energy in the final basis set =    -1179.6470927698
 Total energy in the final basis set =    -1179.6470927698


 --------------------------------------------------------------
  Generalized many-body perturbation theory program
  by Joonho Lee, Fazle Rob, Xintian Feng, Evgeny Epifanovsky

 No regularization used 
 (reg. param. = 0.0000e+00)
  (P|Q)^-1/2 Time:  CPU 1.71 s  wall 1.72 s

 In RI-MP2 calculation: 
 # of frozen core orbitals: 20

 Components of the RIMP2 correlation energy:
        aaaa    correlation energy =        -0.2547259370 a.u.
        abab    correlation energy =        -1.4805361160 a.u.
        bbbb    correlation energy =        -0.2547259370 a.u.
        non-Brillouin singles      =        -0.0000000000 a.u.
        total same-spin energy     =        -0.5094518739 a.u.
        total opposite-spin energy =        -1.4805361160 a.u.

 Total  RIMP2   correlation energy =        -1.9899879899 a.u.
        RIMP2         total energy =     -1181.6370807597 a.u.

 RI-MP2 Energy Time:  CPU 70.21 s  wall 70.49 s
 
 --------------------------------------------------------------
 
                    Orbital Energies (a.u.)
 --------------------------------------------------------------
 
 Alpha MOs
 -- Occupied --
-91.9827 -91.9787 -11.2766 -11.2761 -11.2691 -11.2642 -11.2532 -11.2521
-11.2442 -11.2396 -11.2302 -11.2228  -8.9832  -8.9787  -6.6639  -6.6633
 -6.6629  -6.6597  -6.6591  -6.6585  -1.1836  -1.1474  -1.0435  -1.0193
 -0.9987  -0.9527  -0.9111  -0.8929  -0.7962  -0.7592  -0.7280  -0.6952
 -0.6575  -0.6174  -0.5830  -0.5804  -0.5748  -0.5687  -0.5500  -0.5342
 -0.5264  -0.5207  -0.5118  -0.4930  -0.4723  -0.4626  -0.4516  -0.3576
 -0.3387  -0.3318  -0.2773
 -- Virtual --
  0.0666   0.1194   0.1404   0.1567   0.1620   0.1703   0.1749   0.1835
  0.1945   0.1963   0.2041   0.2116   0.2295   0.2405   0.2423   0.2453
  0.2594   0.2723   0.2945   0.3081   0.3377   0.3432   0.3553   0.3603
  0.3650   0.3837   0.3963   0.4060   0.4146   0.4173   0.4364   0.4426
  0.4453   0.4485   0.4648   0.4682   0.4741   0.4895   0.4905   0.5110
  0.5189   0.5240   0.5315   0.5358   0.5426   0.5491   0.5566   0.5691
  0.5805   0.5847   0.5883   0.6013   0.6060   0.6103   0.6163   0.6232
  0.6294   0.6345   0.6368   0.6454   0.6520   0.6561   0.6640   0.6720
  0.6798   0.6873   0.6892   0.7032   0.7147   0.7252   0.7423   0.7620
  0.7689   0.7809   0.7895   0.8050   0.8114   0.8253   0.8333   0.8433
  0.8529   0.8717   0.8730   0.8878   0.8961   0.9165   0.9355   0.9415
  0.9539   0.9582   0.9814   0.9899   1.0140   1.0202   1.0326   1.0387
  1.0441   1.0535   1.0633   1.0660   1.0795   1.0828   1.1041   1.1084
  1.1111   1.1293   1.1456   1.1523   1.1688   1.1768   1.1843   1.1961
  1.2128   1.2170   1.2268   1.2302   1.2436   1.2475   1.2577   1.2729
  1.2796   1.2912   1.3034   1.3146   1.3331   1.3379   1.3616   1.3742
  1.3784   1.3820   1.4028   1.4218   1.4265   1.4403   1.4480   1.4734
  1.4761   1.4890   1.5050   1.5055   1.5111   1.5266   1.5345   1.5472
  1.5546   1.5612   1.5708   1.5735   1.5862   1.5919   1.6160   1.6283
  1.6669   1.6688   1.6716   1.6877   1.6978   1.7074   1.7109   1.7273
  1.7492   1.7577   1.7736   1.7943   1.8051   1.8168   1.8286   1.8612
  1.8664   1.8979   1.9095   1.9483   1.9648   1.9812   1.9850   1.9918
  2.0186   2.0521   2.0627   2.1026   2.1147   2.1181   2.1370   2.1622
  2.1812   2.1887   2.2063   2.2327   2.2599   2.2633   2.2705   2.2765
  2.3043   2.3297   2.3327   2.3673   2.3925   2.4223   2.4427   2.4526
  2.4726   2.5027   2.5115   2.5309   2.5429   2.5686   2.5828   2.6065
  2.6390   2.6526   2.6606   2.6628   2.6869   2.6962   2.7112   2.7338
  2.7371   2.7540   2.7555   2.7644   2.7811   2.7936   2.8114   2.8178
  2.8210   2.8371   2.8447   2.8741   2.8921   2.9034   2.9136   2.9378
  2.9609   2.9746   2.9842   3.0030   3.0095   3.0122   3.0280   3.0358
  3.0561   3.0806   3.0915   3.1117   3.1154   3.1226   3.1368   3.1467
  3.1519   3.1613   3.1690   3.1815   3.1981   3.2004   3.2118   3.2276
  3.2422   3.2442   3.2619   3.2752   3.2853   3.2892   3.2964   3.3082
  3.3152   3.3321   3.3388   3.3446   3.3541   3.3644   3.3762   3.3799
  3.3936   3.3945   3.4092   3.4140   3.4177   3.4323   3.4460   3.4548
  3.4629   3.4675   3.4752   3.4848   3.4856   3.4948   3.5089   3.5237
  3.5293   3.5364   3.5427   3.5512   3.5635   3.5738   3.5802   3.5978
  3.6133   3.6252   3.6305   3.6355   3.6441   3.6523   3.6633   3.6816
  3.6855   3.6979   3.7087   3.7147   3.7250   3.7365   3.7485   3.7550
  3.7782   3.7801   3.7994   3.8044   3.8194   3.8330   3.8374   3.8514
  3.8706   3.8768   3.8942   3.9122   3.9298   3.9356   3.9505   3.9629
  3.9725   3.9844   4.0017   4.0201   4.0241   4.0349   4.0465   4.0488
  4.0642   4.0748   4.0987   4.1026   4.1146   4.1214   4.1427   4.1583
  4.1651   4.1879   4.1939   4.1994   4.2053   4.2186   4.2276   4.2364
  4.2673   4.2720   4.2805   4.2982   4.3071   4.3183   4.3259   4.3327
  4.3430   4.3648   4.3694   4.3880   4.4004   4.4053   4.4253   4.4287
  4.4491   4.4584   4.4718   4.4926   4.4975   4.5068   4.5258   4.5692
  4.5888   4.5977   4.6207   4.6293   4.6375   4.6442   4.6654   4.6763
  4.6906   4.7101   4.7394   4.7527   4.7648   4.7901   4.8138   4.8516
  4.8845   4.9068   4.9099   4.9271   4.9460   4.9754   5.0056   5.0587
  5.0828   5.0946   5.1106   5.1420   5.1541   5.1861   5.1970   5.2129
  5.2658   5.2779   5.2961   5.3060   5.3208   5.3657   5.3978   5.4062
  5.4211   5.4451   5.4625   5.4876   5.5154   5.5295   5.5477   5.5666
  5.5716   5.6011   5.6206   5.6255   5.6382   5.6662   5.6963   5.7214
  5.7812   5.8152   5.9349   5.9738   6.0176   6.1032   6.1817   6.2259
  6.2399   6.2585   6.2811   6.2996   6.3470   6.3691   6.5211   8.6780
  9.7308  11.6085  12.2019  12.8552  13.1668  13.7634  13.9186  14.2171
 14.3747
 --------------------------------------------------------------
 
          Ground-State Mulliken Net Atomic Charges

     Atom                 Charge (a.u.)
  ----------------------------------------
      1 C                    -0.222612
      2 C                    -0.254567
      3 C                     0.037846
      4 H                     0.183599
      5 C                    -0.010585
      6 S                     0.002859
      7 C                    -0.292046
      8 H                     0.105765
      9 H                     0.115283
     10 H                     0.114563
     11 H                     0.202007
     12 C                    -0.072003
     13 C                    -0.171049
     14 C                     0.001419
     15 H                     0.189372
     16 C                    -0.206727
     17 S                     0.027577
     18 C                    -0.267717
     19 H                     0.103153
     20 H                     0.107764
     21 H                     0.106600
     22 H                     0.199498
  ----------------------------------------
  Sum of atomic charges =     0.000000

 -----------------------------------------------------------------
                    Cartesian Multipole Moments
 -----------------------------------------------------------------
    Charge (ESU x 10^10)
                -0.0000
    Dipole Moment (Debye)
         X       2.8708      Y       0.9271      Z       0.4251
       Tot       3.0466
    Quadrupole Moments (Debye-Ang)
        XX     -84.3465     XY       4.2300     YY     -75.7959
        XZ      -2.6020     YZ       2.1431     ZZ     -83.4929
    Octopole Moments (Debye-Ang^2)
       XXX    -131.6930    XXY      67.8581    XYY     -33.8372
       YYY     136.7712    XXZ      -2.1842    XYZ       9.2664
       YYZ       0.0427    XZZ     -40.1456    YZZ      65.6131
       ZZZ       6.3924
    Hexadecapole Moments (Debye-Ang^3)
      XXXX    -859.1265   XXXY    -225.8755   XXYY    -536.4064
      XYYY    -187.0010   YYYY   -2301.0161   XXXZ      71.3859
      XXYZ     -28.5642   XYYZ     -28.7750   YYYZ     -98.2998
      XXZZ    -264.5461   XYZZ     -69.9879   YYZZ    -556.5263
      XZZZ      74.8556   YZZZ     -69.1335   ZZZZ    -758.0128
 -----------------------------------------------------------------
 Total job time:  588.74s(wall), 585.54s(cpu) 
 Fri Jul  8 22:58:03 2022

        *************************************************************
        *                                                           *
        *  Thank you very much for using Q-Chem.  Have a nice day.  *
        *                                                           *
        *************************************************************


remove work dirs ./qchem1512720.0 -- ./qchem1512720.-1
rm -rf ./qchem1512720
