You are running Q-Chem version: 5.4.0

#
# job setting
#
local host:  exp-1-55
current dir: /expanse/lustre/scratch/theleonzhang/temp_project/Interring_Bonds
input file:  Methylthiophene_Phi_5_Theta_290_Methylthiophene.qcin
output file: 
nprocs     : 0
nthreads   : 1
#
# qchem installation setting
#
QC:          /cm/shared/apps/spack/cpu/opt/spack/linux-centos8-zen2/gcc-10.2.0/qchem-5.4-akfmr7b3t57bfs6qan3padb2wnb2i7cl
QCAUX:       /cm/shared/apps/spack/cpu/opt/spack/linux-centos8-zen2/gcc-10.2.0/qchem-5.4-akfmr7b3t57bfs6qan3padb2wnb2i7cl/qcaux
QCPROG:      /cm/shared/apps/spack/cpu/opt/spack/linux-centos8-zen2/gcc-10.2.0/qchem-5.4-akfmr7b3t57bfs6qan3padb2wnb2i7cl/exe/qcprog.exe_s
QCPROG_S:    /cm/shared/apps/spack/cpu/opt/spack/linux-centos8-zen2/gcc-10.2.0/qchem-5.4-akfmr7b3t57bfs6qan3padb2wnb2i7cl/exe/qcprog.exe_s
PARALLEL:    -DSERIAL
QCMPI:       mpich
#
# qchem directory setting
#
qcrun:       qchem961944
QCSCRATCH:   .
QCLOCALSCR:  
QCTMPDIR:    .
QCFILEPREF:  ./qchem961944
QCSAVEDIR:   
workdirs:    ./qchem961944
workdir0:    ./qchem961944
partmpdirs =  
#
# parallel setting
#
QCRSH:           ssh
QCMPI:           mpich
QCMPIRUN:        /cm/shared/apps/spack/cpu/opt/spack/linux-centos8-zen2/gcc-10.2.0/qchem-5.4-akfmr7b3t57bfs6qan3padb2wnb2i7cl/bin/mpi/mpirun_qchem
QCMACHINEFILE:   ./qchem961944/hostfile

#
# env setting
#
exported envs:   QC QCAUX QCSCRATCH QCRUNNAME QCFILEPREF QCPROG QCPROG_S GUIFILE

Running Job 1 of 1 Methylthiophene_Phi_5_Theta_290_Methylthiophene.qcin
qchem Methylthiophene_Phi_5_Theta_290_Methylthiophene.qcin_961944.0 ./qchem961944/ 0
/cm/shared/apps/spack/cpu/opt/spack/linux-centos8-zen2/gcc-10.2.0/qchem-5.4-akfmr7b3t57bfs6qan3padb2wnb2i7cl/exe/qcprog.exe_s Methylthiophene_Phi_5_Theta_290_Methylthiophene.qcin_961944.0 ./qchem961944/
                  Welcome to Q-Chem
     A Quantum Leap Into The Future Of Chemistry


 Q-Chem 5.4, Q-Chem, Inc., Pleasanton, CA (2021)

 License issued to: University of California, San Diego (site)

 E. Epifanovsky,  A. T. B. Gilbert,  Xintian Feng,  Joonho Lee,  Yuezhi Mao,  
 N. Mardirossian,  P. Pokhilko,  A. White,  M. Wormit,  M. P. Coons,  
 A. L. Dempwolff,  Zhengting Gan,  D. Hait,  P. R. Horn,  L. D. Jacobson,  
 I. Kaliman,  J. Kussmann,  A. W. Lange,  Ka Un Lao,  D. S. Levine,  Jie Liu,  
 S. C. McKenzie,  A. F. Morrison,  K. Nanda,  F. Plasser,  D. R. Rehn,  
 M. L. Vidal,  Zhi-Qiang You,  Ying Zhu,  B. Alam,  B. Albrecht,  
 A. Aldossary,  E. Alguire,  J. H. Andersen,  D. Barton,  K. Begam,  A. Behn,  
 Y. A. Bernard,  E. J. Berquist,  H. Burton,  A. Carreras,  K. Carter-Fenk,  
 R. Chakraborty,  A. D. Chien,  K. D. Closser,  V. Cofer-Shabica,  
 S. Dasgupta,  Jia Deng,  M. de Wergifosse,  M. Diedenhofen,  Hainam Do,  
 S. Ehlert,  Po-Tung Fang,  S. Fatehi,  Qingguo Feng,  J. Gayvert,  
 Qinghui Ge,  G. Gidofalvi,  M. Goldey,  J. Gomes,  C. Gonzalez-Espinoza,  
 S. Gulania,  A. Gunina,  M. W. D. Hanson-Heine,  P. H. P. Harbach,  
 A. W. Hauser,  M. F. Herbst,  M. Hernandez Vera,  M. Hodecker,  
 Z. C. Holden,  S. Houck,  Xunkun Huang,  Kerwin Hui,  B. C. Huynh,  
 M. Ivanov,  Hyunjun Ji,  Hanjie Jiang,  B. Kaduk,  S. Kaehler,  
 K. Khistyaev,  Jaehoon Kim,  P. Klunzinger,  Z. Koczor-Benda,  
 Joong Hoon Koh,  D. Kosenkov,  L. Koulias,  T. Kowalczyk,  C. M. Krauter,  
 K. Kue,  A. Kunitsa,  T. Kus,  A. Landau,  K. V. Lawler,  D. Lefrancois,  
 S. Lehtola,  Rain Li,  Yi-Pei Li,  Jiashu Liang,  M. Liebenthal,  
 Hung-Hsuan Lin,  You-Sheng Lin,  Fenglai Liu,  Kuan-Yu Liu,  
 M. Loipersberger,  A. Luenser,  A. Manjanath,  P. Manohar,  E. Mansoor,  
 S. F. Manzer,  Shan-Ping Mao,  A. V. Marenich,  T. Markovich,  S. Mason,  
 S. A. Maurer,  P. F. McLaughlin,  M. F. S. J. Menger,  J.-M. Mewes,  
 S. A. Mewes,  P. Morgante,  J. W. Mullinax,  T. S. Nguyen-Beck,  
 K. J. Oosterbaan,  G. Paran,  Alexander C. Paul,  Suranjan K. Paul,  
 F. Pavosevic,  Zheng Pei,  S. Prager,  E. I. Proynov,  E. Ramos,  B. Rana,  
 A. E. Rask,  A. Rettig,  R. M. Richard,  F. Rob,  E. Rossomme,  T. Scheele,  
 M. Scheurer,  M. Schneider,  N. Sergueev,  S. M. Sharada,  W. Skomorowski,  
 D. W. Small,  C. J. Stein,  Yu-Chuan Su,  E. J. Sundstrom,  Zhen Tao,  
 J. Thirman,  T. Tsuchimochi,  N. M. Tubman,  S. P. Veccham,  O. Vydrov,  
 J. Wenzel,  J. Witte,  A. Yamada,  Kun Yao,  S. Yeganeh,  S. R. Yost,  
 A. Zech,  Igor Ying Zhang,  Xing Zhang,  Yu Zhang,  D. Zuev,  
 A. Aspuru-Guzik,  A. T. Bell,  N. A. Besley,  K. B. Bravaya,  B. R. Brooks,  
 D. Casanova,  Jeng-Da Chai,  S. Coriani,  C. J. Cramer,  
 A. E. DePrince, III,  R. A. DiStasio Jr.,  A. Dreuw,  B. D. Dunietz,  
 T. R. Furlani,  W. A. Goddard III,  S. Grimme,  S. Hammes-Schiffer,  
 T. Head-Gordon,  W. J. Hehre,  Chao-Ping Hsu,  T.-C. Jagau,  Yousung Jung,  
 A. Klamt,  Jing Kong,  D. S. Lambrecht,  WanZhen Liang,  N. J. Mayhall,  
 C. W. McCurdy,  J. B. Neaton,  C. Ochsenfeld,  J. A. Parkhill,  R. Peverati,  
 V. A. Rassolov,  Yihan Shao,  L. V. Slipchenko,  T. Stauch,  R. P. Steele,  
 J. E. Subotnik,  A. J. W. Thom,  A. Tkatchenko,  D. G. Truhlar,  
 T. Van Voorhis,  T. A. Wesolowski,  K. B. Whaley,  H. L. Woodcock III,  
 P. M. Zimmerman,  S. Faraji,  P. M. W. Gill,  M. Head-Gordon,  
 J. M. Herbert,  A. I. Krylov

 Contributors to earlier versions of Q-Chem not listed above: 
 R. D. Adamson,  B. Austin,  R. Baer,  J. Baker,  G. J. O. Beran,  
 K. Brandhorst,  S. T. Brown,  E. F. C. Byrd,  A. K. Chakraborty,  
 G. K. L. Chan,  Chun-Min Chang,  Yunqing Chen,  C.-L. Cheng,  
 Siu Hung Chien,  D. M. Chipman,  D. L. Crittenden,  H. Dachsel,  
 R. J. Doerksen,  A. D. Dutoi,  R. G. Edgar,  J. Fosso-Tande,  
 L. Fusti-Molnar,  D. Ghosh,  A. Ghysels,  A. Golubeva-Zadorozhnaya,  
 J. Gonthier,  M. S. Gordon,  S. R. Gwaltney,  G. Hawkins,  J. E. Herr,  
 A. Heyden,  S. Hirata,  E. G. Hohenstein,  G. Kedziora,  F. J. Keil,  
 C. Kelley,  Jihan Kim,  R. A. King,  R. Z. Khaliullin,  P. P. Korambath,  
 W. Kurlancheek,  A. Laurent,  A. M. Lee,  M. S. Lee,  S. V. Levchenko,  
 Ching Yeh Lin,  D. Liotard,  E. Livshits,  R. C. Lochan,  I. Lotan,  
 L. A. Martinez-Martinez,  P. E. Maslen,  N. Nair,  D. P. O'Neill,  
 D. Neuhauser,  E. Neuscamman,  C. M. Oana,  R. Olivares-Amaya,  R. Olson,  
 T. M. Perrine,  B. Peters,  P. A. Pieniazek,  A. Prociuk,  Y. M. Rhee,  
 J. Ritchie,  M. A. Rohrdanz,  E. Rosta,  N. J. Russ,  H. F. Schaefer III,  
 M. W. Schmidt,  N. E. Schultz,  S. Sharma,  N. Shenvi,  C. D. Sherrill,  
 A. C. Simmonett,  A. Sodt,  T. Stein,  D. Stuck,  K. S. Thanthiriwatte,  
 V. Vanovschi,  L. Vogt,  Tao Wang,  A. Warshel,  M. A. Watson,  
 C. F. Williams,  Q. Wu,  X. Xu,  Jun Yang,  W. Zhang,  Yan Zhao

 Please cite Q-Chem as follows:
 Y. Shao et al., Mol. Phys. 113, 184-215 (2015)
 DOI: 10.1080/00268976.2014.952696

 Q-Chem 5.4.0 for Intel X86 EM64T Linux

 Parts of Q-Chem use Armadillo 9.800.1 (Horizon Scraper).
 http://arma.sourceforge.net/

 Q-Chem begins on Sat Jul  9 16:20:20 2022  

 Host: 
0

     Scratch files written to ./qchem961944//
 May1621 |scratch|qcdevops|jenkins|workspace|build_RNUM    
 Processing $rem in /cm/shared/apps/spack/cpu/opt/spack/linux-centos8-zen2/gcc-10.2.0/qchem-5.4-akfmr7b3t57bfs6qan3padb2wnb2i7cl/config/preferences:
 Processing $rem in /home/theleonzhang/.qchemrc:
 Symmetry turned off for PCM/SM12/SMD calculation
 Core orbitals will be frozen

 Checking the input file for inconsistencies... 	...done.

--------------------------------------------------------------
User input:
--------------------------------------------------------------
$molecule
0 1
C	0.728138	-3.866725	0.265779
C	-0.575726	-3.703963	-0.209225
C	-1.002290	-2.357056	-0.364875
H	-1.224486	-4.561092	-0.445176
C	-0.000000	-1.440664	-0.000000
S	1.451343	-2.286957	0.528236
C	-2.369683	-1.978743	-0.862808
H	-2.975883	-2.878678	-1.083368
H	-2.317142	-1.376015	-1.793522
H	-2.927787	-1.375728	-0.116375
H	1.291990	-4.783437	0.471251
C	0.000000	0.000000	0.000000
C	0.075300	0.860311	1.099446
C	0.195935	2.238951	0.776721
H	0.043151	0.492916	2.136088
C	0.215188	2.458766	-0.612546
S	0.082160	0.938811	-1.486809
C	0.290762	3.322559	1.814609
H	0.253664	2.898542	2.836676
H	-0.541206	4.052140	1.726239
H	1.236797	3.896558	1.726228
H	0.297938	3.404370	-1.161575
$end

$rem
JOBTYPE		SP
EXCHANGE	HF
CORRELATION	pRIMP2
BASIS		cc-pvtz
METHOD		rimp2
AUX_BASIS	rimp2-cc-pvtz
SOLVENT_METHOD	PCM
PURECART	11111
SYMMETRY	false
MEM_TOTAL	110000
SCF_CONVERGENCE = 6
THRESH=10
$end



$solvent
dielectric 4.90
$end
--------------------------------------------------------------
 ----------------------------------------------------------------
             Standard Nuclear Orientation (Angstroms)
    I     Atom           X                Y                Z
 ----------------------------------------------------------------
    1      C       0.7281380000    -3.8667250000     0.2657790000
    2      C      -0.5757260000    -3.7039630000    -0.2092250000
    3      C      -1.0022900000    -2.3570560000    -0.3648750000
    4      H      -1.2244860000    -4.5610920000    -0.4451760000
    5      C       0.0000000000    -1.4406640000     0.0000000000
    6      S       1.4513430000    -2.2869570000     0.5282360000
    7      C      -2.3696830000    -1.9787430000    -0.8628080000
    8      H      -2.9758830000    -2.8786780000    -1.0833680000
    9      H      -2.3171420000    -1.3760150000    -1.7935220000
   10      H      -2.9277870000    -1.3757280000    -0.1163750000
   11      H       1.2919900000    -4.7834370000     0.4712510000
   12      C       0.0000000000     0.0000000000     0.0000000000
   13      C       0.0753000000     0.8603110000     1.0994460000
   14      C       0.1959350000     2.2389510000     0.7767210000
   15      H       0.0431510000     0.4929160000     2.1360880000
   16      C       0.2151880000     2.4587660000    -0.6125460000
   17      S       0.0821600000     0.9388110000    -1.4868090000
   18      C       0.2907620000     3.3225590000     1.8146090000
   19      H       0.2536640000     2.8985420000     2.8366760000
   20      H      -0.5412060000     4.0521400000     1.7262390000
   21      H       1.2367970000     3.8965580000     1.7262280000
   22      H       0.2979380000     3.4043700000    -1.1615750000
 ----------------------------------------------------------------
 Nuclear Repulsion Energy =         833.05707969 hartrees
 There are       51 alpha and       51 beta electrons

 Q-Chem warning in module forms1/BasisType.C, line 2236:

 You are not using the predefined 5D/6D in this basis set.

 Requested basis set is cc-pVTZ
 There are 184 shells and 508 basis functions

 Total QAlloc Memory Limit 110000 MB
 Mega-Array Size       188 MB
 MEM_STATIC part       192 MB
 Discretize the solute cavity surface with Lebedev spheres
	Using 110 Lebedev grid points for each H atom
	Using 194 Lebedev grid points for other atoms
	Atomic van der Waals radii will be scaled by 1.20
 Remove points where switching function is < 1.0e-08
 Keep 1572 surface tesserae and discard 1856 interior tesserae
 Molecular Surface Area = 237.284 Angst**2
 Requested basis set is rimp2-cc-pVTZ
 There are 394 shells and 1354 basis functions
 A cutoff of  1.0D-10 yielded  12143 shell pairs
 There are     90253 function pairs (    116601 Cartesian)
 Smallest overlap matrix eigenvalue = 6.92E-05

 Scale SEOQF with 1.000000e-01/1.000000e-01/1.000000e-01

 Standard Electronic Orientation quadrupole field applied
 Nucleus-field energy     =     0.0000000345 hartrees
 Guess from superposition of atomic densities
 Warning:  Energy on first SCF cycle will be non-variational
 SAD guess density has 102.000000 electrons

 -----------------------------------------------------------------------
  General SCF calculation program by
  Eric Jon Sundstrom, Paul Horn, Yuezhi Mao, Dmitri Zuev, Alec White,
  David Stuck, Shaama M.S., Shane Yost, Joonho Lee, David Small,
  Daniel Levine, Susi Lehtola, Hugh Burton, Evgeny Epifanovsky,
  Bang C. Huynh
 -----------------------------------------------------------------------
 Hartree-Fock
 A restricted SCF calculation will be
 performed using DIIS
 SCF converges when DIIS error is below 1.0e-06
 ---------------------------------------
  Cycle       Energy         DIIS error
 ---------------------------------------
    1   -1184.2008079405      2.38e-02  
    2   -1179.5481191982      1.59e-03  
    3   -1179.6674161116      6.10e-04  
    4   -1179.6807514219      3.40e-04  
    5   -1179.6855503863      6.74e-05  
    6   -1179.6858346798      3.08e-05  
    7   -1179.6859232894      1.27e-05  
    8   -1179.6859515573      5.26e-06  
    9   -1179.6859564272      1.63e-06  
   10   -1179.6859568413      5.05e-07  Convergence criterion met
 ---------------------------------------
 SCF time:   CPU 478.40s  wall 480.00s 

************** Final PCM Free Energy Summary **************
 G_electrostatic  =      -0.00768486 hartree =      -4.82232106 kcal/mol
 G_cavitation     =       0.00000000 hartree =       0.00000000 kcal/mol
 G_dispersion     =       0.00000000 hartree =       0.00000000 kcal/mol
 G_repulsion      =       0.00000000 hartree =       0.00000000 kcal/mol
 --------------------------------------------------
 Non-electrostatic Free Energy =       0.00000000 hartree =       0.00000000 kcal/mol
 Total                         =      -0.00768486 hartree =      -4.82232106 kcal/mol
 --------------------------------------------------
 SCF Energy (H0 + V/2)                       =   -1179.68595684 
 Solute Internal Energy (H0)                 =   -1179.67827198 
 Total Free Energy (H0 + V/2 + non-elec)     =   -1179.68595684 hartree
                                             = -740264.11072361 kcal/mol
***********************************************************

 SCF   energy in the final basis set =    -1179.6859568413
 Total energy in the final basis set =    -1179.6859568413


 --------------------------------------------------------------
  Generalized many-body perturbation theory program
  by Joonho Lee, Fazle Rob, Xintian Feng, Evgeny Epifanovsky

 No regularization used 
 (reg. param. = 0.0000e+00)
  (P|Q)^-1/2 Time:  CPU 1.69 s  wall 1.69 s

 In RI-MP2 calculation: 
 # of frozen core orbitals: 20

 Components of the RIMP2 correlation energy:
        aaaa    correlation energy =        -0.2522354612 a.u.
        abab    correlation energy =        -1.4733961529 a.u.
        bbbb    correlation energy =        -0.2522354612 a.u.
        non-Brillouin singles      =        -0.0000000000 a.u.
        total same-spin energy     =        -0.5044709224 a.u.
        total opposite-spin energy =        -1.4733961529 a.u.

 Total  RIMP2   correlation energy =        -1.9778670752 a.u.
        RIMP2         total energy =     -1181.6638239165 a.u.

 RI-MP2 Energy Time:  CPU 66.73 s  wall 66.99 s
 
 --------------------------------------------------------------
 
                    Orbital Energies (a.u.)
 --------------------------------------------------------------
 
 Alpha MOs
 -- Occupied --
-91.9853 -91.9851 -11.2792 -11.2731 -11.2724 -11.2647 -11.2537 -11.2509
-11.2423 -11.2420 -11.2293 -11.2289  -8.9847  -8.9846  -6.6656  -6.6655
 -6.6651  -6.6650  -6.6645  -6.6644  -1.1787  -1.1496  -1.0401  -1.0231
 -0.9978  -0.9534  -0.9140  -0.8922  -0.8006  -0.7567  -0.7278  -0.6944
 -0.6625  -0.6163  -0.5826  -0.5787  -0.5724  -0.5694  -0.5520  -0.5326
 -0.5279  -0.5196  -0.5077  -0.4930  -0.4882  -0.4656  -0.4611  -0.3452
 -0.3404  -0.3290  -0.2960
 -- Virtual --
  0.0836   0.1104   0.1434   0.1484   0.1618   0.1728   0.1782   0.1852
  0.1889   0.1956   0.2037   0.2174   0.2311   0.2358   0.2407   0.2506
  0.2524   0.2656   0.2932   0.3033   0.3388   0.3464   0.3560   0.3626
  0.3750   0.3835   0.3958   0.4004   0.4063   0.4179   0.4210   0.4432
  0.4527   0.4581   0.4633   0.4715   0.4741   0.4802   0.4862   0.4950
  0.5136   0.5205   0.5317   0.5389   0.5462   0.5477   0.5561   0.5613
  0.5734   0.5778   0.5838   0.5950   0.6054   0.6096   0.6167   0.6209
  0.6238   0.6322   0.6401   0.6429   0.6451   0.6493   0.6536   0.6667
  0.6764   0.6811   0.6948   0.7100   0.7149   0.7229   0.7391   0.7544
  0.7670   0.7774   0.8018   0.8093   0.8203   0.8251   0.8288   0.8371
  0.8466   0.8557   0.8668   0.8864   0.9005   0.9057   0.9269   0.9401
  0.9558   0.9669   0.9794   0.9952   1.0087   1.0171   1.0251   1.0296
  1.0431   1.0574   1.0647   1.0728   1.0799   1.0877   1.0880   1.0955
  1.1121   1.1203   1.1276   1.1378   1.1600   1.1626   1.1723   1.1829
  1.2079   1.2137   1.2219   1.2343   1.2545   1.2600   1.2639   1.2738
  1.2796   1.2965   1.3038   1.3207   1.3259   1.3334   1.3398   1.3631
  1.3696   1.3823   1.4013   1.4175   1.4236   1.4458   1.4560   1.4616
  1.4764   1.4881   1.5002   1.5049   1.5082   1.5281   1.5315   1.5521
  1.5579   1.5649   1.5723   1.5741   1.5854   1.5935   1.6112   1.6419
  1.6511   1.6581   1.6784   1.6843   1.7009   1.7082   1.7171   1.7238
  1.7559   1.7604   1.7632   1.7764   1.8007   1.8121   1.8247   1.8454
  1.8797   1.8882   1.9075   1.9127   1.9290   1.9474   1.9518   1.9932
  2.0223   2.0433   2.0467   2.1052   2.1262   2.1342   2.1509   2.1704
  2.1855   2.1959   2.2030   2.2220   2.2475   2.2516   2.2680   2.2792
  2.3008   2.3129   2.3397   2.3822   2.4007   2.4138   2.4214   2.4588
  2.4692   2.4834   2.5080   2.5242   2.5401   2.5686   2.5884   2.5954
  2.6133   2.6327   2.6527   2.6577   2.6781   2.6831   2.7117   2.7238
  2.7334   2.7434   2.7541   2.7580   2.7603   2.7685   2.7869   2.7965
  2.8253   2.8457   2.8518   2.8577   2.8835   2.8973   2.9041   2.9081
  2.9340   2.9685   2.9787   2.9875   3.0008   3.0152   3.0302   3.0368
  3.0481   3.0866   3.0908   3.0995   3.1121   3.1171   3.1330   3.1413
  3.1448   3.1504   3.1637   3.1655   3.1877   3.2056   3.2090   3.2286
  3.2377   3.2434   3.2560   3.2815   3.2892   3.2919   3.2999   3.3039
  3.3160   3.3213   3.3310   3.3365   3.3540   3.3579   3.3634   3.3821
  3.3858   3.3949   3.3986   3.4108   3.4216   3.4284   3.4329   3.4491
  3.4532   3.4669   3.4693   3.4866   3.5033   3.5094   3.5167   3.5218
  3.5304   3.5342   3.5369   3.5446   3.5569   3.5601   3.5780   3.5855
  3.6044   3.6082   3.6203   3.6254   3.6341   3.6376   3.6573   3.6681
  3.6792   3.6920   3.7046   3.7133   3.7156   3.7316   3.7447   3.7478
  3.7567   3.7731   3.7923   3.7989   3.8014   3.8117   3.8308   3.8362
  3.8622   3.8651   3.8839   3.8979   3.9047   3.9212   3.9475   3.9663
  3.9688   3.9809   3.9925   4.0058   4.0137   4.0251   4.0278   4.0439
  4.0736   4.0849   4.0909   4.1012   4.1233   4.1387   4.1395   4.1486
  4.1664   4.1724   4.1825   4.1955   4.2046   4.2048   4.2173   4.2366
  4.2599   4.2715   4.2737   4.2821   4.2946   4.3125   4.3246   4.3291
  4.3466   4.3526   4.3736   4.3836   4.3928   4.3983   4.4045   4.4200
  4.4273   4.4391   4.4610   4.4764   4.4847   4.5070   4.5344   4.5719
  4.5776   4.6005   4.6094   4.6179   4.6288   4.6484   4.6669   4.6772
  4.7140   4.7286   4.7376   4.7427   4.7679   4.7906   4.8200   4.8387
  4.8794   4.8831   4.9102   4.9138   4.9472   4.9812   4.9941   5.0556
  5.0852   5.0973   5.1126   5.1520   5.1799   5.1912   5.2022   5.2262
  5.2712   5.2832   5.2895   5.3041   5.3305   5.3716   5.3932   5.4019
  5.4201   5.4499   5.4639   5.4792   5.5171   5.5281   5.5469   5.5604
  5.5752   5.5993   5.6134   5.6246   5.6267   5.6862   5.7035   5.7140
  5.7797   5.8275   5.9012   5.9627   6.0107   6.0577   6.1379   6.2262
  6.2288   6.2471   6.2730   6.3037   6.3260   6.4559   6.5044   8.9340
  9.9088  11.6255  11.9773  12.9250  13.0599  13.7543  13.9493  14.2044
 14.3270
 --------------------------------------------------------------
 
          Ground-State Mulliken Net Atomic Charges

     Atom                 Charge (a.u.)
  ----------------------------------------
      1 C                    -0.212087
      2 C                    -0.248903
      3 C                     0.038639
      4 H                     0.184270
      5 C                    -0.041998
      6 S                     0.025320
      7 C                    -0.282177
      8 H                     0.107564
      9 H                     0.109618
     10 H                     0.110955
     11 H                     0.204515
     12 C                     0.001673
     13 C                    -0.240764
     14 C                     0.022455
     15 H                     0.187665
     16 C                    -0.238540
     17 S                     0.026105
     18 C                    -0.271210
     19 H                     0.102783
     20 H                     0.107863
     21 H                     0.108373
     22 H                     0.197882
  ----------------------------------------
  Sum of atomic charges =     0.000000

 -----------------------------------------------------------------
                    Cartesian Multipole Moments
 -----------------------------------------------------------------
    Charge (ESU x 10^10)
                -0.0000
    Dipole Moment (Debye)
         X      -1.2411      Y       0.2314      Z       0.9172
       Tot       1.5605
    Quadrupole Moments (Debye-Ang)
        XX     -86.8233     XY       2.9410     YY     -68.7854
        XZ       2.2500     YZ       1.7648     ZZ     -85.9407
    Octopole Moments (Debye-Ang^2)
       XXX     -15.4093    XXY      27.3327    XYY       2.6261
       YYY      94.4008    XXZ      -1.2636    XYZ      -8.1826
       YYZ      -1.8023    XZZ      -3.8459    YZZ      56.8200
       ZZZ       5.5942
    Hexadecapole Moments (Debye-Ang^3)
      XXXX    -626.2124   XXXY     -34.8098   XXYY    -560.6692
      XYYY     -64.9368   YYYY   -2578.7758   XXXZ     -93.2817
      XXYZ     -27.8697   XYYZ      -1.3455   YYYZ    -121.2669
      XXZZ    -212.2894   XYZZ      -9.7800   YYZZ    -609.7922
      XZZZ    -100.7393   YZZZ     -94.8824   ZZZZ    -594.6241
 -----------------------------------------------------------------
 Total job time:  550.51s(wall), 545.95s(cpu) 
 Sat Jul  9 16:29:30 2022

        *************************************************************
        *                                                           *
        *  Thank you very much for using Q-Chem.  Have a nice day.  *
        *                                                           *
        *************************************************************


remove work dirs ./qchem961944.0 -- ./qchem961944.-1
rm -rf ./qchem961944
