You are running Q-Chem version: 5.4.0

#
# job setting
#
local host:  exp-1-52
current dir: /expanse/lustre/scratch/theleonzhang/temp_project/Interring_Bonds
input file:  Methylthiophene_Phi_25_Theta_170_Methylthiophene.qcin
output file: 
nprocs     : 0
nthreads   : 1
#
# qchem installation setting
#
QC:          /cm/shared/apps/spack/cpu/opt/spack/linux-centos8-zen2/gcc-10.2.0/qchem-5.4-akfmr7b3t57bfs6qan3padb2wnb2i7cl
QCAUX:       /cm/shared/apps/spack/cpu/opt/spack/linux-centos8-zen2/gcc-10.2.0/qchem-5.4-akfmr7b3t57bfs6qan3padb2wnb2i7cl/qcaux
QCPROG:      /cm/shared/apps/spack/cpu/opt/spack/linux-centos8-zen2/gcc-10.2.0/qchem-5.4-akfmr7b3t57bfs6qan3padb2wnb2i7cl/exe/qcprog.exe_s
QCPROG_S:    /cm/shared/apps/spack/cpu/opt/spack/linux-centos8-zen2/gcc-10.2.0/qchem-5.4-akfmr7b3t57bfs6qan3padb2wnb2i7cl/exe/qcprog.exe_s
PARALLEL:    -DSERIAL
QCMPI:       mpich
#
# qchem directory setting
#
qcrun:       qchem2477430
QCSCRATCH:   .
QCLOCALSCR:  
QCTMPDIR:    .
QCFILEPREF:  ./qchem2477430
QCSAVEDIR:   
workdirs:    ./qchem2477430
workdir0:    ./qchem2477430
partmpdirs =  
#
# parallel setting
#
QCRSH:           ssh
QCMPI:           mpich
QCMPIRUN:        /cm/shared/apps/spack/cpu/opt/spack/linux-centos8-zen2/gcc-10.2.0/qchem-5.4-akfmr7b3t57bfs6qan3padb2wnb2i7cl/bin/mpi/mpirun_qchem
QCMACHINEFILE:   ./qchem2477430/hostfile

#
# env setting
#
exported envs:   QC QCAUX QCSCRATCH QCRUNNAME QCFILEPREF QCPROG QCPROG_S GUIFILE

Running Job 1 of 1 Methylthiophene_Phi_25_Theta_170_Methylthiophene.qcin
qchem Methylthiophene_Phi_25_Theta_170_Methylthiophene.qcin_2477430.0 ./qchem2477430/ 0
/cm/shared/apps/spack/cpu/opt/spack/linux-centos8-zen2/gcc-10.2.0/qchem-5.4-akfmr7b3t57bfs6qan3padb2wnb2i7cl/exe/qcprog.exe_s Methylthiophene_Phi_25_Theta_170_Methylthiophene.qcin_2477430.0 ./qchem2477430/
                  Welcome to Q-Chem
     A Quantum Leap Into The Future Of Chemistry


 Q-Chem 5.4, Q-Chem, Inc., Pleasanton, CA (2021)

 License issued to: University of California, San Diego (site)

 E. Epifanovsky,  A. T. B. Gilbert,  Xintian Feng,  Joonho Lee,  Yuezhi Mao,  
 N. Mardirossian,  P. Pokhilko,  A. White,  M. Wormit,  M. P. Coons,  
 A. L. Dempwolff,  Zhengting Gan,  D. Hait,  P. R. Horn,  L. D. Jacobson,  
 I. Kaliman,  J. Kussmann,  A. W. Lange,  Ka Un Lao,  D. S. Levine,  Jie Liu,  
 S. C. McKenzie,  A. F. Morrison,  K. Nanda,  F. Plasser,  D. R. Rehn,  
 M. L. Vidal,  Zhi-Qiang You,  Ying Zhu,  B. Alam,  B. Albrecht,  
 A. Aldossary,  E. Alguire,  J. H. Andersen,  D. Barton,  K. Begam,  A. Behn,  
 Y. A. Bernard,  E. J. Berquist,  H. Burton,  A. Carreras,  K. Carter-Fenk,  
 R. Chakraborty,  A. D. Chien,  K. D. Closser,  V. Cofer-Shabica,  
 S. Dasgupta,  Jia Deng,  M. de Wergifosse,  M. Diedenhofen,  Hainam Do,  
 S. Ehlert,  Po-Tung Fang,  S. Fatehi,  Qingguo Feng,  J. Gayvert,  
 Qinghui Ge,  G. Gidofalvi,  M. Goldey,  J. Gomes,  C. Gonzalez-Espinoza,  
 S. Gulania,  A. Gunina,  M. W. D. Hanson-Heine,  P. H. P. Harbach,  
 A. W. Hauser,  M. F. Herbst,  M. Hernandez Vera,  M. Hodecker,  
 Z. C. Holden,  S. Houck,  Xunkun Huang,  Kerwin Hui,  B. C. Huynh,  
 M. Ivanov,  Hyunjun Ji,  Hanjie Jiang,  B. Kaduk,  S. Kaehler,  
 K. Khistyaev,  Jaehoon Kim,  P. Klunzinger,  Z. Koczor-Benda,  
 Joong Hoon Koh,  D. Kosenkov,  L. Koulias,  T. Kowalczyk,  C. M. Krauter,  
 K. Kue,  A. Kunitsa,  T. Kus,  A. Landau,  K. V. Lawler,  D. Lefrancois,  
 S. Lehtola,  Rain Li,  Yi-Pei Li,  Jiashu Liang,  M. Liebenthal,  
 Hung-Hsuan Lin,  You-Sheng Lin,  Fenglai Liu,  Kuan-Yu Liu,  
 M. Loipersberger,  A. Luenser,  A. Manjanath,  P. Manohar,  E. Mansoor,  
 S. F. Manzer,  Shan-Ping Mao,  A. V. Marenich,  T. Markovich,  S. Mason,  
 S. A. Maurer,  P. F. McLaughlin,  M. F. S. J. Menger,  J.-M. Mewes,  
 S. A. Mewes,  P. Morgante,  J. W. Mullinax,  T. S. Nguyen-Beck,  
 K. J. Oosterbaan,  G. Paran,  Alexander C. Paul,  Suranjan K. Paul,  
 F. Pavosevic,  Zheng Pei,  S. Prager,  E. I. Proynov,  E. Ramos,  B. Rana,  
 A. E. Rask,  A. Rettig,  R. M. Richard,  F. Rob,  E. Rossomme,  T. Scheele,  
 M. Scheurer,  M. Schneider,  N. Sergueev,  S. M. Sharada,  W. Skomorowski,  
 D. W. Small,  C. J. Stein,  Yu-Chuan Su,  E. J. Sundstrom,  Zhen Tao,  
 J. Thirman,  T. Tsuchimochi,  N. M. Tubman,  S. P. Veccham,  O. Vydrov,  
 J. Wenzel,  J. Witte,  A. Yamada,  Kun Yao,  S. Yeganeh,  S. R. Yost,  
 A. Zech,  Igor Ying Zhang,  Xing Zhang,  Yu Zhang,  D. Zuev,  
 A. Aspuru-Guzik,  A. T. Bell,  N. A. Besley,  K. B. Bravaya,  B. R. Brooks,  
 D. Casanova,  Jeng-Da Chai,  S. Coriani,  C. J. Cramer,  
 A. E. DePrince, III,  R. A. DiStasio Jr.,  A. Dreuw,  B. D. Dunietz,  
 T. R. Furlani,  W. A. Goddard III,  S. Grimme,  S. Hammes-Schiffer,  
 T. Head-Gordon,  W. J. Hehre,  Chao-Ping Hsu,  T.-C. Jagau,  Yousung Jung,  
 A. Klamt,  Jing Kong,  D. S. Lambrecht,  WanZhen Liang,  N. J. Mayhall,  
 C. W. McCurdy,  J. B. Neaton,  C. Ochsenfeld,  J. A. Parkhill,  R. Peverati,  
 V. A. Rassolov,  Yihan Shao,  L. V. Slipchenko,  T. Stauch,  R. P. Steele,  
 J. E. Subotnik,  A. J. W. Thom,  A. Tkatchenko,  D. G. Truhlar,  
 T. Van Voorhis,  T. A. Wesolowski,  K. B. Whaley,  H. L. Woodcock III,  
 P. M. Zimmerman,  S. Faraji,  P. M. W. Gill,  M. Head-Gordon,  
 J. M. Herbert,  A. I. Krylov

 Contributors to earlier versions of Q-Chem not listed above: 
 R. D. Adamson,  B. Austin,  R. Baer,  J. Baker,  G. J. O. Beran,  
 K. Brandhorst,  S. T. Brown,  E. F. C. Byrd,  A. K. Chakraborty,  
 G. K. L. Chan,  Chun-Min Chang,  Yunqing Chen,  C.-L. Cheng,  
 Siu Hung Chien,  D. M. Chipman,  D. L. Crittenden,  H. Dachsel,  
 R. J. Doerksen,  A. D. Dutoi,  R. G. Edgar,  J. Fosso-Tande,  
 L. Fusti-Molnar,  D. Ghosh,  A. Ghysels,  A. Golubeva-Zadorozhnaya,  
 J. Gonthier,  M. S. Gordon,  S. R. Gwaltney,  G. Hawkins,  J. E. Herr,  
 A. Heyden,  S. Hirata,  E. G. Hohenstein,  G. Kedziora,  F. J. Keil,  
 C. Kelley,  Jihan Kim,  R. A. King,  R. Z. Khaliullin,  P. P. Korambath,  
 W. Kurlancheek,  A. Laurent,  A. M. Lee,  M. S. Lee,  S. V. Levchenko,  
 Ching Yeh Lin,  D. Liotard,  E. Livshits,  R. C. Lochan,  I. Lotan,  
 L. A. Martinez-Martinez,  P. E. Maslen,  N. Nair,  D. P. O'Neill,  
 D. Neuhauser,  E. Neuscamman,  C. M. Oana,  R. Olivares-Amaya,  R. Olson,  
 T. M. Perrine,  B. Peters,  P. A. Pieniazek,  A. Prociuk,  Y. M. Rhee,  
 J. Ritchie,  M. A. Rohrdanz,  E. Rosta,  N. J. Russ,  H. F. Schaefer III,  
 M. W. Schmidt,  N. E. Schultz,  S. Sharma,  N. Shenvi,  C. D. Sherrill,  
 A. C. Simmonett,  A. Sodt,  T. Stein,  D. Stuck,  K. S. Thanthiriwatte,  
 V. Vanovschi,  L. Vogt,  Tao Wang,  A. Warshel,  M. A. Watson,  
 C. F. Williams,  Q. Wu,  X. Xu,  Jun Yang,  W. Zhang,  Yan Zhao

 Please cite Q-Chem as follows:
 Y. Shao et al., Mol. Phys. 113, 184-215 (2015)
 DOI: 10.1080/00268976.2014.952696

 Q-Chem 5.4.0 for Intel X86 EM64T Linux

 Parts of Q-Chem use Armadillo 9.800.1 (Horizon Scraper).
 http://arma.sourceforge.net/

 Q-Chem begins on Sat Jul  9 14:43:08 2022  

 Host: 
0

     Scratch files written to ./qchem2477430//
 May1621 |scratch|qcdevops|jenkins|workspace|build_RNUM    
 Processing $rem in /cm/shared/apps/spack/cpu/opt/spack/linux-centos8-zen2/gcc-10.2.0/qchem-5.4-akfmr7b3t57bfs6qan3padb2wnb2i7cl/config/preferences:
 Processing $rem in /home/theleonzhang/.qchemrc:
 Symmetry turned off for PCM/SM12/SMD calculation
 Core orbitals will be frozen

 Checking the input file for inconsistencies... 	...done.

--------------------------------------------------------------
User input:
--------------------------------------------------------------
$molecule
0 1
C	-0.133897	-3.866725	-0.763475
C	0.106669	-3.703963	0.603206
C	0.185154	-2.357056	1.050446
H	0.226709	-4.561092	1.283024
C	-0.000000	-1.440664	-0.000000
S	-0.268206	-2.286957	-1.521018
C	0.437628	-1.978743	2.483610
H	0.549717	-2.878678	3.118875
H	-0.394664	-1.376015	2.903464
H	1.363110	-1.375728	2.593726
H	-0.237880	-4.783437	-1.354522
C	0.000000	0.000000	0.000000
C	0.365003	0.782674	1.099446
C	0.949885	2.036912	0.776721
H	0.209135	0.448431	2.136088
C	1.043159	2.236886	-0.612546
S	0.398297	0.854094	-1.486809
C	1.409609	3.022738	1.814609
H	1.229726	2.636980	2.836676
H	0.877346	3.992870	1.726239
H	2.494910	3.238558	1.726228
H	1.444334	3.097160	-1.161575
$end

$rem
JOBTYPE		SP
EXCHANGE	HF
CORRELATION	pRIMP2
BASIS		cc-pvtz
METHOD		rimp2
AUX_BASIS	rimp2-cc-pvtz
SOLVENT_METHOD	PCM
PURECART	11111
SYMMETRY	false
MEM_TOTAL	110000
SCF_CONVERGENCE = 6
THRESH=10
$end



$solvent
dielectric 4.90
$end
--------------------------------------------------------------
 ----------------------------------------------------------------
             Standard Nuclear Orientation (Angstroms)
    I     Atom           X                Y                Z
 ----------------------------------------------------------------
    1      C      -0.1338970000    -3.8667250000    -0.7634750000
    2      C       0.1066690000    -3.7039630000     0.6032060000
    3      C       0.1851540000    -2.3570560000     1.0504460000
    4      H       0.2267090000    -4.5610920000     1.2830240000
    5      C       0.0000000000    -1.4406640000     0.0000000000
    6      S      -0.2682060000    -2.2869570000    -1.5210180000
    7      C       0.4376280000    -1.9787430000     2.4836100000
    8      H       0.5497170000    -2.8786780000     3.1188750000
    9      H      -0.3946640000    -1.3760150000     2.9034640000
   10      H       1.3631100000    -1.3757280000     2.5937260000
   11      H      -0.2378800000    -4.7834370000    -1.3545220000
   12      C       0.0000000000     0.0000000000     0.0000000000
   13      C       0.3650030000     0.7826740000     1.0994460000
   14      C       0.9498850000     2.0369120000     0.7767210000
   15      H       0.2091350000     0.4484310000     2.1360880000
   16      C       1.0431590000     2.2368860000    -0.6125460000
   17      S       0.3982970000     0.8540940000    -1.4868090000
   18      C       1.4096090000     3.0227380000     1.8146090000
   19      H       1.2297260000     2.6369800000     2.8366760000
   20      H       0.8773460000     3.9928700000     1.7262390000
   21      H       2.4949100000     3.2385580000     1.7262280000
   22      H       1.4443340000     3.0971600000    -1.1615750000
 ----------------------------------------------------------------
 Nuclear Repulsion Energy =         841.84876121 hartrees
 There are       51 alpha and       51 beta electrons

 Q-Chem warning in module forms1/BasisType.C, line 2236:

 You are not using the predefined 5D/6D in this basis set.

 Requested basis set is cc-pVTZ
 There are 184 shells and 508 basis functions

 Total QAlloc Memory Limit 110000 MB
 Mega-Array Size       188 MB
 MEM_STATIC part       192 MB
 Discretize the solute cavity surface with Lebedev spheres
	Using 110 Lebedev grid points for each H atom
	Using 194 Lebedev grid points for other atoms
	Atomic van der Waals radii will be scaled by 1.20
 Remove points where switching function is < 1.0e-08
 Keep 1519 surface tesserae and discard 1909 interior tesserae
 Molecular Surface Area = 228.705 Angst**2
 Requested basis set is rimp2-cc-pVTZ
 There are 394 shells and 1354 basis functions
 A cutoff of  1.0D-10 yielded  12487 shell pairs
 There are     92513 function pairs (    119286 Cartesian)
 Smallest overlap matrix eigenvalue = 5.75E-05

 Scale SEOQF with 1.000000e-01/1.000000e-01/1.000000e-01

 Standard Electronic Orientation quadrupole field applied
 Nucleus-field energy     =     0.0000000190 hartrees
 Guess from superposition of atomic densities
 Warning:  Energy on first SCF cycle will be non-variational
 SAD guess density has 102.000000 electrons

 -----------------------------------------------------------------------
  General SCF calculation program by
  Eric Jon Sundstrom, Paul Horn, Yuezhi Mao, Dmitri Zuev, Alec White,
  David Stuck, Shaama M.S., Shane Yost, Joonho Lee, David Small,
  Daniel Levine, Susi Lehtola, Hugh Burton, Evgeny Epifanovsky,
  Bang C. Huynh
 -----------------------------------------------------------------------
 Hartree-Fock
 A restricted SCF calculation will be
 performed using DIIS
 SCF converges when DIIS error is below 1.0e-06
 ---------------------------------------
  Cycle       Energy         DIIS error
 ---------------------------------------
    1   -1184.2773229340      2.39e-02  
    2   -1179.5318132634      1.60e-03  
    3   -1179.6531491983      6.19e-04  
    4   -1179.6669941717      3.39e-04  
    5   -1179.6718467984      6.31e-05  
    6   -1179.6721103737      2.93e-05  
    7   -1179.6721884214      1.20e-05  
    8   -1179.6722122671      5.06e-06  
    9   -1179.6722163976      1.61e-06  
   10   -1179.6722168131      4.86e-07  Convergence criterion met
 ---------------------------------------
 SCF time:   CPU 497.25s  wall 500.00s 

************** Final PCM Free Energy Summary **************
 G_electrostatic  =      -0.00882399 hartree =      -5.53713419 kcal/mol
 G_cavitation     =       0.00000000 hartree =       0.00000000 kcal/mol
 G_dispersion     =       0.00000000 hartree =       0.00000000 kcal/mol
 G_repulsion      =       0.00000000 hartree =       0.00000000 kcal/mol
 --------------------------------------------------
 Non-electrostatic Free Energy =       0.00000000 hartree =       0.00000000 kcal/mol
 Total                         =      -0.00882399 hartree =      -5.53713419 kcal/mol
 --------------------------------------------------
 SCF Energy (H0 + V/2)                       =   -1179.67221681 
 Solute Internal Energy (H0)                 =   -1179.66339283 
 Total Free Energy (H0 + V/2 + non-elec)     =   -1179.67221681 hartree
                                             = -740255.48872577 kcal/mol
***********************************************************

 SCF   energy in the final basis set =    -1179.6722168131
 Total energy in the final basis set =    -1179.6722168131


 --------------------------------------------------------------
  Generalized many-body perturbation theory program
  by Joonho Lee, Fazle Rob, Xintian Feng, Evgeny Epifanovsky

 No regularization used 
 (reg. param. = 0.0000e+00)
  (P|Q)^-1/2 Time:  CPU 1.68 s  wall 1.69 s

 In RI-MP2 calculation: 
 # of frozen core orbitals: 20

 Components of the RIMP2 correlation energy:
        aaaa    correlation energy =        -0.2536627984 a.u.
        abab    correlation energy =        -1.4763447537 a.u.
        bbbb    correlation energy =        -0.2536627984 a.u.
        non-Brillouin singles      =        -0.0000000000 a.u.
        total same-spin energy     =        -0.5073255968 a.u.
        total opposite-spin energy =        -1.4763447537 a.u.

 Total  RIMP2   correlation energy =        -1.9836703505 a.u.
        RIMP2         total energy =     -1181.6558871636 a.u.

 RI-MP2 Energy Time:  CPU 67.82 s  wall 68.09 s
 
 --------------------------------------------------------------
 
                    Orbital Energies (a.u.)
 --------------------------------------------------------------
 
 Alpha MOs
 -- Occupied --
-91.9851 -91.9825 -11.2796 -11.2783 -11.2701 -11.2684 -11.2527 -11.2510
-11.2433 -11.2428 -11.2310 -11.2299  -8.9851  -8.9827  -6.6660  -6.6654
 -6.6648  -6.6637  -6.6631  -6.6624  -1.1827  -1.1498  -1.0428  -1.0271
 -0.9958  -0.9560  -0.9142  -0.8946  -0.8021  -0.7567  -0.7277  -0.7015
 -0.6606  -0.6141  -0.5919  -0.5822  -0.5705  -0.5633  -0.5518  -0.5406
 -0.5291  -0.5239  -0.5046  -0.4913  -0.4836  -0.4762  -0.4500  -0.3696
 -0.3480  -0.3365  -0.2676
 -- Virtual --
  0.0597   0.1348   0.1397   0.1470   0.1620   0.1730   0.1800   0.1839
  0.1966   0.2050   0.2059   0.2175   0.2352   0.2368   0.2416   0.2667
  0.2721   0.2866   0.3059   0.3154   0.3250   0.3557   0.3648   0.3738
  0.3833   0.3864   0.3935   0.4044   0.4122   0.4201   0.4343   0.4412
  0.4535   0.4632   0.4734   0.4779   0.4813   0.4861   0.5053   0.5120
  0.5162   0.5169   0.5271   0.5322   0.5435   0.5502   0.5538   0.5712
  0.5860   0.5866   0.5915   0.6007   0.6069   0.6132   0.6175   0.6233
  0.6321   0.6338   0.6351   0.6399   0.6423   0.6644   0.6690   0.6778
  0.6815   0.6937   0.6947   0.7166   0.7243   0.7319   0.7437   0.7657
  0.7690   0.7745   0.7954   0.8017   0.8040   0.8173   0.8440   0.8501
  0.8567   0.8652   0.8782   0.8906   0.9045   0.9209   0.9386   0.9503
  0.9588   0.9700   0.9797   0.9859   1.0083   1.0162   1.0271   1.0359
  1.0483   1.0514   1.0647   1.0724   1.0783   1.0837   1.0897   1.0939
  1.1070   1.1241   1.1355   1.1450   1.1544   1.1600   1.1802   1.2025
  1.2094   1.2166   1.2261   1.2347   1.2462   1.2554   1.2597   1.2694
  1.2776   1.2827   1.3003   1.3128   1.3304   1.3402   1.3519   1.3689
  1.3812   1.3889   1.4005   1.4107   1.4171   1.4428   1.4458   1.4666
  1.4811   1.4898   1.5067   1.5207   1.5244   1.5372   1.5418   1.5539
  1.5618   1.5708   1.5754   1.5836   1.5889   1.6016   1.6223   1.6262
  1.6398   1.6616   1.6702   1.6873   1.6926   1.7105   1.7245   1.7394
  1.7521   1.7743   1.7804   1.7994   1.8095   1.8279   1.8366   1.8667
  1.8724   1.9017   1.9029   1.9172   1.9485   1.9655   1.9744   1.9880
  2.0131   2.0474   2.0818   2.1068   2.1335   2.1497   2.1573   2.1683
  2.1905   2.1946   2.2167   2.2269   2.2455   2.2625   2.2681   2.2754
  2.2773   2.2884   2.3061   2.3746   2.4044   2.4170   2.4487   2.4528
  2.4689   2.4885   2.5145   2.5220   2.5537   2.5737   2.5776   2.6198
  2.6255   2.6337   2.6589   2.6604   2.6883   2.7041   2.7209   2.7302
  2.7413   2.7469   2.7539   2.7623   2.7753   2.7867   2.7896   2.8099
  2.8139   2.8436   2.8479   2.8539   2.8688   2.8999   2.9268   2.9393
  2.9577   2.9733   2.9840   2.9929   3.0125   3.0219   3.0318   3.0507
  3.0644   3.0721   3.1026   3.1098   3.1145   3.1220   3.1409   3.1470
  3.1533   3.1591   3.1703   3.1811   3.1837   3.1862   3.2128   3.2183
  3.2330   3.2433   3.2597   3.2706   3.2792   3.2838   3.2956   3.3069
  3.3094   3.3200   3.3389   3.3482   3.3579   3.3613   3.3748   3.3837
  3.3883   3.3941   3.3979   3.4066   3.4146   3.4253   3.4347   3.4472
  3.4540   3.4657   3.4716   3.4870   3.4911   3.4972   3.5080   3.5276
  3.5289   3.5339   3.5398   3.5520   3.5630   3.5719   3.5867   3.5924
  3.6103   3.6113   3.6257   3.6298   3.6367   3.6508   3.6646   3.6777
  3.6847   3.6874   3.6937   3.7083   3.7205   3.7227   3.7398   3.7510
  3.7614   3.7783   3.7825   3.7971   3.8014   3.8068   3.8304   3.8493
  3.8640   3.8678   3.9007   3.9144   3.9232   3.9286   3.9473   3.9587
  3.9703   3.9828   4.0083   4.0136   4.0224   4.0288   4.0482   4.0561
  4.0632   4.0874   4.1062   4.1148   4.1291   4.1391   4.1523   4.1607
  4.1705   4.1808   4.1947   4.2050   4.2102   4.2168   4.2221   4.2330
  4.2513   4.2678   4.2760   4.2924   4.3042   4.3263   4.3296   4.3413
  4.3582   4.3595   4.3769   4.3954   4.3999   4.4026   4.4090   4.4316
  4.4451   4.4643   4.4757   4.4874   4.5202   4.5459   4.5542   4.5688
  4.5964   4.6176   4.6210   4.6259   4.6487   4.6588   4.6674   4.6823
  4.7002   4.7216   4.7608   4.7673   4.7810   4.7982   4.8563   4.8650
  4.8745   4.8817   4.9036   4.9556   4.9682   4.9850   4.9957   5.0562
  5.0971   5.1048   5.1164   5.1548   5.1625   5.1818   5.2052   5.2616
  5.2719   5.2859   5.3090   5.3157   5.3317   5.3685   5.3859   5.4017
  5.4134   5.4459   5.4655   5.5011   5.5113   5.5352   5.5515   5.5637
  5.5674   5.6051   5.6188   5.6306   5.6452   5.6988   5.7159   5.7353
  5.7840   5.8305   5.9060   5.9825   6.0531   6.1191   6.1643   6.2276
  6.2350   6.2639   6.2807   6.3128   6.3614   6.4491   6.5654   8.7024
  9.9281  11.5305  12.1157  12.8624  13.1787  13.7683  14.1164  14.2572
 14.5125
 --------------------------------------------------------------
 
          Ground-State Mulliken Net Atomic Charges

     Atom                 Charge (a.u.)
  ----------------------------------------
      1 C                    -0.219266
      2 C                    -0.248298
      3 C                     0.059024
      4 H                     0.184416
      5 C                    -0.036522
      6 S                     0.006897
      7 C                    -0.313440
      8 H                     0.117382
      9 H                     0.107014
     10 H                     0.112776
     11 H                     0.206344
     12 C                     0.033691
     13 C                    -0.271883
     14 C                     0.043160
     15 H                     0.196723
     16 C                    -0.247225
     17 S                     0.019204
     18 C                    -0.269327
     19 H                     0.101784
     20 H                     0.108840
     21 H                     0.108774
     22 H                     0.199933
  ----------------------------------------
  Sum of atomic charges =     0.000000

 -----------------------------------------------------------------
                    Cartesian Multipole Moments
 -----------------------------------------------------------------
    Charge (ESU x 10^10)
                -0.0000
    Dipole Moment (Debye)
         X       1.1695      Y       0.3925      Z       2.9752
       Tot       3.2208
    Quadrupole Moments (Debye-Ang)
        XX     -90.4872     XY       3.9478     YY     -70.8885
        XZ       1.5417     YZ      -1.3320     ZZ     -80.2986
    Octopole Moments (Debye-Ang^2)
       XXX     -89.9900    XXY      62.1051    XYY     -16.4138
       YYY     107.3527    XXZ      -3.5051    XYZ      -5.3241
       YYZ      -8.3773    XZZ     -26.0331    YZZ      41.9195
       ZZZ      -0.4101
    Hexadecapole Moments (Debye-Ang^3)
      XXXX    -323.1201   XXXY    -187.0847   XXYY    -548.9561
      XYYY    -145.9937   YYYY   -2452.1950   XXXZ     -89.5858
      XXYZ     -32.5898   XYYZ     -18.0020   YYYZ     -66.1744
      XXZZ    -237.6211   XYZZ     -54.0055   YYZZ    -578.3988
      XZZZ     -86.2531   YZZZ     -98.0765   ZZZZ   -1062.4906
 -----------------------------------------------------------------
 Total job time:  569.56s(wall), 565.95s(cpu) 
 Sat Jul  9 14:52:38 2022

        *************************************************************
        *                                                           *
        *  Thank you very much for using Q-Chem.  Have a nice day.  *
        *                                                           *
        *************************************************************


remove work dirs ./qchem2477430.0 -- ./qchem2477430.-1
rm -rf ./qchem2477430
