You are running Q-Chem version: 5.4.0

#
# job setting
#
local host:  exp-1-39
current dir: /expanse/lustre/scratch/theleonzhang/temp_project/Interring_Bonds
input file:  Methylthiophene_Phi_15_Theta_40_Methylthiophene.qcin
output file: 
nprocs     : 0
nthreads   : 1
#
# qchem installation setting
#
QC:          /cm/shared/apps/spack/cpu/opt/spack/linux-centos8-zen2/gcc-10.2.0/qchem-5.4-akfmr7b3t57bfs6qan3padb2wnb2i7cl
QCAUX:       /cm/shared/apps/spack/cpu/opt/spack/linux-centos8-zen2/gcc-10.2.0/qchem-5.4-akfmr7b3t57bfs6qan3padb2wnb2i7cl/qcaux
QCPROG:      /cm/shared/apps/spack/cpu/opt/spack/linux-centos8-zen2/gcc-10.2.0/qchem-5.4-akfmr7b3t57bfs6qan3padb2wnb2i7cl/exe/qcprog.exe_s
QCPROG_S:    /cm/shared/apps/spack/cpu/opt/spack/linux-centos8-zen2/gcc-10.2.0/qchem-5.4-akfmr7b3t57bfs6qan3padb2wnb2i7cl/exe/qcprog.exe_s
PARALLEL:    -DSERIAL
QCMPI:       mpich
#
# qchem directory setting
#
qcrun:       qchem3250693
QCSCRATCH:   .
QCLOCALSCR:  
QCTMPDIR:    .
QCFILEPREF:  ./qchem3250693
QCSAVEDIR:   
workdirs:    ./qchem3250693
workdir0:    ./qchem3250693
partmpdirs =  
#
# parallel setting
#
QCRSH:           ssh
QCMPI:           mpich
QCMPIRUN:        /cm/shared/apps/spack/cpu/opt/spack/linux-centos8-zen2/gcc-10.2.0/qchem-5.4-akfmr7b3t57bfs6qan3padb2wnb2i7cl/bin/mpi/mpirun_qchem
QCMACHINEFILE:   ./qchem3250693/hostfile

#
# env setting
#
exported envs:   QC QCAUX QCSCRATCH QCRUNNAME QCFILEPREF QCPROG QCPROG_S GUIFILE

Running Job 1 of 1 Methylthiophene_Phi_15_Theta_40_Methylthiophene.qcin
qchem Methylthiophene_Phi_15_Theta_40_Methylthiophene.qcin_3250693.0 ./qchem3250693/ 0
/cm/shared/apps/spack/cpu/opt/spack/linux-centos8-zen2/gcc-10.2.0/qchem-5.4-akfmr7b3t57bfs6qan3padb2wnb2i7cl/exe/qcprog.exe_s Methylthiophene_Phi_15_Theta_40_Methylthiophene.qcin_3250693.0 ./qchem3250693/
                  Welcome to Q-Chem
     A Quantum Leap Into The Future Of Chemistry


 Q-Chem 5.4, Q-Chem, Inc., Pleasanton, CA (2021)

 License issued to: University of California, San Diego (site)

 E. Epifanovsky,  A. T. B. Gilbert,  Xintian Feng,  Joonho Lee,  Yuezhi Mao,  
 N. Mardirossian,  P. Pokhilko,  A. White,  M. Wormit,  M. P. Coons,  
 A. L. Dempwolff,  Zhengting Gan,  D. Hait,  P. R. Horn,  L. D. Jacobson,  
 I. Kaliman,  J. Kussmann,  A. W. Lange,  Ka Un Lao,  D. S. Levine,  Jie Liu,  
 S. C. McKenzie,  A. F. Morrison,  K. Nanda,  F. Plasser,  D. R. Rehn,  
 M. L. Vidal,  Zhi-Qiang You,  Ying Zhu,  B. Alam,  B. Albrecht,  
 A. Aldossary,  E. Alguire,  J. H. Andersen,  D. Barton,  K. Begam,  A. Behn,  
 Y. A. Bernard,  E. J. Berquist,  H. Burton,  A. Carreras,  K. Carter-Fenk,  
 R. Chakraborty,  A. D. Chien,  K. D. Closser,  V. Cofer-Shabica,  
 S. Dasgupta,  Jia Deng,  M. de Wergifosse,  M. Diedenhofen,  Hainam Do,  
 S. Ehlert,  Po-Tung Fang,  S. Fatehi,  Qingguo Feng,  J. Gayvert,  
 Qinghui Ge,  G. Gidofalvi,  M. Goldey,  J. Gomes,  C. Gonzalez-Espinoza,  
 S. Gulania,  A. Gunina,  M. W. D. Hanson-Heine,  P. H. P. Harbach,  
 A. W. Hauser,  M. F. Herbst,  M. Hernandez Vera,  M. Hodecker,  
 Z. C. Holden,  S. Houck,  Xunkun Huang,  Kerwin Hui,  B. C. Huynh,  
 M. Ivanov,  Hyunjun Ji,  Hanjie Jiang,  B. Kaduk,  S. Kaehler,  
 K. Khistyaev,  Jaehoon Kim,  P. Klunzinger,  Z. Koczor-Benda,  
 Joong Hoon Koh,  D. Kosenkov,  L. Koulias,  T. Kowalczyk,  C. M. Krauter,  
 K. Kue,  A. Kunitsa,  T. Kus,  A. Landau,  K. V. Lawler,  D. Lefrancois,  
 S. Lehtola,  Rain Li,  Yi-Pei Li,  Jiashu Liang,  M. Liebenthal,  
 Hung-Hsuan Lin,  You-Sheng Lin,  Fenglai Liu,  Kuan-Yu Liu,  
 M. Loipersberger,  A. Luenser,  A. Manjanath,  P. Manohar,  E. Mansoor,  
 S. F. Manzer,  Shan-Ping Mao,  A. V. Marenich,  T. Markovich,  S. Mason,  
 S. A. Maurer,  P. F. McLaughlin,  M. F. S. J. Menger,  J.-M. Mewes,  
 S. A. Mewes,  P. Morgante,  J. W. Mullinax,  T. S. Nguyen-Beck,  
 K. J. Oosterbaan,  G. Paran,  Alexander C. Paul,  Suranjan K. Paul,  
 F. Pavosevic,  Zheng Pei,  S. Prager,  E. I. Proynov,  E. Ramos,  B. Rana,  
 A. E. Rask,  A. Rettig,  R. M. Richard,  F. Rob,  E. Rossomme,  T. Scheele,  
 M. Scheurer,  M. Schneider,  N. Sergueev,  S. M. Sharada,  W. Skomorowski,  
 D. W. Small,  C. J. Stein,  Yu-Chuan Su,  E. J. Sundstrom,  Zhen Tao,  
 J. Thirman,  T. Tsuchimochi,  N. M. Tubman,  S. P. Veccham,  O. Vydrov,  
 J. Wenzel,  J. Witte,  A. Yamada,  Kun Yao,  S. Yeganeh,  S. R. Yost,  
 A. Zech,  Igor Ying Zhang,  Xing Zhang,  Yu Zhang,  D. Zuev,  
 A. Aspuru-Guzik,  A. T. Bell,  N. A. Besley,  K. B. Bravaya,  B. R. Brooks,  
 D. Casanova,  Jeng-Da Chai,  S. Coriani,  C. J. Cramer,  
 A. E. DePrince, III,  R. A. DiStasio Jr.,  A. Dreuw,  B. D. Dunietz,  
 T. R. Furlani,  W. A. Goddard III,  S. Grimme,  S. Hammes-Schiffer,  
 T. Head-Gordon,  W. J. Hehre,  Chao-Ping Hsu,  T.-C. Jagau,  Yousung Jung,  
 A. Klamt,  Jing Kong,  D. S. Lambrecht,  WanZhen Liang,  N. J. Mayhall,  
 C. W. McCurdy,  J. B. Neaton,  C. Ochsenfeld,  J. A. Parkhill,  R. Peverati,  
 V. A. Rassolov,  Yihan Shao,  L. V. Slipchenko,  T. Stauch,  R. P. Steele,  
 J. E. Subotnik,  A. J. W. Thom,  A. Tkatchenko,  D. G. Truhlar,  
 T. Van Voorhis,  T. A. Wesolowski,  K. B. Whaley,  H. L. Woodcock III,  
 P. M. Zimmerman,  S. Faraji,  P. M. W. Gill,  M. Head-Gordon,  
 J. M. Herbert,  A. I. Krylov

 Contributors to earlier versions of Q-Chem not listed above: 
 R. D. Adamson,  B. Austin,  R. Baer,  J. Baker,  G. J. O. Beran,  
 K. Brandhorst,  S. T. Brown,  E. F. C. Byrd,  A. K. Chakraborty,  
 G. K. L. Chan,  Chun-Min Chang,  Yunqing Chen,  C.-L. Cheng,  
 Siu Hung Chien,  D. M. Chipman,  D. L. Crittenden,  H. Dachsel,  
 R. J. Doerksen,  A. D. Dutoi,  R. G. Edgar,  J. Fosso-Tande,  
 L. Fusti-Molnar,  D. Ghosh,  A. Ghysels,  A. Golubeva-Zadorozhnaya,  
 J. Gonthier,  M. S. Gordon,  S. R. Gwaltney,  G. Hawkins,  J. E. Herr,  
 A. Heyden,  S. Hirata,  E. G. Hohenstein,  G. Kedziora,  F. J. Keil,  
 C. Kelley,  Jihan Kim,  R. A. King,  R. Z. Khaliullin,  P. P. Korambath,  
 W. Kurlancheek,  A. Laurent,  A. M. Lee,  M. S. Lee,  S. V. Levchenko,  
 Ching Yeh Lin,  D. Liotard,  E. Livshits,  R. C. Lochan,  I. Lotan,  
 L. A. Martinez-Martinez,  P. E. Maslen,  N. Nair,  D. P. O'Neill,  
 D. Neuhauser,  E. Neuscamman,  C. M. Oana,  R. Olivares-Amaya,  R. Olson,  
 T. M. Perrine,  B. Peters,  P. A. Pieniazek,  A. Prociuk,  Y. M. Rhee,  
 J. Ritchie,  M. A. Rohrdanz,  E. Rosta,  N. J. Russ,  H. F. Schaefer III,  
 M. W. Schmidt,  N. E. Schultz,  S. Sharma,  N. Shenvi,  C. D. Sherrill,  
 A. C. Simmonett,  A. Sodt,  T. Stein,  D. Stuck,  K. S. Thanthiriwatte,  
 V. Vanovschi,  L. Vogt,  Tao Wang,  A. Warshel,  M. A. Watson,  
 C. F. Williams,  Q. Wu,  X. Xu,  Jun Yang,  W. Zhang,  Yan Zhao

 Please cite Q-Chem as follows:
 Y. Shao et al., Mol. Phys. 113, 184-215 (2015)
 DOI: 10.1080/00268976.2014.952696

 Q-Chem 5.4.0 for Intel X86 EM64T Linux

 Parts of Q-Chem use Armadillo 9.800.1 (Horizon Scraper).
 http://arma.sourceforge.net/

 Q-Chem begins on Sat Jul  9 12:32:43 2022  

 Host: 
0

     Scratch files written to ./qchem3250693//
 May1621 |scratch|qcdevops|jenkins|workspace|build_RNUM    
 Processing $rem in /cm/shared/apps/spack/cpu/opt/spack/linux-centos8-zen2/gcc-10.2.0/qchem-5.4-akfmr7b3t57bfs6qan3padb2wnb2i7cl/config/preferences:
 Processing $rem in /home/theleonzhang/.qchemrc:
 Symmetry turned off for PCM/SM12/SMD calculation
 Core orbitals will be frozen

 Checking the input file for inconsistencies... 	...done.

--------------------------------------------------------------
User input:
--------------------------------------------------------------
$molecule
0 1
C	-0.498788	-3.866725	0.593324
C	0.393517	-3.703963	-0.469446
C	0.685674	-2.357056	-0.817050
H	0.837128	-4.561092	-0.998381
C	0.000000	-1.440664	0.000000
S	-0.992768	-2.286957	1.183149
C	1.621254	-1.978743	-1.931676
H	2.035845	-2.878678	-2.425882
H	2.477868	-1.376015	-1.563980
H	1.110719	-1.375728	-2.711417
H	-0.884718	-4.783437	1.052896
C	0.000000	0.000000	0.000000
C	0.223548	0.834165	1.099446
C	0.581748	2.170912	0.776721
H	0.128089	0.477934	2.136088
C	0.638880	2.384045	-0.612546
S	0.243934	0.910282	-1.486809
C	0.863301	3.221592	1.814609
H	0.753137	2.810458	2.836676
H	0.170663	4.084559	1.726239
H	1.894637	3.622593	1.726228
H	0.884575	3.300913	-1.161575
$end

$rem
JOBTYPE		SP
EXCHANGE	HF
CORRELATION	pRIMP2
BASIS		cc-pvtz
METHOD		rimp2
AUX_BASIS	rimp2-cc-pvtz
SOLVENT_METHOD	PCM
PURECART	11111
SYMMETRY	false
MEM_TOTAL	110000
SCF_CONVERGENCE = 6
THRESH=10
$end



$solvent
dielectric 4.90
$end
--------------------------------------------------------------
 ----------------------------------------------------------------
             Standard Nuclear Orientation (Angstroms)
    I     Atom           X                Y                Z
 ----------------------------------------------------------------
    1      C      -0.4987880000    -3.8667250000     0.5933240000
    2      C       0.3935170000    -3.7039630000    -0.4694460000
    3      C       0.6856740000    -2.3570560000    -0.8170500000
    4      H       0.8371280000    -4.5610920000    -0.9983810000
    5      C       0.0000000000    -1.4406640000     0.0000000000
    6      S      -0.9927680000    -2.2869570000     1.1831490000
    7      C       1.6212540000    -1.9787430000    -1.9316760000
    8      H       2.0358450000    -2.8786780000    -2.4258820000
    9      H       2.4778680000    -1.3760150000    -1.5639800000
   10      H       1.1107190000    -1.3757280000    -2.7114170000
   11      H      -0.8847180000    -4.7834370000     1.0528960000
   12      C       0.0000000000     0.0000000000     0.0000000000
   13      C       0.2235480000     0.8341650000     1.0994460000
   14      C       0.5817480000     2.1709120000     0.7767210000
   15      H       0.1280890000     0.4779340000     2.1360880000
   16      C       0.6388800000     2.3840450000    -0.6125460000
   17      S       0.2439340000     0.9102820000    -1.4868090000
   18      C       0.8633010000     3.2215920000     1.8146090000
   19      H       0.7531370000     2.8104580000     2.8366760000
   20      H       0.1706630000     4.0845590000     1.7262390000
   21      H       1.8946370000     3.6225930000     1.7262280000
   22      H       0.8845750000     3.3009130000    -1.1615750000
 ----------------------------------------------------------------
 Nuclear Repulsion Energy =         837.50601206 hartrees
 There are       51 alpha and       51 beta electrons

 Q-Chem warning in module forms1/BasisType.C, line 2236:

 You are not using the predefined 5D/6D in this basis set.

 Requested basis set is cc-pVTZ
 There are 184 shells and 508 basis functions

 Total QAlloc Memory Limit 110000 MB
 Mega-Array Size       188 MB
 MEM_STATIC part       192 MB
 Discretize the solute cavity surface with Lebedev spheres
	Using 110 Lebedev grid points for each H atom
	Using 194 Lebedev grid points for other atoms
	Atomic van der Waals radii will be scaled by 1.20
 Remove points where switching function is < 1.0e-08
 Keep 1521 surface tesserae and discard 1907 interior tesserae
 Molecular Surface Area = 231.101 Angst**2
 Requested basis set is rimp2-cc-pVTZ
 There are 394 shells and 1354 basis functions
 A cutoff of  1.0D-10 yielded  12265 shell pairs
 There are     90973 function pairs (    117420 Cartesian)
 Smallest overlap matrix eigenvalue = 5.64E-05

 Scale SEOQF with 1.000000e-01/1.000000e-01/1.000000e-01

 Standard Electronic Orientation quadrupole field applied
 Nucleus-field energy     =     0.0000000262 hartrees
 Guess from superposition of atomic densities
 Warning:  Energy on first SCF cycle will be non-variational
 SAD guess density has 102.000000 electrons

 -----------------------------------------------------------------------
  General SCF calculation program by
  Eric Jon Sundstrom, Paul Horn, Yuezhi Mao, Dmitri Zuev, Alec White,
  David Stuck, Shaama M.S., Shane Yost, Joonho Lee, David Small,
  Daniel Levine, Susi Lehtola, Hugh Burton, Evgeny Epifanovsky,
  Bang C. Huynh
 -----------------------------------------------------------------------
 Hartree-Fock
 A restricted SCF calculation will be
 performed using DIIS
 SCF converges when DIIS error is below 1.0e-06
 ---------------------------------------
  Cycle       Energy         DIIS error
 ---------------------------------------
    1   -1184.2349269056      2.38e-02  
    2   -1179.5412837216      1.60e-03  
    3   -1179.6617720623      6.09e-04  
    4   -1179.6752763795      3.34e-04  
    5   -1179.6799645787      6.57e-05  
    6   -1179.6802456131      3.05e-05  
    7   -1179.6803327974      1.26e-05  
    8   -1179.6803606974      5.19e-06  
    9   -1179.6803655734      1.64e-06  
   10   -1179.6803659989      5.00e-07  Convergence criterion met
 ---------------------------------------
 SCF time:   CPU 479.48s  wall 481.00s 

************** Final PCM Free Energy Summary **************
 G_electrostatic  =      -0.00758885 hartree =      -4.76207613 kcal/mol
 G_cavitation     =       0.00000000 hartree =       0.00000000 kcal/mol
 G_dispersion     =       0.00000000 hartree =       0.00000000 kcal/mol
 G_repulsion      =       0.00000000 hartree =       0.00000000 kcal/mol
 --------------------------------------------------
 Non-electrostatic Free Energy =       0.00000000 hartree =       0.00000000 kcal/mol
 Total                         =      -0.00758885 hartree =      -4.76207613 kcal/mol
 --------------------------------------------------
 SCF Energy (H0 + V/2)                       =   -1179.68036600 
 Solute Internal Energy (H0)                 =   -1179.67277715 
 Total Free Energy (H0 + V/2 + non-elec)     =   -1179.68036600 hartree
                                             = -740260.60241707 kcal/mol
***********************************************************

 SCF   energy in the final basis set =    -1179.6803659989
 Total energy in the final basis set =    -1179.6803659989


 --------------------------------------------------------------
  Generalized many-body perturbation theory program
  by Joonho Lee, Fazle Rob, Xintian Feng, Evgeny Epifanovsky

 No regularization used 
 (reg. param. = 0.0000e+00)
  (P|Q)^-1/2 Time:  CPU 1.68 s  wall 1.68 s

 In RI-MP2 calculation: 
 # of frozen core orbitals: 20

 Components of the RIMP2 correlation energy:
        aaaa    correlation energy =        -0.2530579999 a.u.
        abab    correlation energy =        -1.4750066494 a.u.
        bbbb    correlation energy =        -0.2530579999 a.u.
        non-Brillouin singles      =        -0.0000000000 a.u.
        total same-spin energy     =        -0.5061159998 a.u.
        total opposite-spin energy =        -1.4750066494 a.u.

 Total  RIMP2   correlation energy =        -1.9811226492 a.u.
        RIMP2         total energy =     -1181.6614886481 a.u.

 RI-MP2 Energy Time:  CPU 67.55 s  wall 67.75 s
 
 --------------------------------------------------------------
 
                    Orbital Energies (a.u.)
 --------------------------------------------------------------
 
 Alpha MOs
 -- Occupied --
-91.9846 -91.9842 -11.2807 -11.2767 -11.2708 -11.2652 -11.2518 -11.2515
-11.2428 -11.2425 -11.2291 -11.2278  -8.9844  -8.9839  -6.6653  -6.6648
 -6.6648  -6.6643  -6.6642  -6.6637  -1.1804  -1.1495  -1.0416  -1.0231
 -0.9985  -0.9531  -0.9136  -0.8937  -0.7997  -0.7616  -0.7235  -0.6954
 -0.6618  -0.6161  -0.5830  -0.5778  -0.5769  -0.5697  -0.5519  -0.5331
 -0.5266  -0.5197  -0.5109  -0.4949  -0.4852  -0.4665  -0.4549  -0.3597
 -0.3419  -0.3377  -0.2763
 -- Virtual --
  0.0690   0.1289   0.1435   0.1530   0.1614   0.1735   0.1776   0.1878
  0.1925   0.1977   0.2020   0.2127   0.2314   0.2394   0.2427   0.2461
  0.2615   0.2710   0.3014   0.3160   0.3419   0.3559   0.3595   0.3682
  0.3698   0.3864   0.4008   0.4032   0.4094   0.4245   0.4315   0.4431
  0.4531   0.4608   0.4691   0.4700   0.4792   0.4960   0.4978   0.5062
  0.5109   0.5182   0.5304   0.5379   0.5443   0.5481   0.5492   0.5692
  0.5732   0.5831   0.5872   0.5943   0.6055   0.6129   0.6199   0.6225
  0.6273   0.6330   0.6369   0.6428   0.6471   0.6546   0.6609   0.6714
  0.6810   0.6871   0.6975   0.7088   0.7127   0.7273   0.7387   0.7558
  0.7698   0.7851   0.7925   0.8052   0.8100   0.8266   0.8366   0.8461
  0.8582   0.8636   0.8786   0.8789   0.9014   0.9160   0.9276   0.9431
  0.9550   0.9747   0.9816   1.0008   1.0068   1.0139   1.0244   1.0320
  1.0423   1.0541   1.0636   1.0703   1.0796   1.0824   1.0966   1.1004
  1.1083   1.1254   1.1336   1.1475   1.1564   1.1635   1.1681   1.1888
  1.2106   1.2155   1.2285   1.2388   1.2476   1.2543   1.2592   1.2653
  1.2804   1.2883   1.2959   1.3202   1.3283   1.3408   1.3523   1.3672
  1.3697   1.3854   1.4024   1.4212   1.4245   1.4312   1.4568   1.4670
  1.4846   1.4928   1.4992   1.5060   1.5189   1.5295   1.5384   1.5440
  1.5556   1.5593   1.5691   1.5727   1.5751   1.5839   1.6202   1.6249
  1.6504   1.6618   1.6672   1.6891   1.6948   1.7011   1.7084   1.7381
  1.7485   1.7697   1.7821   1.7921   1.8075   1.8171   1.8278   1.8523
  1.8913   1.9020   1.9082   1.9319   1.9345   1.9639   1.9735   1.9932
  2.0221   2.0415   2.0561   2.0805   2.1174   2.1291   2.1469   2.1785
  2.1897   2.2005   2.2068   2.2327   2.2445   2.2654   2.2707   2.2822
  2.3026   2.3318   2.3430   2.3692   2.3894   2.4146   2.4260   2.4561
  2.4652   2.4996   2.5040   2.5243   2.5441   2.5710   2.5891   2.6142
  2.6248   2.6324   2.6619   2.6738   2.6840   2.6987   2.7224   2.7257
  2.7381   2.7526   2.7563   2.7635   2.7662   2.7721   2.7814   2.8021
  2.8148   2.8295   2.8435   2.8529   2.8860   2.9017   2.9171   2.9444
  2.9493   2.9600   2.9749   2.9950   3.0096   3.0113   3.0214   3.0325
  3.0481   3.0718   3.0830   3.1043   3.1134   3.1226   3.1334   3.1455
  3.1489   3.1548   3.1576   3.1726   3.2009   3.2032   3.2113   3.2238
  3.2308   3.2369   3.2539   3.2730   3.2813   3.2866   3.2996   3.3088
  3.3169   3.3291   3.3328   3.3429   3.3539   3.3614   3.3696   3.3791
  3.3851   3.3930   3.4069   3.4161   3.4194   3.4325   3.4415   3.4445
  3.4528   3.4658   3.4732   3.4807   3.4871   3.5037   3.5061   3.5186
  3.5234   3.5304   3.5366   3.5423   3.5586   3.5692   3.5779   3.5848
  3.6064   3.6072   3.6242   3.6308   3.6339   3.6497   3.6535   3.6595
  3.6714   3.6920   3.6998   3.7109   3.7317   3.7340   3.7428   3.7525
  3.7633   3.7787   3.7836   3.7968   3.8047   3.8070   3.8217   3.8459
  3.8519   3.8773   3.8869   3.8960   3.9169   3.9369   3.9475   3.9555
  3.9646   3.9830   3.9885   4.0111   4.0159   4.0208   4.0385   4.0491
  4.0681   4.0704   4.0900   4.1017   4.1065   4.1285   4.1421   4.1535
  4.1655   4.1785   4.1960   4.1980   4.1990   4.2104   4.2183   4.2325
  4.2475   4.2675   4.2858   4.2923   4.3007   4.3123   4.3246   4.3343
  4.3469   4.3623   4.3702   4.3729   4.3876   4.4012   4.4075   4.4325
  4.4376   4.4572   4.4650   4.4797   4.4823   4.5064   4.5310   4.5799
  4.5863   4.6060   4.6240   4.6252   4.6348   4.6449   4.6490   4.6723
  4.7047   4.7233   4.7343   4.7489   4.7701   4.7901   4.8099   4.8446
  4.8807   4.8870   4.9024   4.9164   4.9368   4.9865   5.0043   5.0557
  5.0809   5.1017   5.1135   5.1509   5.1791   5.1995   5.2077   5.2434
  5.2737   5.2798   5.2893   5.3102   5.3234   5.3652   5.3972   5.4006
  5.4177   5.4419   5.4611   5.4868   5.5218   5.5293   5.5487   5.5631
  5.5726   5.6088   5.6170   5.6265   5.6309   5.6780   5.7026   5.7119
  5.7820   5.8321   5.9328   5.9793   6.0194   6.1124   6.1592   6.2265
  6.2386   6.2461   6.2840   6.3025   6.3336   6.4281   6.5242   8.7451
  9.8726  11.5574  12.0379  12.9188  13.2242  13.7328  13.9628  14.2086
 14.3915
 --------------------------------------------------------------
 
          Ground-State Mulliken Net Atomic Charges

     Atom                 Charge (a.u.)
  ----------------------------------------
      1 C                    -0.216149
      2 C                    -0.250272
      3 C                     0.040861
      4 H                     0.184542
      5 C                    -0.028689
      6 S                     0.018119
      7 C                    -0.300106
      8 H                     0.109900
      9 H                     0.118789
     10 H                     0.112327
     11 H                     0.204881
     12 C                     0.005400
     13 C                    -0.234361
     14 C                     0.017449
     15 H                     0.185922
     16 C                    -0.234492
     17 S                     0.018705
     18 C                    -0.270461
     19 H                     0.102920
     20 H                     0.108289
     21 H                     0.107920
     22 H                     0.198508
  ----------------------------------------
  Sum of atomic charges =     0.000000

 -----------------------------------------------------------------
                    Cartesian Multipole Moments
 -----------------------------------------------------------------
    Charge (ESU x 10^10)
                -0.0000
    Dipole Moment (Debye)
         X       1.5105      Y       0.3307      Z       0.2165
       Tot       1.5614
    Quadrupole Moments (Debye-Ang)
        XX     -89.3169     XY       1.3935     YY     -69.9595
        XZ      -3.0259     YZ       2.6028     ZZ     -82.6851
    Octopole Moments (Debye-Ang^2)
       XXX     -59.0912    XXY      43.9437    XYY     -12.1020
       YYY      99.5041    XXZ      -0.6117    XYZ      11.3165
       YYZ       0.5918    XZZ     -16.2509    YZZ      47.5522
       ZZZ       6.5093
    Hexadecapole Moments (Debye-Ang^3)
      XXXX    -430.9710   XXXY    -130.2973   XXYY    -558.4414
      XYYY     -74.2878   YYYY   -2540.8307   XXXZ     113.1714
      XXYZ     -27.8082   XYYZ     -16.3606   YYYZ    -130.1850
      XXZZ    -216.4492   XYZZ     -37.6238   YYZZ    -598.6257
      XZZZ     109.2281   YZZZ     -87.7521   ZZZZ    -855.8207
 -----------------------------------------------------------------
 Total job time:  551.14s(wall), 547.83s(cpu) 
 Sat Jul  9 12:41:54 2022

        *************************************************************
        *                                                           *
        *  Thank you very much for using Q-Chem.  Have a nice day.  *
        *                                                           *
        *************************************************************


remove work dirs ./qchem3250693.0 -- ./qchem3250693.-1
rm -rf ./qchem3250693
