You are running Q-Chem version: 5.4.0

#
# job setting
#
local host:  exp-1-55
current dir: /expanse/lustre/scratch/theleonzhang/temp_project/Interring_Bonds
input file:  Methylthiophene_Phi_5_Theta_320_Methylthiophene.qcin
output file: 
nprocs     : 0
nthreads   : 1
#
# qchem installation setting
#
QC:          /cm/shared/apps/spack/cpu/opt/spack/linux-centos8-zen2/gcc-10.2.0/qchem-5.4-akfmr7b3t57bfs6qan3padb2wnb2i7cl
QCAUX:       /cm/shared/apps/spack/cpu/opt/spack/linux-centos8-zen2/gcc-10.2.0/qchem-5.4-akfmr7b3t57bfs6qan3padb2wnb2i7cl/qcaux
QCPROG:      /cm/shared/apps/spack/cpu/opt/spack/linux-centos8-zen2/gcc-10.2.0/qchem-5.4-akfmr7b3t57bfs6qan3padb2wnb2i7cl/exe/qcprog.exe_s
QCPROG_S:    /cm/shared/apps/spack/cpu/opt/spack/linux-centos8-zen2/gcc-10.2.0/qchem-5.4-akfmr7b3t57bfs6qan3padb2wnb2i7cl/exe/qcprog.exe_s
PARALLEL:    -DSERIAL
QCMPI:       mpich
#
# qchem directory setting
#
qcrun:       qchem973788
QCSCRATCH:   .
QCLOCALSCR:  
QCTMPDIR:    .
QCFILEPREF:  ./qchem973788
QCSAVEDIR:   
workdirs:    ./qchem973788
workdir0:    ./qchem973788
partmpdirs =  
#
# parallel setting
#
QCRSH:           ssh
QCMPI:           mpich
QCMPIRUN:        /cm/shared/apps/spack/cpu/opt/spack/linux-centos8-zen2/gcc-10.2.0/qchem-5.4-akfmr7b3t57bfs6qan3padb2wnb2i7cl/bin/mpi/mpirun_qchem
QCMACHINEFILE:   ./qchem973788/hostfile

#
# env setting
#
exported envs:   QC QCAUX QCSCRATCH QCRUNNAME QCFILEPREF QCPROG QCPROG_S GUIFILE

Running Job 1 of 1 Methylthiophene_Phi_5_Theta_320_Methylthiophene.qcin
qchem Methylthiophene_Phi_5_Theta_320_Methylthiophene.qcin_973788.0 ./qchem973788/ 0
/cm/shared/apps/spack/cpu/opt/spack/linux-centos8-zen2/gcc-10.2.0/qchem-5.4-akfmr7b3t57bfs6qan3padb2wnb2i7cl/exe/qcprog.exe_s Methylthiophene_Phi_5_Theta_320_Methylthiophene.qcin_973788.0 ./qchem973788/
                  Welcome to Q-Chem
     A Quantum Leap Into The Future Of Chemistry


 Q-Chem 5.4, Q-Chem, Inc., Pleasanton, CA (2021)

 License issued to: University of California, San Diego (site)

 E. Epifanovsky,  A. T. B. Gilbert,  Xintian Feng,  Joonho Lee,  Yuezhi Mao,  
 N. Mardirossian,  P. Pokhilko,  A. White,  M. Wormit,  M. P. Coons,  
 A. L. Dempwolff,  Zhengting Gan,  D. Hait,  P. R. Horn,  L. D. Jacobson,  
 I. Kaliman,  J. Kussmann,  A. W. Lange,  Ka Un Lao,  D. S. Levine,  Jie Liu,  
 S. C. McKenzie,  A. F. Morrison,  K. Nanda,  F. Plasser,  D. R. Rehn,  
 M. L. Vidal,  Zhi-Qiang You,  Ying Zhu,  B. Alam,  B. Albrecht,  
 A. Aldossary,  E. Alguire,  J. H. Andersen,  D. Barton,  K. Begam,  A. Behn,  
 Y. A. Bernard,  E. J. Berquist,  H. Burton,  A. Carreras,  K. Carter-Fenk,  
 R. Chakraborty,  A. D. Chien,  K. D. Closser,  V. Cofer-Shabica,  
 S. Dasgupta,  Jia Deng,  M. de Wergifosse,  M. Diedenhofen,  Hainam Do,  
 S. Ehlert,  Po-Tung Fang,  S. Fatehi,  Qingguo Feng,  J. Gayvert,  
 Qinghui Ge,  G. Gidofalvi,  M. Goldey,  J. Gomes,  C. Gonzalez-Espinoza,  
 S. Gulania,  A. Gunina,  M. W. D. Hanson-Heine,  P. H. P. Harbach,  
 A. W. Hauser,  M. F. Herbst,  M. Hernandez Vera,  M. Hodecker,  
 Z. C. Holden,  S. Houck,  Xunkun Huang,  Kerwin Hui,  B. C. Huynh,  
 M. Ivanov,  Hyunjun Ji,  Hanjie Jiang,  B. Kaduk,  S. Kaehler,  
 K. Khistyaev,  Jaehoon Kim,  P. Klunzinger,  Z. Koczor-Benda,  
 Joong Hoon Koh,  D. Kosenkov,  L. Koulias,  T. Kowalczyk,  C. M. Krauter,  
 K. Kue,  A. Kunitsa,  T. Kus,  A. Landau,  K. V. Lawler,  D. Lefrancois,  
 S. Lehtola,  Rain Li,  Yi-Pei Li,  Jiashu Liang,  M. Liebenthal,  
 Hung-Hsuan Lin,  You-Sheng Lin,  Fenglai Liu,  Kuan-Yu Liu,  
 M. Loipersberger,  A. Luenser,  A. Manjanath,  P. Manohar,  E. Mansoor,  
 S. F. Manzer,  Shan-Ping Mao,  A. V. Marenich,  T. Markovich,  S. Mason,  
 S. A. Maurer,  P. F. McLaughlin,  M. F. S. J. Menger,  J.-M. Mewes,  
 S. A. Mewes,  P. Morgante,  J. W. Mullinax,  T. S. Nguyen-Beck,  
 K. J. Oosterbaan,  G. Paran,  Alexander C. Paul,  Suranjan K. Paul,  
 F. Pavosevic,  Zheng Pei,  S. Prager,  E. I. Proynov,  E. Ramos,  B. Rana,  
 A. E. Rask,  A. Rettig,  R. M. Richard,  F. Rob,  E. Rossomme,  T. Scheele,  
 M. Scheurer,  M. Schneider,  N. Sergueev,  S. M. Sharada,  W. Skomorowski,  
 D. W. Small,  C. J. Stein,  Yu-Chuan Su,  E. J. Sundstrom,  Zhen Tao,  
 J. Thirman,  T. Tsuchimochi,  N. M. Tubman,  S. P. Veccham,  O. Vydrov,  
 J. Wenzel,  J. Witte,  A. Yamada,  Kun Yao,  S. Yeganeh,  S. R. Yost,  
 A. Zech,  Igor Ying Zhang,  Xing Zhang,  Yu Zhang,  D. Zuev,  
 A. Aspuru-Guzik,  A. T. Bell,  N. A. Besley,  K. B. Bravaya,  B. R. Brooks,  
 D. Casanova,  Jeng-Da Chai,  S. Coriani,  C. J. Cramer,  
 A. E. DePrince, III,  R. A. DiStasio Jr.,  A. Dreuw,  B. D. Dunietz,  
 T. R. Furlani,  W. A. Goddard III,  S. Grimme,  S. Hammes-Schiffer,  
 T. Head-Gordon,  W. J. Hehre,  Chao-Ping Hsu,  T.-C. Jagau,  Yousung Jung,  
 A. Klamt,  Jing Kong,  D. S. Lambrecht,  WanZhen Liang,  N. J. Mayhall,  
 C. W. McCurdy,  J. B. Neaton,  C. Ochsenfeld,  J. A. Parkhill,  R. Peverati,  
 V. A. Rassolov,  Yihan Shao,  L. V. Slipchenko,  T. Stauch,  R. P. Steele,  
 J. E. Subotnik,  A. J. W. Thom,  A. Tkatchenko,  D. G. Truhlar,  
 T. Van Voorhis,  T. A. Wesolowski,  K. B. Whaley,  H. L. Woodcock III,  
 P. M. Zimmerman,  S. Faraji,  P. M. W. Gill,  M. Head-Gordon,  
 J. M. Herbert,  A. I. Krylov

 Contributors to earlier versions of Q-Chem not listed above: 
 R. D. Adamson,  B. Austin,  R. Baer,  J. Baker,  G. J. O. Beran,  
 K. Brandhorst,  S. T. Brown,  E. F. C. Byrd,  A. K. Chakraborty,  
 G. K. L. Chan,  Chun-Min Chang,  Yunqing Chen,  C.-L. Cheng,  
 Siu Hung Chien,  D. M. Chipman,  D. L. Crittenden,  H. Dachsel,  
 R. J. Doerksen,  A. D. Dutoi,  R. G. Edgar,  J. Fosso-Tande,  
 L. Fusti-Molnar,  D. Ghosh,  A. Ghysels,  A. Golubeva-Zadorozhnaya,  
 J. Gonthier,  M. S. Gordon,  S. R. Gwaltney,  G. Hawkins,  J. E. Herr,  
 A. Heyden,  S. Hirata,  E. G. Hohenstein,  G. Kedziora,  F. J. Keil,  
 C. Kelley,  Jihan Kim,  R. A. King,  R. Z. Khaliullin,  P. P. Korambath,  
 W. Kurlancheek,  A. Laurent,  A. M. Lee,  M. S. Lee,  S. V. Levchenko,  
 Ching Yeh Lin,  D. Liotard,  E. Livshits,  R. C. Lochan,  I. Lotan,  
 L. A. Martinez-Martinez,  P. E. Maslen,  N. Nair,  D. P. O'Neill,  
 D. Neuhauser,  E. Neuscamman,  C. M. Oana,  R. Olivares-Amaya,  R. Olson,  
 T. M. Perrine,  B. Peters,  P. A. Pieniazek,  A. Prociuk,  Y. M. Rhee,  
 J. Ritchie,  M. A. Rohrdanz,  E. Rosta,  N. J. Russ,  H. F. Schaefer III,  
 M. W. Schmidt,  N. E. Schultz,  S. Sharma,  N. Shenvi,  C. D. Sherrill,  
 A. C. Simmonett,  A. Sodt,  T. Stein,  D. Stuck,  K. S. Thanthiriwatte,  
 V. Vanovschi,  L. Vogt,  Tao Wang,  A. Warshel,  M. A. Watson,  
 C. F. Williams,  Q. Wu,  X. Xu,  Jun Yang,  W. Zhang,  Yan Zhao

 Please cite Q-Chem as follows:
 Y. Shao et al., Mol. Phys. 113, 184-215 (2015)
 DOI: 10.1080/00268976.2014.952696

 Q-Chem 5.4.0 for Intel X86 EM64T Linux

 Parts of Q-Chem use Armadillo 9.800.1 (Horizon Scraper).
 http://arma.sourceforge.net/

 Q-Chem begins on Sat Jul  9 16:47:49 2022  

 Host: 
0

     Scratch files written to ./qchem973788//
 May1621 |scratch|qcdevops|jenkins|workspace|build_RNUM    
 Processing $rem in /cm/shared/apps/spack/cpu/opt/spack/linux-centos8-zen2/gcc-10.2.0/qchem-5.4-akfmr7b3t57bfs6qan3padb2wnb2i7cl/config/preferences:
 Processing $rem in /home/theleonzhang/.qchemrc:
 Symmetry turned off for PCM/SM12/SMD calculation
 Core orbitals will be frozen

 Checking the input file for inconsistencies... 	...done.

--------------------------------------------------------------
User input:
--------------------------------------------------------------
$molecule
0 1
C	0.497696	-3.866725	0.594240
C	-0.393981	-3.703963	-0.469057
C	-0.685571	-2.357056	-0.817136
H	-0.837848	-4.561092	-0.997777
C	-0.000000	-1.440664	-0.000000
S	0.992782	-2.286957	1.183137
C	-1.620802	-1.978743	-1.932056
H	-2.035506	-2.878678	-2.426166
H	-1.109943	-1.376015	-2.711806
H	-2.477350	-1.375728	-1.564678
H	0.883271	-4.783437	1.054110
C	0.000000	0.000000	0.000000
C	0.075300	0.860311	1.099446
C	0.195935	2.238951	0.776721
H	0.043151	0.492916	2.136088
C	0.215188	2.458766	-0.612546
S	0.082160	0.938811	-1.486809
C	0.290762	3.322559	1.814609
H	0.253664	2.898542	2.836676
H	-0.541206	4.052140	1.726239
H	1.236797	3.896558	1.726228
H	0.297938	3.404370	-1.161575
$end

$rem
JOBTYPE		SP
EXCHANGE	HF
CORRELATION	pRIMP2
BASIS		cc-pvtz
METHOD		rimp2
AUX_BASIS	rimp2-cc-pvtz
SOLVENT_METHOD	PCM
PURECART	11111
SYMMETRY	false
MEM_TOTAL	110000
SCF_CONVERGENCE = 6
THRESH=10
$end



$solvent
dielectric 4.90
$end
--------------------------------------------------------------
 ----------------------------------------------------------------
             Standard Nuclear Orientation (Angstroms)
    I     Atom           X                Y                Z
 ----------------------------------------------------------------
    1      C       0.4976960000    -3.8667250000     0.5942400000
    2      C      -0.3939810000    -3.7039630000    -0.4690570000
    3      C      -0.6855710000    -2.3570560000    -0.8171360000
    4      H      -0.8378480000    -4.5610920000    -0.9977770000
    5      C       0.0000000000    -1.4406640000     0.0000000000
    6      S       0.9927820000    -2.2869570000     1.1831370000
    7      C      -1.6208020000    -1.9787430000    -1.9320560000
    8      H      -2.0355060000    -2.8786780000    -2.4261660000
    9      H      -1.1099430000    -1.3760150000    -2.7118060000
   10      H      -2.4773500000    -1.3757280000    -1.5646780000
   11      H       0.8832710000    -4.7834370000     1.0541100000
   12      C       0.0000000000     0.0000000000     0.0000000000
   13      C       0.0753000000     0.8603110000     1.0994460000
   14      C       0.1959350000     2.2389510000     0.7767210000
   15      H       0.0431510000     0.4929160000     2.1360880000
   16      C       0.2151880000     2.4587660000    -0.6125460000
   17      S       0.0821600000     0.9388110000    -1.4868090000
   18      C       0.2907620000     3.3225590000     1.8146090000
   19      H       0.2536640000     2.8985420000     2.8366760000
   20      H      -0.5412060000     4.0521400000     1.7262390000
   21      H       1.2367970000     3.8965580000     1.7262280000
   22      H       0.2979380000     3.4043700000    -1.1615750000
 ----------------------------------------------------------------
 Nuclear Repulsion Energy =         835.37160298 hartrees
 There are       51 alpha and       51 beta electrons

 Q-Chem warning in module forms1/BasisType.C, line 2236:

 You are not using the predefined 5D/6D in this basis set.

 Requested basis set is cc-pVTZ
 There are 184 shells and 508 basis functions

 Total QAlloc Memory Limit 110000 MB
 Mega-Array Size       188 MB
 MEM_STATIC part       192 MB
 Discretize the solute cavity surface with Lebedev spheres
	Using 110 Lebedev grid points for each H atom
	Using 194 Lebedev grid points for other atoms
	Atomic van der Waals radii will be scaled by 1.20
 Remove points where switching function is < 1.0e-08
 Keep 1540 surface tesserae and discard 1888 interior tesserae
 Molecular Surface Area = 232.919 Angst**2
 Requested basis set is rimp2-cc-pVTZ
 There are 394 shells and 1354 basis functions
 A cutoff of  1.0D-10 yielded  12148 shell pairs
 There are     90282 function pairs (    116614 Cartesian)
 Smallest overlap matrix eigenvalue = 5.90E-05

 Scale SEOQF with 1.000000e-01/1.000000e-01/1.000000e-01

 Standard Electronic Orientation quadrupole field applied
 Nucleus-field energy     =     0.0000000266 hartrees
 Guess from superposition of atomic densities
 Warning:  Energy on first SCF cycle will be non-variational
 SAD guess density has 102.000000 electrons

 -----------------------------------------------------------------------
  General SCF calculation program by
  Eric Jon Sundstrom, Paul Horn, Yuezhi Mao, Dmitri Zuev, Alec White,
  David Stuck, Shaama M.S., Shane Yost, Joonho Lee, David Small,
  Daniel Levine, Susi Lehtola, Hugh Burton, Evgeny Epifanovsky,
  Bang C. Huynh
 -----------------------------------------------------------------------
 Hartree-Fock
 A restricted SCF calculation will be
 performed using DIIS
 SCF converges when DIIS error is below 1.0e-06
 ---------------------------------------
  Cycle       Energy         DIIS error
 ---------------------------------------
    1   -1184.2216376552      2.38e-02  
    2   -1179.5479864570      1.60e-03  
    3   -1179.6682621114      6.12e-04  
    4   -1179.6817864153      3.35e-04  
    5   -1179.6864906073      6.53e-05  
    6   -1179.6867691112      3.05e-05  
    7   -1179.6868560945      1.25e-05  
    8   -1179.6868840405      5.22e-06  
    9   -1179.6868889237      1.62e-06  
   10   -1179.6868893603      5.31e-07  Convergence criterion met
 ---------------------------------------
 SCF time:   CPU 477.08s  wall 480.00s 

************** Final PCM Free Energy Summary **************
 G_electrostatic  =      -0.00772489 hartree =      -4.84744344 kcal/mol
 G_cavitation     =       0.00000000 hartree =       0.00000000 kcal/mol
 G_dispersion     =       0.00000000 hartree =       0.00000000 kcal/mol
 G_repulsion      =       0.00000000 hartree =       0.00000000 kcal/mol
 --------------------------------------------------
 Non-electrostatic Free Energy =       0.00000000 hartree =       0.00000000 kcal/mol
 Total                         =      -0.00772489 hartree =      -4.84744344 kcal/mol
 --------------------------------------------------
 SCF Energy (H0 + V/2)                       =   -1179.68688936 
 Solute Internal Energy (H0)                 =   -1179.67916447 
 Total Free Energy (H0 + V/2 + non-elec)     =   -1179.68688936 hartree
                                             = -740264.69588811 kcal/mol
***********************************************************

 SCF   energy in the final basis set =    -1179.6868893603
 Total energy in the final basis set =    -1179.6868893603


 --------------------------------------------------------------
  Generalized many-body perturbation theory program
  by Joonho Lee, Fazle Rob, Xintian Feng, Evgeny Epifanovsky

 No regularization used 
 (reg. param. = 0.0000e+00)
  (P|Q)^-1/2 Time:  CPU 1.68 s  wall 1.69 s

 In RI-MP2 calculation: 
 # of frozen core orbitals: 20

 Components of the RIMP2 correlation energy:
        aaaa    correlation energy =        -0.2526508874 a.u.
        abab    correlation energy =        -1.4737016137 a.u.
        bbbb    correlation energy =        -0.2526508874 a.u.
        non-Brillouin singles      =        -0.0000000000 a.u.
        total same-spin energy     =        -0.5053017748 a.u.
        total opposite-spin energy =        -1.4737016137 a.u.

 Total  RIMP2   correlation energy =        -1.9790033884 a.u.
        RIMP2         total energy =     -1181.6658927487 a.u.

 RI-MP2 Energy Time:  CPU 66.76 s  wall 67.02 s
 
 --------------------------------------------------------------
 
                    Orbital Energies (a.u.)
 --------------------------------------------------------------
 
 Alpha MOs
 -- Occupied --
-91.9857 -91.9853 -11.2821 -11.2760 -11.2723 -11.2638 -11.2533 -11.2517
-11.2430 -11.2411 -11.2297 -11.2289  -8.9853  -8.9849  -6.6662  -6.6658
 -6.6657  -6.6653  -6.6650  -6.6647  -1.1802  -1.1499  -1.0412  -1.0243
 -0.9988  -0.9528  -0.9149  -0.8935  -0.8007  -0.7620  -0.7230  -0.6948
 -0.6630  -0.6162  -0.5836  -0.5781  -0.5766  -0.5697  -0.5524  -0.5339
 -0.5260  -0.5198  -0.5092  -0.4954  -0.4889  -0.4677  -0.4564  -0.3573
 -0.3426  -0.3401  -0.2774
 -- Virtual --
  0.0687   0.1286   0.1435   0.1511   0.1613   0.1736   0.1791   0.1877
  0.1907   0.1979   0.2035   0.2206   0.2315   0.2385   0.2415   0.2466
  0.2617   0.2717   0.3005   0.3159   0.3399   0.3537   0.3581   0.3727
  0.3774   0.3855   0.3962   0.4033   0.4095   0.4231   0.4301   0.4436
  0.4535   0.4650   0.4680   0.4705   0.4812   0.4893   0.4996   0.5008
  0.5105   0.5288   0.5324   0.5388   0.5400   0.5469   0.5542   0.5645
  0.5732   0.5762   0.5860   0.5982   0.6043   0.6149   0.6183   0.6227
  0.6243   0.6309   0.6387   0.6430   0.6471   0.6520   0.6574   0.6678
  0.6804   0.6945   0.7002   0.7073   0.7191   0.7261   0.7285   0.7509
  0.7808   0.7906   0.7972   0.8083   0.8161   0.8277   0.8417   0.8477
  0.8610   0.8630   0.8747   0.8871   0.8965   0.9084   0.9345   0.9408
  0.9521   0.9675   0.9762   0.9879   1.0179   1.0191   1.0239   1.0322
  1.0461   1.0585   1.0621   1.0693   1.0748   1.0865   1.0971   1.1000
  1.1106   1.1140   1.1372   1.1425   1.1506   1.1642   1.1703   1.1835
  1.2087   1.2168   1.2318   1.2335   1.2456   1.2524   1.2638   1.2669
  1.2858   1.2883   1.3057   1.3269   1.3322   1.3436   1.3462   1.3695
  1.3723   1.3852   1.4054   1.4204   1.4244   1.4318   1.4554   1.4698
  1.4777   1.4928   1.5007   1.5056   1.5121   1.5316   1.5398   1.5469
  1.5585   1.5596   1.5665   1.5738   1.5821   1.5922   1.6153   1.6228
  1.6533   1.6590   1.6628   1.6868   1.7001   1.7048   1.7138   1.7342
  1.7463   1.7635   1.7757   1.7949   1.8003   1.8168   1.8265   1.8419
  1.8836   1.9001   1.9088   1.9192   1.9469   1.9633   1.9802   1.9876
  1.9899   2.0374   2.0512   2.0685   2.1272   2.1348   2.1471   2.1753
  2.1867   2.2002   2.2087   2.2362   2.2453   2.2640   2.2717   2.2772
  2.2967   2.3069   2.3268   2.3704   2.4001   2.4210   2.4256   2.4587
  2.4704   2.4951   2.4988   2.5310   2.5409   2.5721   2.5992   2.6132
  2.6315   2.6459   2.6579   2.6692   2.6743   2.6978   2.7029   2.7236
  2.7334   2.7402   2.7457   2.7563   2.7668   2.7687   2.7790   2.7990
  2.8277   2.8326   2.8532   2.8561   2.8745   2.8987   2.9145   2.9230
  2.9403   2.9630   2.9696   2.9842   2.9943   3.0122   3.0191   3.0375
  3.0542   3.0689   3.0837   3.1006   3.1118   3.1195   3.1292   3.1402
  3.1452   3.1490   3.1509   3.1684   3.1902   3.1973   3.2072   3.2279
  3.2383   3.2506   3.2642   3.2736   3.2782   3.2858   3.3098   3.3163
  3.3177   3.3200   3.3304   3.3341   3.3536   3.3610   3.3694   3.3792
  3.3812   3.3965   3.3970   3.4018   3.4145   3.4228   3.4351   3.4443
  3.4484   3.4567   3.4696   3.4794   3.4899   3.4964   3.5142   3.5204
  3.5211   3.5329   3.5365   3.5414   3.5579   3.5605   3.5751   3.5802
  3.5947   3.6175   3.6203   3.6327   3.6400   3.6506   3.6559   3.6676
  3.6748   3.6926   3.7042   3.7066   3.7267   3.7408   3.7432   3.7556
  3.7679   3.7764   3.7827   3.7915   3.7983   3.8072   3.8191   3.8336
  3.8610   3.8787   3.8851   3.9018   3.9216   3.9269   3.9438   3.9531
  3.9701   3.9874   3.9926   4.0044   4.0132   4.0193   4.0222   4.0500
  4.0639   4.0761   4.0884   4.1069   4.1151   4.1405   4.1456   4.1525
  4.1651   4.1820   4.1877   4.1947   4.2015   4.2096   4.2177   4.2333
  4.2496   4.2608   4.2830   4.2882   4.2907   4.3055   4.3288   4.3309
  4.3521   4.3612   4.3640   4.3817   4.3899   4.4013   4.4118   4.4245
  4.4266   4.4555   4.4645   4.4743   4.4837   4.5223   4.5453   4.5633
  4.5925   4.6078   4.6151   4.6219   4.6320   4.6468   4.6582   4.6803
  4.7106   4.7294   4.7382   4.7486   4.7641   4.7904   4.8290   4.8439
  4.8564   4.8803   4.8964   4.9280   4.9409   4.9567   5.0101   5.0555
  5.0794   5.0977   5.1127   5.1555   5.1822   5.1966   5.2040   5.2496
  5.2758   5.2828   5.2912   5.3088   5.3225   5.3744   5.3945   5.4049
  5.4099   5.4412   5.4636   5.4728   5.5196   5.5348   5.5477   5.5622
  5.5710   5.5781   5.6127   5.6236   5.6270   5.6965   5.7069   5.7189
  5.7891   5.8360   5.9044   5.9940   6.0219   6.1011   6.1543   6.2265
  6.2331   6.2506   6.2816   6.3126   6.3291   6.4678   6.5186   8.8941
  9.9387  11.5107  12.0065  12.9459  13.1659  13.7528  13.9732  14.2046
 14.4021
 --------------------------------------------------------------
 
          Ground-State Mulliken Net Atomic Charges

     Atom                 Charge (a.u.)
  ----------------------------------------
      1 C                    -0.214388
      2 C                    -0.247844
      3 C                     0.028301
      4 H                     0.184659
      5 C                    -0.022698
      6 S                     0.019941
      7 C                    -0.299634
      8 H                     0.110892
      9 H                     0.112341
     10 H                     0.116332
     11 H                     0.205252
     12 C                     0.036884
     13 C                    -0.270357
     14 C                     0.030712
     15 H                     0.185979
     16 C                    -0.247337
     17 S                     0.024889
     18 C                    -0.271857
     19 H                     0.102992
     20 H                     0.108119
     21 H                     0.108723
     22 H                     0.198099
  ----------------------------------------
  Sum of atomic charges =     0.000000

 -----------------------------------------------------------------
                    Cartesian Multipole Moments
 -----------------------------------------------------------------
    Charge (ESU x 10^10)
                -0.0000
    Dipole Moment (Debye)
         X      -0.8132      Y       0.1710      Z       0.2499
       Tot       0.8677
    Quadrupole Moments (Debye-Ang)
        XX     -89.9240     XY       2.3359     YY     -68.6942
        XZ       3.4284     YZ       2.6839     ZZ     -82.7300
    Octopole Moments (Debye-Ang^2)
       XXX     -15.8506    XXY      38.8139    XYY       0.9123
       YYY      93.7348    XXZ      -0.4603    XYZ     -12.4856
       YYZ       0.6603    XZZ      -5.2363    YZZ      45.1465
       ZZZ       6.6581
    Hexadecapole Moments (Debye-Ang^3)
      XXXX    -370.0732   XXXY     -39.8490   XXYY    -564.7052
      XYYY     -54.1857   YYYY   -2575.3987   XXXZ    -144.7900
      XXYZ     -27.1266   XYYZ       0.6374   YYYZ    -134.4853
      XXZZ    -208.0784   XYZZ      -8.3539   YYZZ    -604.9289
      XZZZ    -142.8551   YZZZ     -90.0623   ZZZZ    -856.1730
 -----------------------------------------------------------------
 Total job time:  548.75s(wall), 544.66s(cpu) 
 Sat Jul  9 16:56:58 2022

        *************************************************************
        *                                                           *
        *  Thank you very much for using Q-Chem.  Have a nice day.  *
        *                                                           *
        *************************************************************


remove work dirs ./qchem973788.0 -- ./qchem973788.-1
rm -rf ./qchem973788
