You are running Q-Chem version: 5.4.0

#
# job setting
#
local host:  exp-2-32
current dir: /expanse/lustre/scratch/theleonzhang/temp_project/Interring_Bonds
input file:  Methylthiophene_Phi_30_Theta_110_Methylthiophene.qcin
output file: 
nprocs     : 0
nthreads   : 1
#
# qchem installation setting
#
QC:          /cm/shared/apps/spack/cpu/opt/spack/linux-centos8-zen2/gcc-10.2.0/qchem-5.4-akfmr7b3t57bfs6qan3padb2wnb2i7cl
QCAUX:       /cm/shared/apps/spack/cpu/opt/spack/linux-centos8-zen2/gcc-10.2.0/qchem-5.4-akfmr7b3t57bfs6qan3padb2wnb2i7cl/qcaux
QCPROG:      /cm/shared/apps/spack/cpu/opt/spack/linux-centos8-zen2/gcc-10.2.0/qchem-5.4-akfmr7b3t57bfs6qan3padb2wnb2i7cl/exe/qcprog.exe_s
QCPROG_S:    /cm/shared/apps/spack/cpu/opt/spack/linux-centos8-zen2/gcc-10.2.0/qchem-5.4-akfmr7b3t57bfs6qan3padb2wnb2i7cl/exe/qcprog.exe_s
PARALLEL:    -DSERIAL
QCMPI:       mpich
#
# qchem directory setting
#
qcrun:       qchem3673207
QCSCRATCH:   .
QCLOCALSCR:  
QCTMPDIR:    .
QCFILEPREF:  ./qchem3673207
QCSAVEDIR:   
workdirs:    ./qchem3673207
workdir0:    ./qchem3673207
partmpdirs =  
#
# parallel setting
#
QCRSH:           ssh
QCMPI:           mpich
QCMPIRUN:        /cm/shared/apps/spack/cpu/opt/spack/linux-centos8-zen2/gcc-10.2.0/qchem-5.4-akfmr7b3t57bfs6qan3padb2wnb2i7cl/bin/mpi/mpirun_qchem
QCMACHINEFILE:   ./qchem3673207/hostfile

#
# env setting
#
exported envs:   QC QCAUX QCSCRATCH QCRUNNAME QCFILEPREF QCPROG QCPROG_S GUIFILE

Running Job 1 of 1 Methylthiophene_Phi_30_Theta_110_Methylthiophene.qcin
qchem Methylthiophene_Phi_30_Theta_110_Methylthiophene.qcin_3673207.0 ./qchem3673207/ 0
/cm/shared/apps/spack/cpu/opt/spack/linux-centos8-zen2/gcc-10.2.0/qchem-5.4-akfmr7b3t57bfs6qan3padb2wnb2i7cl/exe/qcprog.exe_s Methylthiophene_Phi_30_Theta_110_Methylthiophene.qcin_3673207.0 ./qchem3673207/
                  Welcome to Q-Chem
     A Quantum Leap Into The Future Of Chemistry


 Q-Chem 5.4, Q-Chem, Inc., Pleasanton, CA (2021)

 License issued to: University of California, San Diego (site)

 E. Epifanovsky,  A. T. B. Gilbert,  Xintian Feng,  Joonho Lee,  Yuezhi Mao,  
 N. Mardirossian,  P. Pokhilko,  A. White,  M. Wormit,  M. P. Coons,  
 A. L. Dempwolff,  Zhengting Gan,  D. Hait,  P. R. Horn,  L. D. Jacobson,  
 I. Kaliman,  J. Kussmann,  A. W. Lange,  Ka Un Lao,  D. S. Levine,  Jie Liu,  
 S. C. McKenzie,  A. F. Morrison,  K. Nanda,  F. Plasser,  D. R. Rehn,  
 M. L. Vidal,  Zhi-Qiang You,  Ying Zhu,  B. Alam,  B. Albrecht,  
 A. Aldossary,  E. Alguire,  J. H. Andersen,  D. Barton,  K. Begam,  A. Behn,  
 Y. A. Bernard,  E. J. Berquist,  H. Burton,  A. Carreras,  K. Carter-Fenk,  
 R. Chakraborty,  A. D. Chien,  K. D. Closser,  V. Cofer-Shabica,  
 S. Dasgupta,  Jia Deng,  M. de Wergifosse,  M. Diedenhofen,  Hainam Do,  
 S. Ehlert,  Po-Tung Fang,  S. Fatehi,  Qingguo Feng,  J. Gayvert,  
 Qinghui Ge,  G. Gidofalvi,  M. Goldey,  J. Gomes,  C. Gonzalez-Espinoza,  
 S. Gulania,  A. Gunina,  M. W. D. Hanson-Heine,  P. H. P. Harbach,  
 A. W. Hauser,  M. F. Herbst,  M. Hernandez Vera,  M. Hodecker,  
 Z. C. Holden,  S. Houck,  Xunkun Huang,  Kerwin Hui,  B. C. Huynh,  
 M. Ivanov,  Hyunjun Ji,  Hanjie Jiang,  B. Kaduk,  S. Kaehler,  
 K. Khistyaev,  Jaehoon Kim,  P. Klunzinger,  Z. Koczor-Benda,  
 Joong Hoon Koh,  D. Kosenkov,  L. Koulias,  T. Kowalczyk,  C. M. Krauter,  
 K. Kue,  A. Kunitsa,  T. Kus,  A. Landau,  K. V. Lawler,  D. Lefrancois,  
 S. Lehtola,  Rain Li,  Yi-Pei Li,  Jiashu Liang,  M. Liebenthal,  
 Hung-Hsuan Lin,  You-Sheng Lin,  Fenglai Liu,  Kuan-Yu Liu,  
 M. Loipersberger,  A. Luenser,  A. Manjanath,  P. Manohar,  E. Mansoor,  
 S. F. Manzer,  Shan-Ping Mao,  A. V. Marenich,  T. Markovich,  S. Mason,  
 S. A. Maurer,  P. F. McLaughlin,  M. F. S. J. Menger,  J.-M. Mewes,  
 S. A. Mewes,  P. Morgante,  J. W. Mullinax,  T. S. Nguyen-Beck,  
 K. J. Oosterbaan,  G. Paran,  Alexander C. Paul,  Suranjan K. Paul,  
 F. Pavosevic,  Zheng Pei,  S. Prager,  E. I. Proynov,  E. Ramos,  B. Rana,  
 A. E. Rask,  A. Rettig,  R. M. Richard,  F. Rob,  E. Rossomme,  T. Scheele,  
 M. Scheurer,  M. Schneider,  N. Sergueev,  S. M. Sharada,  W. Skomorowski,  
 D. W. Small,  C. J. Stein,  Yu-Chuan Su,  E. J. Sundstrom,  Zhen Tao,  
 J. Thirman,  T. Tsuchimochi,  N. M. Tubman,  S. P. Veccham,  O. Vydrov,  
 J. Wenzel,  J. Witte,  A. Yamada,  Kun Yao,  S. Yeganeh,  S. R. Yost,  
 A. Zech,  Igor Ying Zhang,  Xing Zhang,  Yu Zhang,  D. Zuev,  
 A. Aspuru-Guzik,  A. T. Bell,  N. A. Besley,  K. B. Bravaya,  B. R. Brooks,  
 D. Casanova,  Jeng-Da Chai,  S. Coriani,  C. J. Cramer,  
 A. E. DePrince, III,  R. A. DiStasio Jr.,  A. Dreuw,  B. D. Dunietz,  
 T. R. Furlani,  W. A. Goddard III,  S. Grimme,  S. Hammes-Schiffer,  
 T. Head-Gordon,  W. J. Hehre,  Chao-Ping Hsu,  T.-C. Jagau,  Yousung Jung,  
 A. Klamt,  Jing Kong,  D. S. Lambrecht,  WanZhen Liang,  N. J. Mayhall,  
 C. W. McCurdy,  J. B. Neaton,  C. Ochsenfeld,  J. A. Parkhill,  R. Peverati,  
 V. A. Rassolov,  Yihan Shao,  L. V. Slipchenko,  T. Stauch,  R. P. Steele,  
 J. E. Subotnik,  A. J. W. Thom,  A. Tkatchenko,  D. G. Truhlar,  
 T. Van Voorhis,  T. A. Wesolowski,  K. B. Whaley,  H. L. Woodcock III,  
 P. M. Zimmerman,  S. Faraji,  P. M. W. Gill,  M. Head-Gordon,  
 J. M. Herbert,  A. I. Krylov

 Contributors to earlier versions of Q-Chem not listed above: 
 R. D. Adamson,  B. Austin,  R. Baer,  J. Baker,  G. J. O. Beran,  
 K. Brandhorst,  S. T. Brown,  E. F. C. Byrd,  A. K. Chakraborty,  
 G. K. L. Chan,  Chun-Min Chang,  Yunqing Chen,  C.-L. Cheng,  
 Siu Hung Chien,  D. M. Chipman,  D. L. Crittenden,  H. Dachsel,  
 R. J. Doerksen,  A. D. Dutoi,  R. G. Edgar,  J. Fosso-Tande,  
 L. Fusti-Molnar,  D. Ghosh,  A. Ghysels,  A. Golubeva-Zadorozhnaya,  
 J. Gonthier,  M. S. Gordon,  S. R. Gwaltney,  G. Hawkins,  J. E. Herr,  
 A. Heyden,  S. Hirata,  E. G. Hohenstein,  G. Kedziora,  F. J. Keil,  
 C. Kelley,  Jihan Kim,  R. A. King,  R. Z. Khaliullin,  P. P. Korambath,  
 W. Kurlancheek,  A. Laurent,  A. M. Lee,  M. S. Lee,  S. V. Levchenko,  
 Ching Yeh Lin,  D. Liotard,  E. Livshits,  R. C. Lochan,  I. Lotan,  
 L. A. Martinez-Martinez,  P. E. Maslen,  N. Nair,  D. P. O'Neill,  
 D. Neuhauser,  E. Neuscamman,  C. M. Oana,  R. Olivares-Amaya,  R. Olson,  
 T. M. Perrine,  B. Peters,  P. A. Pieniazek,  A. Prociuk,  Y. M. Rhee,  
 J. Ritchie,  M. A. Rohrdanz,  E. Rosta,  N. J. Russ,  H. F. Schaefer III,  
 M. W. Schmidt,  N. E. Schultz,  S. Sharma,  N. Shenvi,  C. D. Sherrill,  
 A. C. Simmonett,  A. Sodt,  T. Stein,  D. Stuck,  K. S. Thanthiriwatte,  
 V. Vanovschi,  L. Vogt,  Tao Wang,  A. Warshel,  M. A. Watson,  
 C. F. Williams,  Q. Wu,  X. Xu,  Jun Yang,  W. Zhang,  Yan Zhao

 Please cite Q-Chem as follows:
 Y. Shao et al., Mol. Phys. 113, 184-215 (2015)
 DOI: 10.1080/00268976.2014.952696

 Q-Chem 5.4.0 for Intel X86 EM64T Linux

 Parts of Q-Chem use Armadillo 9.800.1 (Horizon Scraper).
 http://arma.sourceforge.net/

 Q-Chem begins on Fri Jul  8 23:39:34 2022  

 Host: 
0

     Scratch files written to ./qchem3673207//
 May1621 |scratch|qcdevops|jenkins|workspace|build_RNUM    
 Processing $rem in /cm/shared/apps/spack/cpu/opt/spack/linux-centos8-zen2/gcc-10.2.0/qchem-5.4-akfmr7b3t57bfs6qan3padb2wnb2i7cl/config/preferences:
 Processing $rem in /home/theleonzhang/.qchemrc:
 Symmetry turned off for PCM/SM12/SMD calculation
 Core orbitals will be frozen

 Checking the input file for inconsistencies... 	...done.

--------------------------------------------------------------
User input:
--------------------------------------------------------------
$molecule
0 1
C	-0.728138	-3.866725	-0.265779
C	0.575726	-3.703963	0.209225
C	1.002290	-2.357056	0.364875
H	1.224486	-4.561092	0.445176
C	0.000000	-1.440664	0.000000
S	-1.451343	-2.286957	-0.528236
C	2.369683	-1.978743	0.862808
H	2.975883	-2.878678	1.083368
H	2.317142	-1.376015	1.793522
H	2.927787	-1.375728	0.116375
H	-1.291990	-4.783437	-0.471251
C	0.000000	0.000000	0.000000
C	0.431829	0.747884	1.099446
C	1.123799	1.946373	0.776721
H	0.247423	0.428497	2.136088
C	1.234147	2.137457	-0.612546
S	0.471221	0.816130	-1.486809
C	1.667694	2.888380	1.814609
H	1.454874	2.519768	2.836676
H	1.222009	3.901210	1.726239
H	2.767675	3.008788	1.726228
H	1.708773	2.959493	-1.161575
$end

$rem
JOBTYPE		SP
EXCHANGE	HF
CORRELATION	pRIMP2
BASIS		cc-pvtz
METHOD		rimp2
AUX_BASIS	rimp2-cc-pvtz
SOLVENT_METHOD	PCM
PURECART	11111
SYMMETRY	false
MEM_TOTAL	110000
SCF_CONVERGENCE = 6
THRESH=10
$end



$solvent
dielectric 4.90
$end
--------------------------------------------------------------
 ----------------------------------------------------------------
             Standard Nuclear Orientation (Angstroms)
    I     Atom           X                Y                Z
 ----------------------------------------------------------------
    1      C      -0.7281380000    -3.8667250000    -0.2657790000
    2      C       0.5757260000    -3.7039630000     0.2092250000
    3      C       1.0022900000    -2.3570560000     0.3648750000
    4      H       1.2244860000    -4.5610920000     0.4451760000
    5      C       0.0000000000    -1.4406640000     0.0000000000
    6      S      -1.4513430000    -2.2869570000    -0.5282360000
    7      C       2.3696830000    -1.9787430000     0.8628080000
    8      H       2.9758830000    -2.8786780000     1.0833680000
    9      H       2.3171420000    -1.3760150000     1.7935220000
   10      H       2.9277870000    -1.3757280000     0.1163750000
   11      H      -1.2919900000    -4.7834370000    -0.4712510000
   12      C       0.0000000000     0.0000000000     0.0000000000
   13      C       0.4318290000     0.7478840000     1.0994460000
   14      C       1.1237990000     1.9463730000     0.7767210000
   15      H       0.2474230000     0.4284970000     2.1360880000
   16      C       1.2341470000     2.1374570000    -0.6125460000
   17      S       0.4712210000     0.8161300000    -1.4868090000
   18      C       1.6676940000     2.8883800000     1.8146090000
   19      H       1.4548740000     2.5197680000     2.8366760000
   20      H       1.2220090000     3.9012100000     1.7262390000
   21      H       2.7676750000     3.0087880000     1.7262280000
   22      H       1.7087730000     2.9594930000    -1.1615750000
 ----------------------------------------------------------------
 Nuclear Repulsion Energy =         840.74880816 hartrees
 There are       51 alpha and       51 beta electrons

 Q-Chem warning in module forms1/BasisType.C, line 2236:

 You are not using the predefined 5D/6D in this basis set.

 Requested basis set is cc-pVTZ
 There are 184 shells and 508 basis functions

 Total QAlloc Memory Limit 110000 MB
 Mega-Array Size       188 MB
 MEM_STATIC part       192 MB
 Discretize the solute cavity surface with Lebedev spheres
	Using 110 Lebedev grid points for each H atom
	Using 194 Lebedev grid points for other atoms
	Atomic van der Waals radii will be scaled by 1.20
 Remove points where switching function is < 1.0e-08
 Keep 1544 surface tesserae and discard 1884 interior tesserae
 Molecular Surface Area = 234.951 Angst**2
 Requested basis set is rimp2-cc-pVTZ
 There are 394 shells and 1354 basis functions
 A cutoff of  1.0D-10 yielded  12624 shell pairs
 There are     93876 function pairs (    121177 Cartesian)
 Smallest overlap matrix eigenvalue = 6.21E-05

 Scale SEOQF with 1.000000e-01/1.000000e-01/1.000000e-01

 Standard Electronic Orientation quadrupole field applied
 Nucleus-field energy     =     0.0000000327 hartrees
 Guess from superposition of atomic densities
 Warning:  Energy on first SCF cycle will be non-variational
 SAD guess density has 102.000000 electrons

 -----------------------------------------------------------------------
  General SCF calculation program by
  Eric Jon Sundstrom, Paul Horn, Yuezhi Mao, Dmitri Zuev, Alec White,
  David Stuck, Shaama M.S., Shane Yost, Joonho Lee, David Small,
  Daniel Levine, Susi Lehtola, Hugh Burton, Evgeny Epifanovsky,
  Bang C. Huynh
 -----------------------------------------------------------------------
 Hartree-Fock
 A restricted SCF calculation will be
 performed using DIIS
 SCF converges when DIIS error is below 1.0e-06
 ---------------------------------------
  Cycle       Energy         DIIS error
 ---------------------------------------
    1   -1184.2258021128      2.38e-02  
    2   -1179.5319442776      1.58e-03  
    3   -1179.6513058569      5.93e-04  
    4   -1179.6643548847      3.30e-04  
    5   -1179.6689283290      6.65e-05  
    6   -1179.6692090564      3.04e-05  
    7   -1179.6692966671      1.34e-05  
    8   -1179.6693257646      5.45e-06  
    9   -1179.6693310514      1.86e-06  
   10   -1179.6693315768      6.00e-07  Convergence criterion met
 ---------------------------------------
 SCF time:   CPU 496.68s  wall 498.00s 

************** Final PCM Free Energy Summary **************
 G_electrostatic  =      -0.00824362 hartree =      -5.17295088 kcal/mol
 G_cavitation     =       0.00000000 hartree =       0.00000000 kcal/mol
 G_dispersion     =       0.00000000 hartree =       0.00000000 kcal/mol
 G_repulsion      =       0.00000000 hartree =       0.00000000 kcal/mol
 --------------------------------------------------
 Non-electrostatic Free Energy =       0.00000000 hartree =       0.00000000 kcal/mol
 Total                         =      -0.00824362 hartree =      -5.17295088 kcal/mol
 --------------------------------------------------
 SCF Energy (H0 + V/2)                       =   -1179.66933158 
 Solute Internal Energy (H0)                 =   -1179.66108795 
 Total Free Energy (H0 + V/2 + non-elec)     =   -1179.66933158 hartree
                                             = -740253.67821271 kcal/mol
***********************************************************

 SCF   energy in the final basis set =    -1179.6693315768
 Total energy in the final basis set =    -1179.6693315768


 --------------------------------------------------------------
  Generalized many-body perturbation theory program
  by Joonho Lee, Fazle Rob, Xintian Feng, Evgeny Epifanovsky

 No regularization used 
 (reg. param. = 0.0000e+00)
  (P|Q)^-1/2 Time:  CPU 1.68 s  wall 1.68 s

 In RI-MP2 calculation: 
 # of frozen core orbitals: 20

 Components of the RIMP2 correlation energy:
        aaaa    correlation energy =        -0.2533080791 a.u.
        abab    correlation energy =        -1.4768355470 a.u.
        bbbb    correlation energy =        -0.2533080791 a.u.
        non-Brillouin singles      =        -0.0000000000 a.u.
        total same-spin energy     =        -0.5066161582 a.u.
        total opposite-spin energy =        -1.4768355470 a.u.

 Total  RIMP2   correlation energy =        -1.9834517051 a.u.
        RIMP2         total energy =     -1181.6527832820 a.u.

 RI-MP2 Energy Time:  CPU 67.62 s  wall 67.75 s
 
 --------------------------------------------------------------
 
                    Orbital Energies (a.u.)
 --------------------------------------------------------------
 
 Alpha MOs
 -- Occupied --
-91.9846 -91.9806 -11.2729 -11.2712 -11.2711 -11.2698 -11.2517 -11.2515
-11.2473 -11.2408 -11.2299 -11.2283  -8.9843  -8.9805  -6.6652  -6.6646
 -6.6640  -6.6614  -6.6608  -6.6603  -1.1802  -1.1488  -1.0412  -1.0217
 -0.9970  -0.9542  -0.9128  -0.8919  -0.7987  -0.7518  -0.7336  -0.6962
 -0.6600  -0.6164  -0.5834  -0.5800  -0.5716  -0.5673  -0.5510  -0.5330
 -0.5279  -0.5217  -0.5102  -0.4906  -0.4794  -0.4647  -0.4589  -0.3440
 -0.3403  -0.3285  -0.2946
 -- Virtual --
  0.0786   0.1057   0.1356   0.1516   0.1638   0.1763   0.1786   0.1877
  0.1897   0.1943   0.1984   0.2168   0.2338   0.2352   0.2465   0.2468
  0.2559   0.2645   0.2882   0.3030   0.3354   0.3481   0.3539   0.3732
  0.3757   0.3850   0.3970   0.4016   0.4044   0.4162   0.4178   0.4344
  0.4443   0.4499   0.4609   0.4646   0.4756   0.4842   0.4960   0.4975
  0.5059   0.5192   0.5299   0.5322   0.5404   0.5561   0.5615   0.5710
  0.5792   0.5842   0.5878   0.5976   0.6021   0.6051   0.6191   0.6206
  0.6244   0.6333   0.6361   0.6435   0.6498   0.6574   0.6631   0.6651
  0.6680   0.6778   0.6952   0.7059   0.7184   0.7408   0.7456   0.7580
  0.7683   0.7756   0.7839   0.7939   0.8036   0.8163   0.8380   0.8405
  0.8476   0.8583   0.8825   0.8841   0.9035   0.9198   0.9304   0.9380
  0.9477   0.9851   0.9934   0.9951   1.0037   1.0161   1.0218   1.0411
  1.0468   1.0544   1.0607   1.0705   1.0766   1.0860   1.0894   1.0897
  1.1070   1.1246   1.1369   1.1386   1.1477   1.1879   1.1899   1.1941
  1.2062   1.2154   1.2241   1.2321   1.2493   1.2625   1.2662   1.2703
  1.2774   1.2917   1.3077   1.3156   1.3228   1.3443   1.3536   1.3606
  1.3806   1.3925   1.4040   1.4173   1.4267   1.4332   1.4534   1.4628
  1.4827   1.4862   1.5015   1.5036   1.5305   1.5371   1.5389   1.5494
  1.5520   1.5562   1.5741   1.5831   1.5871   1.6036   1.6174   1.6255
  1.6423   1.6598   1.6772   1.6833   1.6932   1.7038   1.7189   1.7248
  1.7468   1.7503   1.7728   1.7875   1.8000   1.8246   1.8298   1.8695
  1.8844   1.8895   1.9031   1.9332   1.9376   1.9608   1.9647   1.9891
  2.0188   2.0497   2.0638   2.1035   2.1157   2.1334   2.1467   2.1667
  2.1838   2.1897   2.1976   2.2284   2.2392   2.2474   2.2646   2.2788
  2.2970   2.3177   2.3357   2.3474   2.3973   2.4137   2.4303   2.4498
  2.4812   2.4921   2.5118   2.5334   2.5494   2.5626   2.6009   2.6159
  2.6283   2.6435   2.6591   2.6628   2.6689   2.6851   2.7009   2.7329
  2.7367   2.7421   2.7545   2.7676   2.7716   2.7785   2.7962   2.8073
  2.8381   2.8420   2.8529   2.8662   2.8813   2.9014   2.9104   2.9432
  2.9471   2.9630   2.9761   2.9878   3.0007   3.0098   3.0257   3.0345
  3.0466   3.0555   3.0938   3.1024   3.1112   3.1194   3.1344   3.1406
  3.1462   3.1552   3.1571   3.1727   3.1940   3.1950   3.2253   3.2290
  3.2460   3.2530   3.2668   3.2693   3.2800   3.2969   3.3004   3.3104
  3.3183   3.3310   3.3368   3.3534   3.3583   3.3647   3.3701   3.3836
  3.3884   3.3931   3.4014   3.4123   3.4173   3.4264   3.4357   3.4437
  3.4547   3.4622   3.4792   3.4818   3.5023   3.5110   3.5204   3.5272
  3.5367   3.5375   3.5466   3.5602   3.5651   3.5745   3.5834   3.5987
  3.6058   3.6199   3.6281   3.6329   3.6417   3.6559   3.6604   3.6720
  3.6820   3.6893   3.7012   3.7076   3.7241   3.7359   3.7469   3.7560
  3.7641   3.7764   3.7791   3.7965   3.7983   3.8177   3.8292   3.8435
  3.8591   3.8767   3.8886   3.8968   3.9051   3.9268   3.9424   3.9654
  3.9686   3.9790   4.0000   4.0153   4.0166   4.0310   4.0443   4.0488
  4.0652   4.0852   4.0916   4.1062   4.1115   4.1252   4.1443   4.1479
  4.1758   4.1871   4.1928   4.1970   4.2110   4.2181   4.2254   4.2429
  4.2624   4.2695   4.2752   4.2862   4.2965   4.3170   4.3203   4.3405
  4.3470   4.3670   4.3741   4.3871   4.4016   4.4023   4.4084   4.4218
  4.4321   4.4448   4.4676   4.4918   4.4964   4.5015   4.5257   4.5598
  4.5852   4.6111   4.6157   4.6241   4.6338   4.6392   4.6682   4.6742
  4.6854   4.7217   4.7370   4.7436   4.7650   4.7841   4.8305   4.8357
  4.8802   4.8965   4.9162   4.9222   4.9436   4.9677   4.9907   5.0588
  5.0882   5.1089   5.1140   5.1421   5.1578   5.1760   5.1987   5.2260
  5.2606   5.2787   5.2919   5.3028   5.3176   5.3679   5.3752   5.3997
  5.4059   5.4446   5.4688   5.4899   5.5167   5.5221   5.5465   5.5566
  5.5682   5.5865   5.6186   5.6261   5.6344   5.6997   5.7018   5.7335
  5.7760   5.8186   5.9175   5.9490   5.9955   6.0390   6.1166   6.2272
  6.2311   6.2434   6.2822   6.2934   6.3375   6.4202   6.5486   8.7633
  9.7562  11.6168  12.1483  12.8393  13.1847  13.7550  13.9478  14.2206
 14.3761
 --------------------------------------------------------------
 
          Ground-State Mulliken Net Atomic Charges

     Atom                 Charge (a.u.)
  ----------------------------------------
      1 C                    -0.213415
      2 C                    -0.252923
      3 C                     0.069888
      4 H                     0.183690
      5 C                    -0.033021
      6 S                     0.018440
      7 C                    -0.284650
      8 H                     0.111261
      9 H                     0.108841
     10 H                     0.114583
     11 H                     0.203348
     12 C                    -0.050207
     13 C                    -0.261233
     14 C                     0.046779
     15 H                     0.191847
     16 C                    -0.232767
     17 S                     0.030515
     18 C                    -0.269233
     19 H                     0.102798
     20 H                     0.108746
     21 H                     0.107361
     22 H                     0.199351
  ----------------------------------------
  Sum of atomic charges =     0.000000

 -----------------------------------------------------------------
                    Cartesian Multipole Moments
 -----------------------------------------------------------------
    Charge (ESU x 10^10)
                -0.0000
    Dipole Moment (Debye)
         X       2.5951      Y       0.4935      Z       2.0439
       Tot       3.3400
    Quadrupole Moments (Debye-Ang)
        XX     -84.3046     XY       2.8074     YY     -72.0164
        XZ       2.5049     YZ       0.0580     ZZ     -85.8235
    Octopole Moments (Debye-Ang^2)
       XXX    -107.2722    XXY      47.1943    XYY     -24.5644
       YYY     114.1983    XXZ      -1.7770    XYZ      -8.9940
       YYZ      -5.0939    XZZ     -32.7467    YZZ      65.3920
       ZZZ       2.1495
    Hexadecapole Moments (Debye-Ang^3)
      XXXX    -867.9275   XXXY    -215.5515   XXYY    -537.7260
      XYYY    -146.7238   YYYY   -2403.2324   XXXZ    -134.7421
      XXYZ     -33.4598   XYYZ     -21.1182   YYYZ     -81.9036
      XXZZ    -246.1698   XYZZ     -61.8729   YYZZ    -577.3146
      XZZZ    -141.4520   YZZZ     -85.5442   ZZZZ    -594.1570
 -----------------------------------------------------------------
 Total job time:  568.09s(wall), 565.09s(cpu) 
 Fri Jul  8 23:49:02 2022

        *************************************************************
        *                                                           *
        *  Thank you very much for using Q-Chem.  Have a nice day.  *
        *                                                           *
        *************************************************************


remove work dirs ./qchem3673207.0 -- ./qchem3673207.-1
rm -rf ./qchem3673207
