You are running Q-Chem version: 5.4.0

#
# job setting
#
local host:  exp-1-55
current dir: /expanse/lustre/scratch/theleonzhang/temp_project/Interring_Bonds
input file:  Methylthiophene_Phi_5_Theta_70_Methylthiophene.qcin
output file: 
nprocs     : 0
nthreads   : 1
#
# qchem installation setting
#
QC:          /cm/shared/apps/spack/cpu/opt/spack/linux-centos8-zen2/gcc-10.2.0/qchem-5.4-akfmr7b3t57bfs6qan3padb2wnb2i7cl
QCAUX:       /cm/shared/apps/spack/cpu/opt/spack/linux-centos8-zen2/gcc-10.2.0/qchem-5.4-akfmr7b3t57bfs6qan3padb2wnb2i7cl/qcaux
QCPROG:      /cm/shared/apps/spack/cpu/opt/spack/linux-centos8-zen2/gcc-10.2.0/qchem-5.4-akfmr7b3t57bfs6qan3padb2wnb2i7cl/exe/qcprog.exe_s
QCPROG_S:    /cm/shared/apps/spack/cpu/opt/spack/linux-centos8-zen2/gcc-10.2.0/qchem-5.4-akfmr7b3t57bfs6qan3padb2wnb2i7cl/exe/qcprog.exe_s
PARALLEL:    -DSERIAL
QCMPI:       mpich
#
# qchem directory setting
#
qcrun:       qchem875989
QCSCRATCH:   .
QCLOCALSCR:  
QCTMPDIR:    .
QCFILEPREF:  ./qchem875989
QCSAVEDIR:   
workdirs:    ./qchem875989
workdir0:    ./qchem875989
partmpdirs =  
#
# parallel setting
#
QCRSH:           ssh
QCMPI:           mpich
QCMPIRUN:        /cm/shared/apps/spack/cpu/opt/spack/linux-centos8-zen2/gcc-10.2.0/qchem-5.4-akfmr7b3t57bfs6qan3padb2wnb2i7cl/bin/mpi/mpirun_qchem
QCMACHINEFILE:   ./qchem875989/hostfile

#
# env setting
#
exported envs:   QC QCAUX QCSCRATCH QCRUNNAME QCFILEPREF QCPROG QCPROG_S GUIFILE

Running Job 1 of 1 Methylthiophene_Phi_5_Theta_70_Methylthiophene.qcin
qchem Methylthiophene_Phi_5_Theta_70_Methylthiophene.qcin_875989.0 ./qchem875989/ 0
/cm/shared/apps/spack/cpu/opt/spack/linux-centos8-zen2/gcc-10.2.0/qchem-5.4-akfmr7b3t57bfs6qan3padb2wnb2i7cl/exe/qcprog.exe_s Methylthiophene_Phi_5_Theta_70_Methylthiophene.qcin_875989.0 ./qchem875989/
                  Welcome to Q-Chem
     A Quantum Leap Into The Future Of Chemistry


 Q-Chem 5.4, Q-Chem, Inc., Pleasanton, CA (2021)

 License issued to: University of California, San Diego (site)

 E. Epifanovsky,  A. T. B. Gilbert,  Xintian Feng,  Joonho Lee,  Yuezhi Mao,  
 N. Mardirossian,  P. Pokhilko,  A. White,  M. Wormit,  M. P. Coons,  
 A. L. Dempwolff,  Zhengting Gan,  D. Hait,  P. R. Horn,  L. D. Jacobson,  
 I. Kaliman,  J. Kussmann,  A. W. Lange,  Ka Un Lao,  D. S. Levine,  Jie Liu,  
 S. C. McKenzie,  A. F. Morrison,  K. Nanda,  F. Plasser,  D. R. Rehn,  
 M. L. Vidal,  Zhi-Qiang You,  Ying Zhu,  B. Alam,  B. Albrecht,  
 A. Aldossary,  E. Alguire,  J. H. Andersen,  D. Barton,  K. Begam,  A. Behn,  
 Y. A. Bernard,  E. J. Berquist,  H. Burton,  A. Carreras,  K. Carter-Fenk,  
 R. Chakraborty,  A. D. Chien,  K. D. Closser,  V. Cofer-Shabica,  
 S. Dasgupta,  Jia Deng,  M. de Wergifosse,  M. Diedenhofen,  Hainam Do,  
 S. Ehlert,  Po-Tung Fang,  S. Fatehi,  Qingguo Feng,  J. Gayvert,  
 Qinghui Ge,  G. Gidofalvi,  M. Goldey,  J. Gomes,  C. Gonzalez-Espinoza,  
 S. Gulania,  A. Gunina,  M. W. D. Hanson-Heine,  P. H. P. Harbach,  
 A. W. Hauser,  M. F. Herbst,  M. Hernandez Vera,  M. Hodecker,  
 Z. C. Holden,  S. Houck,  Xunkun Huang,  Kerwin Hui,  B. C. Huynh,  
 M. Ivanov,  Hyunjun Ji,  Hanjie Jiang,  B. Kaduk,  S. Kaehler,  
 K. Khistyaev,  Jaehoon Kim,  P. Klunzinger,  Z. Koczor-Benda,  
 Joong Hoon Koh,  D. Kosenkov,  L. Koulias,  T. Kowalczyk,  C. M. Krauter,  
 K. Kue,  A. Kunitsa,  T. Kus,  A. Landau,  K. V. Lawler,  D. Lefrancois,  
 S. Lehtola,  Rain Li,  Yi-Pei Li,  Jiashu Liang,  M. Liebenthal,  
 Hung-Hsuan Lin,  You-Sheng Lin,  Fenglai Liu,  Kuan-Yu Liu,  
 M. Loipersberger,  A. Luenser,  A. Manjanath,  P. Manohar,  E. Mansoor,  
 S. F. Manzer,  Shan-Ping Mao,  A. V. Marenich,  T. Markovich,  S. Mason,  
 S. A. Maurer,  P. F. McLaughlin,  M. F. S. J. Menger,  J.-M. Mewes,  
 S. A. Mewes,  P. Morgante,  J. W. Mullinax,  T. S. Nguyen-Beck,  
 K. J. Oosterbaan,  G. Paran,  Alexander C. Paul,  Suranjan K. Paul,  
 F. Pavosevic,  Zheng Pei,  S. Prager,  E. I. Proynov,  E. Ramos,  B. Rana,  
 A. E. Rask,  A. Rettig,  R. M. Richard,  F. Rob,  E. Rossomme,  T. Scheele,  
 M. Scheurer,  M. Schneider,  N. Sergueev,  S. M. Sharada,  W. Skomorowski,  
 D. W. Small,  C. J. Stein,  Yu-Chuan Su,  E. J. Sundstrom,  Zhen Tao,  
 J. Thirman,  T. Tsuchimochi,  N. M. Tubman,  S. P. Veccham,  O. Vydrov,  
 J. Wenzel,  J. Witte,  A. Yamada,  Kun Yao,  S. Yeganeh,  S. R. Yost,  
 A. Zech,  Igor Ying Zhang,  Xing Zhang,  Yu Zhang,  D. Zuev,  
 A. Aspuru-Guzik,  A. T. Bell,  N. A. Besley,  K. B. Bravaya,  B. R. Brooks,  
 D. Casanova,  Jeng-Da Chai,  S. Coriani,  C. J. Cramer,  
 A. E. DePrince, III,  R. A. DiStasio Jr.,  A. Dreuw,  B. D. Dunietz,  
 T. R. Furlani,  W. A. Goddard III,  S. Grimme,  S. Hammes-Schiffer,  
 T. Head-Gordon,  W. J. Hehre,  Chao-Ping Hsu,  T.-C. Jagau,  Yousung Jung,  
 A. Klamt,  Jing Kong,  D. S. Lambrecht,  WanZhen Liang,  N. J. Mayhall,  
 C. W. McCurdy,  J. B. Neaton,  C. Ochsenfeld,  J. A. Parkhill,  R. Peverati,  
 V. A. Rassolov,  Yihan Shao,  L. V. Slipchenko,  T. Stauch,  R. P. Steele,  
 J. E. Subotnik,  A. J. W. Thom,  A. Tkatchenko,  D. G. Truhlar,  
 T. Van Voorhis,  T. A. Wesolowski,  K. B. Whaley,  H. L. Woodcock III,  
 P. M. Zimmerman,  S. Faraji,  P. M. W. Gill,  M. Head-Gordon,  
 J. M. Herbert,  A. I. Krylov

 Contributors to earlier versions of Q-Chem not listed above: 
 R. D. Adamson,  B. Austin,  R. Baer,  J. Baker,  G. J. O. Beran,  
 K. Brandhorst,  S. T. Brown,  E. F. C. Byrd,  A. K. Chakraborty,  
 G. K. L. Chan,  Chun-Min Chang,  Yunqing Chen,  C.-L. Cheng,  
 Siu Hung Chien,  D. M. Chipman,  D. L. Crittenden,  H. Dachsel,  
 R. J. Doerksen,  A. D. Dutoi,  R. G. Edgar,  J. Fosso-Tande,  
 L. Fusti-Molnar,  D. Ghosh,  A. Ghysels,  A. Golubeva-Zadorozhnaya,  
 J. Gonthier,  M. S. Gordon,  S. R. Gwaltney,  G. Hawkins,  J. E. Herr,  
 A. Heyden,  S. Hirata,  E. G. Hohenstein,  G. Kedziora,  F. J. Keil,  
 C. Kelley,  Jihan Kim,  R. A. King,  R. Z. Khaliullin,  P. P. Korambath,  
 W. Kurlancheek,  A. Laurent,  A. M. Lee,  M. S. Lee,  S. V. Levchenko,  
 Ching Yeh Lin,  D. Liotard,  E. Livshits,  R. C. Lochan,  I. Lotan,  
 L. A. Martinez-Martinez,  P. E. Maslen,  N. Nair,  D. P. O'Neill,  
 D. Neuhauser,  E. Neuscamman,  C. M. Oana,  R. Olivares-Amaya,  R. Olson,  
 T. M. Perrine,  B. Peters,  P. A. Pieniazek,  A. Prociuk,  Y. M. Rhee,  
 J. Ritchie,  M. A. Rohrdanz,  E. Rosta,  N. J. Russ,  H. F. Schaefer III,  
 M. W. Schmidt,  N. E. Schultz,  S. Sharma,  N. Shenvi,  C. D. Sherrill,  
 A. C. Simmonett,  A. Sodt,  T. Stein,  D. Stuck,  K. S. Thanthiriwatte,  
 V. Vanovschi,  L. Vogt,  Tao Wang,  A. Warshel,  M. A. Watson,  
 C. F. Williams,  Q. Wu,  X. Xu,  Jun Yang,  W. Zhang,  Yan Zhao

 Please cite Q-Chem as follows:
 Y. Shao et al., Mol. Phys. 113, 184-215 (2015)
 DOI: 10.1080/00268976.2014.952696

 Q-Chem 5.4.0 for Intel X86 EM64T Linux

 Parts of Q-Chem use Armadillo 9.800.1 (Horizon Scraper).
 http://arma.sourceforge.net/

 Q-Chem begins on Sat Jul  9 12:55:17 2022  

 Host: 
0

     Scratch files written to ./qchem875989//
 May1621 |scratch|qcdevops|jenkins|workspace|build_RNUM    
 Processing $rem in /cm/shared/apps/spack/cpu/opt/spack/linux-centos8-zen2/gcc-10.2.0/qchem-5.4-akfmr7b3t57bfs6qan3padb2wnb2i7cl/config/preferences:
 Processing $rem in /home/theleonzhang/.qchemrc:
 Symmetry turned off for PCM/SM12/SMD calculation
 Core orbitals will be frozen

 Checking the input file for inconsistencies... 	...done.

--------------------------------------------------------------
User input:
--------------------------------------------------------------
$molecule
0 1
C	-0.728625	-3.866725	0.264439
C	0.575519	-3.703963	-0.209794
C	1.002336	-2.357056	-0.364749
H	1.224165	-4.561092	-0.446060
C	-0.000000	-1.440664	-0.000000
S	-1.451336	-2.286957	0.528253
C	2.369885	-1.978743	-0.862253
H	2.976034	-2.878678	-1.082953
H	2.927887	-1.376015	-0.115513
H	2.317620	-1.375728	-1.792797
H	-1.292636	-4.783437	0.469476
C	0.000000	0.000000	0.000000
C	0.075300	0.860311	1.099446
C	0.195935	2.238951	0.776721
H	0.043151	0.492916	2.136088
C	0.215188	2.458766	-0.612546
S	0.082160	0.938811	-1.486809
C	0.290762	3.322559	1.814609
H	0.253664	2.898542	2.836676
H	-0.541206	4.052140	1.726239
H	1.236797	3.896558	1.726228
H	0.297938	3.404370	-1.161575
$end

$rem
JOBTYPE		SP
EXCHANGE	HF
CORRELATION	pRIMP2
BASIS		cc-pvtz
METHOD		rimp2
AUX_BASIS	rimp2-cc-pvtz
SOLVENT_METHOD	PCM
PURECART	11111
SYMMETRY	false
MEM_TOTAL	110000
SCF_CONVERGENCE = 6
THRESH=10
$end



$solvent
dielectric 4.90
$end
--------------------------------------------------------------
 ----------------------------------------------------------------
             Standard Nuclear Orientation (Angstroms)
    I     Atom           X                Y                Z
 ----------------------------------------------------------------
    1      C      -0.7286250000    -3.8667250000     0.2644390000
    2      C       0.5755190000    -3.7039630000    -0.2097940000
    3      C       1.0023360000    -2.3570560000    -0.3647490000
    4      H       1.2241650000    -4.5610920000    -0.4460600000
    5      C       0.0000000000    -1.4406640000     0.0000000000
    6      S      -1.4513360000    -2.2869570000     0.5282530000
    7      C       2.3698850000    -1.9787430000    -0.8622530000
    8      H       2.9760340000    -2.8786780000    -1.0829530000
    9      H       2.9278870000    -1.3760150000    -0.1155130000
   10      H       2.3176200000    -1.3757280000    -1.7927970000
   11      H      -1.2926360000    -4.7834370000     0.4694760000
   12      C       0.0000000000     0.0000000000     0.0000000000
   13      C       0.0753000000     0.8603110000     1.0994460000
   14      C       0.1959350000     2.2389510000     0.7767210000
   15      H       0.0431510000     0.4929160000     2.1360880000
   16      C       0.2151880000     2.4587660000    -0.6125460000
   17      S       0.0821600000     0.9388110000    -1.4868090000
   18      C       0.2907620000     3.3225590000     1.8146090000
   19      H       0.2536640000     2.8985420000     2.8366760000
   20      H      -0.5412060000     4.0521400000     1.7262390000
   21      H       1.2367970000     3.8965580000     1.7262280000
   22      H       0.2979380000     3.4043700000    -1.1615750000
 ----------------------------------------------------------------
 Nuclear Repulsion Energy =         833.29893518 hartrees
 There are       51 alpha and       51 beta electrons

 Q-Chem warning in module forms1/BasisType.C, line 2236:

 You are not using the predefined 5D/6D in this basis set.

 Requested basis set is cc-pVTZ
 There are 184 shells and 508 basis functions

 Total QAlloc Memory Limit 110000 MB
 Mega-Array Size       188 MB
 MEM_STATIC part       192 MB
 Discretize the solute cavity surface with Lebedev spheres
	Using 110 Lebedev grid points for each H atom
	Using 194 Lebedev grid points for other atoms
	Atomic van der Waals radii will be scaled by 1.20
 Remove points where switching function is < 1.0e-08
 Keep 1568 surface tesserae and discard 1860 interior tesserae
 Molecular Surface Area = 236.725 Angst**2
 Requested basis set is rimp2-cc-pVTZ
 There are 394 shells and 1354 basis functions
 A cutoff of  1.0D-10 yielded  12207 shell pairs
 There are     90749 function pairs (    117238 Cartesian)
 Smallest overlap matrix eigenvalue = 6.16E-05

 Scale SEOQF with 1.000000e-01/1.000000e-01/1.000000e-01

 Standard Electronic Orientation quadrupole field applied
 Nucleus-field energy     =     0.0000000345 hartrees
 Guess from superposition of atomic densities
 Warning:  Energy on first SCF cycle will be non-variational
 SAD guess density has 102.000000 electrons

 -----------------------------------------------------------------------
  General SCF calculation program by
  Eric Jon Sundstrom, Paul Horn, Yuezhi Mao, Dmitri Zuev, Alec White,
  David Stuck, Shaama M.S., Shane Yost, Joonho Lee, David Small,
  Daniel Levine, Susi Lehtola, Hugh Burton, Evgeny Epifanovsky,
  Bang C. Huynh
 -----------------------------------------------------------------------
 Hartree-Fock
 A restricted SCF calculation will be
 performed using DIIS
 SCF converges when DIIS error is below 1.0e-06
 ---------------------------------------
  Cycle       Energy         DIIS error
 ---------------------------------------
    1   -1184.2017669949      2.38e-02  
    2   -1179.5476001833      1.59e-03  
    3   -1179.6669538370      6.10e-04  
    4   -1179.6802859416      3.40e-04  
    5   -1179.6850989382      6.76e-05  
    6   -1179.6853842335      3.08e-05  
    7   -1179.6854726382      1.27e-05  
    8   -1179.6855007468      5.26e-06  
    9   -1179.6855056048      1.64e-06  
   10   -1179.6855060166      5.02e-07  Convergence criterion met
 ---------------------------------------
 SCF time:   CPU 482.19s  wall 484.00s 

************** Final PCM Free Energy Summary **************
 G_electrostatic  =      -0.00759820 hartree =      -4.76794024 kcal/mol
 G_cavitation     =       0.00000000 hartree =       0.00000000 kcal/mol
 G_dispersion     =       0.00000000 hartree =       0.00000000 kcal/mol
 G_repulsion      =       0.00000000 hartree =       0.00000000 kcal/mol
 --------------------------------------------------
 Non-electrostatic Free Energy =       0.00000000 hartree =       0.00000000 kcal/mol
 Total                         =      -0.00759820 hartree =      -4.76794024 kcal/mol
 --------------------------------------------------
 SCF Energy (H0 + V/2)                       =   -1179.68550602 
 Solute Internal Energy (H0)                 =   -1179.67790782 
 Total Free Energy (H0 + V/2 + non-elec)     =   -1179.68550602 hartree
                                             = -740263.82782687 kcal/mol
***********************************************************

 SCF   energy in the final basis set =    -1179.6855060166
 Total energy in the final basis set =    -1179.6855060166


 --------------------------------------------------------------
  Generalized many-body perturbation theory program
  by Joonho Lee, Fazle Rob, Xintian Feng, Evgeny Epifanovsky

 No regularization used 
 (reg. param. = 0.0000e+00)
  (P|Q)^-1/2 Time:  CPU 1.69 s  wall 1.69 s

 In RI-MP2 calculation: 
 # of frozen core orbitals: 20

 Components of the RIMP2 correlation energy:
        aaaa    correlation energy =        -0.2523245940 a.u.
        abab    correlation energy =        -1.4736141310 a.u.
        bbbb    correlation energy =        -0.2523245940 a.u.
        non-Brillouin singles      =        -0.0000000000 a.u.
        total same-spin energy     =        -0.5046491881 a.u.
        total opposite-spin energy =        -1.4736141310 a.u.

 Total  RIMP2   correlation energy =        -1.9782633191 a.u.
        RIMP2         total energy =     -1181.6637693357 a.u.

 RI-MP2 Energy Time:  CPU 67.35 s  wall 67.59 s
 
 --------------------------------------------------------------
 
                    Orbital Energies (a.u.)
 --------------------------------------------------------------
 
 Alpha MOs
 -- Occupied --
-91.9854 -91.9847 -11.2793 -11.2736 -11.2721 -11.2649 -11.2537 -11.2510
-11.2426 -11.2421 -11.2290 -11.2289  -8.9849  -8.9843  -6.6658  -6.6652
 -6.6652  -6.6646  -6.6646  -6.6640  -1.1787  -1.1496  -1.0403  -1.0228
 -0.9978  -0.9536  -0.9139  -0.8923  -0.8005  -0.7567  -0.7280  -0.6949
 -0.6623  -0.6163  -0.5823  -0.5785  -0.5727  -0.5695  -0.5520  -0.5322
 -0.5282  -0.5197  -0.5085  -0.4928  -0.4877  -0.4655  -0.4606  -0.3448
 -0.3419  -0.3282  -0.2959
 -- Virtual --
  0.0836   0.1116   0.1431   0.1497   0.1618   0.1731   0.1783   0.1854
  0.1891   0.1962   0.2020   0.2152   0.2314   0.2366   0.2418   0.2493
  0.2525   0.2642   0.2924   0.3013   0.3383   0.3486   0.3549   0.3625
  0.3737   0.3840   0.3969   0.4004   0.4061   0.4176   0.4223   0.4436
  0.4525   0.4594   0.4607   0.4727   0.4756   0.4780   0.4886   0.4999
  0.5135   0.5201   0.5359   0.5403   0.5430   0.5509   0.5545   0.5656
  0.5711   0.5750   0.5842   0.5941   0.6054   0.6095   0.6173   0.6188
  0.6220   0.6339   0.6412   0.6443   0.6454   0.6504   0.6557   0.6687
  0.6706   0.6821   0.6937   0.7148   0.7166   0.7226   0.7346   0.7541
  0.7674   0.7723   0.8032   0.8089   0.8126   0.8278   0.8305   0.8388
  0.8450   0.8553   0.8639   0.8906   0.8949   0.9102   0.9317   0.9414
  0.9496   0.9672   0.9771   0.9942   1.0134   1.0170   1.0265   1.0305
  1.0389   1.0502   1.0668   1.0695   1.0828   1.0870   1.0938   1.0959
  1.1094   1.1149   1.1247   1.1360   1.1613   1.1663   1.1727   1.1856
  1.2093   1.2155   1.2231   1.2324   1.2551   1.2603   1.2656   1.2742
  1.2802   1.2884   1.3047   1.3205   1.3275   1.3330   1.3356   1.3633
  1.3717   1.3818   1.4018   1.4169   1.4232   1.4435   1.4516   1.4573
  1.4768   1.4881   1.4997   1.5063   1.5095   1.5297   1.5343   1.5505
  1.5556   1.5645   1.5721   1.5743   1.5862   1.5961   1.6155   1.6411
  1.6535   1.6587   1.6771   1.6894   1.7003   1.7037   1.7194   1.7201
  1.7515   1.7619   1.7676   1.7760   1.8080   1.8198   1.8307   1.8339
  1.8813   1.8870   1.9028   1.9218   1.9324   1.9463   1.9502   1.9947
  2.0059   2.0434   2.0545   2.1066   2.1274   2.1315   2.1524   2.1712
  2.1882   2.1969   2.2022   2.2225   2.2455   2.2514   2.2708   2.2772
  2.3024   2.3176   2.3449   2.3747   2.3977   2.4048   2.4212   2.4626
  2.4650   2.4831   2.5088   2.5219   2.5484   2.5675   2.5878   2.5917
  2.6241   2.6346   2.6534   2.6608   2.6756   2.6818   2.7100   2.7245
  2.7341   2.7444   2.7520   2.7595   2.7606   2.7711   2.7840   2.7953
  2.8249   2.8332   2.8493   2.8551   2.8879   2.8959   2.9046   2.9178
  2.9363   2.9681   2.9835   2.9932   3.0001   3.0164   3.0189   3.0360
  3.0476   3.0895   3.0974   3.1025   3.1131   3.1162   3.1382   3.1391
  3.1440   3.1550   3.1619   3.1670   3.1876   3.2072   3.2137   3.2270
  3.2373   3.2461   3.2596   3.2743   3.2781   3.2852   3.2990   3.3113
  3.3180   3.3257   3.3274   3.3375   3.3526   3.3575   3.3680   3.3807
  3.3843   3.3934   3.4055   3.4119   3.4155   3.4355   3.4396   3.4433
  3.4516   3.4676   3.4751   3.4810   3.4968   3.5051   3.5178   3.5211
  3.5283   3.5331   3.5373   3.5465   3.5546   3.5643   3.5739   3.5984
  3.6015   3.6147   3.6167   3.6248   3.6332   3.6353   3.6576   3.6642
  3.6764   3.6916   3.6967   3.7083   3.7142   3.7362   3.7449   3.7525
  3.7662   3.7761   3.7926   3.7987   3.8055   3.8114   3.8295   3.8446
  3.8581   3.8620   3.8798   3.9017   3.9040   3.9224   3.9365   3.9658
  3.9693   3.9814   3.9905   4.0023   4.0112   4.0233   4.0327   4.0519
  4.0718   4.0832   4.0902   4.0995   4.1265   4.1362   4.1383   4.1457
  4.1689   4.1714   4.1841   4.1955   4.2050   4.2084   4.2125   4.2379
  4.2556   4.2692   4.2777   4.2872   4.2978   4.3119   4.3253   4.3286
  4.3471   4.3495   4.3693   4.3848   4.3972   4.3982   4.4041   4.4212
  4.4292   4.4370   4.4566   4.4751   4.4891   4.5031   4.5290   4.5655
  4.5820   4.6106   4.6144   4.6203   4.6289   4.6427   4.6608   4.6681
  4.7064   4.7298   4.7414   4.7460   4.7650   4.7804   4.8150   4.8400
  4.8834   4.8874   4.9083   4.9218   4.9489   4.9902   4.9998   5.0555
  5.0865   5.1009   5.1130   5.1516   5.1747   5.1964   5.2051   5.2361
  5.2720   5.2854   5.2899   5.3049   5.3306   5.3693   5.3939   5.4035
  5.4120   5.4488   5.4631   5.4874   5.5216   5.5284   5.5493   5.5604
  5.5761   5.6071   5.6168   5.6266   5.6356   5.6715   5.7004   5.7103
  5.7760   5.8280   5.9113   5.9688   6.0075   6.0629   6.1389   6.2262
  6.2300   6.2473   6.2748   6.3064   6.3240   6.4472   6.5107   8.8745
  9.9093  11.6474  12.0021  12.9335  13.1016  13.7550  13.9527  14.2099
 14.3162
 --------------------------------------------------------------
 
          Ground-State Mulliken Net Atomic Charges

     Atom                 Charge (a.u.)
  ----------------------------------------
      1 C                    -0.216064
      2 C                    -0.247739
      3 C                     0.039415
      4 H                     0.184400
      5 C                    -0.034175
      6 S                     0.026223
      7 C                    -0.282230
      8 H                     0.108351
      9 H                     0.111316
     10 H                     0.110322
     11 H                     0.204373
     12 C                    -0.013690
     13 C                    -0.232357
     14 C                     0.019329
     15 H                     0.187452
     16 C                    -0.237292
     17 S                     0.026665
     18 C                    -0.271121
     19 H                     0.102802
     20 H                     0.108307
     21 H                     0.107909
     22 H                     0.197803
  ----------------------------------------
  Sum of atomic charges =     0.000000

 -----------------------------------------------------------------
                    Cartesian Multipole Moments
 -----------------------------------------------------------------
    Charge (ESU x 10^10)
                -0.0000
    Dipole Moment (Debye)
         X       1.5841      Y       0.2687      Z       0.9139
       Tot       1.8485
    Quadrupole Moments (Debye-Ang)
        XX     -86.8701     XY      -1.0523     YY     -68.8930
        XZ      -2.0597     YZ       1.7729     ZZ     -85.9248
    Octopole Moments (Debye-Ang^2)
       XXX     -22.7356    XXY      27.4563    XYY      -7.8565
       YYY      94.8908    XXZ      -1.2713    XYZ       7.6931
       YYZ      -1.8813    XZZ      -7.0021    YZZ      56.8703
       ZZZ       5.5958
    Hexadecapole Moments (Debye-Ang^3)
      XXXX    -626.7284   XXXY     -54.0435   XXYY    -561.1593
      XYYY      -0.7886   YYYY   -2580.3233   XXXZ      77.3518
      XXYZ     -27.9330   XYYZ      -7.1364   YYYZ    -120.9548
      XXZZ    -212.3134   XYZZ     -14.2290   YYZZ    -609.9217
      XZZZ      83.6228   YZZZ     -95.0125   ZZZZ    -594.4460
 -----------------------------------------------------------------
 Total job time:  554.48s(wall), 550.36s(cpu) 
 Sat Jul  9 13:04:32 2022

        *************************************************************
        *                                                           *
        *  Thank you very much for using Q-Chem.  Have a nice day.  *
        *                                                           *
        *************************************************************


remove work dirs ./qchem875989.0 -- ./qchem875989.-1
rm -rf ./qchem875989
