You are running Q-Chem version: 5.4.0

#
# job setting
#
local host:  exp-1-55
current dir: /expanse/lustre/scratch/theleonzhang/temp_project/Interring_Bonds
input file:  Methylthiophene_Phi_5_Theta_150_Methylthiophene.qcin
output file: 
nprocs     : 0
nthreads   : 1
#
# qchem installation setting
#
QC:          /cm/shared/apps/spack/cpu/opt/spack/linux-centos8-zen2/gcc-10.2.0/qchem-5.4-akfmr7b3t57bfs6qan3padb2wnb2i7cl
QCAUX:       /cm/shared/apps/spack/cpu/opt/spack/linux-centos8-zen2/gcc-10.2.0/qchem-5.4-akfmr7b3t57bfs6qan3padb2wnb2i7cl/qcaux
QCPROG:      /cm/shared/apps/spack/cpu/opt/spack/linux-centos8-zen2/gcc-10.2.0/qchem-5.4-akfmr7b3t57bfs6qan3padb2wnb2i7cl/exe/qcprog.exe_s
QCPROG_S:    /cm/shared/apps/spack/cpu/opt/spack/linux-centos8-zen2/gcc-10.2.0/qchem-5.4-akfmr7b3t57bfs6qan3padb2wnb2i7cl/exe/qcprog.exe_s
PARALLEL:    -DSERIAL
QCMPI:       mpich
#
# qchem directory setting
#
qcrun:       qchem910529
QCSCRATCH:   .
QCLOCALSCR:  
QCTMPDIR:    .
QCFILEPREF:  ./qchem910529
QCSAVEDIR:   
workdirs:    ./qchem910529
workdir0:    ./qchem910529
partmpdirs =  
#
# parallel setting
#
QCRSH:           ssh
QCMPI:           mpich
QCMPIRUN:        /cm/shared/apps/spack/cpu/opt/spack/linux-centos8-zen2/gcc-10.2.0/qchem-5.4-akfmr7b3t57bfs6qan3padb2wnb2i7cl/bin/mpi/mpirun_qchem
QCMACHINEFILE:   ./qchem910529/hostfile

#
# env setting
#
exported envs:   QC QCAUX QCSCRATCH QCRUNNAME QCFILEPREF QCPROG QCPROG_S GUIFILE

Running Job 1 of 1 Methylthiophene_Phi_5_Theta_150_Methylthiophene.qcin
qchem Methylthiophene_Phi_5_Theta_150_Methylthiophene.qcin_910529.0 ./qchem910529/ 0
/cm/shared/apps/spack/cpu/opt/spack/linux-centos8-zen2/gcc-10.2.0/qchem-5.4-akfmr7b3t57bfs6qan3padb2wnb2i7cl/exe/qcprog.exe_s Methylthiophene_Phi_5_Theta_150_Methylthiophene.qcin_910529.0 ./qchem910529/
                  Welcome to Q-Chem
     A Quantum Leap Into The Future Of Chemistry


 Q-Chem 5.4, Q-Chem, Inc., Pleasanton, CA (2021)

 License issued to: University of California, San Diego (site)

 E. Epifanovsky,  A. T. B. Gilbert,  Xintian Feng,  Joonho Lee,  Yuezhi Mao,  
 N. Mardirossian,  P. Pokhilko,  A. White,  M. Wormit,  M. P. Coons,  
 A. L. Dempwolff,  Zhengting Gan,  D. Hait,  P. R. Horn,  L. D. Jacobson,  
 I. Kaliman,  J. Kussmann,  A. W. Lange,  Ka Un Lao,  D. S. Levine,  Jie Liu,  
 S. C. McKenzie,  A. F. Morrison,  K. Nanda,  F. Plasser,  D. R. Rehn,  
 M. L. Vidal,  Zhi-Qiang You,  Ying Zhu,  B. Alam,  B. Albrecht,  
 A. Aldossary,  E. Alguire,  J. H. Andersen,  D. Barton,  K. Begam,  A. Behn,  
 Y. A. Bernard,  E. J. Berquist,  H. Burton,  A. Carreras,  K. Carter-Fenk,  
 R. Chakraborty,  A. D. Chien,  K. D. Closser,  V. Cofer-Shabica,  
 S. Dasgupta,  Jia Deng,  M. de Wergifosse,  M. Diedenhofen,  Hainam Do,  
 S. Ehlert,  Po-Tung Fang,  S. Fatehi,  Qingguo Feng,  J. Gayvert,  
 Qinghui Ge,  G. Gidofalvi,  M. Goldey,  J. Gomes,  C. Gonzalez-Espinoza,  
 S. Gulania,  A. Gunina,  M. W. D. Hanson-Heine,  P. H. P. Harbach,  
 A. W. Hauser,  M. F. Herbst,  M. Hernandez Vera,  M. Hodecker,  
 Z. C. Holden,  S. Houck,  Xunkun Huang,  Kerwin Hui,  B. C. Huynh,  
 M. Ivanov,  Hyunjun Ji,  Hanjie Jiang,  B. Kaduk,  S. Kaehler,  
 K. Khistyaev,  Jaehoon Kim,  P. Klunzinger,  Z. Koczor-Benda,  
 Joong Hoon Koh,  D. Kosenkov,  L. Koulias,  T. Kowalczyk,  C. M. Krauter,  
 K. Kue,  A. Kunitsa,  T. Kus,  A. Landau,  K. V. Lawler,  D. Lefrancois,  
 S. Lehtola,  Rain Li,  Yi-Pei Li,  Jiashu Liang,  M. Liebenthal,  
 Hung-Hsuan Lin,  You-Sheng Lin,  Fenglai Liu,  Kuan-Yu Liu,  
 M. Loipersberger,  A. Luenser,  A. Manjanath,  P. Manohar,  E. Mansoor,  
 S. F. Manzer,  Shan-Ping Mao,  A. V. Marenich,  T. Markovich,  S. Mason,  
 S. A. Maurer,  P. F. McLaughlin,  M. F. S. J. Menger,  J.-M. Mewes,  
 S. A. Mewes,  P. Morgante,  J. W. Mullinax,  T. S. Nguyen-Beck,  
 K. J. Oosterbaan,  G. Paran,  Alexander C. Paul,  Suranjan K. Paul,  
 F. Pavosevic,  Zheng Pei,  S. Prager,  E. I. Proynov,  E. Ramos,  B. Rana,  
 A. E. Rask,  A. Rettig,  R. M. Richard,  F. Rob,  E. Rossomme,  T. Scheele,  
 M. Scheurer,  M. Schneider,  N. Sergueev,  S. M. Sharada,  W. Skomorowski,  
 D. W. Small,  C. J. Stein,  Yu-Chuan Su,  E. J. Sundstrom,  Zhen Tao,  
 J. Thirman,  T. Tsuchimochi,  N. M. Tubman,  S. P. Veccham,  O. Vydrov,  
 J. Wenzel,  J. Witte,  A. Yamada,  Kun Yao,  S. Yeganeh,  S. R. Yost,  
 A. Zech,  Igor Ying Zhang,  Xing Zhang,  Yu Zhang,  D. Zuev,  
 A. Aspuru-Guzik,  A. T. Bell,  N. A. Besley,  K. B. Bravaya,  B. R. Brooks,  
 D. Casanova,  Jeng-Da Chai,  S. Coriani,  C. J. Cramer,  
 A. E. DePrince, III,  R. A. DiStasio Jr.,  A. Dreuw,  B. D. Dunietz,  
 T. R. Furlani,  W. A. Goddard III,  S. Grimme,  S. Hammes-Schiffer,  
 T. Head-Gordon,  W. J. Hehre,  Chao-Ping Hsu,  T.-C. Jagau,  Yousung Jung,  
 A. Klamt,  Jing Kong,  D. S. Lambrecht,  WanZhen Liang,  N. J. Mayhall,  
 C. W. McCurdy,  J. B. Neaton,  C. Ochsenfeld,  J. A. Parkhill,  R. Peverati,  
 V. A. Rassolov,  Yihan Shao,  L. V. Slipchenko,  T. Stauch,  R. P. Steele,  
 J. E. Subotnik,  A. J. W. Thom,  A. Tkatchenko,  D. G. Truhlar,  
 T. Van Voorhis,  T. A. Wesolowski,  K. B. Whaley,  H. L. Woodcock III,  
 P. M. Zimmerman,  S. Faraji,  P. M. W. Gill,  M. Head-Gordon,  
 J. M. Herbert,  A. I. Krylov

 Contributors to earlier versions of Q-Chem not listed above: 
 R. D. Adamson,  B. Austin,  R. Baer,  J. Baker,  G. J. O. Beran,  
 K. Brandhorst,  S. T. Brown,  E. F. C. Byrd,  A. K. Chakraborty,  
 G. K. L. Chan,  Chun-Min Chang,  Yunqing Chen,  C.-L. Cheng,  
 Siu Hung Chien,  D. M. Chipman,  D. L. Crittenden,  H. Dachsel,  
 R. J. Doerksen,  A. D. Dutoi,  R. G. Edgar,  J. Fosso-Tande,  
 L. Fusti-Molnar,  D. Ghosh,  A. Ghysels,  A. Golubeva-Zadorozhnaya,  
 J. Gonthier,  M. S. Gordon,  S. R. Gwaltney,  G. Hawkins,  J. E. Herr,  
 A. Heyden,  S. Hirata,  E. G. Hohenstein,  G. Kedziora,  F. J. Keil,  
 C. Kelley,  Jihan Kim,  R. A. King,  R. Z. Khaliullin,  P. P. Korambath,  
 W. Kurlancheek,  A. Laurent,  A. M. Lee,  M. S. Lee,  S. V. Levchenko,  
 Ching Yeh Lin,  D. Liotard,  E. Livshits,  R. C. Lochan,  I. Lotan,  
 L. A. Martinez-Martinez,  P. E. Maslen,  N. Nair,  D. P. O'Neill,  
 D. Neuhauser,  E. Neuscamman,  C. M. Oana,  R. Olivares-Amaya,  R. Olson,  
 T. M. Perrine,  B. Peters,  P. A. Pieniazek,  A. Prociuk,  Y. M. Rhee,  
 J. Ritchie,  M. A. Rohrdanz,  E. Rosta,  N. J. Russ,  H. F. Schaefer III,  
 M. W. Schmidt,  N. E. Schultz,  S. Sharma,  N. Shenvi,  C. D. Sherrill,  
 A. C. Simmonett,  A. Sodt,  T. Stein,  D. Stuck,  K. S. Thanthiriwatte,  
 V. Vanovschi,  L. Vogt,  Tao Wang,  A. Warshel,  M. A. Watson,  
 C. F. Williams,  Q. Wu,  X. Xu,  Jun Yang,  W. Zhang,  Yan Zhao

 Please cite Q-Chem as follows:
 Y. Shao et al., Mol. Phys. 113, 184-215 (2015)
 DOI: 10.1080/00268976.2014.952696

 Q-Chem 5.4.0 for Intel X86 EM64T Linux

 Parts of Q-Chem use Armadillo 9.800.1 (Horizon Scraper).
 http://arma.sourceforge.net/

 Q-Chem begins on Sat Jul  9 14:09:43 2022  

 Host: 
0

     Scratch files written to ./qchem910529//
 May1621 |scratch|qcdevops|jenkins|workspace|build_RNUM    
 Processing $rem in /cm/shared/apps/spack/cpu/opt/spack/linux-centos8-zen2/gcc-10.2.0/qchem-5.4-akfmr7b3t57bfs6qan3padb2wnb2i7cl/config/preferences:
 Processing $rem in /home/theleonzhang/.qchemrc:
 Symmetry turned off for PCM/SM12/SMD calculation
 Core orbitals will be frozen

 Checking the input file for inconsistencies... 	...done.

--------------------------------------------------------------
User input:
--------------------------------------------------------------
$molecule
0 1
C	-0.386946	-3.866725	-0.671636
C	0.306544	-3.703963	0.530345
C	0.533261	-2.357056	0.923770
H	0.651857	-4.561092	1.128109
C	-0.000000	-1.440664	-0.000000
S	-0.772250	-2.286957	-1.337557
C	1.260680	-1.978743	2.184153
H	1.583283	-2.878678	2.742769
H	0.622180	-1.376015	2.863347
H	2.168011	-1.375728	1.971094
H	-0.686807	-4.783437	-1.191474
C	0.000000	0.000000	0.000000
C	0.075300	0.860311	1.099446
C	0.195935	2.238951	0.776721
H	0.043151	0.492916	2.136088
C	0.215188	2.458766	-0.612546
S	0.082160	0.938811	-1.486809
C	0.290762	3.322559	1.814609
H	0.253664	2.898542	2.836676
H	-0.541206	4.052140	1.726239
H	1.236797	3.896558	1.726228
H	0.297938	3.404370	-1.161575
$end

$rem
JOBTYPE		SP
EXCHANGE	HF
CORRELATION	pRIMP2
BASIS		cc-pvtz
METHOD		rimp2
AUX_BASIS	rimp2-cc-pvtz
SOLVENT_METHOD	PCM
PURECART	11111
SYMMETRY	false
MEM_TOTAL	110000
SCF_CONVERGENCE = 6
THRESH=10
$end



$solvent
dielectric 4.90
$end
--------------------------------------------------------------
 ----------------------------------------------------------------
             Standard Nuclear Orientation (Angstroms)
    I     Atom           X                Y                Z
 ----------------------------------------------------------------
    1      C      -0.3869460000    -3.8667250000    -0.6716360000
    2      C       0.3065440000    -3.7039630000     0.5303450000
    3      C       0.5332610000    -2.3570560000     0.9237700000
    4      H       0.6518570000    -4.5610920000     1.1281090000
    5      C       0.0000000000    -1.4406640000     0.0000000000
    6      S      -0.7722500000    -2.2869570000    -1.3375570000
    7      C       1.2606800000    -1.9787430000     2.1841530000
    8      H       1.5832830000    -2.8786780000     2.7427690000
    9      H       0.6221800000    -1.3760150000     2.8633470000
   10      H       2.1680110000    -1.3757280000     1.9710940000
   11      H      -0.6868070000    -4.7834370000    -1.1914740000
   12      C       0.0000000000     0.0000000000     0.0000000000
   13      C       0.0753000000     0.8603110000     1.0994460000
   14      C       0.1959350000     2.2389510000     0.7767210000
   15      H       0.0431510000     0.4929160000     2.1360880000
   16      C       0.2151880000     2.4587660000    -0.6125460000
   17      S       0.0821600000     0.9388110000    -1.4868090000
   18      C       0.2907620000     3.3225590000     1.8146090000
   19      H       0.2536640000     2.8985420000     2.8366760000
   20      H      -0.5412060000     4.0521400000     1.7262390000
   21      H       1.2367970000     3.8965580000     1.7262280000
   22      H       0.2979380000     3.4043700000    -1.1615750000
 ----------------------------------------------------------------
 Nuclear Repulsion Energy =         836.23806028 hartrees
 There are       51 alpha and       51 beta electrons

 Q-Chem warning in module forms1/BasisType.C, line 2236:

 You are not using the predefined 5D/6D in this basis set.

 Requested basis set is cc-pVTZ
 There are 184 shells and 508 basis functions

 Total QAlloc Memory Limit 110000 MB
 Mega-Array Size       188 MB
 MEM_STATIC part       192 MB
 Discretize the solute cavity surface with Lebedev spheres
	Using 110 Lebedev grid points for each H atom
	Using 194 Lebedev grid points for other atoms
	Atomic van der Waals radii will be scaled by 1.20
 Remove points where switching function is < 1.0e-08
 Keep 1531 surface tesserae and discard 1897 interior tesserae
 Molecular Surface Area = 231.927 Angst**2
 Requested basis set is rimp2-cc-pVTZ
 There are 394 shells and 1354 basis functions
 A cutoff of  1.0D-10 yielded  12342 shell pairs
 There are     91512 function pairs (    118024 Cartesian)
 Smallest overlap matrix eigenvalue = 5.14E-05

 Scale SEOQF with 1.000000e-01/1.000000e-01/1.000000e-01

 Standard Electronic Orientation quadrupole field applied
 Nucleus-field energy     =     0.0000000239 hartrees
 Guess from superposition of atomic densities
 Warning:  Energy on first SCF cycle will be non-variational
 SAD guess density has 102.000000 electrons

 -----------------------------------------------------------------------
  General SCF calculation program by
  Eric Jon Sundstrom, Paul Horn, Yuezhi Mao, Dmitri Zuev, Alec White,
  David Stuck, Shaama M.S., Shane Yost, Joonho Lee, David Small,
  Daniel Levine, Susi Lehtola, Hugh Burton, Evgeny Epifanovsky,
  Bang C. Huynh
 -----------------------------------------------------------------------
 Hartree-Fock
 A restricted SCF calculation will be
 performed using DIIS
 SCF converges when DIIS error is below 1.0e-06
 ---------------------------------------
  Cycle       Energy         DIIS error
 ---------------------------------------
    1   -1184.2357083186      2.38e-02  
    2   -1179.5458496287      1.61e-03  
    3   -1179.6666699016      6.24e-04  
    4   -1179.6805443852      3.43e-04  
    5   -1179.6854765684      6.44e-05  
    6   -1179.6857447664      2.95e-05  
    7   -1179.6858252317      1.20e-05  
    8   -1179.6858500969      5.23e-06  
    9   -1179.6858544860      1.59e-06  
   10   -1179.6858549212      5.25e-07  Convergence criterion met
 ---------------------------------------
 SCF time:   CPU 487.11s  wall 489.00s 

************** Final PCM Free Energy Summary **************
 G_electrostatic  =      -0.00859097 hartree =      -5.39091614 kcal/mol
 G_cavitation     =       0.00000000 hartree =       0.00000000 kcal/mol
 G_dispersion     =       0.00000000 hartree =       0.00000000 kcal/mol
 G_repulsion      =       0.00000000 hartree =       0.00000000 kcal/mol
 --------------------------------------------------
 Non-electrostatic Free Energy =       0.00000000 hartree =       0.00000000 kcal/mol
 Total                         =      -0.00859097 hartree =      -5.39091614 kcal/mol
 --------------------------------------------------
 SCF Energy (H0 + V/2)                       =   -1179.68585492 
 Solute Internal Energy (H0)                 =   -1179.67726395 
 Total Free Energy (H0 + V/2 + non-elec)     =   -1179.68585492 hartree
                                             = -740264.04676777 kcal/mol
***********************************************************

 SCF   energy in the final basis set =    -1179.6858549212
 Total energy in the final basis set =    -1179.6858549212


 --------------------------------------------------------------
  Generalized many-body perturbation theory program
  by Joonho Lee, Fazle Rob, Xintian Feng, Evgeny Epifanovsky

 No regularization used 
 (reg. param. = 0.0000e+00)
  (P|Q)^-1/2 Time:  CPU 1.69 s  wall 1.70 s

 In RI-MP2 calculation: 
 # of frozen core orbitals: 20

 Components of the RIMP2 correlation energy:
        aaaa    correlation energy =        -0.2528161766 a.u.
        abab    correlation energy =        -1.4739189041 a.u.
        bbbb    correlation energy =        -0.2528161766 a.u.
        non-Brillouin singles      =        -0.0000000000 a.u.
        total same-spin energy     =        -0.5056323532 a.u.
        total opposite-spin energy =        -1.4739189041 a.u.

 Total  RIMP2   correlation energy =        -1.9795512573 a.u.
        RIMP2         total energy =     -1181.6654061785 a.u.

 RI-MP2 Energy Time:  CPU 67.64 s  wall 67.91 s
 
 --------------------------------------------------------------
 
                    Orbital Energies (a.u.)
 --------------------------------------------------------------
 
 Alpha MOs
 -- Occupied --
-91.9860 -91.9852 -11.2827 -11.2775 -11.2728 -11.2639 -11.2542 -11.2521
-11.2438 -11.2404 -11.2308 -11.2294  -8.9857  -8.9851  -6.6666  -6.6661
 -6.6660  -6.6654  -6.6654  -6.6648  -1.1809  -1.1503  -1.0416  -1.0265
 -0.9962  -0.9562  -0.9140  -0.8941  -0.8029  -0.7560  -0.7284  -0.6995
 -0.6624  -0.6147  -0.5888  -0.5814  -0.5703  -0.5641  -0.5521  -0.5384
 -0.5297  -0.5228  -0.5057  -0.4913  -0.4882  -0.4743  -0.4546  -0.3632
 -0.3449  -0.3394  -0.2736
 -- Virtual --
  0.0658   0.1314   0.1403   0.1499   0.1616   0.1732   0.1791   0.1874
  0.1976   0.2018   0.2054   0.2209   0.2338   0.2375   0.2421   0.2580
  0.2751   0.2797   0.2950   0.3197   0.3301   0.3542   0.3714   0.3746
  0.3836   0.3860   0.3951   0.3992   0.4080   0.4190   0.4347   0.4391
  0.4560   0.4584   0.4711   0.4763   0.4872   0.4931   0.4996   0.5051
  0.5109   0.5148   0.5319   0.5326   0.5424   0.5518   0.5576   0.5689
  0.5769   0.5833   0.5921   0.5932   0.5982   0.6099   0.6121   0.6182
  0.6245   0.6332   0.6401   0.6426   0.6508   0.6563   0.6732   0.6772
  0.6845   0.6910   0.7039   0.7146   0.7188   0.7377   0.7458   0.7562
  0.7666   0.7733   0.7889   0.8019   0.8048   0.8246   0.8367   0.8515
  0.8611   0.8699   0.8789   0.8945   0.9063   0.9304   0.9364   0.9495
  0.9508   0.9681   0.9792   0.9883   1.0018   1.0189   1.0256   1.0462
  1.0535   1.0580   1.0669   1.0725   1.0784   1.0852   1.0948   1.0974
  1.1021   1.1103   1.1291   1.1448   1.1517   1.1646   1.1953   1.1981
  1.2147   1.2174   1.2272   1.2375   1.2384   1.2550   1.2595   1.2659
  1.2857   1.2873   1.3101   1.3197   1.3355   1.3384   1.3437   1.3676
  1.3760   1.3867   1.3942   1.4173   1.4187   1.4337   1.4431   1.4637
  1.4758   1.4849   1.5008   1.5095   1.5204   1.5309   1.5400   1.5468
  1.5582   1.5610   1.5734   1.5787   1.5858   1.6081   1.6120   1.6369
  1.6507   1.6713   1.6726   1.6859   1.7077   1.7173   1.7205   1.7393
  1.7518   1.7660   1.7752   1.7912   1.8036   1.8095   1.8592   1.8687
  1.8771   1.8898   1.8942   1.9191   1.9410   1.9534   1.9750   1.9826
  2.0075   2.0493   2.0716   2.0937   2.1218   2.1398   2.1508   2.1706
  2.1948   2.2077   2.2198   2.2348   2.2443   2.2516   2.2639   2.2699
  2.2742   2.3065   2.3102   2.3794   2.4088   2.4202   2.4467   2.4616
  2.4807   2.4992   2.5118   2.5155   2.5374   2.5693   2.5942   2.6106
  2.6246   2.6338   2.6472   2.6674   2.6895   2.6973   2.7216   2.7289
  2.7452   2.7506   2.7526   2.7635   2.7664   2.7724   2.8053   2.8099
  2.8163   2.8427   2.8507   2.8557   2.8795   2.8826   2.9115   2.9217
  2.9400   2.9557   2.9781   2.9906   2.9932   3.0201   3.0275   3.0418
  3.0429   3.0713   3.0792   3.1047   3.1113   3.1240   3.1351   3.1377
  3.1481   3.1515   3.1604   3.1848   3.1932   3.2014   3.2078   3.2255
  3.2339   3.2456   3.2556   3.2731   3.2843   3.2890   3.2986   3.3061
  3.3107   3.3255   3.3312   3.3467   3.3538   3.3632   3.3678   3.3775
  3.3858   3.3956   3.4016   3.4091   3.4195   3.4262   3.4329   3.4398
  3.4482   3.4591   3.4707   3.4747   3.4843   3.5020   3.5128   3.5220
  3.5275   3.5317   3.5391   3.5506   3.5638   3.5650   3.5757   3.5837
  3.6018   3.6166   3.6212   3.6288   3.6390   3.6435   3.6588   3.6693
  3.6791   3.6914   3.7022   3.7035   3.7120   3.7133   3.7395   3.7517
  3.7650   3.7763   3.7810   3.7874   3.8000   3.8202   3.8343   3.8422
  3.8683   3.8745   3.8920   3.9058   3.9250   3.9337   3.9433   3.9670
  3.9798   3.9918   4.0011   4.0075   4.0194   4.0224   4.0348   4.0516
  4.0608   4.0863   4.0914   4.1055   4.1211   4.1411   4.1451   4.1525
  4.1566   4.1688   4.1953   4.1967   4.2070   4.2125   4.2188   4.2348
  4.2515   4.2581   4.2762   4.2841   4.3012   4.3073   4.3383   4.3455
  4.3552   4.3643   4.3779   4.3990   4.4013   4.4136   4.4230   4.4262
  4.4299   4.4665   4.4708   4.4760   4.4993   4.5414   4.5568   4.5732
  4.5888   4.6045   4.6149   4.6215   4.6325   4.6389   4.6550   4.6797
  4.6954   4.7244   4.7451   4.7573   4.7751   4.8030   4.8372   4.8505
  4.8805   4.8915   4.9119   4.9426   4.9691   4.9955   5.0088   5.0568
  5.0850   5.1035   5.1131   5.1344   5.1662   5.1915   5.2048   5.2713
  5.2749   5.2886   5.3043   5.3197   5.3450   5.3696   5.3792   5.4004
  5.4094   5.4417   5.4698   5.4955   5.5121   5.5260   5.5481   5.5660
  5.5730   5.6017   5.6180   5.6254   5.6412   5.7010   5.7100   5.7293
  5.7806   5.8333   5.9186   5.9811   6.0391   6.1244   6.1887   6.2268
  6.2520   6.2661   6.2898   6.3149   6.3481   6.4611   6.6029   8.7599
 10.0884  11.5615  12.0406  12.8423  13.1440  13.7403  14.1587  14.2920
 14.5101
 --------------------------------------------------------------
 
          Ground-State Mulliken Net Atomic Charges

     Atom                 Charge (a.u.)
  ----------------------------------------
      1 C                    -0.214293
      2 C                    -0.249920
      3 C                     0.060457
      4 H                     0.184220
      5 C                    -0.039756
      6 S                     0.014310
      7 C                    -0.302345
      8 H                     0.114795
      9 H                     0.106764
     10 H                     0.117562
     11 H                     0.206331
     12 C                     0.020206
     13 C                    -0.254733
     14 C                     0.029768
     15 H                     0.193610
     16 C                    -0.251609
     17 S                     0.018166
     18 C                    -0.271731
     19 H                     0.101863
     20 H                     0.108864
     21 H                     0.108736
     22 H                     0.198733
  ----------------------------------------
  Sum of atomic charges =     0.000000

 -----------------------------------------------------------------
                    Cartesian Multipole Moments
 -----------------------------------------------------------------
    Charge (ESU x 10^10)
                -0.0000
    Dipole Moment (Debye)
         X       0.9202      Y       0.1463      Z       2.7455
       Tot       2.8993
    Quadrupole Moments (Debye-Ang)
        XX     -91.0092     XY      -0.0969     YY     -68.3935
        XZ       2.9768     YZ      -0.8272     ZZ     -81.7801
    Octopole Moments (Debye-Ang^2)
       XXX     -21.8543    XXY      42.7837    XYY      -5.3426
       YYY      92.9812    XXZ      -2.3420    XYZ     -11.0312
       YYZ      -8.2847    XZZ      -5.5491    YZZ      41.2220
       ZZZ      -0.4815
    Hexadecapole Moments (Debye-Ang^3)
      XXXX    -278.4582   XXXY     -47.4856   XXYY    -566.0527
      XYYY     -15.3493   YYYY   -2569.6236   XXXZ    -130.3390
      XXYZ     -33.1577   XYYZ       0.1639   YYYZ     -79.6635
      XXZZ    -209.7298   XYZZ     -14.9372   YYZZ    -602.8601
      XZZZ    -125.1177   YZZZ    -104.7091   ZZZZ    -946.1379
 -----------------------------------------------------------------
 Total job time:  560.12s(wall), 555.58s(cpu) 
 Sat Jul  9 14:19:03 2022

        *************************************************************
        *                                                           *
        *  Thank you very much for using Q-Chem.  Have a nice day.  *
        *                                                           *
        *************************************************************


remove work dirs ./qchem910529.0 -- ./qchem910529.-1
rm -rf ./qchem910529
