You are running Q-Chem version: 5.4.0

#
# job setting
#
local host:  exp-2-51
current dir: /expanse/lustre/scratch/theleonzhang/temp_project/Interring_Bonds
input file:  Methylthiophene_Phi_40_Theta_0_Methylthiophene.qcin
output file: 
nprocs     : 0
nthreads   : 1
#
# qchem installation setting
#
QC:          /cm/shared/apps/spack/cpu/opt/spack/linux-centos8-zen2/gcc-10.2.0/qchem-5.4-akfmr7b3t57bfs6qan3padb2wnb2i7cl
QCAUX:       /cm/shared/apps/spack/cpu/opt/spack/linux-centos8-zen2/gcc-10.2.0/qchem-5.4-akfmr7b3t57bfs6qan3padb2wnb2i7cl/qcaux
QCPROG:      /cm/shared/apps/spack/cpu/opt/spack/linux-centos8-zen2/gcc-10.2.0/qchem-5.4-akfmr7b3t57bfs6qan3padb2wnb2i7cl/exe/qcprog.exe_s
QCPROG_S:    /cm/shared/apps/spack/cpu/opt/spack/linux-centos8-zen2/gcc-10.2.0/qchem-5.4-akfmr7b3t57bfs6qan3padb2wnb2i7cl/exe/qcprog.exe_s
PARALLEL:    -DSERIAL
QCMPI:       mpich
#
# qchem directory setting
#
qcrun:       qchem1489806
QCSCRATCH:   .
QCLOCALSCR:  
QCTMPDIR:    .
QCFILEPREF:  ./qchem1489806
QCSAVEDIR:   
workdirs:    ./qchem1489806
workdir0:    ./qchem1489806
partmpdirs =  
#
# parallel setting
#
QCRSH:           ssh
QCMPI:           mpich
QCMPIRUN:        /cm/shared/apps/spack/cpu/opt/spack/linux-centos8-zen2/gcc-10.2.0/qchem-5.4-akfmr7b3t57bfs6qan3padb2wnb2i7cl/bin/mpi/mpirun_qchem
QCMACHINEFILE:   ./qchem1489806/hostfile

#
# env setting
#
exported envs:   QC QCAUX QCSCRATCH QCRUNNAME QCFILEPREF QCPROG QCPROG_S GUIFILE

Running Job 1 of 1 Methylthiophene_Phi_40_Theta_0_Methylthiophene.qcin
qchem Methylthiophene_Phi_40_Theta_0_Methylthiophene.qcin_1489806.0 ./qchem1489806/ 0
/cm/shared/apps/spack/cpu/opt/spack/linux-centos8-zen2/gcc-10.2.0/qchem-5.4-akfmr7b3t57bfs6qan3padb2wnb2i7cl/exe/qcprog.exe_s Methylthiophene_Phi_40_Theta_0_Methylthiophene.qcin_1489806.0 ./qchem1489806/
                  Welcome to Q-Chem
     A Quantum Leap Into The Future Of Chemistry


 Q-Chem 5.4, Q-Chem, Inc., Pleasanton, CA (2021)

 License issued to: University of California, San Diego (site)

 E. Epifanovsky,  A. T. B. Gilbert,  Xintian Feng,  Joonho Lee,  Yuezhi Mao,  
 N. Mardirossian,  P. Pokhilko,  A. White,  M. Wormit,  M. P. Coons,  
 A. L. Dempwolff,  Zhengting Gan,  D. Hait,  P. R. Horn,  L. D. Jacobson,  
 I. Kaliman,  J. Kussmann,  A. W. Lange,  Ka Un Lao,  D. S. Levine,  Jie Liu,  
 S. C. McKenzie,  A. F. Morrison,  K. Nanda,  F. Plasser,  D. R. Rehn,  
 M. L. Vidal,  Zhi-Qiang You,  Ying Zhu,  B. Alam,  B. Albrecht,  
 A. Aldossary,  E. Alguire,  J. H. Andersen,  D. Barton,  K. Begam,  A. Behn,  
 Y. A. Bernard,  E. J. Berquist,  H. Burton,  A. Carreras,  K. Carter-Fenk,  
 R. Chakraborty,  A. D. Chien,  K. D. Closser,  V. Cofer-Shabica,  
 S. Dasgupta,  Jia Deng,  M. de Wergifosse,  M. Diedenhofen,  Hainam Do,  
 S. Ehlert,  Po-Tung Fang,  S. Fatehi,  Qingguo Feng,  J. Gayvert,  
 Qinghui Ge,  G. Gidofalvi,  M. Goldey,  J. Gomes,  C. Gonzalez-Espinoza,  
 S. Gulania,  A. Gunina,  M. W. D. Hanson-Heine,  P. H. P. Harbach,  
 A. W. Hauser,  M. F. Herbst,  M. Hernandez Vera,  M. Hodecker,  
 Z. C. Holden,  S. Houck,  Xunkun Huang,  Kerwin Hui,  B. C. Huynh,  
 M. Ivanov,  Hyunjun Ji,  Hanjie Jiang,  B. Kaduk,  S. Kaehler,  
 K. Khistyaev,  Jaehoon Kim,  P. Klunzinger,  Z. Koczor-Benda,  
 Joong Hoon Koh,  D. Kosenkov,  L. Koulias,  T. Kowalczyk,  C. M. Krauter,  
 K. Kue,  A. Kunitsa,  T. Kus,  A. Landau,  K. V. Lawler,  D. Lefrancois,  
 S. Lehtola,  Rain Li,  Yi-Pei Li,  Jiashu Liang,  M. Liebenthal,  
 Hung-Hsuan Lin,  You-Sheng Lin,  Fenglai Liu,  Kuan-Yu Liu,  
 M. Loipersberger,  A. Luenser,  A. Manjanath,  P. Manohar,  E. Mansoor,  
 S. F. Manzer,  Shan-Ping Mao,  A. V. Marenich,  T. Markovich,  S. Mason,  
 S. A. Maurer,  P. F. McLaughlin,  M. F. S. J. Menger,  J.-M. Mewes,  
 S. A. Mewes,  P. Morgante,  J. W. Mullinax,  T. S. Nguyen-Beck,  
 K. J. Oosterbaan,  G. Paran,  Alexander C. Paul,  Suranjan K. Paul,  
 F. Pavosevic,  Zheng Pei,  S. Prager,  E. I. Proynov,  E. Ramos,  B. Rana,  
 A. E. Rask,  A. Rettig,  R. M. Richard,  F. Rob,  E. Rossomme,  T. Scheele,  
 M. Scheurer,  M. Schneider,  N. Sergueev,  S. M. Sharada,  W. Skomorowski,  
 D. W. Small,  C. J. Stein,  Yu-Chuan Su,  E. J. Sundstrom,  Zhen Tao,  
 J. Thirman,  T. Tsuchimochi,  N. M. Tubman,  S. P. Veccham,  O. Vydrov,  
 J. Wenzel,  J. Witte,  A. Yamada,  Kun Yao,  S. Yeganeh,  S. R. Yost,  
 A. Zech,  Igor Ying Zhang,  Xing Zhang,  Yu Zhang,  D. Zuev,  
 A. Aspuru-Guzik,  A. T. Bell,  N. A. Besley,  K. B. Bravaya,  B. R. Brooks,  
 D. Casanova,  Jeng-Da Chai,  S. Coriani,  C. J. Cramer,  
 A. E. DePrince, III,  R. A. DiStasio Jr.,  A. Dreuw,  B. D. Dunietz,  
 T. R. Furlani,  W. A. Goddard III,  S. Grimme,  S. Hammes-Schiffer,  
 T. Head-Gordon,  W. J. Hehre,  Chao-Ping Hsu,  T.-C. Jagau,  Yousung Jung,  
 A. Klamt,  Jing Kong,  D. S. Lambrecht,  WanZhen Liang,  N. J. Mayhall,  
 C. W. McCurdy,  J. B. Neaton,  C. Ochsenfeld,  J. A. Parkhill,  R. Peverati,  
 V. A. Rassolov,  Yihan Shao,  L. V. Slipchenko,  T. Stauch,  R. P. Steele,  
 J. E. Subotnik,  A. J. W. Thom,  A. Tkatchenko,  D. G. Truhlar,  
 T. Van Voorhis,  T. A. Wesolowski,  K. B. Whaley,  H. L. Woodcock III,  
 P. M. Zimmerman,  S. Faraji,  P. M. W. Gill,  M. Head-Gordon,  
 J. M. Herbert,  A. I. Krylov

 Contributors to earlier versions of Q-Chem not listed above: 
 R. D. Adamson,  B. Austin,  R. Baer,  J. Baker,  G. J. O. Beran,  
 K. Brandhorst,  S. T. Brown,  E. F. C. Byrd,  A. K. Chakraborty,  
 G. K. L. Chan,  Chun-Min Chang,  Yunqing Chen,  C.-L. Cheng,  
 Siu Hung Chien,  D. M. Chipman,  D. L. Crittenden,  H. Dachsel,  
 R. J. Doerksen,  A. D. Dutoi,  R. G. Edgar,  J. Fosso-Tande,  
 L. Fusti-Molnar,  D. Ghosh,  A. Ghysels,  A. Golubeva-Zadorozhnaya,  
 J. Gonthier,  M. S. Gordon,  S. R. Gwaltney,  G. Hawkins,  J. E. Herr,  
 A. Heyden,  S. Hirata,  E. G. Hohenstein,  G. Kedziora,  F. J. Keil,  
 C. Kelley,  Jihan Kim,  R. A. King,  R. Z. Khaliullin,  P. P. Korambath,  
 W. Kurlancheek,  A. Laurent,  A. M. Lee,  M. S. Lee,  S. V. Levchenko,  
 Ching Yeh Lin,  D. Liotard,  E. Livshits,  R. C. Lochan,  I. Lotan,  
 L. A. Martinez-Martinez,  P. E. Maslen,  N. Nair,  D. P. O'Neill,  
 D. Neuhauser,  E. Neuscamman,  C. M. Oana,  R. Olivares-Amaya,  R. Olson,  
 T. M. Perrine,  B. Peters,  P. A. Pieniazek,  A. Prociuk,  Y. M. Rhee,  
 J. Ritchie,  M. A. Rohrdanz,  E. Rosta,  N. J. Russ,  H. F. Schaefer III,  
 M. W. Schmidt,  N. E. Schultz,  S. Sharma,  N. Shenvi,  C. D. Sherrill,  
 A. C. Simmonett,  A. Sodt,  T. Stein,  D. Stuck,  K. S. Thanthiriwatte,  
 V. Vanovschi,  L. Vogt,  Tao Wang,  A. Warshel,  M. A. Watson,  
 C. F. Williams,  Q. Wu,  X. Xu,  Jun Yang,  W. Zhang,  Yan Zhao

 Please cite Q-Chem as follows:
 Y. Shao et al., Mol. Phys. 113, 184-215 (2015)
 DOI: 10.1080/00268976.2014.952696

 Q-Chem 5.4.0 for Intel X86 EM64T Linux

 Parts of Q-Chem use Armadillo 9.800.1 (Horizon Scraper).
 http://arma.sourceforge.net/

 Q-Chem begins on Fri Jul  8 21:59:19 2022  

 Host: 
0

     Scratch files written to ./qchem1489806//
 May1621 |scratch|qcdevops|jenkins|workspace|build_RNUM    
 Processing $rem in /cm/shared/apps/spack/cpu/opt/spack/linux-centos8-zen2/gcc-10.2.0/qchem-5.4-akfmr7b3t57bfs6qan3padb2wnb2i7cl/config/preferences:
 Processing $rem in /home/theleonzhang/.qchemrc:
 Symmetry turned off for PCM/SM12/SMD calculation
 Core orbitals will be frozen

 Checking the input file for inconsistencies... 	...done.

--------------------------------------------------------------
User input:
--------------------------------------------------------------
$molecule
0 1
C	0.670748	-3.808105	0.775127
C	0.642889	-3.647744	-0.612565
C	0.409365	-2.321236	-1.066639
H	0.791563	-4.491881	-1.302900
C	0.250169	-1.418777	0.000000
S	0.397135	-2.252211	1.544483
C	0.343896	-1.948630	-2.521872
H	0.500095	-2.834906	-3.166949
H	1.118228	-1.200068	-2.790821
H	-0.639561	-1.509723	-2.791023
H	0.829705	-4.710930	1.375251
C	0.000000	0.000000	0.000000
C	0.431829	0.747884	1.099446
C	1.123799	1.946373	0.776721
H	0.247423	0.428497	2.136088
C	1.234147	2.137457	-0.612546
S	0.471221	0.816130	-1.486809
C	1.667694	2.888380	1.814609
H	1.454874	2.519768	2.836676
H	1.222009	3.901210	1.726239
H	2.767675	3.008788	1.726228
H	1.708773	2.959493	-1.161575
$end

$rem
JOBTYPE		SP
EXCHANGE	HF
CORRELATION	pRIMP2
BASIS		cc-pvtz
METHOD		rimp2
AUX_BASIS	rimp2-cc-pvtz
SOLVENT_METHOD	PCM
PURECART	11111
SYMMETRY	false
MEM_TOTAL	110000
SCF_CONVERGENCE = 6
THRESH=10
$end



$solvent
dielectric 4.90
$end
--------------------------------------------------------------
 ----------------------------------------------------------------
             Standard Nuclear Orientation (Angstroms)
    I     Atom           X                Y                Z
 ----------------------------------------------------------------
    1      C       0.6707480000    -3.8081050000     0.7751270000
    2      C       0.6428890000    -3.6477440000    -0.6125650000
    3      C       0.4093650000    -2.3212360000    -1.0666390000
    4      H       0.7915630000    -4.4918810000    -1.3029000000
    5      C       0.2501690000    -1.4187770000     0.0000000000
    6      S       0.3971350000    -2.2522110000     1.5444830000
    7      C       0.3438960000    -1.9486300000    -2.5218720000
    8      H       0.5000950000    -2.8349060000    -3.1669490000
    9      H       1.1182280000    -1.2000680000    -2.7908210000
   10      H      -0.6395610000    -1.5097230000    -2.7910230000
   11      H       0.8297050000    -4.7109300000     1.3752510000
   12      C       0.0000000000     0.0000000000     0.0000000000
   13      C       0.4318290000     0.7478840000     1.0994460000
   14      C       1.1237990000     1.9463730000     0.7767210000
   15      H       0.2474230000     0.4284970000     2.1360880000
   16      C       1.2341470000     2.1374570000    -0.6125460000
   17      S       0.4712210000     0.8161300000    -1.4868090000
   18      C       1.6676940000     2.8883800000     1.8146090000
   19      H       1.4548740000     2.5197680000     2.8366760000
   20      H       1.2220090000     3.9012100000     1.7262390000
   21      H       2.7676750000     3.0087880000     1.7262280000
   22      H       1.7087730000     2.9594930000    -1.1615750000
 ----------------------------------------------------------------
 Nuclear Repulsion Energy =         849.61497006 hartrees
 There are       51 alpha and       51 beta electrons

 Q-Chem warning in module forms1/BasisType.C, line 2236:

 You are not using the predefined 5D/6D in this basis set.

 Requested basis set is cc-pVTZ
 There are 184 shells and 508 basis functions

 Total QAlloc Memory Limit 110000 MB
 Mega-Array Size       188 MB
 MEM_STATIC part       192 MB
 Discretize the solute cavity surface with Lebedev spheres
	Using 110 Lebedev grid points for each H atom
	Using 194 Lebedev grid points for other atoms
	Atomic van der Waals radii will be scaled by 1.20
 Remove points where switching function is < 1.0e-08
 Keep 1497 surface tesserae and discard 1931 interior tesserae
 Molecular Surface Area = 226.204 Angst**2
 Requested basis set is rimp2-cc-pVTZ
 There are 394 shells and 1354 basis functions
 A cutoff of  1.0D-10 yielded  12487 shell pairs
 There are     92745 function pairs (    119734 Cartesian)
 Smallest overlap matrix eigenvalue = 6.46E-05

 Scale SEOQF with 1.000000e-01/1.000000e-01/1.000000e-01

 Standard Electronic Orientation quadrupole field applied
 Nucleus-field energy     =     0.0000000176 hartrees
 Guess from superposition of atomic densities
 Warning:  Energy on first SCF cycle will be non-variational
 SAD guess density has 102.000000 electrons

 -----------------------------------------------------------------------
  General SCF calculation program by
  Eric Jon Sundstrom, Paul Horn, Yuezhi Mao, Dmitri Zuev, Alec White,
  David Stuck, Shaama M.S., Shane Yost, Joonho Lee, David Small,
  Daniel Levine, Susi Lehtola, Hugh Burton, Evgeny Epifanovsky,
  Bang C. Huynh
 -----------------------------------------------------------------------
 Hartree-Fock
 A restricted SCF calculation will be
 performed using DIIS
 SCF converges when DIIS error is below 1.0e-06
 ---------------------------------------
  Cycle       Energy         DIIS error
 ---------------------------------------
    1   -1184.3189914644      2.39e-02  
    2   -1179.5096284691      1.59e-03  
    3   -1179.6313774999      5.95e-04  
    4   -1179.6448179263      3.21e-04  
    5   -1179.6492187706      6.33e-05  
    6   -1179.6494989140      3.06e-05  
    7   -1179.6495884464      1.33e-05  
    8   -1179.6496194576      5.34e-06  
    9   -1179.6496254688      2.11e-06  
   10   -1179.6496261637      7.65e-07  Convergence criterion met
 ---------------------------------------
 SCF time:   CPU 514.15s  wall 517.00s 

************** Final PCM Free Energy Summary **************
 G_electrostatic  =      -0.00803923 hartree =      -5.04469382 kcal/mol
 G_cavitation     =       0.00000000 hartree =       0.00000000 kcal/mol
 G_dispersion     =       0.00000000 hartree =       0.00000000 kcal/mol
 G_repulsion      =       0.00000000 hartree =       0.00000000 kcal/mol
 --------------------------------------------------
 Non-electrostatic Free Energy =       0.00000000 hartree =       0.00000000 kcal/mol
 Total                         =      -0.00803923 hartree =      -5.04469382 kcal/mol
 --------------------------------------------------
 SCF Energy (H0 + V/2)                       =   -1179.64962616 
 Solute Internal Energy (H0)                 =   -1179.64158693 
 Total Free Energy (H0 + V/2 + non-elec)     =   -1179.64962616 hartree
                                             = -740241.31287933 kcal/mol
***********************************************************

 SCF   energy in the final basis set =    -1179.6496261637
 Total energy in the final basis set =    -1179.6496261637


 --------------------------------------------------------------
  Generalized many-body perturbation theory program
  by Joonho Lee, Fazle Rob, Xintian Feng, Evgeny Epifanovsky

 No regularization used 
 (reg. param. = 0.0000e+00)
  (P|Q)^-1/2 Time:  CPU 1.71 s  wall 1.72 s

 In RI-MP2 calculation: 
 # of frozen core orbitals: 20

 Components of the RIMP2 correlation energy:
        aaaa    correlation energy =        -0.2549318795 a.u.
        abab    correlation energy =        -1.4802548072 a.u.
        bbbb    correlation energy =        -0.2549318795 a.u.
        non-Brillouin singles      =        -0.0000000000 a.u.
        total same-spin energy     =        -0.5098637590 a.u.
        total opposite-spin energy =        -1.4802548072 a.u.

 Total  RIMP2   correlation energy =        -1.9901185662 a.u.
        RIMP2         total energy =     -1181.6397447299 a.u.

 RI-MP2 Energy Time:  CPU 69.28 s  wall 69.56 s
 
 --------------------------------------------------------------
 
                    Orbital Energies (a.u.)
 --------------------------------------------------------------
 
 Alpha MOs
 -- Occupied --
-91.9838 -91.9791 -11.2788 -11.2738 -11.2737 -11.2647 -11.2538 -11.2504
-11.2442 -11.2404 -11.2300 -11.2259  -8.9843  -8.9794  -6.6650  -6.6644
 -6.6638  -6.6604  -6.6598  -6.6591  -1.1855  -1.1480  -1.0445  -1.0236
 -0.9993  -0.9507  -0.9131  -0.8952  -0.7972  -0.7661  -0.7218  -0.6943
 -0.6591  -0.6172  -0.5860  -0.5831  -0.5778  -0.5698  -0.5518  -0.5340
 -0.5238  -0.5208  -0.5122  -0.4952  -0.4792  -0.4641  -0.4463  -0.3706
 -0.3422  -0.3385  -0.2639
 -- Virtual --
  0.0573   0.1293   0.1424   0.1561   0.1642   0.1700   0.1827   0.1882
  0.1912   0.1957   0.2090   0.2135   0.2350   0.2390   0.2426   0.2476
  0.2694   0.2766   0.2950   0.3120   0.3386   0.3569   0.3674   0.3693
  0.3775   0.3864   0.4034   0.4095   0.4161   0.4229   0.4435   0.4473
  0.4518   0.4609   0.4631   0.4759   0.4824   0.4911   0.4947   0.5121
  0.5146   0.5184   0.5261   0.5332   0.5504   0.5556   0.5582   0.5692
  0.5778   0.5853   0.5923   0.5958   0.6052   0.6141   0.6203   0.6251
  0.6299   0.6342   0.6419   0.6441   0.6497   0.6532   0.6610   0.6703
  0.6812   0.6919   0.6999   0.7098   0.7227   0.7407   0.7493   0.7571
  0.7675   0.7806   0.7876   0.7982   0.8248   0.8299   0.8405   0.8493
  0.8561   0.8605   0.8679   0.8838   0.8934   0.9132   0.9369   0.9458
  0.9513   0.9633   0.9726   0.9957   1.0047   1.0114   1.0210   1.0337
  1.0499   1.0566   1.0651   1.0720   1.0841   1.0871   1.0954   1.1052
  1.1105   1.1317   1.1359   1.1383   1.1566   1.1625   1.1751   1.1982
  1.2095   1.2191   1.2290   1.2423   1.2486   1.2570   1.2715   1.2736
  1.2853   1.2927   1.3014   1.3111   1.3342   1.3452   1.3618   1.3714
  1.3815   1.3914   1.4038   1.4143   1.4204   1.4302   1.4384   1.4531
  1.4812   1.4897   1.4964   1.5081   1.5131   1.5243   1.5349   1.5448
  1.5541   1.5608   1.5676   1.5701   1.5803   1.5972   1.6087   1.6254
  1.6558   1.6584   1.6809   1.6874   1.7015   1.7065   1.7106   1.7402
  1.7542   1.7639   1.7748   1.7836   1.8040   1.8302   1.8362   1.8651
  1.8733   1.9006   1.9319   1.9340   1.9471   1.9624   1.9828   1.9907
  2.0575   2.0721   2.0817   2.0939   2.1178   2.1304   2.1399   2.1693
  2.1869   2.1895   2.2023   2.2200   2.2514   2.2654   2.2751   2.2799
  2.3008   2.3083   2.3397   2.3789   2.3930   2.4217   2.4292   2.4586
  2.4666   2.5001   2.5066   2.5304   2.5385   2.5513   2.5905   2.6139
  2.6249   2.6312   2.6507   2.6590   2.6865   2.6974   2.7203   2.7264
  2.7338   2.7387   2.7577   2.7637   2.7806   2.7891   2.8010   2.8132
  2.8278   2.8331   2.8515   2.8534   2.8684   2.9174   2.9187   2.9507
  2.9646   2.9795   2.9830   3.0072   3.0114   3.0152   3.0404   3.0481
  3.0576   3.0624   3.0840   3.1083   3.1137   3.1261   3.1408   3.1439
  3.1465   3.1629   3.1751   3.1782   3.1892   3.2058   3.2129   3.2288
  3.2296   3.2431   3.2611   3.2695   3.2802   3.2864   3.3003   3.3074
  3.3128   3.3263   3.3306   3.3453   3.3508   3.3649   3.3672   3.3776
  3.3916   3.3989   3.4024   3.4141   3.4165   3.4305   3.4374   3.4409
  3.4459   3.4720   3.4820   3.4875   3.5002   3.5118   3.5213   3.5251
  3.5360   3.5385   3.5427   3.5539   3.5568   3.5782   3.5907   3.5973
  3.6107   3.6175   3.6338   3.6383   3.6445   3.6600   3.6714   3.6731
  3.6880   3.7113   3.7184   3.7225   3.7322   3.7376   3.7468   3.7546
  3.7622   3.7851   3.7917   3.8096   3.8130   3.8258   3.8374   3.8453
  3.8531   3.8817   3.8890   3.9003   3.9069   3.9368   3.9428   3.9646
  3.9694   3.9859   3.9938   4.0167   4.0214   4.0258   4.0385   4.0418
  4.0720   4.0788   4.0862   4.0914   4.1139   4.1263   4.1341   4.1672
  4.1815   4.1838   4.1982   4.2003   4.2137   4.2198   4.2313   4.2454
  4.2542   4.2684   4.2825   4.3007   4.3051   4.3070   4.3361   4.3407
  4.3467   4.3647   4.3753   4.3863   4.3986   4.4031   4.4060   4.4438
  4.4576   4.4609   4.4866   4.4946   4.5003   4.5204   4.5322   4.5636
  4.5959   4.6166   4.6231   4.6310   4.6470   4.6547   4.6787   4.6954
  4.7084   4.7095   4.7361   4.7498   4.7791   4.7995   4.8138   4.8466
  4.8537   4.8784   4.9026   4.9317   4.9434   4.9593   4.9714   5.0586
  5.0805   5.0918   5.1132   5.1614   5.1670   5.1807   5.1958   5.2089
  5.2802   5.2838   5.2934   5.3132   5.3170   5.3676   5.3948   5.4049
  5.4095   5.4440   5.4657   5.4791   5.5245   5.5314   5.5463   5.5630
  5.5705   5.6051   5.6231   5.6308   5.6401   5.6641   5.6960   5.7202
  5.7861   5.8202   5.9337   5.9628   6.0315   6.0704   6.1232   6.2164
  6.2274   6.2506   6.2708   6.3002   6.3555   6.3753   6.5202   8.6244
  9.7119  11.5410  12.2775  12.8475  13.1828  13.7241  13.8650  14.2119
 14.4660
 --------------------------------------------------------------
 
          Ground-State Mulliken Net Atomic Charges

     Atom                 Charge (a.u.)
  ----------------------------------------
      1 C                    -0.225830
      2 C                    -0.249748
      3 C                     0.042563
      4 H                     0.183363
      5 C                    -0.024328
      6 S                    -0.009758
      7 C                    -0.313627
      8 H                     0.112062
      9 H                     0.115222
     10 H                     0.114138
     11 H                     0.203954
     12 C                    -0.000819
     13 C                    -0.217524
     14 C                     0.026577
     15 H                     0.181092
     16 C                    -0.230705
     17 S                     0.040464
     18 C                    -0.266924
     19 H                     0.103257
     20 H                     0.108524
     21 H                     0.107737
     22 H                     0.200309
  ----------------------------------------
  Sum of atomic charges =     0.000000

 -----------------------------------------------------------------
                    Cartesian Multipole Moments
 -----------------------------------------------------------------
    Charge (ESU x 10^10)
                -0.0000
    Dipole Moment (Debye)
         X       1.4885      Y       1.0689      Z      -0.1431
       Tot       1.8381
    Quadrupole Moments (Debye-Ang)
        XX     -89.3335     XY       3.2050     YY     -73.7112
        XZ      -0.1670     YZ       3.1643     ZZ     -79.8776
    Octopole Moments (Debye-Ang^2)
       XXX    -165.9181    XXY      64.7358    XYY     -26.3327
       YYY     120.2078    XXZ      -0.0734    XYZ      -1.4986
       YYZ       0.8670    XZZ     -47.2826    YZZ      43.8391
       ZZZ       6.8042
    Hexadecapole Moments (Debye-Ang^3)
      XXXX    -436.9218   XXXY     -23.8480   XXYY    -528.7032
      XYYY     -80.2284   YYYY   -2395.6952   XXXZ     -49.7501
      XXYZ     -29.8789   XYYZ     -17.8867   YYYZ    -119.4400
      XXZZ    -255.1319   XYZZ     -16.2515   YYZZ    -565.8576
      XZZZ     -52.6766   YZZZ     -72.6374   ZZZZ   -1076.2386
 -----------------------------------------------------------------
 Total job time:  588.58s(wall), 584.26s(cpu) 
 Fri Jul  8 22:09:08 2022

        *************************************************************
        *                                                           *
        *  Thank you very much for using Q-Chem.  Have a nice day.  *
        *                                                           *
        *************************************************************


remove work dirs ./qchem1489806.0 -- ./qchem1489806.-1
rm -rf ./qchem1489806
