You are running Q-Chem version: 5.4.0

#
# job setting
#
local host:  exp-1-52
current dir: /expanse/lustre/scratch/theleonzhang/temp_project/Interring_Bonds
input file:  Methylthiophene_Phi_25_Theta_340_Methylthiophene.qcin
output file: 
nprocs     : 0
nthreads   : 1
#
# qchem installation setting
#
QC:          /cm/shared/apps/spack/cpu/opt/spack/linux-centos8-zen2/gcc-10.2.0/qchem-5.4-akfmr7b3t57bfs6qan3padb2wnb2i7cl
QCAUX:       /cm/shared/apps/spack/cpu/opt/spack/linux-centos8-zen2/gcc-10.2.0/qchem-5.4-akfmr7b3t57bfs6qan3padb2wnb2i7cl/qcaux
QCPROG:      /cm/shared/apps/spack/cpu/opt/spack/linux-centos8-zen2/gcc-10.2.0/qchem-5.4-akfmr7b3t57bfs6qan3padb2wnb2i7cl/exe/qcprog.exe_s
QCPROG_S:    /cm/shared/apps/spack/cpu/opt/spack/linux-centos8-zen2/gcc-10.2.0/qchem-5.4-akfmr7b3t57bfs6qan3padb2wnb2i7cl/exe/qcprog.exe_s
PARALLEL:    -DSERIAL
QCMPI:       mpich
#
# qchem directory setting
#
qcrun:       qchem2560939
QCSCRATCH:   .
QCLOCALSCR:  
QCTMPDIR:    .
QCFILEPREF:  ./qchem2560939
QCSAVEDIR:   
workdirs:    ./qchem2560939
workdir0:    ./qchem2560939
partmpdirs =  
#
# parallel setting
#
QCRSH:           ssh
QCMPI:           mpich
QCMPIRUN:        /cm/shared/apps/spack/cpu/opt/spack/linux-centos8-zen2/gcc-10.2.0/qchem-5.4-akfmr7b3t57bfs6qan3padb2wnb2i7cl/bin/mpi/mpirun_qchem
QCMACHINEFILE:   ./qchem2560939/hostfile

#
# env setting
#
exported envs:   QC QCAUX QCSCRATCH QCRUNNAME QCFILEPREF QCPROG QCPROG_S GUIFILE

Running Job 1 of 1 Methylthiophene_Phi_25_Theta_340_Methylthiophene.qcin
qchem Methylthiophene_Phi_25_Theta_340_Methylthiophene.qcin_2560939.0 ./qchem2560939/ 0
/cm/shared/apps/spack/cpu/opt/spack/linux-centos8-zen2/gcc-10.2.0/qchem-5.4-akfmr7b3t57bfs6qan3padb2wnb2i7cl/exe/qcprog.exe_s Methylthiophene_Phi_25_Theta_340_Methylthiophene.qcin_2560939.0 ./qchem2560939/
                  Welcome to Q-Chem
     A Quantum Leap Into The Future Of Chemistry


 Q-Chem 5.4, Q-Chem, Inc., Pleasanton, CA (2021)

 License issued to: University of California, San Diego (site)

 E. Epifanovsky,  A. T. B. Gilbert,  Xintian Feng,  Joonho Lee,  Yuezhi Mao,  
 N. Mardirossian,  P. Pokhilko,  A. White,  M. Wormit,  M. P. Coons,  
 A. L. Dempwolff,  Zhengting Gan,  D. Hait,  P. R. Horn,  L. D. Jacobson,  
 I. Kaliman,  J. Kussmann,  A. W. Lange,  Ka Un Lao,  D. S. Levine,  Jie Liu,  
 S. C. McKenzie,  A. F. Morrison,  K. Nanda,  F. Plasser,  D. R. Rehn,  
 M. L. Vidal,  Zhi-Qiang You,  Ying Zhu,  B. Alam,  B. Albrecht,  
 A. Aldossary,  E. Alguire,  J. H. Andersen,  D. Barton,  K. Begam,  A. Behn,  
 Y. A. Bernard,  E. J. Berquist,  H. Burton,  A. Carreras,  K. Carter-Fenk,  
 R. Chakraborty,  A. D. Chien,  K. D. Closser,  V. Cofer-Shabica,  
 S. Dasgupta,  Jia Deng,  M. de Wergifosse,  M. Diedenhofen,  Hainam Do,  
 S. Ehlert,  Po-Tung Fang,  S. Fatehi,  Qingguo Feng,  J. Gayvert,  
 Qinghui Ge,  G. Gidofalvi,  M. Goldey,  J. Gomes,  C. Gonzalez-Espinoza,  
 S. Gulania,  A. Gunina,  M. W. D. Hanson-Heine,  P. H. P. Harbach,  
 A. W. Hauser,  M. F. Herbst,  M. Hernandez Vera,  M. Hodecker,  
 Z. C. Holden,  S. Houck,  Xunkun Huang,  Kerwin Hui,  B. C. Huynh,  
 M. Ivanov,  Hyunjun Ji,  Hanjie Jiang,  B. Kaduk,  S. Kaehler,  
 K. Khistyaev,  Jaehoon Kim,  P. Klunzinger,  Z. Koczor-Benda,  
 Joong Hoon Koh,  D. Kosenkov,  L. Koulias,  T. Kowalczyk,  C. M. Krauter,  
 K. Kue,  A. Kunitsa,  T. Kus,  A. Landau,  K. V. Lawler,  D. Lefrancois,  
 S. Lehtola,  Rain Li,  Yi-Pei Li,  Jiashu Liang,  M. Liebenthal,  
 Hung-Hsuan Lin,  You-Sheng Lin,  Fenglai Liu,  Kuan-Yu Liu,  
 M. Loipersberger,  A. Luenser,  A. Manjanath,  P. Manohar,  E. Mansoor,  
 S. F. Manzer,  Shan-Ping Mao,  A. V. Marenich,  T. Markovich,  S. Mason,  
 S. A. Maurer,  P. F. McLaughlin,  M. F. S. J. Menger,  J.-M. Mewes,  
 S. A. Mewes,  P. Morgante,  J. W. Mullinax,  T. S. Nguyen-Beck,  
 K. J. Oosterbaan,  G. Paran,  Alexander C. Paul,  Suranjan K. Paul,  
 F. Pavosevic,  Zheng Pei,  S. Prager,  E. I. Proynov,  E. Ramos,  B. Rana,  
 A. E. Rask,  A. Rettig,  R. M. Richard,  F. Rob,  E. Rossomme,  T. Scheele,  
 M. Scheurer,  M. Schneider,  N. Sergueev,  S. M. Sharada,  W. Skomorowski,  
 D. W. Small,  C. J. Stein,  Yu-Chuan Su,  E. J. Sundstrom,  Zhen Tao,  
 J. Thirman,  T. Tsuchimochi,  N. M. Tubman,  S. P. Veccham,  O. Vydrov,  
 J. Wenzel,  J. Witte,  A. Yamada,  Kun Yao,  S. Yeganeh,  S. R. Yost,  
 A. Zech,  Igor Ying Zhang,  Xing Zhang,  Yu Zhang,  D. Zuev,  
 A. Aspuru-Guzik,  A. T. Bell,  N. A. Besley,  K. B. Bravaya,  B. R. Brooks,  
 D. Casanova,  Jeng-Da Chai,  S. Coriani,  C. J. Cramer,  
 A. E. DePrince, III,  R. A. DiStasio Jr.,  A. Dreuw,  B. D. Dunietz,  
 T. R. Furlani,  W. A. Goddard III,  S. Grimme,  S. Hammes-Schiffer,  
 T. Head-Gordon,  W. J. Hehre,  Chao-Ping Hsu,  T.-C. Jagau,  Yousung Jung,  
 A. Klamt,  Jing Kong,  D. S. Lambrecht,  WanZhen Liang,  N. J. Mayhall,  
 C. W. McCurdy,  J. B. Neaton,  C. Ochsenfeld,  J. A. Parkhill,  R. Peverati,  
 V. A. Rassolov,  Yihan Shao,  L. V. Slipchenko,  T. Stauch,  R. P. Steele,  
 J. E. Subotnik,  A. J. W. Thom,  A. Tkatchenko,  D. G. Truhlar,  
 T. Van Voorhis,  T. A. Wesolowski,  K. B. Whaley,  H. L. Woodcock III,  
 P. M. Zimmerman,  S. Faraji,  P. M. W. Gill,  M. Head-Gordon,  
 J. M. Herbert,  A. I. Krylov

 Contributors to earlier versions of Q-Chem not listed above: 
 R. D. Adamson,  B. Austin,  R. Baer,  J. Baker,  G. J. O. Beran,  
 K. Brandhorst,  S. T. Brown,  E. F. C. Byrd,  A. K. Chakraborty,  
 G. K. L. Chan,  Chun-Min Chang,  Yunqing Chen,  C.-L. Cheng,  
 Siu Hung Chien,  D. M. Chipman,  D. L. Crittenden,  H. Dachsel,  
 R. J. Doerksen,  A. D. Dutoi,  R. G. Edgar,  J. Fosso-Tande,  
 L. Fusti-Molnar,  D. Ghosh,  A. Ghysels,  A. Golubeva-Zadorozhnaya,  
 J. Gonthier,  M. S. Gordon,  S. R. Gwaltney,  G. Hawkins,  J. E. Herr,  
 A. Heyden,  S. Hirata,  E. G. Hohenstein,  G. Kedziora,  F. J. Keil,  
 C. Kelley,  Jihan Kim,  R. A. King,  R. Z. Khaliullin,  P. P. Korambath,  
 W. Kurlancheek,  A. Laurent,  A. M. Lee,  M. S. Lee,  S. V. Levchenko,  
 Ching Yeh Lin,  D. Liotard,  E. Livshits,  R. C. Lochan,  I. Lotan,  
 L. A. Martinez-Martinez,  P. E. Maslen,  N. Nair,  D. P. O'Neill,  
 D. Neuhauser,  E. Neuscamman,  C. M. Oana,  R. Olivares-Amaya,  R. Olson,  
 T. M. Perrine,  B. Peters,  P. A. Pieniazek,  A. Prociuk,  Y. M. Rhee,  
 J. Ritchie,  M. A. Rohrdanz,  E. Rosta,  N. J. Russ,  H. F. Schaefer III,  
 M. W. Schmidt,  N. E. Schultz,  S. Sharma,  N. Shenvi,  C. D. Sherrill,  
 A. C. Simmonett,  A. Sodt,  T. Stein,  D. Stuck,  K. S. Thanthiriwatte,  
 V. Vanovschi,  L. Vogt,  Tao Wang,  A. Warshel,  M. A. Watson,  
 C. F. Williams,  Q. Wu,  X. Xu,  Jun Yang,  W. Zhang,  Yan Zhao

 Please cite Q-Chem as follows:
 Y. Shao et al., Mol. Phys. 113, 184-215 (2015)
 DOI: 10.1080/00268976.2014.952696

 Q-Chem 5.4.0 for Intel X86 EM64T Linux

 Parts of Q-Chem use Armadillo 9.800.1 (Horizon Scraper).
 http://arma.sourceforge.net/

 Q-Chem begins on Sat Jul  9 17:25:00 2022  

 Host: 
0

     Scratch files written to ./qchem2560939//
 May1621 |scratch|qcdevops|jenkins|workspace|build_RNUM    
 Processing $rem in /cm/shared/apps/spack/cpu/opt/spack/linux-centos8-zen2/gcc-10.2.0/qchem-5.4-akfmr7b3t57bfs6qan3padb2wnb2i7cl/config/preferences:
 Processing $rem in /home/theleonzhang/.qchemrc:
 Symmetry turned off for PCM/SM12/SMD calculation
 Core orbitals will be frozen

 Checking the input file for inconsistencies... 	...done.

--------------------------------------------------------------
User input:
--------------------------------------------------------------
$molecule
0 1
C	0.264439	-3.866725	0.728625
C	-0.209794	-3.703963	-0.575519
C	-0.364749	-2.357056	-1.002336
H	-0.446060	-4.561092	-1.224165
C	-0.000000	-1.440664	-0.000000
S	0.528253	-2.286957	1.451336
C	-0.862253	-1.978743	-2.369885
H	-1.082953	-2.878678	-2.976034
H	-0.115513	-1.376015	-2.927887
H	-1.792797	-1.375728	-2.317620
H	0.469476	-4.783437	1.292636
C	0.000000	0.000000	0.000000
C	0.365003	0.782674	1.099446
C	0.949885	2.036912	0.776721
H	0.209135	0.448431	2.136088
C	1.043159	2.236886	-0.612546
S	0.398297	0.854094	-1.486809
C	1.409609	3.022738	1.814609
H	1.229726	2.636980	2.836676
H	0.877346	3.992870	1.726239
H	2.494910	3.238558	1.726228
H	1.444334	3.097160	-1.161575
$end

$rem
JOBTYPE		SP
EXCHANGE	HF
CORRELATION	pRIMP2
BASIS		cc-pvtz
METHOD		rimp2
AUX_BASIS	rimp2-cc-pvtz
SOLVENT_METHOD	PCM
PURECART	11111
SYMMETRY	false
MEM_TOTAL	110000
SCF_CONVERGENCE = 6
THRESH=10
$end



$solvent
dielectric 4.90
$end
--------------------------------------------------------------
 ----------------------------------------------------------------
             Standard Nuclear Orientation (Angstroms)
    I     Atom           X                Y                Z
 ----------------------------------------------------------------
    1      C       0.2644390000    -3.8667250000     0.7286250000
    2      C      -0.2097940000    -3.7039630000    -0.5755190000
    3      C      -0.3647490000    -2.3570560000    -1.0023360000
    4      H      -0.4460600000    -4.5610920000    -1.2241650000
    5      C       0.0000000000    -1.4406640000     0.0000000000
    6      S       0.5282530000    -2.2869570000     1.4513360000
    7      C      -0.8622530000    -1.9787430000    -2.3698850000
    8      H      -1.0829530000    -2.8786780000    -2.9760340000
    9      H      -0.1155130000    -1.3760150000    -2.9278870000
   10      H      -1.7927970000    -1.3757280000    -2.3176200000
   11      H       0.4694760000    -4.7834370000     1.2926360000
   12      C       0.0000000000     0.0000000000     0.0000000000
   13      C       0.3650030000     0.7826740000     1.0994460000
   14      C       0.9498850000     2.0369120000     0.7767210000
   15      H       0.2091350000     0.4484310000     2.1360880000
   16      C       1.0431590000     2.2368860000    -0.6125460000
   17      S       0.3982970000     0.8540940000    -1.4868090000
   18      C       1.4096090000     3.0227380000     1.8146090000
   19      H       1.2297260000     2.6369800000     2.8366760000
   20      H       0.8773460000     3.9928700000     1.7262390000
   21      H       2.4949100000     3.2385580000     1.7262280000
   22      H       1.4443340000     3.0971600000    -1.1615750000
 ----------------------------------------------------------------
 Nuclear Repulsion Energy =         841.13459178 hartrees
 There are       51 alpha and       51 beta electrons

 Q-Chem warning in module forms1/BasisType.C, line 2236:

 You are not using the predefined 5D/6D in this basis set.

 Requested basis set is cc-pVTZ
 There are 184 shells and 508 basis functions

 Total QAlloc Memory Limit 110000 MB
 Mega-Array Size       188 MB
 MEM_STATIC part       192 MB
 Discretize the solute cavity surface with Lebedev spheres
	Using 110 Lebedev grid points for each H atom
	Using 194 Lebedev grid points for other atoms
	Atomic van der Waals radii will be scaled by 1.20
 Remove points where switching function is < 1.0e-08
 Keep 1525 surface tesserae and discard 1903 interior tesserae
 Molecular Surface Area = 229.400 Angst**2
 Requested basis set is rimp2-cc-pVTZ
 There are 394 shells and 1354 basis functions
 A cutoff of  1.0D-10 yielded  12236 shell pairs
 There are     90834 function pairs (    117256 Cartesian)
 Smallest overlap matrix eigenvalue = 6.57E-05

 Scale SEOQF with 1.000000e-01/1.000000e-01/1.000000e-01

 Standard Electronic Orientation quadrupole field applied
 Nucleus-field energy     =     0.0000000205 hartrees
 Guess from superposition of atomic densities
 Warning:  Energy on first SCF cycle will be non-variational
 SAD guess density has 102.000000 electrons

 -----------------------------------------------------------------------
  General SCF calculation program by
  Eric Jon Sundstrom, Paul Horn, Yuezhi Mao, Dmitri Zuev, Alec White,
  David Stuck, Shaama M.S., Shane Yost, Joonho Lee, David Small,
  Daniel Levine, Susi Lehtola, Hugh Burton, Evgeny Epifanovsky,
  Bang C. Huynh
 -----------------------------------------------------------------------
 Hartree-Fock
 A restricted SCF calculation will be
 performed using DIIS
 SCF converges when DIIS error is below 1.0e-06
 ---------------------------------------
  Cycle       Energy         DIIS error
 ---------------------------------------
    1   -1184.2577507830      2.39e-02  
    2   -1179.5357746709      1.60e-03  
    3   -1179.6567751462      6.03e-04  
    4   -1179.6702150393      3.27e-04  
    5   -1179.6747347599      6.35e-05  
    6   -1179.6750078883      3.03e-05  
    7   -1179.6750934311      1.25e-05  
    8   -1179.6751215442      5.14e-06  
    9   -1179.6751265154      1.68e-06  
   10   -1179.6751269694      5.17e-07  Convergence criterion met
 ---------------------------------------
 SCF time:   CPU 512.28s  wall 515.00s 

************** Final PCM Free Energy Summary **************
 G_electrostatic  =      -0.00788441 hartree =      -4.94754193 kcal/mol
 G_cavitation     =       0.00000000 hartree =       0.00000000 kcal/mol
 G_dispersion     =       0.00000000 hartree =       0.00000000 kcal/mol
 G_repulsion      =       0.00000000 hartree =       0.00000000 kcal/mol
 --------------------------------------------------
 Non-electrostatic Free Energy =       0.00000000 hartree =       0.00000000 kcal/mol
 Total                         =      -0.00788441 hartree =      -4.94754193 kcal/mol
 --------------------------------------------------
 SCF Energy (H0 + V/2)                       =   -1179.67512697 
 Solute Internal Energy (H0)                 =   -1179.66724256 
 Total Free Energy (H0 + V/2 + non-elec)     =   -1179.67512697 hartree
                                             = -740257.31487645 kcal/mol
***********************************************************

 SCF   energy in the final basis set =    -1179.6751269694
 Total energy in the final basis set =    -1179.6751269694


 --------------------------------------------------------------
  Generalized many-body perturbation theory program
  by Joonho Lee, Fazle Rob, Xintian Feng, Evgeny Epifanovsky

 No regularization used 
 (reg. param. = 0.0000e+00)
  (P|Q)^-1/2 Time:  CPU 1.73 s  wall 1.74 s

 In RI-MP2 calculation: 
 # of frozen core orbitals: 20

 Components of the RIMP2 correlation energy:
        aaaa    correlation energy =        -0.2535275145 a.u.
        abab    correlation energy =        -1.4760429428 a.u.
        bbbb    correlation energy =        -0.2535275145 a.u.
        non-Brillouin singles      =        -0.0000000000 a.u.
        total same-spin energy     =        -0.5070550290 a.u.
        total opposite-spin energy =        -1.4760429428 a.u.

 Total  RIMP2   correlation energy =        -1.9830979718 a.u.
        RIMP2         total energy =     -1181.6582249412 a.u.

 RI-MP2 Energy Time:  CPU 69.08 s  wall 69.29 s
 
 --------------------------------------------------------------
 
                    Orbital Energies (a.u.)
 --------------------------------------------------------------
 
 Alpha MOs
 -- Occupied --
-91.9851 -91.9836 -11.2799 -11.2770 -11.2699 -11.2672 -11.2531 -11.2503
-11.2439 -11.2423 -11.2296 -11.2294  -8.9850  -8.9834  -6.6659  -6.6653
 -6.6647  -6.6644  -6.6638  -6.6632  -1.1824  -1.1496  -1.0427  -1.0246
 -0.9995  -0.9517  -0.9150  -0.8944  -0.7997  -0.7648  -0.7214  -0.6945
 -0.6622  -0.6165  -0.5842  -0.5806  -0.5784  -0.5700  -0.5525  -0.5345
 -0.5245  -0.5199  -0.5108  -0.4962  -0.4861  -0.4676  -0.4520  -0.3660
 -0.3437  -0.3405  -0.2691
 -- Virtual --
  0.0601   0.1308   0.1431   0.1532   0.1626   0.1745   0.1813   0.1882
  0.1920   0.1965   0.2098   0.2205   0.2357   0.2379   0.2427   0.2478
  0.2587   0.2767   0.3022   0.3095   0.3378   0.3569   0.3634   0.3729
  0.3814   0.3854   0.4062   0.4096   0.4149   0.4222   0.4368   0.4468
  0.4493   0.4581   0.4703   0.4724   0.4827   0.4901   0.5032   0.5071
  0.5134   0.5208   0.5259   0.5364   0.5447   0.5558   0.5578   0.5644
  0.5727   0.5848   0.6005   0.6034   0.6060   0.6126   0.6149   0.6200
  0.6213   0.6329   0.6399   0.6442   0.6483   0.6529   0.6553   0.6671
  0.6774   0.6907   0.7105   0.7144   0.7181   0.7301   0.7323   0.7578
  0.7762   0.7833   0.7975   0.8113   0.8199   0.8252   0.8409   0.8440
  0.8558   0.8654   0.8725   0.8830   0.9059   0.9185   0.9403   0.9454
  0.9496   0.9548   0.9727   1.0002   1.0041   1.0101   1.0191   1.0361
  1.0437   1.0554   1.0609   1.0742   1.0822   1.0872   1.0936   1.0959
  1.1015   1.1107   1.1340   1.1475   1.1523   1.1621   1.1732   1.1859
  1.2043   1.2255   1.2308   1.2387   1.2476   1.2624   1.2642   1.2697
  1.2751   1.2903   1.2925   1.3094   1.3308   1.3365   1.3560   1.3606
  1.3711   1.3896   1.4068   1.4166   1.4242   1.4307   1.4423   1.4589
  1.4814   1.4886   1.5000   1.5100   1.5115   1.5234   1.5356   1.5449
  1.5480   1.5581   1.5650   1.5690   1.5901   1.5971   1.6114   1.6162
  1.6525   1.6579   1.6740   1.6859   1.6944   1.7095   1.7221   1.7379
  1.7558   1.7611   1.7675   1.7868   1.7987   1.8149   1.8442   1.8597
  1.8702   1.8985   1.9236   1.9335   1.9617   1.9623   1.9804   1.9876
  1.9909   2.0423   2.0581   2.0748   2.1289   2.1395   2.1475   2.1755
  2.1833   2.1927   2.2064   2.2318   2.2496   2.2624   2.2713   2.2825
  2.2885   2.3014   2.3259   2.3762   2.4052   2.4186   2.4318   2.4444
  2.4755   2.4910   2.5002   2.5384   2.5473   2.5691   2.5969   2.6087
  2.6210   2.6335   2.6488   2.6594   2.6843   2.6990   2.7120   2.7312
  2.7339   2.7450   2.7490   2.7507   2.7766   2.7802   2.7906   2.7946
  2.8181   2.8334   2.8364   2.8613   2.8676   2.8932   2.9084   2.9496
  2.9624   2.9699   2.9785   2.9840   3.0044   3.0106   3.0316   3.0411
  3.0453   3.0806   3.0908   3.0977   3.1105   3.1218   3.1317   3.1392
  3.1435   3.1566   3.1647   3.1728   3.1850   3.1901   3.2133   3.2191
  3.2433   3.2439   3.2574   3.2719   3.2780   3.2889   3.2908   3.2989
  3.3126   3.3206   3.3310   3.3468   3.3494   3.3661   3.3691   3.3892
  3.3913   3.3984   3.4022   3.4138   3.4182   3.4253   3.4313   3.4402
  3.4480   3.4593   3.4604   3.4801   3.4859   3.5106   3.5146   3.5245
  3.5303   3.5367   3.5465   3.5531   3.5584   3.5643   3.5851   3.5918
  3.6166   3.6171   3.6253   3.6352   3.6486   3.6578   3.6695   3.6748
  3.6874   3.6950   3.6982   3.7179   3.7313   3.7348   3.7444   3.7526
  3.7590   3.7719   3.7807   3.7847   3.8070   3.8118   3.8243   3.8391
  3.8534   3.8686   3.8924   3.9049   3.9146   3.9285   3.9412   3.9622
  3.9754   3.9794   3.9846   3.9993   4.0144   4.0149   4.0301   4.0481
  4.0503   4.0793   4.0853   4.0938   4.1213   4.1284   4.1403   4.1600
  4.1657   4.1808   4.1912   4.1966   4.2040   4.2163   4.2248   4.2339
  4.2520   4.2674   4.2840   4.2914   4.3045   4.3170   4.3343   4.3387
  4.3526   4.3588   4.3601   4.3646   4.4019   4.4045   4.4138   4.4309
  4.4426   4.4531   4.4681   4.4840   4.4996   4.5247   4.5342   4.5588
  4.6030   4.6122   4.6223   4.6335   4.6396   4.6531   4.6768   4.6979
  4.7042   4.7274   4.7309   4.7440   4.7666   4.7814   4.8227   4.8435
  4.8589   4.8718   4.8992   4.9193   4.9459   4.9576   4.9892   5.0559
  5.0783   5.0945   5.1101   5.1582   5.1653   5.1758   5.2016   5.2326
  5.2779   5.2863   5.2882   5.3088   5.3206   5.3677   5.3941   5.4062
  5.4130   5.4395   5.4610   5.4719   5.5232   5.5320   5.5444   5.5614
  5.5667   5.5884   5.6229   5.6265   5.6290   5.6940   5.7072   5.7147
  5.7907   5.8307   5.9066   5.9769   6.0386   6.0735   6.1412   6.2273
  6.2332   6.2433   6.2856   6.3004   6.3438   6.4368   6.5214   8.7824
  9.8176  11.5091  12.1257  12.8912  13.1605  13.7532  13.9080  14.2234
 14.4506
 --------------------------------------------------------------
 
          Ground-State Mulliken Net Atomic Charges

     Atom                 Charge (a.u.)
  ----------------------------------------
      1 C                    -0.218381
      2 C                    -0.248561
      3 C                     0.037611
      4 H                     0.184049
      5 C                    -0.014517
      6 S                     0.008633
      7 C                    -0.315416
      8 H                     0.114638
      9 H                     0.112079
     10 H                     0.118522
     11 H                     0.205653
     12 C                     0.047004
     13 C                    -0.300183
     14 C                     0.054580
     15 H                     0.181378
     16 C                    -0.253828
     17 S                     0.036078
     18 C                    -0.268486
     19 H                     0.103183
     20 H                     0.108403
     21 H                     0.109117
     22 H                     0.198445
  ----------------------------------------
  Sum of atomic charges =     0.000000

 -----------------------------------------------------------------
                    Cartesian Multipole Moments
 -----------------------------------------------------------------
    Charge (ESU x 10^10)
                -0.0000
    Dipole Moment (Debye)
         X       0.3620      Y       0.3517      Z      -0.0008
       Tot       0.5047
    Quadrupole Moments (Debye-Ang)
        XX     -89.9449     XY       5.0989     YY     -70.9906
        XZ       2.5725     YZ       3.1226     ZZ     -80.6652
    Octopole Moments (Debye-Ang^2)
       XXX     -86.9559    XXY      59.9390    XYY     -13.9361
       YYY     107.2385    XXZ       0.1011    XYZ      -8.8960
       YYZ       1.3211    XZZ     -26.2866    YZZ      43.7336
       ZZZ       6.6876
    Hexadecapole Moments (Debye-Ang^3)
      XXXX    -373.1652   XXXY    -184.3583   XXYY    -548.1153
      XYYY    -162.7835   YYYY   -2453.9969   XXXZ    -132.0857
      XXYZ     -28.2427   XYYZ     -16.1547   YYYZ    -125.5955
      XXZZ    -235.4815   XYZZ     -49.9405   YYZZ    -578.8549
      XZZZ    -126.3606   YZZZ     -76.3907   ZZZZ   -1013.7375
 -----------------------------------------------------------------
 Total job time:  586.07s(wall), 582.21s(cpu) 
 Sat Jul  9 17:34:46 2022

        *************************************************************
        *                                                           *
        *  Thank you very much for using Q-Chem.  Have a nice day.  *
        *                                                           *
        *************************************************************


remove work dirs ./qchem2560939.0 -- ./qchem2560939.-1
rm -rf ./qchem2560939
