You are running Q-Chem version: 5.4.0

#
# job setting
#
local host:  exp-2-18
current dir: /expanse/lustre/scratch/theleonzhang/temp_project/Interring_Bonds
input file:  Methylthiophene_Phi_50_Theta_70_Methylthiophene.qcin
output file: 
nprocs     : 0
nthreads   : 1
#
# qchem installation setting
#
QC:          /cm/shared/apps/spack/cpu/opt/spack/linux-centos8-zen2/gcc-10.2.0/qchem-5.4-akfmr7b3t57bfs6qan3padb2wnb2i7cl
QCAUX:       /cm/shared/apps/spack/cpu/opt/spack/linux-centos8-zen2/gcc-10.2.0/qchem-5.4-akfmr7b3t57bfs6qan3padb2wnb2i7cl/qcaux
QCPROG:      /cm/shared/apps/spack/cpu/opt/spack/linux-centos8-zen2/gcc-10.2.0/qchem-5.4-akfmr7b3t57bfs6qan3padb2wnb2i7cl/exe/qcprog.exe_s
QCPROG_S:    /cm/shared/apps/spack/cpu/opt/spack/linux-centos8-zen2/gcc-10.2.0/qchem-5.4-akfmr7b3t57bfs6qan3padb2wnb2i7cl/exe/qcprog.exe_s
PARALLEL:    -DSERIAL
QCMPI:       mpich
#
# qchem directory setting
#
qcrun:       qchem1045028
QCSCRATCH:   .
QCLOCALSCR:  
QCTMPDIR:    .
QCFILEPREF:  ./qchem1045028
QCSAVEDIR:   
workdirs:    ./qchem1045028
workdir0:    ./qchem1045028
partmpdirs =  
#
# parallel setting
#
QCRSH:           ssh
QCMPI:           mpich
QCMPIRUN:        /cm/shared/apps/spack/cpu/opt/spack/linux-centos8-zen2/gcc-10.2.0/qchem-5.4-akfmr7b3t57bfs6qan3padb2wnb2i7cl/bin/mpi/mpirun_qchem
QCMACHINEFILE:   ./qchem1045028/hostfile

#
# env setting
#
exported envs:   QC QCAUX QCSCRATCH QCRUNNAME QCFILEPREF QCPROG QCPROG_S GUIFILE

Running Job 1 of 1 Methylthiophene_Phi_50_Theta_70_Methylthiophene.qcin
qchem Methylthiophene_Phi_50_Theta_70_Methylthiophene.qcin_1045028.0 ./qchem1045028/ 0
/cm/shared/apps/spack/cpu/opt/spack/linux-centos8-zen2/gcc-10.2.0/qchem-5.4-akfmr7b3t57bfs6qan3padb2wnb2i7cl/exe/qcprog.exe_s Methylthiophene_Phi_50_Theta_70_Methylthiophene.qcin_1045028.0 ./qchem1045028/
                  Welcome to Q-Chem
     A Quantum Leap Into The Future Of Chemistry


 Q-Chem 5.4, Q-Chem, Inc., Pleasanton, CA (2021)

 License issued to: University of California, San Diego (site)

 E. Epifanovsky,  A. T. B. Gilbert,  Xintian Feng,  Joonho Lee,  Yuezhi Mao,  
 N. Mardirossian,  P. Pokhilko,  A. White,  M. Wormit,  M. P. Coons,  
 A. L. Dempwolff,  Zhengting Gan,  D. Hait,  P. R. Horn,  L. D. Jacobson,  
 I. Kaliman,  J. Kussmann,  A. W. Lange,  Ka Un Lao,  D. S. Levine,  Jie Liu,  
 S. C. McKenzie,  A. F. Morrison,  K. Nanda,  F. Plasser,  D. R. Rehn,  
 M. L. Vidal,  Zhi-Qiang You,  Ying Zhu,  B. Alam,  B. Albrecht,  
 A. Aldossary,  E. Alguire,  J. H. Andersen,  D. Barton,  K. Begam,  A. Behn,  
 Y. A. Bernard,  E. J. Berquist,  H. Burton,  A. Carreras,  K. Carter-Fenk,  
 R. Chakraborty,  A. D. Chien,  K. D. Closser,  V. Cofer-Shabica,  
 S. Dasgupta,  Jia Deng,  M. de Wergifosse,  M. Diedenhofen,  Hainam Do,  
 S. Ehlert,  Po-Tung Fang,  S. Fatehi,  Qingguo Feng,  J. Gayvert,  
 Qinghui Ge,  G. Gidofalvi,  M. Goldey,  J. Gomes,  C. Gonzalez-Espinoza,  
 S. Gulania,  A. Gunina,  M. W. D. Hanson-Heine,  P. H. P. Harbach,  
 A. W. Hauser,  M. F. Herbst,  M. Hernandez Vera,  M. Hodecker,  
 Z. C. Holden,  S. Houck,  Xunkun Huang,  Kerwin Hui,  B. C. Huynh,  
 M. Ivanov,  Hyunjun Ji,  Hanjie Jiang,  B. Kaduk,  S. Kaehler,  
 K. Khistyaev,  Jaehoon Kim,  P. Klunzinger,  Z. Koczor-Benda,  
 Joong Hoon Koh,  D. Kosenkov,  L. Koulias,  T. Kowalczyk,  C. M. Krauter,  
 K. Kue,  A. Kunitsa,  T. Kus,  A. Landau,  K. V. Lawler,  D. Lefrancois,  
 S. Lehtola,  Rain Li,  Yi-Pei Li,  Jiashu Liang,  M. Liebenthal,  
 Hung-Hsuan Lin,  You-Sheng Lin,  Fenglai Liu,  Kuan-Yu Liu,  
 M. Loipersberger,  A. Luenser,  A. Manjanath,  P. Manohar,  E. Mansoor,  
 S. F. Manzer,  Shan-Ping Mao,  A. V. Marenich,  T. Markovich,  S. Mason,  
 S. A. Maurer,  P. F. McLaughlin,  M. F. S. J. Menger,  J.-M. Mewes,  
 S. A. Mewes,  P. Morgante,  J. W. Mullinax,  T. S. Nguyen-Beck,  
 K. J. Oosterbaan,  G. Paran,  Alexander C. Paul,  Suranjan K. Paul,  
 F. Pavosevic,  Zheng Pei,  S. Prager,  E. I. Proynov,  E. Ramos,  B. Rana,  
 A. E. Rask,  A. Rettig,  R. M. Richard,  F. Rob,  E. Rossomme,  T. Scheele,  
 M. Scheurer,  M. Schneider,  N. Sergueev,  S. M. Sharada,  W. Skomorowski,  
 D. W. Small,  C. J. Stein,  Yu-Chuan Su,  E. J. Sundstrom,  Zhen Tao,  
 J. Thirman,  T. Tsuchimochi,  N. M. Tubman,  S. P. Veccham,  O. Vydrov,  
 J. Wenzel,  J. Witte,  A. Yamada,  Kun Yao,  S. Yeganeh,  S. R. Yost,  
 A. Zech,  Igor Ying Zhang,  Xing Zhang,  Yu Zhang,  D. Zuev,  
 A. Aspuru-Guzik,  A. T. Bell,  N. A. Besley,  K. B. Bravaya,  B. R. Brooks,  
 D. Casanova,  Jeng-Da Chai,  S. Coriani,  C. J. Cramer,  
 A. E. DePrince, III,  R. A. DiStasio Jr.,  A. Dreuw,  B. D. Dunietz,  
 T. R. Furlani,  W. A. Goddard III,  S. Grimme,  S. Hammes-Schiffer,  
 T. Head-Gordon,  W. J. Hehre,  Chao-Ping Hsu,  T.-C. Jagau,  Yousung Jung,  
 A. Klamt,  Jing Kong,  D. S. Lambrecht,  WanZhen Liang,  N. J. Mayhall,  
 C. W. McCurdy,  J. B. Neaton,  C. Ochsenfeld,  J. A. Parkhill,  R. Peverati,  
 V. A. Rassolov,  Yihan Shao,  L. V. Slipchenko,  T. Stauch,  R. P. Steele,  
 J. E. Subotnik,  A. J. W. Thom,  A. Tkatchenko,  D. G. Truhlar,  
 T. Van Voorhis,  T. A. Wesolowski,  K. B. Whaley,  H. L. Woodcock III,  
 P. M. Zimmerman,  S. Faraji,  P. M. W. Gill,  M. Head-Gordon,  
 J. M. Herbert,  A. I. Krylov

 Contributors to earlier versions of Q-Chem not listed above: 
 R. D. Adamson,  B. Austin,  R. Baer,  J. Baker,  G. J. O. Beran,  
 K. Brandhorst,  S. T. Brown,  E. F. C. Byrd,  A. K. Chakraborty,  
 G. K. L. Chan,  Chun-Min Chang,  Yunqing Chen,  C.-L. Cheng,  
 Siu Hung Chien,  D. M. Chipman,  D. L. Crittenden,  H. Dachsel,  
 R. J. Doerksen,  A. D. Dutoi,  R. G. Edgar,  J. Fosso-Tande,  
 L. Fusti-Molnar,  D. Ghosh,  A. Ghysels,  A. Golubeva-Zadorozhnaya,  
 J. Gonthier,  M. S. Gordon,  S. R. Gwaltney,  G. Hawkins,  J. E. Herr,  
 A. Heyden,  S. Hirata,  E. G. Hohenstein,  G. Kedziora,  F. J. Keil,  
 C. Kelley,  Jihan Kim,  R. A. King,  R. Z. Khaliullin,  P. P. Korambath,  
 W. Kurlancheek,  A. Laurent,  A. M. Lee,  M. S. Lee,  S. V. Levchenko,  
 Ching Yeh Lin,  D. Liotard,  E. Livshits,  R. C. Lochan,  I. Lotan,  
 L. A. Martinez-Martinez,  P. E. Maslen,  N. Nair,  D. P. O'Neill,  
 D. Neuhauser,  E. Neuscamman,  C. M. Oana,  R. Olivares-Amaya,  R. Olson,  
 T. M. Perrine,  B. Peters,  P. A. Pieniazek,  A. Prociuk,  Y. M. Rhee,  
 J. Ritchie,  M. A. Rohrdanz,  E. Rosta,  N. J. Russ,  H. F. Schaefer III,  
 M. W. Schmidt,  N. E. Schultz,  S. Sharma,  N. Shenvi,  C. D. Sherrill,  
 A. C. Simmonett,  A. Sodt,  T. Stein,  D. Stuck,  K. S. Thanthiriwatte,  
 V. Vanovschi,  L. Vogt,  Tao Wang,  A. Warshel,  M. A. Watson,  
 C. F. Williams,  Q. Wu,  X. Xu,  Jun Yang,  W. Zhang,  Yan Zhao

 Please cite Q-Chem as follows:
 Y. Shao et al., Mol. Phys. 113, 184-215 (2015)
 DOI: 10.1080/00268976.2014.952696

 Q-Chem 5.4.0 for Intel X86 EM64T Linux

 Parts of Q-Chem use Armadillo 9.800.1 (Horizon Scraper).
 http://arma.sourceforge.net/

 Q-Chem begins on Fri Jul  8 23:15:12 2022  

 Host: 
0

     Scratch files written to ./qchem1045028//
 May1621 |scratch|qcdevops|jenkins|workspace|build_RNUM    
 Processing $rem in /cm/shared/apps/spack/cpu/opt/spack/linux-centos8-zen2/gcc-10.2.0/qchem-5.4-akfmr7b3t57bfs6qan3padb2wnb2i7cl/config/preferences:
 Processing $rem in /home/theleonzhang/.qchemrc:
 Symmetry turned off for PCM/SM12/SMD calculation
 Core orbitals will be frozen

 Checking the input file for inconsistencies... 	...done.

--------------------------------------------------------------
User input:
--------------------------------------------------------------
$molecule
0 1
C	-0.728625	-3.866725	0.264439
C	0.575519	-3.703963	-0.209794
C	1.002336	-2.357056	-0.364749
H	1.224165	-4.561092	-0.446060
C	0.000000	-1.440664	0.000000
S	-1.451336	-2.286957	0.528253
C	2.369885	-1.978743	-0.862253
H	2.976034	-2.878678	-1.082953
H	2.927887	-1.376015	-0.115513
H	2.317620	-1.375728	-1.792797
H	-1.292636	-4.783437	0.469476
C	0.000000	0.000000	0.000000
C	0.661577	0.555087	1.099446
C	1.721724	1.444630	0.776721
H	0.379056	0.318032	2.136088
C	1.890772	1.586449	-0.612546
S	0.721935	0.605744	-1.486809
C	2.555004	2.143805	1.814609
H	2.228946	1.870211	2.836676
H	2.482605	3.247987	1.726239
H	3.629830	1.880735	1.726228
H	2.617927	2.196579	-1.161575
$end

$rem
JOBTYPE		SP
EXCHANGE	HF
CORRELATION	pRIMP2
BASIS		cc-pvtz
METHOD		rimp2
AUX_BASIS	rimp2-cc-pvtz
SOLVENT_METHOD	PCM
PURECART	11111
SYMMETRY	false
MEM_TOTAL	110000
SCF_CONVERGENCE = 6
THRESH=10
$end



$solvent
dielectric 4.90
$end
--------------------------------------------------------------
 ----------------------------------------------------------------
             Standard Nuclear Orientation (Angstroms)
    I     Atom           X                Y                Z
 ----------------------------------------------------------------
    1      C      -0.7286250000    -3.8667250000     0.2644390000
    2      C       0.5755190000    -3.7039630000    -0.2097940000
    3      C       1.0023360000    -2.3570560000    -0.3647490000
    4      H       1.2241650000    -4.5610920000    -0.4460600000
    5      C       0.0000000000    -1.4406640000     0.0000000000
    6      S      -1.4513360000    -2.2869570000     0.5282530000
    7      C       2.3698850000    -1.9787430000    -0.8622530000
    8      H       2.9760340000    -2.8786780000    -1.0829530000
    9      H       2.9278870000    -1.3760150000    -0.1155130000
   10      H       2.3176200000    -1.3757280000    -1.7927970000
   11      H      -1.2926360000    -4.7834370000     0.4694760000
   12      C       0.0000000000     0.0000000000     0.0000000000
   13      C       0.6615770000     0.5550870000     1.0994460000
   14      C       1.7217240000     1.4446300000     0.7767210000
   15      H       0.3790560000     0.3180320000     2.1360880000
   16      C       1.8907720000     1.5864490000    -0.6125460000
   17      S       0.7219350000     0.6057440000    -1.4868090000
   18      C       2.5550040000     2.1438050000     1.8146090000
   19      H       2.2289460000     1.8702110000     2.8366760000
   20      H       2.4826050000     3.2479870000     1.7262390000
   21      H       3.6298300000     1.8807350000     1.7262280000
   22      H       2.6179270000     2.1965790000    -1.1615750000
 ----------------------------------------------------------------
 Nuclear Repulsion Energy =         855.62520298 hartrees
 There are       51 alpha and       51 beta electrons

 Q-Chem warning in module forms1/BasisType.C, line 2236:

 You are not using the predefined 5D/6D in this basis set.

 Requested basis set is cc-pVTZ
 There are 184 shells and 508 basis functions

 Total QAlloc Memory Limit 110000 MB
 Mega-Array Size       188 MB
 MEM_STATIC part       192 MB
 Discretize the solute cavity surface with Lebedev spheres
	Using 110 Lebedev grid points for each H atom
	Using 194 Lebedev grid points for other atoms
	Atomic van der Waals radii will be scaled by 1.20
 Remove points where switching function is < 1.0e-08
 Keep 1508 surface tesserae and discard 1920 interior tesserae
 Molecular Surface Area = 227.633 Angst**2
 Requested basis set is rimp2-cc-pVTZ
 There are 394 shells and 1354 basis functions
 A cutoff of  1.0D-10 yielded  12952 shell pairs
 There are     96532 function pairs (    124718 Cartesian)
 Smallest overlap matrix eigenvalue = 7.08E-05

 Scale SEOQF with 1.000000e-01/1.000000e-01/1.000000e-01

 Standard Electronic Orientation quadrupole field applied
 Nucleus-field energy     =     0.0000000303 hartrees
 Guess from superposition of atomic densities
 Warning:  Energy on first SCF cycle will be non-variational
 SAD guess density has 102.000000 electrons

 -----------------------------------------------------------------------
  General SCF calculation program by
  Eric Jon Sundstrom, Paul Horn, Yuezhi Mao, Dmitri Zuev, Alec White,
  David Stuck, Shaama M.S., Shane Yost, Joonho Lee, David Small,
  Daniel Levine, Susi Lehtola, Hugh Burton, Evgeny Epifanovsky,
  Bang C. Huynh
 -----------------------------------------------------------------------
 Hartree-Fock
 A restricted SCF calculation will be
 performed using DIIS
 SCF converges when DIIS error is below 1.0e-06
 ---------------------------------------
  Cycle       Energy         DIIS error
 ---------------------------------------
    1   -1184.3070164781      2.40e-02  
    2   -1179.4943862478      1.58e-03  
    3   -1179.6149906704      5.68e-04  
    4   -1179.6279742655      3.06e-04  
    5   -1179.6320059672      6.40e-05  
    6   -1179.6322961477      3.04e-05  
    7   -1179.6323924437      1.53e-05  
    8   -1179.6324292610      5.97e-06  
    9   -1179.6324367768      2.33e-06  
   10   -1179.6324375990      9.31e-07  Convergence criterion met
 ---------------------------------------
 SCF time:   CPU 525.94s  wall 528.00s 

************** Final PCM Free Energy Summary **************
 G_electrostatic  =      -0.00850759 hartree =      -5.33859159 kcal/mol
 G_cavitation     =       0.00000000 hartree =       0.00000000 kcal/mol
 G_dispersion     =       0.00000000 hartree =       0.00000000 kcal/mol
 G_repulsion      =       0.00000000 hartree =       0.00000000 kcal/mol
 --------------------------------------------------
 Non-electrostatic Free Energy =       0.00000000 hartree =       0.00000000 kcal/mol
 Total                         =      -0.00850759 hartree =      -5.33859159 kcal/mol
 --------------------------------------------------
 SCF Energy (H0 + V/2)                       =   -1179.63243760 
 Solute Internal Energy (H0)                 =   -1179.62393001 
 Total Free Energy (H0 + V/2 + non-elec)     =   -1179.63243760 hartree
                                             = -740230.52689220 kcal/mol
***********************************************************

 SCF   energy in the final basis set =    -1179.6324375990
 Total energy in the final basis set =    -1179.6324375990


 --------------------------------------------------------------
  Generalized many-body perturbation theory program
  by Joonho Lee, Fazle Rob, Xintian Feng, Evgeny Epifanovsky

 No regularization used 
 (reg. param. = 0.0000e+00)
  (P|Q)^-1/2 Time:  CPU 1.68 s  wall 1.68 s

 In RI-MP2 calculation: 
 # of frozen core orbitals: 20

 Components of the RIMP2 correlation energy:
        aaaa    correlation energy =        -0.2555068458 a.u.
        abab    correlation energy =        -1.4829327703 a.u.
        bbbb    correlation energy =        -0.2555068458 a.u.
        non-Brillouin singles      =        -0.0000000000 a.u.
        total same-spin energy     =        -0.5110136917 a.u.
        total opposite-spin energy =        -1.4829327703 a.u.

 Total  RIMP2   correlation energy =        -1.9939464619 a.u.
        RIMP2         total energy =     -1181.6263840609 a.u.

 RI-MP2 Energy Time:  CPU 69.34 s  wall 69.54 s
 
 --------------------------------------------------------------
 
                    Orbital Energies (a.u.)
 --------------------------------------------------------------
 
 Alpha MOs
 -- Occupied --
-91.9830 -91.9759 -11.2824 -11.2747 -11.2621 -11.2605 -11.2593 -11.2535
-11.2422 -11.2380 -11.2312 -11.2221  -8.9834  -8.9759  -6.6642  -6.6634
 -6.6631  -6.6569  -6.6562  -6.6557  -1.1863  -1.1462  -1.0445  -1.0170
 -0.9999  -0.9527  -0.9117  -0.8906  -0.7954  -0.7551  -0.7341  -0.6946
 -0.6561  -0.6191  -0.5839  -0.5816  -0.5735  -0.5678  -0.5491  -0.5354
 -0.5252  -0.5223  -0.5121  -0.4897  -0.4665  -0.4655  -0.4477  -0.3529
 -0.3372  -0.3233  -0.2878
 -- Virtual --
  0.0648   0.1100   0.1361   0.1604   0.1637   0.1679   0.1762   0.1804
  0.1934   0.1967   0.2044   0.2138   0.2313   0.2353   0.2423   0.2536
  0.2594   0.2690   0.2875   0.2950   0.3262   0.3483   0.3521   0.3625
  0.3702   0.3841   0.3886   0.3999   0.4098   0.4155   0.4281   0.4417
  0.4448   0.4497   0.4579   0.4659   0.4794   0.4828   0.4888   0.5088
  0.5122   0.5186   0.5263   0.5357   0.5499   0.5548   0.5576   0.5695
  0.5826   0.5856   0.5925   0.5983   0.6098   0.6129   0.6164   0.6238
  0.6328   0.6347   0.6396   0.6465   0.6528   0.6583   0.6612   0.6739
  0.6769   0.6884   0.7005   0.7074   0.7167   0.7377   0.7474   0.7570
  0.7717   0.7781   0.7861   0.8058   0.8119   0.8285   0.8333   0.8399
  0.8596   0.8647   0.8831   0.8927   0.9014   0.9128   0.9393   0.9450
  0.9453   0.9742   0.9878   0.9933   1.0161   1.0291   1.0373   1.0409
  1.0603   1.0618   1.0703   1.0726   1.0789   1.0819   1.0957   1.1098
  1.1174   1.1293   1.1472   1.1562   1.1621   1.1758   1.1949   1.1989
  1.2067   1.2259   1.2285   1.2365   1.2493   1.2527   1.2659   1.2787
  1.2814   1.2924   1.3024   1.3160   1.3336   1.3469   1.3557   1.3801
  1.3887   1.3952   1.4118   1.4152   1.4367   1.4429   1.4562   1.4697
  1.4846   1.4893   1.4960   1.5138   1.5173   1.5230   1.5452   1.5562
  1.5646   1.5674   1.5746   1.5767   1.5809   1.5874   1.6143   1.6213
  1.6545   1.6762   1.6846   1.6916   1.6994   1.7101   1.7177   1.7234
  1.7333   1.7529   1.7671   1.7756   1.8062   1.8252   1.8273   1.8700
  1.8784   1.8963   1.9042   1.9407   1.9461   1.9690   1.9964   2.0029
  2.0257   2.0397   2.0523   2.0716   2.1141   2.1318   2.1465   2.1694
  2.1825   2.1891   2.2034   2.2216   2.2507   2.2596   2.2731   2.2808
  2.2950   2.3134   2.3396   2.3685   2.3865   2.4209   2.4342   2.4597
  2.4674   2.4863   2.5153   2.5316   2.5339   2.5884   2.6179   2.6320
  2.6343   2.6549   2.6676   2.6701   2.6845   2.6921   2.7153   2.7315
  2.7420   2.7500   2.7587   2.7677   2.7857   2.8035   2.8189   2.8231
  2.8338   2.8396   2.8519   2.8632   2.8805   2.9087   2.9095   2.9332
  2.9536   2.9729   2.9820   2.9989   3.0016   3.0142   3.0328   3.0378
  3.0422   3.0519   3.0940   3.1113   3.1173   3.1207   3.1447   3.1507
  3.1592   3.1611   3.1676   3.1829   3.1968   3.2114   3.2211   3.2314
  3.2429   3.2631   3.2651   3.2737   3.2943   3.2992   3.3077   3.3156
  3.3221   3.3307   3.3438   3.3468   3.3507   3.3693   3.3748   3.3781
  3.3850   3.4008   3.4098   3.4167   3.4277   3.4311   3.4472   3.4480
  3.4521   3.4657   3.4823   3.4877   3.5100   3.5150   3.5168   3.5266
  3.5303   3.5428   3.5471   3.5663   3.5682   3.5731   3.5851   3.5938
  3.6200   3.6283   3.6309   3.6344   3.6484   3.6584   3.6729   3.6850
  3.6899   3.7000   3.7044   3.7167   3.7251   3.7405   3.7530   3.7535
  3.7793   3.7811   3.7955   3.7988   3.8257   3.8287   3.8402   3.8570
  3.8757   3.8855   3.8990   3.9045   3.9298   3.9347   3.9549   3.9651
  3.9821   3.9978   4.0147   4.0215   4.0310   4.0387   4.0585   4.0643
  4.0671   4.0729   4.1055   4.1066   4.1172   4.1328   4.1587   4.1637
  4.1854   4.1878   4.1995   4.2020   4.2044   4.2342   4.2384   4.2585
  4.2628   4.2740   4.2853   4.2901   4.3039   4.3150   4.3237   4.3346
  4.3529   4.3635   4.3805   4.3837   4.3998   4.4065   4.4223   4.4261
  4.4414   4.4637   4.4824   4.4955   4.4963   4.5174   4.5306   4.5652
  4.5932   4.5990   4.6272   4.6334   4.6397   4.6511   4.6600   4.6673
  4.6935   4.7159   4.7387   4.7473   4.7621   4.7972   4.8226   4.8536
  4.8844   4.9008   4.9122   4.9286   4.9489   4.9976   5.0180   5.0630
  5.0706   5.1010   5.1086   5.1259   5.1650   5.1873   5.1933   5.2046
  5.2735   5.2807   5.2943   5.3008   5.3233   5.3681   5.3957   5.4085
  5.4178   5.4562   5.4654   5.4821   5.5211   5.5396   5.5457   5.5664
  5.5731   5.5926   5.6208   5.6291   5.6481   5.6748   5.6974   5.7153
  5.7869   5.8110   5.9230   5.9889   6.0064   6.0891   6.1849   6.2253
  6.2306   6.2596   6.2761   6.3019   6.3593   6.3869   6.5152   8.8158
  9.7106  11.6572  12.3809  12.8392  13.1530  13.7759  13.9294  14.2224
 14.3969
 --------------------------------------------------------------
 
          Ground-State Mulliken Net Atomic Charges

     Atom                 Charge (a.u.)
  ----------------------------------------
      1 C                    -0.224323
      2 C                    -0.256786
      3 C                     0.042399
      4 H                     0.182803
      5 C                    -0.000080
      6 S                    -0.000792
      7 C                    -0.310138
      8 H                     0.113023
      9 H                     0.112991
     10 H                     0.118082
     11 H                     0.200166
     12 C                    -0.117094
     13 C                    -0.139577
     14 C                    -0.011850
     15 H                     0.188841
     16 C                    -0.181256
     17 S                     0.032813
     18 C                    -0.268090
     19 H                     0.103571
     20 H                     0.109020
     21 H                     0.105915
     22 H                     0.200362
  ----------------------------------------
  Sum of atomic charges =     0.000000

 -----------------------------------------------------------------
                    Cartesian Multipole Moments
 -----------------------------------------------------------------
    Charge (ESU x 10^10)
                -0.0000
    Dipole Moment (Debye)
         X       3.7279      Y       1.0064      Z       1.0035
       Tot       3.9896
    Quadrupole Moments (Debye-Ang)
        XX     -80.4228     XY       4.0046     YY     -78.2599
        XZ      -1.4748     YZ       1.5299     ZZ     -85.1540
    Octopole Moments (Debye-Ang^2)
       XXX    -149.5022    XXY      74.0003    XYY     -45.1693
       YYY     159.9316    XXZ      -3.7821    XYZ       5.2433
       YYZ      -1.3200    XZZ     -48.3847    YZZ      80.1131
       ZZZ       6.1465
    Hexadecapole Moments (Debye-Ang^3)
      XXXX   -1172.8738   XXXY    -214.3860   XXYY    -536.8146
      XYYY    -195.2397   YYYY   -2161.6409   XXXZ       5.2948
      XXYZ     -26.5132   XYYZ     -31.1424   YYYZ     -73.0404
      XXZZ    -291.5498   XYZZ     -70.0867   YYZZ    -533.1952
      XZZZ      17.7849   YZZZ     -58.4378   ZZZZ    -589.7259
 -----------------------------------------------------------------
 Total job time:  599.62s(wall), 596.09s(cpu) 
 Fri Jul  8 23:25:12 2022

        *************************************************************
        *                                                           *
        *  Thank you very much for using Q-Chem.  Have a nice day.  *
        *                                                           *
        *************************************************************


remove work dirs ./qchem1045028.0 -- ./qchem1045028.-1
rm -rf ./qchem1045028
