You are running Q-Chem version: 5.4.0

#
# job setting
#
local host:  exp-1-52
current dir: /expanse/lustre/scratch/theleonzhang/temp_project/Interring_Bonds
input file:  Methylthiophene_Phi_25_Theta_120_Methylthiophene.qcin
output file: 
nprocs     : 0
nthreads   : 1
#
# qchem installation setting
#
QC:          /cm/shared/apps/spack/cpu/opt/spack/linux-centos8-zen2/gcc-10.2.0/qchem-5.4-akfmr7b3t57bfs6qan3padb2wnb2i7cl
QCAUX:       /cm/shared/apps/spack/cpu/opt/spack/linux-centos8-zen2/gcc-10.2.0/qchem-5.4-akfmr7b3t57bfs6qan3padb2wnb2i7cl/qcaux
QCPROG:      /cm/shared/apps/spack/cpu/opt/spack/linux-centos8-zen2/gcc-10.2.0/qchem-5.4-akfmr7b3t57bfs6qan3padb2wnb2i7cl/exe/qcprog.exe_s
QCPROG_S:    /cm/shared/apps/spack/cpu/opt/spack/linux-centos8-zen2/gcc-10.2.0/qchem-5.4-akfmr7b3t57bfs6qan3padb2wnb2i7cl/exe/qcprog.exe_s
PARALLEL:    -DSERIAL
QCMPI:       mpich
#
# qchem directory setting
#
qcrun:       qchem2452845
QCSCRATCH:   .
QCLOCALSCR:  
QCTMPDIR:    .
QCFILEPREF:  ./qchem2452845
QCSAVEDIR:   
workdirs:    ./qchem2452845
workdir0:    ./qchem2452845
partmpdirs =  
#
# parallel setting
#
QCRSH:           ssh
QCMPI:           mpich
QCMPIRUN:        /cm/shared/apps/spack/cpu/opt/spack/linux-centos8-zen2/gcc-10.2.0/qchem-5.4-akfmr7b3t57bfs6qan3padb2wnb2i7cl/bin/mpi/mpirun_qchem
QCMACHINEFILE:   ./qchem2452845/hostfile

#
# env setting
#
exported envs:   QC QCAUX QCSCRATCH QCRUNNAME QCFILEPREF QCPROG QCPROG_S GUIFILE

Running Job 1 of 1 Methylthiophene_Phi_25_Theta_120_Methylthiophene.qcin
qchem Methylthiophene_Phi_25_Theta_120_Methylthiophene.qcin_2452845.0 ./qchem2452845/ 0
/cm/shared/apps/spack/cpu/opt/spack/linux-centos8-zen2/gcc-10.2.0/qchem-5.4-akfmr7b3t57bfs6qan3padb2wnb2i7cl/exe/qcprog.exe_s Methylthiophene_Phi_25_Theta_120_Methylthiophene.qcin_2452845.0 ./qchem2452845/
                  Welcome to Q-Chem
     A Quantum Leap Into The Future Of Chemistry


 Q-Chem 5.4, Q-Chem, Inc., Pleasanton, CA (2021)

 License issued to: University of California, San Diego (site)

 E. Epifanovsky,  A. T. B. Gilbert,  Xintian Feng,  Joonho Lee,  Yuezhi Mao,  
 N. Mardirossian,  P. Pokhilko,  A. White,  M. Wormit,  M. P. Coons,  
 A. L. Dempwolff,  Zhengting Gan,  D. Hait,  P. R. Horn,  L. D. Jacobson,  
 I. Kaliman,  J. Kussmann,  A. W. Lange,  Ka Un Lao,  D. S. Levine,  Jie Liu,  
 S. C. McKenzie,  A. F. Morrison,  K. Nanda,  F. Plasser,  D. R. Rehn,  
 M. L. Vidal,  Zhi-Qiang You,  Ying Zhu,  B. Alam,  B. Albrecht,  
 A. Aldossary,  E. Alguire,  J. H. Andersen,  D. Barton,  K. Begam,  A. Behn,  
 Y. A. Bernard,  E. J. Berquist,  H. Burton,  A. Carreras,  K. Carter-Fenk,  
 R. Chakraborty,  A. D. Chien,  K. D. Closser,  V. Cofer-Shabica,  
 S. Dasgupta,  Jia Deng,  M. de Wergifosse,  M. Diedenhofen,  Hainam Do,  
 S. Ehlert,  Po-Tung Fang,  S. Fatehi,  Qingguo Feng,  J. Gayvert,  
 Qinghui Ge,  G. Gidofalvi,  M. Goldey,  J. Gomes,  C. Gonzalez-Espinoza,  
 S. Gulania,  A. Gunina,  M. W. D. Hanson-Heine,  P. H. P. Harbach,  
 A. W. Hauser,  M. F. Herbst,  M. Hernandez Vera,  M. Hodecker,  
 Z. C. Holden,  S. Houck,  Xunkun Huang,  Kerwin Hui,  B. C. Huynh,  
 M. Ivanov,  Hyunjun Ji,  Hanjie Jiang,  B. Kaduk,  S. Kaehler,  
 K. Khistyaev,  Jaehoon Kim,  P. Klunzinger,  Z. Koczor-Benda,  
 Joong Hoon Koh,  D. Kosenkov,  L. Koulias,  T. Kowalczyk,  C. M. Krauter,  
 K. Kue,  A. Kunitsa,  T. Kus,  A. Landau,  K. V. Lawler,  D. Lefrancois,  
 S. Lehtola,  Rain Li,  Yi-Pei Li,  Jiashu Liang,  M. Liebenthal,  
 Hung-Hsuan Lin,  You-Sheng Lin,  Fenglai Liu,  Kuan-Yu Liu,  
 M. Loipersberger,  A. Luenser,  A. Manjanath,  P. Manohar,  E. Mansoor,  
 S. F. Manzer,  Shan-Ping Mao,  A. V. Marenich,  T. Markovich,  S. Mason,  
 S. A. Maurer,  P. F. McLaughlin,  M. F. S. J. Menger,  J.-M. Mewes,  
 S. A. Mewes,  P. Morgante,  J. W. Mullinax,  T. S. Nguyen-Beck,  
 K. J. Oosterbaan,  G. Paran,  Alexander C. Paul,  Suranjan K. Paul,  
 F. Pavosevic,  Zheng Pei,  S. Prager,  E. I. Proynov,  E. Ramos,  B. Rana,  
 A. E. Rask,  A. Rettig,  R. M. Richard,  F. Rob,  E. Rossomme,  T. Scheele,  
 M. Scheurer,  M. Schneider,  N. Sergueev,  S. M. Sharada,  W. Skomorowski,  
 D. W. Small,  C. J. Stein,  Yu-Chuan Su,  E. J. Sundstrom,  Zhen Tao,  
 J. Thirman,  T. Tsuchimochi,  N. M. Tubman,  S. P. Veccham,  O. Vydrov,  
 J. Wenzel,  J. Witte,  A. Yamada,  Kun Yao,  S. Yeganeh,  S. R. Yost,  
 A. Zech,  Igor Ying Zhang,  Xing Zhang,  Yu Zhang,  D. Zuev,  
 A. Aspuru-Guzik,  A. T. Bell,  N. A. Besley,  K. B. Bravaya,  B. R. Brooks,  
 D. Casanova,  Jeng-Da Chai,  S. Coriani,  C. J. Cramer,  
 A. E. DePrince, III,  R. A. DiStasio Jr.,  A. Dreuw,  B. D. Dunietz,  
 T. R. Furlani,  W. A. Goddard III,  S. Grimme,  S. Hammes-Schiffer,  
 T. Head-Gordon,  W. J. Hehre,  Chao-Ping Hsu,  T.-C. Jagau,  Yousung Jung,  
 A. Klamt,  Jing Kong,  D. S. Lambrecht,  WanZhen Liang,  N. J. Mayhall,  
 C. W. McCurdy,  J. B. Neaton,  C. Ochsenfeld,  J. A. Parkhill,  R. Peverati,  
 V. A. Rassolov,  Yihan Shao,  L. V. Slipchenko,  T. Stauch,  R. P. Steele,  
 J. E. Subotnik,  A. J. W. Thom,  A. Tkatchenko,  D. G. Truhlar,  
 T. Van Voorhis,  T. A. Wesolowski,  K. B. Whaley,  H. L. Woodcock III,  
 P. M. Zimmerman,  S. Faraji,  P. M. W. Gill,  M. Head-Gordon,  
 J. M. Herbert,  A. I. Krylov

 Contributors to earlier versions of Q-Chem not listed above: 
 R. D. Adamson,  B. Austin,  R. Baer,  J. Baker,  G. J. O. Beran,  
 K. Brandhorst,  S. T. Brown,  E. F. C. Byrd,  A. K. Chakraborty,  
 G. K. L. Chan,  Chun-Min Chang,  Yunqing Chen,  C.-L. Cheng,  
 Siu Hung Chien,  D. M. Chipman,  D. L. Crittenden,  H. Dachsel,  
 R. J. Doerksen,  A. D. Dutoi,  R. G. Edgar,  J. Fosso-Tande,  
 L. Fusti-Molnar,  D. Ghosh,  A. Ghysels,  A. Golubeva-Zadorozhnaya,  
 J. Gonthier,  M. S. Gordon,  S. R. Gwaltney,  G. Hawkins,  J. E. Herr,  
 A. Heyden,  S. Hirata,  E. G. Hohenstein,  G. Kedziora,  F. J. Keil,  
 C. Kelley,  Jihan Kim,  R. A. King,  R. Z. Khaliullin,  P. P. Korambath,  
 W. Kurlancheek,  A. Laurent,  A. M. Lee,  M. S. Lee,  S. V. Levchenko,  
 Ching Yeh Lin,  D. Liotard,  E. Livshits,  R. C. Lochan,  I. Lotan,  
 L. A. Martinez-Martinez,  P. E. Maslen,  N. Nair,  D. P. O'Neill,  
 D. Neuhauser,  E. Neuscamman,  C. M. Oana,  R. Olivares-Amaya,  R. Olson,  
 T. M. Perrine,  B. Peters,  P. A. Pieniazek,  A. Prociuk,  Y. M. Rhee,  
 J. Ritchie,  M. A. Rohrdanz,  E. Rosta,  N. J. Russ,  H. F. Schaefer III,  
 M. W. Schmidt,  N. E. Schultz,  S. Sharma,  N. Shenvi,  C. D. Sherrill,  
 A. C. Simmonett,  A. Sodt,  T. Stein,  D. Stuck,  K. S. Thanthiriwatte,  
 V. Vanovschi,  L. Vogt,  Tao Wang,  A. Warshel,  M. A. Watson,  
 C. F. Williams,  Q. Wu,  X. Xu,  Jun Yang,  W. Zhang,  Yan Zhao

 Please cite Q-Chem as follows:
 Y. Shao et al., Mol. Phys. 113, 184-215 (2015)
 DOI: 10.1080/00268976.2014.952696

 Q-Chem 5.4.0 for Intel X86 EM64T Linux

 Parts of Q-Chem use Armadillo 9.800.1 (Horizon Scraper).
 http://arma.sourceforge.net/

 Q-Chem begins on Sat Jul  9 13:54:11 2022  

 Host: 
0

     Scratch files written to ./qchem2452845//
 May1621 |scratch|qcdevops|jenkins|workspace|build_RNUM    
 Processing $rem in /cm/shared/apps/spack/cpu/opt/spack/linux-centos8-zen2/gcc-10.2.0/qchem-5.4-akfmr7b3t57bfs6qan3padb2wnb2i7cl/config/preferences:
 Processing $rem in /home/theleonzhang/.qchemrc:
 Symmetry turned off for PCM/SM12/SMD calculation
 Core orbitals will be frozen

 Checking the input file for inconsistencies... 	...done.

--------------------------------------------------------------
User input:
--------------------------------------------------------------
$molecule
0 1
C	-0.670924	-3.866725	-0.388181
C	0.530648	-3.703963	0.306020
C	0.923703	-2.357056	0.533378
H	1.128579	-4.561092	0.651043
C	-0.000000	-1.440664	-0.000000
S	-1.337567	-2.286957	-0.772234
C	2.183857	-1.978743	1.261192
H	2.742548	-2.878678	1.583666
H	1.970497	-1.376015	2.168641
H	2.863099	-1.375728	0.623012
H	-1.190530	-4.783437	-0.688443
C	0.000000	0.000000	0.000000
C	0.365003	0.782674	1.099446
C	0.949885	2.036912	0.776721
H	0.209135	0.448431	2.136088
C	1.043159	2.236886	-0.612546
S	0.398297	0.854094	-1.486809
C	1.409609	3.022738	1.814609
H	1.229726	2.636980	2.836676
H	0.877346	3.992870	1.726239
H	2.494910	3.238558	1.726228
H	1.444334	3.097160	-1.161575
$end

$rem
JOBTYPE		SP
EXCHANGE	HF
CORRELATION	pRIMP2
BASIS		cc-pvtz
METHOD		rimp2
AUX_BASIS	rimp2-cc-pvtz
SOLVENT_METHOD	PCM
PURECART	11111
SYMMETRY	false
MEM_TOTAL	110000
SCF_CONVERGENCE = 6
THRESH=10
$end



$solvent
dielectric 4.90
$end
--------------------------------------------------------------
 ----------------------------------------------------------------
             Standard Nuclear Orientation (Angstroms)
    I     Atom           X                Y                Z
 ----------------------------------------------------------------
    1      C      -0.6709240000    -3.8667250000    -0.3881810000
    2      C       0.5306480000    -3.7039630000     0.3060200000
    3      C       0.9237030000    -2.3570560000     0.5333780000
    4      H       1.1285790000    -4.5610920000     0.6510430000
    5      C       0.0000000000    -1.4406640000     0.0000000000
    6      S      -1.3375670000    -2.2869570000    -0.7722340000
    7      C       2.1838570000    -1.9787430000     1.2611920000
    8      H       2.7425480000    -2.8786780000     1.5836660000
    9      H       1.9704970000    -1.3760150000     2.1686410000
   10      H       2.8630990000    -1.3757280000     0.6230120000
   11      H      -1.1905300000    -4.7834370000    -0.6884430000
   12      C       0.0000000000     0.0000000000     0.0000000000
   13      C       0.3650030000     0.7826740000     1.0994460000
   14      C       0.9498850000     2.0369120000     0.7767210000
   15      H       0.2091350000     0.4484310000     2.1360880000
   16      C       1.0431590000     2.2368860000    -0.6125460000
   17      S       0.3982970000     0.8540940000    -1.4868090000
   18      C       1.4096090000     3.0227380000     1.8146090000
   19      H       1.2297260000     2.6369800000     2.8366760000
   20      H       0.8773460000     3.9928700000     1.7262390000
   21      H       2.4949100000     3.2385580000     1.7262280000
   22      H       1.4443340000     3.0971600000    -1.1615750000
 ----------------------------------------------------------------
 Nuclear Repulsion Energy =         838.87636934 hartrees
 There are       51 alpha and       51 beta electrons

 Q-Chem warning in module forms1/BasisType.C, line 2236:

 You are not using the predefined 5D/6D in this basis set.

 Requested basis set is cc-pVTZ
 There are 184 shells and 508 basis functions

 Total QAlloc Memory Limit 110000 MB
 Mega-Array Size       188 MB
 MEM_STATIC part       192 MB
 Discretize the solute cavity surface with Lebedev spheres
	Using 110 Lebedev grid points for each H atom
	Using 194 Lebedev grid points for other atoms
	Atomic van der Waals radii will be scaled by 1.20
 Remove points where switching function is < 1.0e-08
 Keep 1541 surface tesserae and discard 1887 interior tesserae
 Molecular Surface Area = 234.531 Angst**2
 Requested basis set is rimp2-cc-pVTZ
 There are 394 shells and 1354 basis functions
 A cutoff of  1.0D-10 yielded  12544 shell pairs
 There are     93180 function pairs (    120285 Cartesian)
 Smallest overlap matrix eigenvalue = 5.93E-05

 Scale SEOQF with 1.000000e-01/1.000000e-01/1.000000e-01

 Standard Electronic Orientation quadrupole field applied
 Nucleus-field energy     =     0.0000000310 hartrees
 Guess from superposition of atomic densities
 Warning:  Energy on first SCF cycle will be non-variational
 SAD guess density has 102.000000 electrons

 -----------------------------------------------------------------------
  General SCF calculation program by
  Eric Jon Sundstrom, Paul Horn, Yuezhi Mao, Dmitri Zuev, Alec White,
  David Stuck, Shaama M.S., Shane Yost, Joonho Lee, David Small,
  Daniel Levine, Susi Lehtola, Hugh Burton, Evgeny Epifanovsky,
  Bang C. Huynh
 -----------------------------------------------------------------------
 Hartree-Fock
 A restricted SCF calculation will be
 performed using DIIS
 SCF converges when DIIS error is below 1.0e-06
 ---------------------------------------
  Cycle       Energy         DIIS error
 ---------------------------------------
    1   -1184.2236694019      2.38e-02  
    2   -1179.5367767851      1.59e-03  
    3   -1179.6563350186      6.02e-04  
    4   -1179.6695651585      3.35e-04  
    5   -1179.6742699093      6.63e-05  
    6   -1179.6745480102      3.02e-05  
    7   -1179.6746336174      1.30e-05  
    8   -1179.6746613565      5.37e-06  
    9   -1179.6746663535      1.77e-06  
   10   -1179.6746668441      5.55e-07  Convergence criterion met
 ---------------------------------------
 SCF time:   CPU 511.27s  wall 513.00s 

************** Final PCM Free Energy Summary **************
 G_electrostatic  =      -0.00835122 hartree =      -5.24047215 kcal/mol
 G_cavitation     =       0.00000000 hartree =       0.00000000 kcal/mol
 G_dispersion     =       0.00000000 hartree =       0.00000000 kcal/mol
 G_repulsion      =       0.00000000 hartree =       0.00000000 kcal/mol
 --------------------------------------------------
 Non-electrostatic Free Energy =       0.00000000 hartree =       0.00000000 kcal/mol
 Total                         =      -0.00835122 hartree =      -5.24047215 kcal/mol
 --------------------------------------------------
 SCF Energy (H0 + V/2)                       =   -1179.67466684 
 Solute Internal Energy (H0)                 =   -1179.66631562 
 Total Free Energy (H0 + V/2 + non-elec)     =   -1179.67466684 hartree
                                             = -740257.02614343 kcal/mol
***********************************************************

 SCF   energy in the final basis set =    -1179.6746668441
 Total energy in the final basis set =    -1179.6746668441


 --------------------------------------------------------------
  Generalized many-body perturbation theory program
  by Joonho Lee, Fazle Rob, Xintian Feng, Evgeny Epifanovsky

 No regularization used 
 (reg. param. = 0.0000e+00)
  (P|Q)^-1/2 Time:  CPU 1.80 s  wall 1.80 s

 In RI-MP2 calculation: 
 # of frozen core orbitals: 20

 Components of the RIMP2 correlation energy:
        aaaa    correlation energy =        -0.2530744613 a.u.
        abab    correlation energy =        -1.4758725710 a.u.
        bbbb    correlation energy =        -0.2530744613 a.u.
        non-Brillouin singles      =        -0.0000000000 a.u.
        total same-spin energy     =        -0.5061489226 a.u.
        total opposite-spin energy =        -1.4758725710 a.u.

 Total  RIMP2   correlation energy =        -1.9820214937 a.u.
        RIMP2         total energy =     -1181.6566883378 a.u.

 RI-MP2 Energy Time:  CPU 71.04 s  wall 71.25 s
 
 --------------------------------------------------------------
 
                    Orbital Energies (a.u.)
 --------------------------------------------------------------
 
 Alpha MOs
 -- Occupied --
-91.9849 -91.9818 -11.2745 -11.2734 -11.2709 -11.2689 -11.2525 -11.2517
-11.2451 -11.2416 -11.2297 -11.2286  -8.9845  -8.9817  -6.6654  -6.6648
 -6.6642  -6.6626  -6.6620  -6.6614  -1.1800  -1.1492  -1.0411  -1.0228
 -0.9966  -0.9546  -0.9129  -0.8924  -0.7996  -0.7527  -0.7323  -0.6969
 -0.6607  -0.6159  -0.5845  -0.5800  -0.5712  -0.5660  -0.5513  -0.5342
 -0.5282  -0.5219  -0.5090  -0.4911  -0.4817  -0.4661  -0.4591  -0.3441
 -0.3414  -0.3366  -0.2881
 -- Virtual --
  0.0762   0.1113   0.1368   0.1499   0.1635   0.1765   0.1775   0.1869
  0.1933   0.1959   0.1993   0.2180   0.2323   0.2379   0.2471   0.2480
  0.2574   0.2711   0.2871   0.3096   0.3410   0.3441   0.3551   0.3762
  0.3768   0.3844   0.3996   0.4008   0.4073   0.4171   0.4188   0.4351
  0.4456   0.4511   0.4636   0.4657   0.4736   0.4853   0.4932   0.4955
  0.5060   0.5198   0.5304   0.5341   0.5414   0.5568   0.5626   0.5709
  0.5773   0.5833   0.5873   0.5985   0.6008   0.6063   0.6167   0.6214
  0.6228   0.6329   0.6376   0.6425   0.6535   0.6554   0.6621   0.6667
  0.6684   0.6835   0.6952   0.7044   0.7178   0.7414   0.7472   0.7612
  0.7654   0.7728   0.7800   0.7910   0.8065   0.8174   0.8367   0.8439
  0.8491   0.8577   0.8798   0.8839   0.9026   0.9222   0.9285   0.9391
  0.9464   0.9807   0.9905   1.0025   1.0058   1.0166   1.0245   1.0380
  1.0401   1.0536   1.0650   1.0700   1.0765   1.0872   1.0907   1.0960
  1.1073   1.1317   1.1405   1.1481   1.1562   1.1758   1.1814   1.2019
  1.2049   1.2180   1.2261   1.2302   1.2485   1.2612   1.2638   1.2673
  1.2774   1.2870   1.3027   1.3187   1.3256   1.3505   1.3537   1.3639
  1.3794   1.3943   1.4041   1.4148   1.4231   1.4405   1.4556   1.4618
  1.4805   1.4871   1.4986   1.5023   1.5299   1.5339   1.5378   1.5468
  1.5544   1.5596   1.5729   1.5780   1.5834   1.6021   1.6266   1.6331
  1.6433   1.6605   1.6729   1.6929   1.6937   1.7043   1.7125   1.7318
  1.7480   1.7575   1.7650   1.7871   1.8025   1.8246   1.8338   1.8725
  1.8838   1.8885   1.9055   1.9285   1.9404   1.9553   1.9759   1.9848
  2.0213   2.0476   2.0578   2.1057   2.1104   2.1256   2.1469   2.1701
  2.1815   2.1909   2.1998   2.2336   2.2418   2.2454   2.2638   2.2788
  2.2907   2.3155   2.3296   2.3527   2.3968   2.4073   2.4423   2.4481
  2.4840   2.4880   2.5112   2.5348   2.5554   2.5667   2.5968   2.6169
  2.6291   2.6385   2.6507   2.6671   2.6737   2.6889   2.7152   2.7260
  2.7377   2.7463   2.7524   2.7649   2.7699   2.7782   2.7920   2.8196
  2.8364   2.8417   2.8517   2.8635   2.8787   2.8960   2.9074   2.9370
  2.9555   2.9643   2.9729   2.9888   2.9968   3.0163   3.0339   3.0400
  3.0440   3.0551   3.0867   3.1017   3.1109   3.1163   3.1283   3.1422
  3.1509   3.1520   3.1616   3.1745   3.1926   3.2026   3.2179   3.2181
  3.2419   3.2511   3.2641   3.2689   3.2829   3.2895   3.3025   3.3109
  3.3161   3.3283   3.3398   3.3521   3.3587   3.3652   3.3721   3.3834
  3.3875   3.3937   3.4000   3.4072   3.4233   3.4290   3.4328   3.4454
  3.4513   3.4608   3.4773   3.4826   3.4964   3.5086   3.5168   3.5247
  3.5303   3.5392   3.5427   3.5554   3.5652   3.5737   3.5808   3.5940
  3.5960   3.6163   3.6274   3.6338   3.6445   3.6567   3.6637   3.6706
  3.6759   3.6839   3.6979   3.7109   3.7224   3.7440   3.7497   3.7604
  3.7693   3.7755   3.7795   3.7948   3.8029   3.8175   3.8386   3.8467
  3.8561   3.8665   3.8928   3.8988   3.9092   3.9288   3.9378   3.9663
  3.9694   3.9716   4.0016   4.0120   4.0128   4.0256   4.0395   4.0512
  4.0700   4.0776   4.0953   4.1025   4.1147   4.1221   4.1437   4.1536
  4.1678   4.1805   4.1896   4.1956   4.2104   4.2128   4.2244   4.2362
  4.2588   4.2650   4.2768   4.2907   4.2950   4.3151   4.3208   4.3440
  4.3498   4.3644   4.3800   4.3833   4.4020   4.4089   4.4125   4.4247
  4.4392   4.4495   4.4629   4.4757   4.4905   4.5025   4.5370   4.5580
  4.5863   4.6138   4.6180   4.6212   4.6350   4.6415   4.6610   4.6727
  4.6877   4.7241   4.7394   4.7424   4.7711   4.7813   4.8247   4.8401
  4.8711   4.8996   4.9133   4.9208   4.9402   4.9504   4.9861   5.0578
  5.0841   5.1072   5.1139   5.1478   5.1638   5.1779   5.1969   5.2408
  5.2608   5.2770   5.2927   5.3034   5.3154   5.3677   5.3739   5.3993
  5.4054   5.4437   5.4688   5.4912   5.5167   5.5204   5.5459   5.5569
  5.5710   5.5897   5.6176   5.6243   5.6383   5.6996   5.7009   5.7392
  5.7770   5.8215   5.9208   5.9446   6.0001   6.0565   6.1250   6.2274
  6.2358   6.2424   6.2843   6.2937   6.3332   6.4323   6.5657   8.7357
  9.7961  11.5903  12.0708  12.8368  13.2001  13.7516  13.9751  14.2233
 14.4187
 --------------------------------------------------------------
 
          Ground-State Mulliken Net Atomic Charges

     Atom                 Charge (a.u.)
  ----------------------------------------
      1 C                    -0.212071
      2 C                    -0.252044
      3 C                     0.065998
      4 H                     0.183871
      5 C                    -0.033596
      6 S                     0.018722
      7 C                    -0.282981
      8 H                     0.111451
      9 H                     0.107856
     10 H                     0.115358
     11 H                     0.204222
     12 C                    -0.037666
     13 C                    -0.266047
     14 C                     0.043299
     15 H                     0.192805
     16 C                    -0.236895
     17 S                     0.029278
     18 C                    -0.269595
     19 H                     0.102527
     20 H                     0.108710
     21 H                     0.107808
     22 H                     0.198990
  ----------------------------------------
  Sum of atomic charges =     0.000000

 -----------------------------------------------------------------
                    Cartesian Multipole Moments
 -----------------------------------------------------------------
    Charge (ESU x 10^10)
                -0.0000
    Dipole Moment (Debye)
         X       2.2516      Y       0.3978      Z       2.2755
       Tot       3.2258
    Quadrupole Moments (Debye-Ang)
        XX     -85.9173     XY       2.4126     YY     -70.9533
        XZ       3.1877     YZ      -0.2197     ZZ     -85.0359
    Octopole Moments (Debye-Ang^2)
       XXX     -92.7411    XXY      44.6909    XYY     -20.1564
       YYY     107.2320    XXZ      -1.6935    XYZ     -11.4997
       YYZ      -6.0312    XZZ     -27.5314    YZZ      59.5848
       ZZZ       1.2703
    Hexadecapole Moments (Debye-Ang^3)
      XXXX    -726.9455   XXXY    -194.1355   XXYY    -543.6557
      XYYY    -124.0042   YYYY   -2453.8437   XXXZ    -157.6381
      XXYZ     -33.9847   XYYZ     -16.8963   YYYZ     -81.5480
      XXZZ    -234.0841   XYZZ     -55.3991   YYZZ    -585.9423
      XZZZ    -164.5621   YZZZ     -90.8623   ZZZZ    -670.3905
 -----------------------------------------------------------------
 Total job time:  586.42s(wall), 583.14s(cpu) 
 Sat Jul  9 14:03:58 2022

        *************************************************************
        *                                                           *
        *  Thank you very much for using Q-Chem.  Have a nice day.  *
        *                                                           *
        *************************************************************


remove work dirs ./qchem2452845.0 -- ./qchem2452845.-1
rm -rf ./qchem2452845
