You are running Q-Chem version: 5.4.0

#
# job setting
#
local host:  exp-2-32
current dir: /expanse/lustre/scratch/theleonzhang/temp_project/Interring_Bonds
input file:  Methylthiophene_Phi_30_Theta_80_Methylthiophene.qcin
output file: 
nprocs     : 0
nthreads   : 1
#
# qchem installation setting
#
QC:          /cm/shared/apps/spack/cpu/opt/spack/linux-centos8-zen2/gcc-10.2.0/qchem-5.4-akfmr7b3t57bfs6qan3padb2wnb2i7cl
QCAUX:       /cm/shared/apps/spack/cpu/opt/spack/linux-centos8-zen2/gcc-10.2.0/qchem-5.4-akfmr7b3t57bfs6qan3padb2wnb2i7cl/qcaux
QCPROG:      /cm/shared/apps/spack/cpu/opt/spack/linux-centos8-zen2/gcc-10.2.0/qchem-5.4-akfmr7b3t57bfs6qan3padb2wnb2i7cl/exe/qcprog.exe_s
QCPROG_S:    /cm/shared/apps/spack/cpu/opt/spack/linux-centos8-zen2/gcc-10.2.0/qchem-5.4-akfmr7b3t57bfs6qan3padb2wnb2i7cl/exe/qcprog.exe_s
PARALLEL:    -DSERIAL
QCMPI:       mpich
#
# qchem directory setting
#
qcrun:       qchem3661019
QCSCRATCH:   .
QCLOCALSCR:  
QCTMPDIR:    .
QCFILEPREF:  ./qchem3661019
QCSAVEDIR:   
workdirs:    ./qchem3661019
workdir0:    ./qchem3661019
partmpdirs =  
#
# parallel setting
#
QCRSH:           ssh
QCMPI:           mpich
QCMPIRUN:        /cm/shared/apps/spack/cpu/opt/spack/linux-centos8-zen2/gcc-10.2.0/qchem-5.4-akfmr7b3t57bfs6qan3padb2wnb2i7cl/bin/mpi/mpirun_qchem
QCMACHINEFILE:   ./qchem3661019/hostfile

#
# env setting
#
exported envs:   QC QCAUX QCSCRATCH QCRUNNAME QCFILEPREF QCPROG QCPROG_S GUIFILE

Running Job 1 of 1 Methylthiophene_Phi_30_Theta_80_Methylthiophene.qcin
qchem Methylthiophene_Phi_30_Theta_80_Methylthiophene.qcin_3661019.0 ./qchem3661019/ 0
/cm/shared/apps/spack/cpu/opt/spack/linux-centos8-zen2/gcc-10.2.0/qchem-5.4-akfmr7b3t57bfs6qan3padb2wnb2i7cl/exe/qcprog.exe_s Methylthiophene_Phi_30_Theta_80_Methylthiophene.qcin_3661019.0 ./qchem3661019/
                  Welcome to Q-Chem
     A Quantum Leap Into The Future Of Chemistry


 Q-Chem 5.4, Q-Chem, Inc., Pleasanton, CA (2021)

 License issued to: University of California, San Diego (site)

 E. Epifanovsky,  A. T. B. Gilbert,  Xintian Feng,  Joonho Lee,  Yuezhi Mao,  
 N. Mardirossian,  P. Pokhilko,  A. White,  M. Wormit,  M. P. Coons,  
 A. L. Dempwolff,  Zhengting Gan,  D. Hait,  P. R. Horn,  L. D. Jacobson,  
 I. Kaliman,  J. Kussmann,  A. W. Lange,  Ka Un Lao,  D. S. Levine,  Jie Liu,  
 S. C. McKenzie,  A. F. Morrison,  K. Nanda,  F. Plasser,  D. R. Rehn,  
 M. L. Vidal,  Zhi-Qiang You,  Ying Zhu,  B. Alam,  B. Albrecht,  
 A. Aldossary,  E. Alguire,  J. H. Andersen,  D. Barton,  K. Begam,  A. Behn,  
 Y. A. Bernard,  E. J. Berquist,  H. Burton,  A. Carreras,  K. Carter-Fenk,  
 R. Chakraborty,  A. D. Chien,  K. D. Closser,  V. Cofer-Shabica,  
 S. Dasgupta,  Jia Deng,  M. de Wergifosse,  M. Diedenhofen,  Hainam Do,  
 S. Ehlert,  Po-Tung Fang,  S. Fatehi,  Qingguo Feng,  J. Gayvert,  
 Qinghui Ge,  G. Gidofalvi,  M. Goldey,  J. Gomes,  C. Gonzalez-Espinoza,  
 S. Gulania,  A. Gunina,  M. W. D. Hanson-Heine,  P. H. P. Harbach,  
 A. W. Hauser,  M. F. Herbst,  M. Hernandez Vera,  M. Hodecker,  
 Z. C. Holden,  S. Houck,  Xunkun Huang,  Kerwin Hui,  B. C. Huynh,  
 M. Ivanov,  Hyunjun Ji,  Hanjie Jiang,  B. Kaduk,  S. Kaehler,  
 K. Khistyaev,  Jaehoon Kim,  P. Klunzinger,  Z. Koczor-Benda,  
 Joong Hoon Koh,  D. Kosenkov,  L. Koulias,  T. Kowalczyk,  C. M. Krauter,  
 K. Kue,  A. Kunitsa,  T. Kus,  A. Landau,  K. V. Lawler,  D. Lefrancois,  
 S. Lehtola,  Rain Li,  Yi-Pei Li,  Jiashu Liang,  M. Liebenthal,  
 Hung-Hsuan Lin,  You-Sheng Lin,  Fenglai Liu,  Kuan-Yu Liu,  
 M. Loipersberger,  A. Luenser,  A. Manjanath,  P. Manohar,  E. Mansoor,  
 S. F. Manzer,  Shan-Ping Mao,  A. V. Marenich,  T. Markovich,  S. Mason,  
 S. A. Maurer,  P. F. McLaughlin,  M. F. S. J. Menger,  J.-M. Mewes,  
 S. A. Mewes,  P. Morgante,  J. W. Mullinax,  T. S. Nguyen-Beck,  
 K. J. Oosterbaan,  G. Paran,  Alexander C. Paul,  Suranjan K. Paul,  
 F. Pavosevic,  Zheng Pei,  S. Prager,  E. I. Proynov,  E. Ramos,  B. Rana,  
 A. E. Rask,  A. Rettig,  R. M. Richard,  F. Rob,  E. Rossomme,  T. Scheele,  
 M. Scheurer,  M. Schneider,  N. Sergueev,  S. M. Sharada,  W. Skomorowski,  
 D. W. Small,  C. J. Stein,  Yu-Chuan Su,  E. J. Sundstrom,  Zhen Tao,  
 J. Thirman,  T. Tsuchimochi,  N. M. Tubman,  S. P. Veccham,  O. Vydrov,  
 J. Wenzel,  J. Witte,  A. Yamada,  Kun Yao,  S. Yeganeh,  S. R. Yost,  
 A. Zech,  Igor Ying Zhang,  Xing Zhang,  Yu Zhang,  D. Zuev,  
 A. Aspuru-Guzik,  A. T. Bell,  N. A. Besley,  K. B. Bravaya,  B. R. Brooks,  
 D. Casanova,  Jeng-Da Chai,  S. Coriani,  C. J. Cramer,  
 A. E. DePrince, III,  R. A. DiStasio Jr.,  A. Dreuw,  B. D. Dunietz,  
 T. R. Furlani,  W. A. Goddard III,  S. Grimme,  S. Hammes-Schiffer,  
 T. Head-Gordon,  W. J. Hehre,  Chao-Ping Hsu,  T.-C. Jagau,  Yousung Jung,  
 A. Klamt,  Jing Kong,  D. S. Lambrecht,  WanZhen Liang,  N. J. Mayhall,  
 C. W. McCurdy,  J. B. Neaton,  C. Ochsenfeld,  J. A. Parkhill,  R. Peverati,  
 V. A. Rassolov,  Yihan Shao,  L. V. Slipchenko,  T. Stauch,  R. P. Steele,  
 J. E. Subotnik,  A. J. W. Thom,  A. Tkatchenko,  D. G. Truhlar,  
 T. Van Voorhis,  T. A. Wesolowski,  K. B. Whaley,  H. L. Woodcock III,  
 P. M. Zimmerman,  S. Faraji,  P. M. W. Gill,  M. Head-Gordon,  
 J. M. Herbert,  A. I. Krylov

 Contributors to earlier versions of Q-Chem not listed above: 
 R. D. Adamson,  B. Austin,  R. Baer,  J. Baker,  G. J. O. Beran,  
 K. Brandhorst,  S. T. Brown,  E. F. C. Byrd,  A. K. Chakraborty,  
 G. K. L. Chan,  Chun-Min Chang,  Yunqing Chen,  C.-L. Cheng,  
 Siu Hung Chien,  D. M. Chipman,  D. L. Crittenden,  H. Dachsel,  
 R. J. Doerksen,  A. D. Dutoi,  R. G. Edgar,  J. Fosso-Tande,  
 L. Fusti-Molnar,  D. Ghosh,  A. Ghysels,  A. Golubeva-Zadorozhnaya,  
 J. Gonthier,  M. S. Gordon,  S. R. Gwaltney,  G. Hawkins,  J. E. Herr,  
 A. Heyden,  S. Hirata,  E. G. Hohenstein,  G. Kedziora,  F. J. Keil,  
 C. Kelley,  Jihan Kim,  R. A. King,  R. Z. Khaliullin,  P. P. Korambath,  
 W. Kurlancheek,  A. Laurent,  A. M. Lee,  M. S. Lee,  S. V. Levchenko,  
 Ching Yeh Lin,  D. Liotard,  E. Livshits,  R. C. Lochan,  I. Lotan,  
 L. A. Martinez-Martinez,  P. E. Maslen,  N. Nair,  D. P. O'Neill,  
 D. Neuhauser,  E. Neuscamman,  C. M. Oana,  R. Olivares-Amaya,  R. Olson,  
 T. M. Perrine,  B. Peters,  P. A. Pieniazek,  A. Prociuk,  Y. M. Rhee,  
 J. Ritchie,  M. A. Rohrdanz,  E. Rosta,  N. J. Russ,  H. F. Schaefer III,  
 M. W. Schmidt,  N. E. Schultz,  S. Sharma,  N. Shenvi,  C. D. Sherrill,  
 A. C. Simmonett,  A. Sodt,  T. Stein,  D. Stuck,  K. S. Thanthiriwatte,  
 V. Vanovschi,  L. Vogt,  Tao Wang,  A. Warshel,  M. A. Watson,  
 C. F. Williams,  Q. Wu,  X. Xu,  Jun Yang,  W. Zhang,  Yan Zhao

 Please cite Q-Chem as follows:
 Y. Shao et al., Mol. Phys. 113, 184-215 (2015)
 DOI: 10.1080/00268976.2014.952696

 Q-Chem 5.4.0 for Intel X86 EM64T Linux

 Parts of Q-Chem use Armadillo 9.800.1 (Horizon Scraper).
 http://arma.sourceforge.net/

 Q-Chem begins on Fri Jul  8 23:11:00 2022  

 Host: 
0

     Scratch files written to ./qchem3661019//
 May1621 |scratch|qcdevops|jenkins|workspace|build_RNUM    
 Processing $rem in /cm/shared/apps/spack/cpu/opt/spack/linux-centos8-zen2/gcc-10.2.0/qchem-5.4-akfmr7b3t57bfs6qan3padb2wnb2i7cl/config/preferences:
 Processing $rem in /home/theleonzhang/.qchemrc:
 Symmetry turned off for PCM/SM12/SMD calculation
 Core orbitals will be frozen

 Checking the input file for inconsistencies... 	...done.

--------------------------------------------------------------
User input:
--------------------------------------------------------------
$molecule
0 1
C	-0.763475	-3.866725	0.133897
C	0.603206	-3.703963	-0.106669
C	1.050446	-2.357056	-0.185154
H	1.283024	-4.561092	-0.226709
C	0.000000	-1.440664	0.000000
S	-1.521018	-2.286957	0.268206
C	2.483610	-1.978743	-0.437628
H	3.118875	-2.878678	-0.549717
H	2.903464	-1.376015	0.394664
H	2.593726	-1.375728	-1.363110
H	-1.354522	-4.783437	0.237880
C	0.000000	0.000000	0.000000
C	0.431829	0.747884	1.099446
C	1.123799	1.946373	0.776721
H	0.247423	0.428497	2.136088
C	1.234147	2.137457	-0.612546
S	0.471221	0.816130	-1.486809
C	1.667694	2.888380	1.814609
H	1.454874	2.519768	2.836676
H	1.222009	3.901210	1.726239
H	2.767675	3.008788	1.726228
H	1.708773	2.959493	-1.161575
$end

$rem
JOBTYPE		SP
EXCHANGE	HF
CORRELATION	pRIMP2
BASIS		cc-pvtz
METHOD		rimp2
AUX_BASIS	rimp2-cc-pvtz
SOLVENT_METHOD	PCM
PURECART	11111
SYMMETRY	false
MEM_TOTAL	110000
SCF_CONVERGENCE = 6
THRESH=10
$end



$solvent
dielectric 4.90
$end
--------------------------------------------------------------
 ----------------------------------------------------------------
             Standard Nuclear Orientation (Angstroms)
    I     Atom           X                Y                Z
 ----------------------------------------------------------------
    1      C      -0.7634750000    -3.8667250000     0.1338970000
    2      C       0.6032060000    -3.7039630000    -0.1066690000
    3      C       1.0504460000    -2.3570560000    -0.1851540000
    4      H       1.2830240000    -4.5610920000    -0.2267090000
    5      C       0.0000000000    -1.4406640000     0.0000000000
    6      S      -1.5210180000    -2.2869570000     0.2682060000
    7      C       2.4836100000    -1.9787430000    -0.4376280000
    8      H       3.1188750000    -2.8786780000    -0.5497170000
    9      H       2.9034640000    -1.3760150000     0.3946640000
   10      H       2.5937260000    -1.3757280000    -1.3631100000
   11      H      -1.3545220000    -4.7834370000     0.2378800000
   12      C       0.0000000000     0.0000000000     0.0000000000
   13      C       0.4318290000     0.7478840000     1.0994460000
   14      C       1.1237990000     1.9463730000     0.7767210000
   15      H       0.2474230000     0.4284970000     2.1360880000
   16      C       1.2341470000     2.1374570000    -0.6125460000
   17      S       0.4712210000     0.8161300000    -1.4868090000
   18      C       1.6676940000     2.8883800000     1.8146090000
   19      H       1.4548740000     2.5197680000     2.8366760000
   20      H       1.2220090000     3.9012100000     1.7262390000
   21      H       2.7676750000     3.0087880000     1.7262280000
   22      H       1.7087730000     2.9594930000    -1.1615750000
 ----------------------------------------------------------------
 Nuclear Repulsion Energy =         840.68456549 hartrees
 There are       51 alpha and       51 beta electrons

 Q-Chem warning in module forms1/BasisType.C, line 2236:

 You are not using the predefined 5D/6D in this basis set.

 Requested basis set is cc-pVTZ
 There are 184 shells and 508 basis functions

 Total QAlloc Memory Limit 110000 MB
 Mega-Array Size       188 MB
 MEM_STATIC part       192 MB
 Discretize the solute cavity surface with Lebedev spheres
	Using 110 Lebedev grid points for each H atom
	Using 194 Lebedev grid points for other atoms
	Atomic van der Waals radii will be scaled by 1.20
 Remove points where switching function is < 1.0e-08
 Keep 1547 surface tesserae and discard 1881 interior tesserae
 Molecular Surface Area = 234.369 Angst**2
 Requested basis set is rimp2-cc-pVTZ
 There are 394 shells and 1354 basis functions
 A cutoff of  1.0D-10 yielded  12566 shell pairs
 There are     93416 function pairs (    120597 Cartesian)
 Smallest overlap matrix eigenvalue = 6.42E-05

 Scale SEOQF with 1.000000e-01/1.000000e-01/1.000000e-01

 Standard Electronic Orientation quadrupole field applied
 Nucleus-field energy     =     0.0000000341 hartrees
 Guess from superposition of atomic densities
 Warning:  Energy on first SCF cycle will be non-variational
 SAD guess density has 102.000000 electrons

 -----------------------------------------------------------------------
  General SCF calculation program by
  Eric Jon Sundstrom, Paul Horn, Yuezhi Mao, Dmitri Zuev, Alec White,
  David Stuck, Shaama M.S., Shane Yost, Joonho Lee, David Small,
  Daniel Levine, Susi Lehtola, Hugh Burton, Evgeny Epifanovsky,
  Bang C. Huynh
 -----------------------------------------------------------------------
 Hartree-Fock
 A restricted SCF calculation will be
 performed using DIIS
 SCF converges when DIIS error is below 1.0e-06
 ---------------------------------------
  Cycle       Energy         DIIS error
 ---------------------------------------
    1   -1184.2247076113      2.38e-02  
    2   -1179.5309599131      1.58e-03  
    3   -1179.6503478165      5.89e-04  
    4   -1179.6633152422      3.29e-04  
    5   -1179.6678391611      6.75e-05  
    6   -1179.6681257267      3.08e-05  
    7   -1179.6682158873      1.35e-05  
    8   -1179.6682458081      5.39e-06  
    9   -1179.6682511714      1.84e-06  
   10   -1179.6682516743      5.94e-07  Convergence criterion met
 ---------------------------------------
 SCF time:   CPU 497.35s  wall 499.00s 

************** Final PCM Free Energy Summary **************
 G_electrostatic  =      -0.00771451 hartree =      -4.84092843 kcal/mol
 G_cavitation     =       0.00000000 hartree =       0.00000000 kcal/mol
 G_dispersion     =       0.00000000 hartree =       0.00000000 kcal/mol
 G_repulsion      =       0.00000000 hartree =       0.00000000 kcal/mol
 --------------------------------------------------
 Non-electrostatic Free Energy =       0.00000000 hartree =       0.00000000 kcal/mol
 Total                         =      -0.00771451 hartree =      -4.84092843 kcal/mol
 --------------------------------------------------
 SCF Energy (H0 + V/2)                       =   -1179.66825167 
 Solute Internal Energy (H0)                 =   -1179.66053716 
 Total Free Energy (H0 + V/2 + non-elec)     =   -1179.66825167 hartree
                                             = -740253.00056366 kcal/mol
***********************************************************

 SCF   energy in the final basis set =    -1179.6682516743
 Total energy in the final basis set =    -1179.6682516743


 --------------------------------------------------------------
  Generalized many-body perturbation theory program
  by Joonho Lee, Fazle Rob, Xintian Feng, Evgeny Epifanovsky

 No regularization used 
 (reg. param. = 0.0000e+00)
  (P|Q)^-1/2 Time:  CPU 1.68 s  wall 1.68 s

 In RI-MP2 calculation: 
 # of frozen core orbitals: 20

 Components of the RIMP2 correlation energy:
        aaaa    correlation energy =        -0.2533720956 a.u.
        abab    correlation energy =        -1.4770130920 a.u.
        bbbb    correlation energy =        -0.2533720956 a.u.
        non-Brillouin singles      =        -0.0000000000 a.u.
        total same-spin energy     =        -0.5067441911 a.u.
        total opposite-spin energy =        -1.4770130920 a.u.

 Total  RIMP2   correlation energy =        -1.9837572831 a.u.
        RIMP2         total energy =     -1181.6520089574 a.u.

 RI-MP2 Energy Time:  CPU 67.36 s  wall 67.55 s
 
 --------------------------------------------------------------
 
                    Orbital Energies (a.u.)
 --------------------------------------------------------------
 
 Alpha MOs
 -- Occupied --
-91.9849 -91.9808 -11.2732 -11.2716 -11.2714 -11.2685 -11.2519 -11.2503
-11.2486 -11.2405 -11.2298 -11.2271  -8.9845  -8.9806  -6.6654  -6.6648
 -6.6643  -6.6615  -6.6609  -6.6604  -1.1802  -1.1486  -1.0414  -1.0203
 -0.9980  -0.9537  -0.9127  -0.8916  -0.7982  -0.7540  -0.7318  -0.6953
 -0.6599  -0.6169  -0.5812  -0.5800  -0.5729  -0.5694  -0.5509  -0.5315
 -0.5282  -0.5206  -0.5112  -0.4910  -0.4787  -0.4650  -0.4575  -0.3466
 -0.3402  -0.3185  -0.3011
 -- Virtual --
  0.0819   0.1041   0.1384   0.1550   0.1630   0.1722   0.1792   0.1837
  0.1899   0.1962   0.1991   0.2135   0.2317   0.2384   0.2426   0.2489
  0.2533   0.2603   0.2893   0.2943   0.3296   0.3504   0.3519   0.3643
  0.3729   0.3835   0.3932   0.4018   0.4120   0.4164   0.4195   0.4352
  0.4419   0.4554   0.4616   0.4649   0.4785   0.4832   0.4897   0.5066
  0.5106   0.5228   0.5245   0.5375   0.5400   0.5528   0.5613   0.5648
  0.5807   0.5847   0.5880   0.5974   0.6037   0.6094   0.6128   0.6172
  0.6262   0.6346   0.6404   0.6450   0.6492   0.6573   0.6619   0.6678
  0.6684   0.6720   0.6905   0.7138   0.7193   0.7324   0.7417   0.7542
  0.7616   0.7695   0.7934   0.7979   0.8150   0.8204   0.8329   0.8441
  0.8493   0.8527   0.8652   0.8903   0.8996   0.9129   0.9293   0.9446
  0.9468   0.9553   0.9975   1.0025   1.0094   1.0243   1.0284   1.0342
  1.0452   1.0496   1.0540   1.0645   1.0708   1.0820   1.0864   1.0999
  1.1072   1.1098   1.1147   1.1372   1.1633   1.1733   1.1791   1.1943
  1.2049   1.2138   1.2278   1.2435   1.2500   1.2557   1.2655   1.2717
  1.2784   1.2791   1.2931   1.3092   1.3210   1.3352   1.3425   1.3755
  1.3844   1.3879   1.4102   1.4185   1.4217   1.4325   1.4534   1.4582
  1.4781   1.4852   1.5005   1.5057   1.5217   1.5320   1.5375   1.5450
  1.5484   1.5641   1.5740   1.5761   1.5872   1.5955   1.6090   1.6286
  1.6541   1.6669   1.6796   1.6823   1.6958   1.7072   1.7110   1.7163
  1.7402   1.7495   1.7683   1.7856   1.7994   1.8256   1.8300   1.8591
  1.8819   1.8957   1.9111   1.9213   1.9334   1.9439   1.9651   1.9957
  2.0063   2.0347   2.0729   2.1103   2.1225   2.1312   2.1357   2.1675
  2.1855   2.1920   2.1956   2.2240   2.2407   2.2575   2.2695   2.2803
  2.2837   2.3178   2.3390   2.3516   2.3876   2.3988   2.4226   2.4601
  2.4696   2.4975   2.5100   2.5156   2.5363   2.5627   2.5927   2.6215
  2.6357   2.6485   2.6545   2.6583   2.6664   2.6849   2.7004   2.7310
  2.7344   2.7406   2.7524   2.7652   2.7680   2.7849   2.7977   2.8041
  2.8237   2.8394   2.8517   2.8698   2.8787   2.9025   2.9185   2.9358
  2.9540   2.9692   2.9712   2.9829   2.9939   2.9963   3.0190   3.0357
  3.0384   3.0706   3.0974   3.1070   3.1134   3.1172   3.1345   3.1402
  3.1449   3.1595   3.1634   3.1762   3.1883   3.1959   3.2172   3.2343
  3.2470   3.2557   3.2606   3.2678   3.2847   3.2919   3.3075   3.3122
  3.3231   3.3319   3.3348   3.3466   3.3569   3.3654   3.3668   3.3776
  3.3794   3.3947   3.3975   3.4129   3.4184   3.4260   3.4345   3.4467
  3.4588   3.4666   3.4721   3.4805   3.5090   3.5141   3.5192   3.5200
  3.5255   3.5376   3.5445   3.5524   3.5556   3.5692   3.5852   3.6061
  3.6116   3.6134   3.6246   3.6272   3.6381   3.6452   3.6632   3.6697
  3.6815   3.6862   3.6950   3.7121   3.7262   3.7372   3.7417   3.7516
  3.7583   3.7723   3.7846   3.7923   3.8032   3.8148   3.8262   3.8538
  3.8676   3.8736   3.8887   3.8930   3.8991   3.9255   3.9473   3.9566
  3.9757   3.9808   3.9912   4.0154   4.0196   4.0364   4.0501   4.0577
  4.0604   4.0708   4.0897   4.1035   4.1196   4.1252   4.1384   4.1456
  4.1710   4.1807   4.1942   4.1976   4.2061   4.2196   4.2221   4.2422
  4.2496   4.2744   4.2781   4.2896   4.2981   4.3041   4.3231   4.3370
  4.3456   4.3529   4.3658   4.3768   4.3930   4.4010   4.4072   4.4181
  4.4330   4.4437   4.4658   4.4828   4.4916   4.5006   4.5147   4.5497
  4.5913   4.5975   4.6198   4.6241   4.6312   4.6434   4.6600   4.6692
  4.6827   4.7149   4.7356   4.7490   4.7551   4.7864   4.8125   4.8505
  4.8763   4.8887   4.9103   4.9317   4.9540   4.9850   5.0172   5.0584
  5.0958   5.1025   5.1131   5.1362   5.1484   5.1897   5.1987   5.2074
  5.2700   5.2785   5.2914   5.3017   5.3266   5.3658   5.3878   5.4029
  5.4066   5.4463   5.4631   5.4920   5.5195   5.5314   5.5458   5.5580
  5.5721   5.5800   5.6218   5.6247   5.6293   5.6928   5.6964   5.7187
  5.7713   5.8197   5.9163   5.9750   5.9946   6.0574   6.1165   6.2253
  6.2286   6.2440   6.2816   6.2874   6.3319   6.4060   6.5218   8.7777
  9.7121  11.6521  12.1705  12.8665  13.1372  13.7653  13.9082  14.2117
 14.3149
 --------------------------------------------------------------
 
          Ground-State Mulliken Net Atomic Charges

     Atom                 Charge (a.u.)
  ----------------------------------------
      1 C                    -0.217000
      2 C                    -0.251287
      3 C                     0.065044
      4 H                     0.183561
      5 C                    -0.027084
      6 S                     0.019721
      7 C                    -0.285759
      8 H                     0.110325
      9 H                     0.110062
     10 H                     0.112010
     11 H                     0.202660
     12 C                    -0.063877
     13 C                    -0.223039
     14 C                     0.026692
     15 H                     0.186388
     16 C                    -0.225343
     17 S                     0.028890
     18 C                    -0.269171
     19 H                     0.103115
     20 H                     0.108154
     21 H                     0.107157
     22 H                     0.198783
  ----------------------------------------
  Sum of atomic charges =     0.000000

 -----------------------------------------------------------------
                    Cartesian Multipole Moments
 -----------------------------------------------------------------
    Charge (ESU x 10^10)
                -0.0000
    Dipole Moment (Debye)
         X       2.6569      Y       0.5965      Z       1.2245
       Tot       2.9857
    Quadrupole Moments (Debye-Ang)
        XX     -83.8466     XY       2.7167     YY     -72.3991
        XZ      -0.6643     YZ       1.2738     ZZ     -86.2750
    Octopole Moments (Debye-Ang^2)
       XXX    -107.4089    XXY      45.3754    XYY     -24.7055
       YYY     115.9635    XXZ      -2.0809    XYZ       2.7340
       YYZ      -2.6913    XZZ     -32.9186    YZZ      67.5501
       ZZZ       5.0871
    Hexadecapole Moments (Debye-Ang^3)
      XXXX    -915.4407   XXXY    -216.2254   XXYY    -538.1562
      XYYY    -146.0693   YYYY   -2410.4339   XXXZ      -3.3246
      XXYZ     -29.4445   XYYZ     -24.1466   YYYZ     -97.3196
      XXZZ    -247.8513   XYZZ     -61.5442   YYZZ    -578.0197
      XZZZ       0.6363   YZZZ     -82.6895   ZZZZ    -543.3215
 -----------------------------------------------------------------
 Total job time:  569.18s(wall), 565.51s(cpu) 
 Fri Jul  8 23:20:29 2022

        *************************************************************
        *                                                           *
        *  Thank you very much for using Q-Chem.  Have a nice day.  *
        *                                                           *
        *************************************************************


remove work dirs ./qchem3661019.0 -- ./qchem3661019.-1
rm -rf ./qchem3661019
