You are running Q-Chem version: 5.4.0

#
# job setting
#
local host:  exp-1-55
current dir: /expanse/lustre/scratch/theleonzhang/temp_project/Interring_Bonds
input file:  Methylthiophene_Phi_5_Theta_100_Methylthiophene.qcin
output file: 
nprocs     : 0
nthreads   : 1
#
# qchem installation setting
#
QC:          /cm/shared/apps/spack/cpu/opt/spack/linux-centos8-zen2/gcc-10.2.0/qchem-5.4-akfmr7b3t57bfs6qan3padb2wnb2i7cl
QCAUX:       /cm/shared/apps/spack/cpu/opt/spack/linux-centos8-zen2/gcc-10.2.0/qchem-5.4-akfmr7b3t57bfs6qan3padb2wnb2i7cl/qcaux
QCPROG:      /cm/shared/apps/spack/cpu/opt/spack/linux-centos8-zen2/gcc-10.2.0/qchem-5.4-akfmr7b3t57bfs6qan3padb2wnb2i7cl/exe/qcprog.exe_s
QCPROG_S:    /cm/shared/apps/spack/cpu/opt/spack/linux-centos8-zen2/gcc-10.2.0/qchem-5.4-akfmr7b3t57bfs6qan3padb2wnb2i7cl/exe/qcprog.exe_s
PARALLEL:    -DSERIAL
QCMPI:       mpich
#
# qchem directory setting
#
qcrun:       qchem888062
QCSCRATCH:   .
QCLOCALSCR:  
QCTMPDIR:    .
QCFILEPREF:  ./qchem888062
QCSAVEDIR:   
workdirs:    ./qchem888062
workdir0:    ./qchem888062
partmpdirs =  
#
# parallel setting
#
QCRSH:           ssh
QCMPI:           mpich
QCMPIRUN:        /cm/shared/apps/spack/cpu/opt/spack/linux-centos8-zen2/gcc-10.2.0/qchem-5.4-akfmr7b3t57bfs6qan3padb2wnb2i7cl/bin/mpi/mpirun_qchem
QCMACHINEFILE:   ./qchem888062/hostfile

#
# env setting
#
exported envs:   QC QCAUX QCSCRATCH QCRUNNAME QCFILEPREF QCPROG QCPROG_S GUIFILE

Running Job 1 of 1 Methylthiophene_Phi_5_Theta_100_Methylthiophene.qcin
qchem Methylthiophene_Phi_5_Theta_100_Methylthiophene.qcin_888062.0 ./qchem888062/ 0
/cm/shared/apps/spack/cpu/opt/spack/linux-centos8-zen2/gcc-10.2.0/qchem-5.4-akfmr7b3t57bfs6qan3padb2wnb2i7cl/exe/qcprog.exe_s Methylthiophene_Phi_5_Theta_100_Methylthiophene.qcin_888062.0 ./qchem888062/
                  Welcome to Q-Chem
     A Quantum Leap Into The Future Of Chemistry


 Q-Chem 5.4, Q-Chem, Inc., Pleasanton, CA (2021)

 License issued to: University of California, San Diego (site)

 E. Epifanovsky,  A. T. B. Gilbert,  Xintian Feng,  Joonho Lee,  Yuezhi Mao,  
 N. Mardirossian,  P. Pokhilko,  A. White,  M. Wormit,  M. P. Coons,  
 A. L. Dempwolff,  Zhengting Gan,  D. Hait,  P. R. Horn,  L. D. Jacobson,  
 I. Kaliman,  J. Kussmann,  A. W. Lange,  Ka Un Lao,  D. S. Levine,  Jie Liu,  
 S. C. McKenzie,  A. F. Morrison,  K. Nanda,  F. Plasser,  D. R. Rehn,  
 M. L. Vidal,  Zhi-Qiang You,  Ying Zhu,  B. Alam,  B. Albrecht,  
 A. Aldossary,  E. Alguire,  J. H. Andersen,  D. Barton,  K. Begam,  A. Behn,  
 Y. A. Bernard,  E. J. Berquist,  H. Burton,  A. Carreras,  K. Carter-Fenk,  
 R. Chakraborty,  A. D. Chien,  K. D. Closser,  V. Cofer-Shabica,  
 S. Dasgupta,  Jia Deng,  M. de Wergifosse,  M. Diedenhofen,  Hainam Do,  
 S. Ehlert,  Po-Tung Fang,  S. Fatehi,  Qingguo Feng,  J. Gayvert,  
 Qinghui Ge,  G. Gidofalvi,  M. Goldey,  J. Gomes,  C. Gonzalez-Espinoza,  
 S. Gulania,  A. Gunina,  M. W. D. Hanson-Heine,  P. H. P. Harbach,  
 A. W. Hauser,  M. F. Herbst,  M. Hernandez Vera,  M. Hodecker,  
 Z. C. Holden,  S. Houck,  Xunkun Huang,  Kerwin Hui,  B. C. Huynh,  
 M. Ivanov,  Hyunjun Ji,  Hanjie Jiang,  B. Kaduk,  S. Kaehler,  
 K. Khistyaev,  Jaehoon Kim,  P. Klunzinger,  Z. Koczor-Benda,  
 Joong Hoon Koh,  D. Kosenkov,  L. Koulias,  T. Kowalczyk,  C. M. Krauter,  
 K. Kue,  A. Kunitsa,  T. Kus,  A. Landau,  K. V. Lawler,  D. Lefrancois,  
 S. Lehtola,  Rain Li,  Yi-Pei Li,  Jiashu Liang,  M. Liebenthal,  
 Hung-Hsuan Lin,  You-Sheng Lin,  Fenglai Liu,  Kuan-Yu Liu,  
 M. Loipersberger,  A. Luenser,  A. Manjanath,  P. Manohar,  E. Mansoor,  
 S. F. Manzer,  Shan-Ping Mao,  A. V. Marenich,  T. Markovich,  S. Mason,  
 S. A. Maurer,  P. F. McLaughlin,  M. F. S. J. Menger,  J.-M. Mewes,  
 S. A. Mewes,  P. Morgante,  J. W. Mullinax,  T. S. Nguyen-Beck,  
 K. J. Oosterbaan,  G. Paran,  Alexander C. Paul,  Suranjan K. Paul,  
 F. Pavosevic,  Zheng Pei,  S. Prager,  E. I. Proynov,  E. Ramos,  B. Rana,  
 A. E. Rask,  A. Rettig,  R. M. Richard,  F. Rob,  E. Rossomme,  T. Scheele,  
 M. Scheurer,  M. Schneider,  N. Sergueev,  S. M. Sharada,  W. Skomorowski,  
 D. W. Small,  C. J. Stein,  Yu-Chuan Su,  E. J. Sundstrom,  Zhen Tao,  
 J. Thirman,  T. Tsuchimochi,  N. M. Tubman,  S. P. Veccham,  O. Vydrov,  
 J. Wenzel,  J. Witte,  A. Yamada,  Kun Yao,  S. Yeganeh,  S. R. Yost,  
 A. Zech,  Igor Ying Zhang,  Xing Zhang,  Yu Zhang,  D. Zuev,  
 A. Aspuru-Guzik,  A. T. Bell,  N. A. Besley,  K. B. Bravaya,  B. R. Brooks,  
 D. Casanova,  Jeng-Da Chai,  S. Coriani,  C. J. Cramer,  
 A. E. DePrince, III,  R. A. DiStasio Jr.,  A. Dreuw,  B. D. Dunietz,  
 T. R. Furlani,  W. A. Goddard III,  S. Grimme,  S. Hammes-Schiffer,  
 T. Head-Gordon,  W. J. Hehre,  Chao-Ping Hsu,  T.-C. Jagau,  Yousung Jung,  
 A. Klamt,  Jing Kong,  D. S. Lambrecht,  WanZhen Liang,  N. J. Mayhall,  
 C. W. McCurdy,  J. B. Neaton,  C. Ochsenfeld,  J. A. Parkhill,  R. Peverati,  
 V. A. Rassolov,  Yihan Shao,  L. V. Slipchenko,  T. Stauch,  R. P. Steele,  
 J. E. Subotnik,  A. J. W. Thom,  A. Tkatchenko,  D. G. Truhlar,  
 T. Van Voorhis,  T. A. Wesolowski,  K. B. Whaley,  H. L. Woodcock III,  
 P. M. Zimmerman,  S. Faraji,  P. M. W. Gill,  M. Head-Gordon,  
 J. M. Herbert,  A. I. Krylov

 Contributors to earlier versions of Q-Chem not listed above: 
 R. D. Adamson,  B. Austin,  R. Baer,  J. Baker,  G. J. O. Beran,  
 K. Brandhorst,  S. T. Brown,  E. F. C. Byrd,  A. K. Chakraborty,  
 G. K. L. Chan,  Chun-Min Chang,  Yunqing Chen,  C.-L. Cheng,  
 Siu Hung Chien,  D. M. Chipman,  D. L. Crittenden,  H. Dachsel,  
 R. J. Doerksen,  A. D. Dutoi,  R. G. Edgar,  J. Fosso-Tande,  
 L. Fusti-Molnar,  D. Ghosh,  A. Ghysels,  A. Golubeva-Zadorozhnaya,  
 J. Gonthier,  M. S. Gordon,  S. R. Gwaltney,  G. Hawkins,  J. E. Herr,  
 A. Heyden,  S. Hirata,  E. G. Hohenstein,  G. Kedziora,  F. J. Keil,  
 C. Kelley,  Jihan Kim,  R. A. King,  R. Z. Khaliullin,  P. P. Korambath,  
 W. Kurlancheek,  A. Laurent,  A. M. Lee,  M. S. Lee,  S. V. Levchenko,  
 Ching Yeh Lin,  D. Liotard,  E. Livshits,  R. C. Lochan,  I. Lotan,  
 L. A. Martinez-Martinez,  P. E. Maslen,  N. Nair,  D. P. O'Neill,  
 D. Neuhauser,  E. Neuscamman,  C. M. Oana,  R. Olivares-Amaya,  R. Olson,  
 T. M. Perrine,  B. Peters,  P. A. Pieniazek,  A. Prociuk,  Y. M. Rhee,  
 J. Ritchie,  M. A. Rohrdanz,  E. Rosta,  N. J. Russ,  H. F. Schaefer III,  
 M. W. Schmidt,  N. E. Schultz,  S. Sharma,  N. Shenvi,  C. D. Sherrill,  
 A. C. Simmonett,  A. Sodt,  T. Stein,  D. Stuck,  K. S. Thanthiriwatte,  
 V. Vanovschi,  L. Vogt,  Tao Wang,  A. Warshel,  M. A. Watson,  
 C. F. Williams,  Q. Wu,  X. Xu,  Jun Yang,  W. Zhang,  Yan Zhao

 Please cite Q-Chem as follows:
 Y. Shao et al., Mol. Phys. 113, 184-215 (2015)
 DOI: 10.1080/00268976.2014.952696

 Q-Chem 5.4.0 for Intel X86 EM64T Linux

 Parts of Q-Chem use Armadillo 9.800.1 (Horizon Scraper).
 http://arma.sourceforge.net/

 Q-Chem begins on Sat Jul  9 13:23:12 2022  

 Host: 
0

     Scratch files written to ./qchem888062//
 May1621 |scratch|qcdevops|jenkins|workspace|build_RNUM    
 Processing $rem in /cm/shared/apps/spack/cpu/opt/spack/linux-centos8-zen2/gcc-10.2.0/qchem-5.4-akfmr7b3t57bfs6qan3padb2wnb2i7cl/config/preferences:
 Processing $rem in /home/theleonzhang/.qchemrc:
 Symmetry turned off for PCM/SM12/SMD calculation
 Core orbitals will be frozen

 Checking the input file for inconsistencies... 	...done.

--------------------------------------------------------------
User input:
--------------------------------------------------------------
$molecule
0 1
C	-0.763228	-3.866725	-0.135301
C	0.603311	-3.703963	0.106073
C	1.050423	-2.357056	0.185286
H	1.283188	-4.561092	0.225783
C	-0.000000	-1.440664	-0.000000
S	-1.521021	-2.286957	-0.268187
C	2.483507	-1.978743	0.438209
H	3.118798	-2.878678	0.550153
H	2.593381	-1.376015	1.363906
H	2.903516	-1.375728	-0.393798
H	-1.354194	-4.783437	-0.239740
C	0.000000	0.000000	0.000000
C	0.075300	0.860311	1.099446
C	0.195935	2.238951	0.776721
H	0.043151	0.492916	2.136088
C	0.215188	2.458766	-0.612546
S	0.082160	0.938811	-1.486809
C	0.290762	3.322559	1.814609
H	0.253664	2.898542	2.836676
H	-0.541206	4.052140	1.726239
H	1.236797	3.896558	1.726228
H	0.297938	3.404370	-1.161575
$end

$rem
JOBTYPE		SP
EXCHANGE	HF
CORRELATION	pRIMP2
BASIS		cc-pvtz
METHOD		rimp2
AUX_BASIS	rimp2-cc-pvtz
SOLVENT_METHOD	PCM
PURECART	11111
SYMMETRY	false
MEM_TOTAL	110000
SCF_CONVERGENCE = 6
THRESH=10
$end



$solvent
dielectric 4.90
$end
--------------------------------------------------------------
 ----------------------------------------------------------------
             Standard Nuclear Orientation (Angstroms)
    I     Atom           X                Y                Z
 ----------------------------------------------------------------
    1      C      -0.7632280000    -3.8667250000    -0.1353010000
    2      C       0.6033110000    -3.7039630000     0.1060730000
    3      C       1.0504230000    -2.3570560000     0.1852860000
    4      H       1.2831880000    -4.5610920000     0.2257830000
    5      C       0.0000000000    -1.4406640000     0.0000000000
    6      S      -1.5210210000    -2.2869570000    -0.2681870000
    7      C       2.4835070000    -1.9787430000     0.4382090000
    8      H       3.1187980000    -2.8786780000     0.5501530000
    9      H       2.5933810000    -1.3760150000     1.3639060000
   10      H       2.9035160000    -1.3757280000    -0.3937980000
   11      H      -1.3541940000    -4.7834370000    -0.2397400000
   12      C       0.0000000000     0.0000000000     0.0000000000
   13      C       0.0753000000     0.8603110000     1.0994460000
   14      C       0.1959350000     2.2389510000     0.7767210000
   15      H       0.0431510000     0.4929160000     2.1360880000
   16      C       0.2151880000     2.4587660000    -0.6125460000
   17      S       0.0821600000     0.9388110000    -1.4868090000
   18      C       0.2907620000     3.3225590000     1.8146090000
   19      H       0.2536640000     2.8985420000     2.8366760000
   20      H      -0.5412060000     4.0521400000     1.7262390000
   21      H       1.2367970000     3.8965580000     1.7262280000
   22      H       0.2979380000     3.4043700000    -1.1615750000
 ----------------------------------------------------------------
 Nuclear Repulsion Energy =         832.84223070 hartrees
 There are       51 alpha and       51 beta electrons

 Q-Chem warning in module forms1/BasisType.C, line 2236:

 You are not using the predefined 5D/6D in this basis set.

 Requested basis set is cc-pVTZ
 There are 184 shells and 508 basis functions

 Total QAlloc Memory Limit 110000 MB
 Mega-Array Size       188 MB
 MEM_STATIC part       192 MB
 Discretize the solute cavity surface with Lebedev spheres
	Using 110 Lebedev grid points for each H atom
	Using 194 Lebedev grid points for other atoms
	Atomic van der Waals radii will be scaled by 1.20
 Remove points where switching function is < 1.0e-08
 Keep 1578 surface tesserae and discard 1850 interior tesserae
 Molecular Surface Area = 238.453 Angst**2
 Requested basis set is rimp2-cc-pVTZ
 There are 394 shells and 1354 basis functions
 A cutoff of  1.0D-10 yielded  12234 shell pairs
 There are     90882 function pairs (    117451 Cartesian)
 Smallest overlap matrix eigenvalue = 6.30E-05

 Scale SEOQF with 1.000000e-01/1.000000e-01/1.000000e-01

 Standard Electronic Orientation quadrupole field applied
 Nucleus-field energy     =     0.0000000359 hartrees
 Guess from superposition of atomic densities
 Warning:  Energy on first SCF cycle will be non-variational
 SAD guess density has 102.000000 electrons

 -----------------------------------------------------------------------
  General SCF calculation program by
  Eric Jon Sundstrom, Paul Horn, Yuezhi Mao, Dmitri Zuev, Alec White,
  David Stuck, Shaama M.S., Shane Yost, Joonho Lee, David Small,
  Daniel Levine, Susi Lehtola, Hugh Burton, Evgeny Epifanovsky,
  Bang C. Huynh
 -----------------------------------------------------------------------
 Hartree-Fock
 A restricted SCF calculation will be
 performed using DIIS
 SCF converges when DIIS error is below 1.0e-06
 ---------------------------------------
  Cycle       Energy         DIIS error
 ---------------------------------------
    1   -1184.1980835690      2.38e-02  
    2   -1179.5474233141      1.59e-03  
    3   -1179.6665626811      6.12e-04  
    4   -1179.6798948543      3.43e-04  
    5   -1179.6847661819      6.77e-05  
    6   -1179.6850490081      3.05e-05  
    7   -1179.6851358348      1.27e-05  
    8   -1179.6851633906      5.31e-06  
    9   -1179.6851682280      1.65e-06  
   10   -1179.6851686584      5.11e-07  Convergence criterion met
 ---------------------------------------
 SCF time:   CPU 484.50s  wall 487.00s 

************** Final PCM Free Energy Summary **************
 G_electrostatic  =      -0.00781696 hartree =      -4.90521547 kcal/mol
 G_cavitation     =       0.00000000 hartree =       0.00000000 kcal/mol
 G_dispersion     =       0.00000000 hartree =       0.00000000 kcal/mol
 G_repulsion      =       0.00000000 hartree =       0.00000000 kcal/mol
 --------------------------------------------------
 Non-electrostatic Free Energy =       0.00000000 hartree =       0.00000000 kcal/mol
 Total                         =      -0.00781696 hartree =      -4.90521547 kcal/mol
 --------------------------------------------------
 SCF Energy (H0 + V/2)                       =   -1179.68516866 
 Solute Internal Energy (H0)                 =   -1179.67735170 
 Total Free Energy (H0 + V/2 + non-elec)     =   -1179.68516866 hartree
                                             = -740263.61613136 kcal/mol
***********************************************************

 SCF   energy in the final basis set =    -1179.6851686584
 Total energy in the final basis set =    -1179.6851686584


 --------------------------------------------------------------
  Generalized many-body perturbation theory program
  by Joonho Lee, Fazle Rob, Xintian Feng, Evgeny Epifanovsky

 No regularization used 
 (reg. param. = 0.0000e+00)
  (P|Q)^-1/2 Time:  CPU 1.69 s  wall 1.70 s

 In RI-MP2 calculation: 
 # of frozen core orbitals: 20

 Components of the RIMP2 correlation energy:
        aaaa    correlation energy =        -0.2522379516 a.u.
        abab    correlation energy =        -1.4735947318 a.u.
        bbbb    correlation energy =        -0.2522379516 a.u.
        non-Brillouin singles      =        -0.0000000000 a.u.
        total same-spin energy     =        -0.5044759032 a.u.
        total opposite-spin energy =        -1.4735947318 a.u.

 Total  RIMP2   correlation energy =        -1.9780706350 a.u.
        RIMP2         total energy =     -1181.6632392934 a.u.

 RI-MP2 Energy Time:  CPU 67.18 s  wall 67.45 s
 
 --------------------------------------------------------------
 
                    Orbital Energies (a.u.)
 --------------------------------------------------------------
 
 Alpha MOs
 -- Occupied --
-91.9855 -91.9841 -11.2785 -11.2728 -11.2725 -11.2649 -11.2544 -11.2509
-11.2424 -11.2419 -11.2294 -11.2290  -8.9849  -8.9838  -6.6658  -6.6653
 -6.6647  -6.6647  -6.6641  -6.6635  -1.1784  -1.1496  -1.0400  -1.0231
 -0.9969  -0.9545  -0.9133  -0.8923  -0.8008  -0.7531  -0.7311  -0.6955
 -0.6623  -0.6161  -0.5824  -0.5794  -0.5709  -0.5686  -0.5520  -0.5311
 -0.5302  -0.5203  -0.5080  -0.4916  -0.4877  -0.4645  -0.4625  -0.3460
 -0.3383  -0.3211  -0.3040
 -- Virtual --
  0.0908   0.1023   0.1410   0.1490   0.1626   0.1756   0.1774   0.1882
  0.1885   0.1941   0.2004   0.2165   0.2310   0.2344   0.2433   0.2470
  0.2510   0.2685   0.2886   0.3010   0.3387   0.3504   0.3582   0.3636
  0.3765   0.3834   0.3939   0.3947   0.4060   0.4118   0.4197   0.4365
  0.4440   0.4568   0.4621   0.4695   0.4724   0.4822   0.4926   0.5026
  0.5123   0.5126   0.5252   0.5382   0.5420   0.5527   0.5610   0.5678
  0.5743   0.5858   0.5899   0.5965   0.6015   0.6077   0.6107   0.6195
  0.6273   0.6322   0.6329   0.6441   0.6484   0.6523   0.6550   0.6617
  0.6707   0.6757   0.6899   0.7124   0.7165   0.7296   0.7427   0.7511
  0.7658   0.7762   0.7915   0.8019   0.8185   0.8290   0.8317   0.8399
  0.8493   0.8532   0.8696   0.8902   0.8993   0.9288   0.9401   0.9422
  0.9483   0.9595   0.9709   0.9928   1.0033   1.0122   1.0214   1.0288
  1.0400   1.0457   1.0612   1.0671   1.0741   1.0864   1.0877   1.0972
  1.1073   1.1143   1.1265   1.1508   1.1560   1.1765   1.1845   1.1949
  1.1983   1.2139   1.2222   1.2272   1.2509   1.2572   1.2592   1.2687
  1.2823   1.2888   1.2996   1.3180   1.3233   1.3457   1.3525   1.3620
  1.3755   1.3859   1.4002   1.4152   1.4196   1.4292   1.4492   1.4653
  1.4794   1.4840   1.5000   1.5053   1.5128   1.5327   1.5392   1.5525
  1.5550   1.5646   1.5697   1.5845   1.5898   1.6030   1.6078   1.6327
  1.6485   1.6554   1.6777   1.6852   1.6918   1.7054   1.7207   1.7267
  1.7523   1.7592   1.7684   1.7822   1.8014   1.8107   1.8283   1.8582
  1.8790   1.8936   1.9004   1.9231   1.9345   1.9448   1.9558   1.9870
  2.0279   2.0453   2.0515   2.1044   2.1226   2.1357   2.1528   2.1760
  2.1897   2.1977   2.1994   2.2094   2.2290   2.2442   2.2665   2.2820
  2.2995   2.3189   2.3262   2.3959   2.4010   2.4021   2.4312   2.4495
  2.4726   2.4935   2.5116   2.5256   2.5532   2.5602   2.5797   2.6060
  2.6141   2.6246   2.6456   2.6566   2.6724   2.6854   2.7117   2.7271
  2.7320   2.7442   2.7522   2.7565   2.7639   2.7683   2.7943   2.7994
  2.8249   2.8423   2.8528   2.8666   2.8777   2.8837   2.9064   2.9234
  2.9279   2.9660   2.9767   2.9879   2.9959   3.0138   3.0253   3.0376
  3.0552   3.0749   3.0988   3.1097   3.1163   3.1280   3.1322   3.1405
  3.1506   3.1570   3.1646   3.1694   3.1842   3.2077   3.2157   3.2306
  3.2349   3.2444   3.2548   3.2710   3.2777   3.2955   3.2987   3.3083
  3.3289   3.3343   3.3370   3.3424   3.3488   3.3596   3.3670   3.3791
  3.3818   3.3847   3.3936   3.4080   3.4259   3.4299   3.4356   3.4379
  3.4527   3.4622   3.4736   3.4827   3.4934   3.5082   3.5134   3.5239
  3.5320   3.5326   3.5443   3.5478   3.5564   3.5715   3.5813   3.5985
  3.6065   3.6139   3.6210   3.6270   3.6342   3.6434   3.6464   3.6642
  3.6734   3.6841   3.6969   3.7081   3.7117   3.7200   3.7367   3.7503
  3.7641   3.7761   3.7840   3.7986   3.8066   3.8190   3.8301   3.8493
  3.8598   3.8687   3.8835   3.9013   3.9061   3.9247   3.9384   3.9682
  3.9752   3.9818   4.0004   4.0010   4.0127   4.0210   4.0355   4.0533
  4.0785   4.0805   4.0876   4.0992   4.1189   4.1324   4.1430   4.1442
  4.1626   4.1753   4.1938   4.1966   4.1991   4.2063   4.2168   4.2389
  4.2418   4.2578   4.2658   4.2865   4.2945   4.3099   4.3264   4.3273
  4.3512   4.3612   4.3734   4.3852   4.3980   4.4012   4.4018   4.4238
  4.4360   4.4379   4.4563   4.4800   4.4923   4.4994   4.5261   4.5645
  4.5885   4.6005   4.6064   4.6160   4.6335   4.6375   4.6580   4.6680
  4.6978   4.7233   4.7468   4.7538   4.7713   4.7770   4.8163   4.8305
  4.8784   4.8830   4.9117   4.9186   4.9626   4.9854   5.0156   5.0563
  5.0987   5.1047   5.1134   5.1389   5.1625   5.1877   5.2030   5.2561
  5.2695   5.2803   5.2920   5.3021   5.3280   5.3682   5.3905   5.3970
  5.4139   5.4462   5.4667   5.4919   5.5190   5.5314   5.5463   5.5550
  5.5746   5.6086   5.6195   5.6245   5.6389   5.6756   5.6979   5.7127
  5.7698   5.8254   5.9134   5.9592   6.0008   6.0633   6.1318   6.2251
  6.2311   6.2477   6.2734   6.3052   6.3194   6.4446   6.5247   8.8706
  9.9185  11.6848  12.0183  12.9100  13.0782  13.7511  13.9827  14.2256
 14.3055
 --------------------------------------------------------------
 
          Ground-State Mulliken Net Atomic Charges

     Atom                 Charge (a.u.)
  ----------------------------------------
      1 C                    -0.214556
      2 C                    -0.247528
      3 C                     0.049184
      4 H                     0.184367
      5 C                    -0.042441
      6 S                     0.026624
      7 C                    -0.280540
      8 H                     0.108536
      9 H                     0.109509
     10 H                     0.111315
     11 H                     0.204332
     12 C                    -0.020761
     13 C                    -0.227156
     14 C                     0.017772
     15 H                     0.186923
     16 C                    -0.238308
     17 S                     0.027422
     18 C                    -0.271389
     19 H                     0.102622
     20 H                     0.108401
     21 H                     0.107815
     22 H                     0.197856
  ----------------------------------------
  Sum of atomic charges =     0.000000

 -----------------------------------------------------------------
                    Cartesian Multipole Moments
 -----------------------------------------------------------------
    Charge (ESU x 10^10)
                -0.0000
    Dipole Moment (Debye)
         X       1.6650      Y       0.2485      Z       1.7155
       Tot       2.4035
    Quadrupole Moments (Debye-Ang)
        XX     -86.2775     XY      -1.1715     YY     -68.7943
        XZ       1.2048     YZ       0.6456     ZZ     -86.5377
    Octopole Moments (Debye-Ang^2)
       XXX     -22.6129    XXY      25.2785    XYY      -8.0423
       YYY      94.4661    XXZ      -1.0107    XYZ      -4.4194
       YYZ      -4.6821    XZZ      -7.3895    YZZ      58.9724
       ZZZ       2.6481
    Hexadecapole Moments (Debye-Ang^3)
      XXXX    -672.5648   XXXY     -55.3334   XXYY    -560.2081
      XYYY       1.1070   YYYY   -2578.8242   XXXZ     -53.2206
      XXYZ     -31.8882   XYYZ      -2.9805   YYYZ    -103.8478
      XXZZ    -214.4711   XYZZ     -13.6375   YYZZ    -610.6698
      XZZZ     -58.1335   YZZZ     -97.7928   ZZZZ    -544.8577
 -----------------------------------------------------------------
 Total job time:  557.87s(wall), 552.51s(cpu) 
 Sat Jul  9 13:32:29 2022

        *************************************************************
        *                                                           *
        *  Thank you very much for using Q-Chem.  Have a nice day.  *
        *                                                           *
        *************************************************************


remove work dirs ./qchem888062.0 -- ./qchem888062.-1
rm -rf ./qchem888062
