You are running Q-Chem version: 5.4.0

#
# job setting
#
local host:  exp-1-39
current dir: /expanse/lustre/scratch/theleonzhang/temp_project/Interring_Bonds
input file:  Methylthiophene_Phi_50_Theta_350_Methylthiophene.qcin
output file: 
nprocs     : 0
nthreads   : 1
#
# qchem installation setting
#
QC:          /cm/shared/apps/spack/cpu/opt/spack/linux-centos8-zen2/gcc-10.2.0/qchem-5.4-akfmr7b3t57bfs6qan3padb2wnb2i7cl
QCAUX:       /cm/shared/apps/spack/cpu/opt/spack/linux-centos8-zen2/gcc-10.2.0/qchem-5.4-akfmr7b3t57bfs6qan3padb2wnb2i7cl/qcaux
QCPROG:      /cm/shared/apps/spack/cpu/opt/spack/linux-centos8-zen2/gcc-10.2.0/qchem-5.4-akfmr7b3t57bfs6qan3padb2wnb2i7cl/exe/qcprog.exe_s
QCPROG_S:    /cm/shared/apps/spack/cpu/opt/spack/linux-centos8-zen2/gcc-10.2.0/qchem-5.4-akfmr7b3t57bfs6qan3padb2wnb2i7cl/exe/qcprog.exe_s
PARALLEL:    -DSERIAL
QCMPI:       mpich
#
# qchem directory setting
#
qcrun:       qchem3189226
QCSCRATCH:   .
QCLOCALSCR:  
QCTMPDIR:    .
QCFILEPREF:  ./qchem3189226
QCSAVEDIR:   
workdirs:    ./qchem3189226
workdir0:    ./qchem3189226
partmpdirs =  
#
# parallel setting
#
QCRSH:           ssh
QCMPI:           mpich
QCMPIRUN:        /cm/shared/apps/spack/cpu/opt/spack/linux-centos8-zen2/gcc-10.2.0/qchem-5.4-akfmr7b3t57bfs6qan3padb2wnb2i7cl/bin/mpi/mpirun_qchem
QCMACHINEFILE:   ./qchem3189226/hostfile

#
# env setting
#
exported envs:   QC QCAUX QCSCRATCH QCRUNNAME QCFILEPREF QCPROG QCPROG_S GUIFILE

Running Job 1 of 1 Methylthiophene_Phi_50_Theta_350_Methylthiophene.qcin
qchem Methylthiophene_Phi_50_Theta_350_Methylthiophene.qcin_3189226.0 ./qchem3189226/ 0
/cm/shared/apps/spack/cpu/opt/spack/linux-centos8-zen2/gcc-10.2.0/qchem-5.4-akfmr7b3t57bfs6qan3padb2wnb2i7cl/exe/qcprog.exe_s Methylthiophene_Phi_50_Theta_350_Methylthiophene.qcin_3189226.0 ./qchem3189226/
                  Welcome to Q-Chem
     A Quantum Leap Into The Future Of Chemistry


 Q-Chem 5.4, Q-Chem, Inc., Pleasanton, CA (2021)

 License issued to: University of California, San Diego (site)

 E. Epifanovsky,  A. T. B. Gilbert,  Xintian Feng,  Joonho Lee,  Yuezhi Mao,  
 N. Mardirossian,  P. Pokhilko,  A. White,  M. Wormit,  M. P. Coons,  
 A. L. Dempwolff,  Zhengting Gan,  D. Hait,  P. R. Horn,  L. D. Jacobson,  
 I. Kaliman,  J. Kussmann,  A. W. Lange,  Ka Un Lao,  D. S. Levine,  Jie Liu,  
 S. C. McKenzie,  A. F. Morrison,  K. Nanda,  F. Plasser,  D. R. Rehn,  
 M. L. Vidal,  Zhi-Qiang You,  Ying Zhu,  B. Alam,  B. Albrecht,  
 A. Aldossary,  E. Alguire,  J. H. Andersen,  D. Barton,  K. Begam,  A. Behn,  
 Y. A. Bernard,  E. J. Berquist,  H. Burton,  A. Carreras,  K. Carter-Fenk,  
 R. Chakraborty,  A. D. Chien,  K. D. Closser,  V. Cofer-Shabica,  
 S. Dasgupta,  Jia Deng,  M. de Wergifosse,  M. Diedenhofen,  Hainam Do,  
 S. Ehlert,  Po-Tung Fang,  S. Fatehi,  Qingguo Feng,  J. Gayvert,  
 Qinghui Ge,  G. Gidofalvi,  M. Goldey,  J. Gomes,  C. Gonzalez-Espinoza,  
 S. Gulania,  A. Gunina,  M. W. D. Hanson-Heine,  P. H. P. Harbach,  
 A. W. Hauser,  M. F. Herbst,  M. Hernandez Vera,  M. Hodecker,  
 Z. C. Holden,  S. Houck,  Xunkun Huang,  Kerwin Hui,  B. C. Huynh,  
 M. Ivanov,  Hyunjun Ji,  Hanjie Jiang,  B. Kaduk,  S. Kaehler,  
 K. Khistyaev,  Jaehoon Kim,  P. Klunzinger,  Z. Koczor-Benda,  
 Joong Hoon Koh,  D. Kosenkov,  L. Koulias,  T. Kowalczyk,  C. M. Krauter,  
 K. Kue,  A. Kunitsa,  T. Kus,  A. Landau,  K. V. Lawler,  D. Lefrancois,  
 S. Lehtola,  Rain Li,  Yi-Pei Li,  Jiashu Liang,  M. Liebenthal,  
 Hung-Hsuan Lin,  You-Sheng Lin,  Fenglai Liu,  Kuan-Yu Liu,  
 M. Loipersberger,  A. Luenser,  A. Manjanath,  P. Manohar,  E. Mansoor,  
 S. F. Manzer,  Shan-Ping Mao,  A. V. Marenich,  T. Markovich,  S. Mason,  
 S. A. Maurer,  P. F. McLaughlin,  M. F. S. J. Menger,  J.-M. Mewes,  
 S. A. Mewes,  P. Morgante,  J. W. Mullinax,  T. S. Nguyen-Beck,  
 K. J. Oosterbaan,  G. Paran,  Alexander C. Paul,  Suranjan K. Paul,  
 F. Pavosevic,  Zheng Pei,  S. Prager,  E. I. Proynov,  E. Ramos,  B. Rana,  
 A. E. Rask,  A. Rettig,  R. M. Richard,  F. Rob,  E. Rossomme,  T. Scheele,  
 M. Scheurer,  M. Schneider,  N. Sergueev,  S. M. Sharada,  W. Skomorowski,  
 D. W. Small,  C. J. Stein,  Yu-Chuan Su,  E. J. Sundstrom,  Zhen Tao,  
 J. Thirman,  T. Tsuchimochi,  N. M. Tubman,  S. P. Veccham,  O. Vydrov,  
 J. Wenzel,  J. Witte,  A. Yamada,  Kun Yao,  S. Yeganeh,  S. R. Yost,  
 A. Zech,  Igor Ying Zhang,  Xing Zhang,  Yu Zhang,  D. Zuev,  
 A. Aspuru-Guzik,  A. T. Bell,  N. A. Besley,  K. B. Bravaya,  B. R. Brooks,  
 D. Casanova,  Jeng-Da Chai,  S. Coriani,  C. J. Cramer,  
 A. E. DePrince, III,  R. A. DiStasio Jr.,  A. Dreuw,  B. D. Dunietz,  
 T. R. Furlani,  W. A. Goddard III,  S. Grimme,  S. Hammes-Schiffer,  
 T. Head-Gordon,  W. J. Hehre,  Chao-Ping Hsu,  T.-C. Jagau,  Yousung Jung,  
 A. Klamt,  Jing Kong,  D. S. Lambrecht,  WanZhen Liang,  N. J. Mayhall,  
 C. W. McCurdy,  J. B. Neaton,  C. Ochsenfeld,  J. A. Parkhill,  R. Peverati,  
 V. A. Rassolov,  Yihan Shao,  L. V. Slipchenko,  T. Stauch,  R. P. Steele,  
 J. E. Subotnik,  A. J. W. Thom,  A. Tkatchenko,  D. G. Truhlar,  
 T. Van Voorhis,  T. A. Wesolowski,  K. B. Whaley,  H. L. Woodcock III,  
 P. M. Zimmerman,  S. Faraji,  P. M. W. Gill,  M. Head-Gordon,  
 J. M. Herbert,  A. I. Krylov

 Contributors to earlier versions of Q-Chem not listed above: 
 R. D. Adamson,  B. Austin,  R. Baer,  J. Baker,  G. J. O. Beran,  
 K. Brandhorst,  S. T. Brown,  E. F. C. Byrd,  A. K. Chakraborty,  
 G. K. L. Chan,  Chun-Min Chang,  Yunqing Chen,  C.-L. Cheng,  
 Siu Hung Chien,  D. M. Chipman,  D. L. Crittenden,  H. Dachsel,  
 R. J. Doerksen,  A. D. Dutoi,  R. G. Edgar,  J. Fosso-Tande,  
 L. Fusti-Molnar,  D. Ghosh,  A. Ghysels,  A. Golubeva-Zadorozhnaya,  
 J. Gonthier,  M. S. Gordon,  S. R. Gwaltney,  G. Hawkins,  J. E. Herr,  
 A. Heyden,  S. Hirata,  E. G. Hohenstein,  G. Kedziora,  F. J. Keil,  
 C. Kelley,  Jihan Kim,  R. A. King,  R. Z. Khaliullin,  P. P. Korambath,  
 W. Kurlancheek,  A. Laurent,  A. M. Lee,  M. S. Lee,  S. V. Levchenko,  
 Ching Yeh Lin,  D. Liotard,  E. Livshits,  R. C. Lochan,  I. Lotan,  
 L. A. Martinez-Martinez,  P. E. Maslen,  N. Nair,  D. P. O'Neill,  
 D. Neuhauser,  E. Neuscamman,  C. M. Oana,  R. Olivares-Amaya,  R. Olson,  
 T. M. Perrine,  B. Peters,  P. A. Pieniazek,  A. Prociuk,  Y. M. Rhee,  
 J. Ritchie,  M. A. Rohrdanz,  E. Rosta,  N. J. Russ,  H. F. Schaefer III,  
 M. W. Schmidt,  N. E. Schultz,  S. Sharma,  N. Shenvi,  C. D. Sherrill,  
 A. C. Simmonett,  A. Sodt,  T. Stein,  D. Stuck,  K. S. Thanthiriwatte,  
 V. Vanovschi,  L. Vogt,  Tao Wang,  A. Warshel,  M. A. Watson,  
 C. F. Williams,  Q. Wu,  X. Xu,  Jun Yang,  W. Zhang,  Yan Zhao

 Please cite Q-Chem as follows:
 Y. Shao et al., Mol. Phys. 113, 184-215 (2015)
 DOI: 10.1080/00268976.2014.952696

 Q-Chem 5.4.0 for Intel X86 EM64T Linux

 Parts of Q-Chem use Armadillo 9.800.1 (Horizon Scraper).
 http://arma.sourceforge.net/

 Q-Chem begins on Sat Jul  9 10:30:58 2022  

 Host: 
0

     Scratch files written to ./qchem3189226//
 May1621 |scratch|qcdevops|jenkins|workspace|build_RNUM    
 Processing $rem in /cm/shared/apps/spack/cpu/opt/spack/linux-centos8-zen2/gcc-10.2.0/qchem-5.4-akfmr7b3t57bfs6qan3padb2wnb2i7cl/config/preferences:
 Processing $rem in /home/theleonzhang/.qchemrc:
 Symmetry turned off for PCM/SM12/SMD calculation
 Core orbitals will be frozen

 Checking the input file for inconsistencies... 	...done.

--------------------------------------------------------------
User input:
--------------------------------------------------------------
$molecule
0 1
C	0.133897	-3.866725	0.763475
C	-0.106669	-3.703963	-0.603206
C	-0.185154	-2.357056	-1.050446
H	-0.226709	-4.561092	-1.283024
C	0.000000	-1.440664	0.000000
S	0.268206	-2.286957	1.521018
C	-0.437628	-1.978743	-2.483610
H	-0.549717	-2.878678	-3.118875
H	0.394664	-1.376015	-2.903464
H	-1.363110	-1.375728	-2.593726
H	0.237880	-4.783437	1.354522
C	0.000000	0.000000	0.000000
C	0.661577	0.555087	1.099446
C	1.721724	1.444630	0.776721
H	0.379056	0.318032	2.136088
C	1.890772	1.586449	-0.612546
S	0.721935	0.605744	-1.486809
C	2.555004	2.143805	1.814609
H	2.228946	1.870211	2.836676
H	2.482605	3.247987	1.726239
H	3.629830	1.880735	1.726228
H	2.617927	2.196579	-1.161575
$end

$rem
JOBTYPE		SP
EXCHANGE	HF
CORRELATION	pRIMP2
BASIS		cc-pvtz
METHOD		rimp2
AUX_BASIS	rimp2-cc-pvtz
SOLVENT_METHOD	PCM
PURECART	11111
SYMMETRY	false
MEM_TOTAL	110000
SCF_CONVERGENCE = 6
THRESH=10
$end



$solvent
dielectric 4.90
$end
--------------------------------------------------------------
 ----------------------------------------------------------------
             Standard Nuclear Orientation (Angstroms)
    I     Atom           X                Y                Z
 ----------------------------------------------------------------
    1      C       0.1338970000    -3.8667250000     0.7634750000
    2      C      -0.1066690000    -3.7039630000    -0.6032060000
    3      C      -0.1851540000    -2.3570560000    -1.0504460000
    4      H      -0.2267090000    -4.5610920000    -1.2830240000
    5      C       0.0000000000    -1.4406640000     0.0000000000
    6      S       0.2682060000    -2.2869570000     1.5210180000
    7      C      -0.4376280000    -1.9787430000    -2.4836100000
    8      H      -0.5497170000    -2.8786780000    -3.1188750000
    9      H       0.3946640000    -1.3760150000    -2.9034640000
   10      H      -1.3631100000    -1.3757280000    -2.5937260000
   11      H       0.2378800000    -4.7834370000     1.3545220000
   12      C       0.0000000000     0.0000000000     0.0000000000
   13      C       0.6615770000     0.5550870000     1.0994460000
   14      C       1.7217240000     1.4446300000     0.7767210000
   15      H       0.3790560000     0.3180320000     2.1360880000
   16      C       1.8907720000     1.5864490000    -0.6125460000
   17      S       0.7219350000     0.6057440000    -1.4868090000
   18      C       2.5550040000     2.1438050000     1.8146090000
   19      H       2.2289460000     1.8702110000     2.8366760000
   20      H       2.4826050000     3.2479870000     1.7262390000
   21      H       3.6298300000     1.8807350000     1.7262280000
   22      H       2.6179270000     2.1965790000    -1.1615750000
 ----------------------------------------------------------------
 Nuclear Repulsion Energy =         856.05331577 hartrees
 There are       51 alpha and       51 beta electrons

 Q-Chem warning in module forms1/BasisType.C, line 2236:

 You are not using the predefined 5D/6D in this basis set.

 Requested basis set is cc-pVTZ
 There are 184 shells and 508 basis functions

 Total QAlloc Memory Limit 110000 MB
 Mega-Array Size       188 MB
 MEM_STATIC part       192 MB
 Discretize the solute cavity surface with Lebedev spheres
	Using 110 Lebedev grid points for each H atom
	Using 194 Lebedev grid points for other atoms
	Atomic van der Waals radii will be scaled by 1.20
 Remove points where switching function is < 1.0e-08
 Keep 1504 surface tesserae and discard 1924 interior tesserae
 Molecular Surface Area = 225.395 Angst**2
 Requested basis set is rimp2-cc-pVTZ
 There are 394 shells and 1354 basis functions
 A cutoff of  1.0D-10 yielded  12610 shell pairs
 There are     93678 function pairs (    120906 Cartesian)
 Smallest overlap matrix eigenvalue = 6.76E-05

 Scale SEOQF with 1.000000e-01/1.000000e-01/1.000000e-01

 Standard Electronic Orientation quadrupole field applied
 Nucleus-field energy     =     0.0000000161 hartrees
 Guess from superposition of atomic densities
 Warning:  Energy on first SCF cycle will be non-variational
 SAD guess density has 102.000000 electrons

 -----------------------------------------------------------------------
  General SCF calculation program by
  Eric Jon Sundstrom, Paul Horn, Yuezhi Mao, Dmitri Zuev, Alec White,
  David Stuck, Shaama M.S., Shane Yost, Joonho Lee, David Small,
  Daniel Levine, Susi Lehtola, Hugh Burton, Evgeny Epifanovsky,
  Bang C. Huynh
 -----------------------------------------------------------------------
 Hartree-Fock
 A restricted SCF calculation will be
 performed using DIIS
 SCF converges when DIIS error is below 1.0e-06
 ---------------------------------------
  Cycle       Energy         DIIS error
 ---------------------------------------
    1   -1184.3502187777      2.40e-02  
    2   -1179.4916430538      1.59e-03  
    3   -1179.6137403091      5.88e-04  
    4   -1179.6272061300      3.14e-04  
    5   -1179.6314524251      6.12e-05  
    6   -1179.6317336898      3.08e-05  
    7   -1179.6318262935      1.41e-05  
    8   -1179.6318612654      5.63e-06  
    9   -1179.6318685386      2.46e-06  
   10   -1179.6318695071      9.65e-07  Convergence criterion met
 ---------------------------------------
 SCF time:   CPU 507.84s  wall 510.00s 

************** Final PCM Free Energy Summary **************
 G_electrostatic  =      -0.00858669 hartree =      -5.38822735 kcal/mol
 G_cavitation     =       0.00000000 hartree =       0.00000000 kcal/mol
 G_dispersion     =       0.00000000 hartree =       0.00000000 kcal/mol
 G_repulsion      =       0.00000000 hartree =       0.00000000 kcal/mol
 --------------------------------------------------
 Non-electrostatic Free Energy =       0.00000000 hartree =       0.00000000 kcal/mol
 Total                         =      -0.00858669 hartree =      -5.38822735 kcal/mol
 --------------------------------------------------
 SCF Energy (H0 + V/2)                       =   -1179.63186951 
 Solute Internal Energy (H0)                 =   -1179.62328282 
 Total Free Energy (H0 + V/2 + non-elec)     =   -1179.63186951 hartree
                                             = -740230.17040916 kcal/mol
***********************************************************

 SCF   energy in the final basis set =    -1179.6318695071
 Total energy in the final basis set =    -1179.6318695071


 --------------------------------------------------------------
  Generalized many-body perturbation theory program
  by Joonho Lee, Fazle Rob, Xintian Feng, Evgeny Epifanovsky

 No regularization used 
 (reg. param. = 0.0000e+00)
  (P|Q)^-1/2 Time:  CPU 1.68 s  wall 1.69 s

 In RI-MP2 calculation: 
 # of frozen core orbitals: 20

 Components of the RIMP2 correlation energy:
        aaaa    correlation energy =        -0.2556067087 a.u.
        abab    correlation energy =        -1.4824758776 a.u.
        bbbb    correlation energy =        -0.2556067087 a.u.
        non-Brillouin singles      =        -0.0000000000 a.u.
        total same-spin energy     =        -0.5112134174 a.u.
        total opposite-spin energy =        -1.4824758776 a.u.

 Total  RIMP2   correlation energy =        -1.9936892950 a.u.
        RIMP2         total energy =     -1181.6255588021 a.u.

 RI-MP2 Energy Time:  CPU 67.61 s  wall 67.82 s
 
 --------------------------------------------------------------
 
                    Orbital Energies (a.u.)
 --------------------------------------------------------------
 
 Alpha MOs
 -- Occupied --
-91.9844 -91.9771 -11.2827 -11.2784 -11.2666 -11.2600 -11.2579 -11.2552
-11.2391 -11.2380 -11.2310 -11.2246  -8.9850  -8.9774  -6.6657  -6.6650
 -6.6645  -6.6584  -6.6578  -6.6571  -1.1893  -1.1467  -1.0461  -1.0229
 -1.0006  -0.9492  -0.9134  -0.8942  -0.7970  -0.7671  -0.7237  -0.6923
 -0.6574  -0.6192  -0.5881  -0.5832  -0.5771  -0.5701  -0.5512  -0.5347
 -0.5267  -0.5177  -0.5111  -0.4949  -0.4743  -0.4640  -0.4457  -0.3677
 -0.3457  -0.3357  -0.2628
 -- Virtual --
  0.0519   0.1265   0.1412   0.1562   0.1651   0.1701   0.1835   0.1861
  0.1904   0.1939   0.2140   0.2149   0.2356   0.2391   0.2405   0.2495
  0.2587   0.2799   0.3005   0.3038   0.3284   0.3545   0.3622   0.3678
  0.3781   0.3880   0.4011   0.4065   0.4188   0.4241   0.4359   0.4393
  0.4500   0.4597   0.4613   0.4741   0.4802   0.4912   0.5022   0.5135
  0.5150   0.5207   0.5233   0.5314   0.5480   0.5559   0.5581   0.5626
  0.5727   0.5865   0.5899   0.5956   0.6118   0.6143   0.6199   0.6220
  0.6279   0.6327   0.6425   0.6437   0.6519   0.6544   0.6620   0.6685
  0.6817   0.6911   0.7027   0.7130   0.7199   0.7430   0.7484   0.7577
  0.7721   0.7797   0.7863   0.8014   0.8223   0.8267   0.8319   0.8520
  0.8565   0.8603   0.8722   0.8857   0.8929   0.9086   0.9347   0.9465
  0.9514   0.9560   0.9692   0.9829   1.0074   1.0205   1.0316   1.0367
  1.0479   1.0531   1.0634   1.0748   1.0791   1.0887   1.1031   1.1123
  1.1151   1.1214   1.1306   1.1457   1.1588   1.1684   1.1792   1.2006
  1.2129   1.2215   1.2335   1.2435   1.2524   1.2637   1.2717   1.2758
  1.2829   1.2929   1.3028   1.3092   1.3290   1.3577   1.3654   1.3701
  1.3711   1.3897   1.4084   1.4114   1.4223   1.4308   1.4389   1.4552
  1.4731   1.4857   1.4979   1.5065   1.5080   1.5214   1.5274   1.5416
  1.5558   1.5584   1.5685   1.5712   1.5832   1.5924   1.6097   1.6337
  1.6461   1.6612   1.6726   1.6895   1.7011   1.7039   1.7148   1.7436
  1.7498   1.7635   1.7726   1.7849   1.8134   1.8215   1.8367   1.8628
  1.8820   1.8917   1.9383   1.9516   1.9603   1.9718   1.9971   2.0102
  2.0435   2.0544   2.0804   2.0919   2.1230   2.1301   2.1416   2.1587
  2.1842   2.1916   2.2005   2.2113   2.2443   2.2627   2.2721   2.2790
  2.3002   2.3043   2.3331   2.3805   2.4024   2.4152   2.4257   2.4583
  2.4605   2.4943   2.5028   2.5180   2.5375   2.5620   2.5935   2.6173
  2.6355   2.6438   2.6563   2.6579   2.6883   2.6980   2.7149   2.7266
  2.7326   2.7383   2.7559   2.7734   2.7771   2.7874   2.8033   2.8122
  2.8343   2.8382   2.8435   2.8535   2.8682   2.9206   2.9259   2.9546
  2.9615   2.9721   2.9816   2.9872   3.0100   3.0263   3.0365   3.0450
  3.0491   3.0575   3.0924   3.1066   3.1126   3.1223   3.1385   3.1471
  3.1547   3.1648   3.1721   3.1743   3.1925   3.2055   3.2215   3.2258
  3.2383   3.2449   3.2631   3.2673   3.2732   3.2859   3.3030   3.3079
  3.3175   3.3286   3.3326   3.3368   3.3494   3.3619   3.3699   3.3725
  3.3912   3.3977   3.4133   3.4170   3.4223   3.4260   3.4399   3.4492
  3.4521   3.4715   3.4861   3.4935   3.5014   3.5107   3.5191   3.5246
  3.5334   3.5415   3.5442   3.5488   3.5532   3.5744   3.5928   3.5997
  3.6104   3.6169   3.6323   3.6350   3.6589   3.6640   3.6799   3.6890
  3.6985   3.7145   3.7226   3.7270   3.7317   3.7410   3.7536   3.7629
  3.7722   3.7822   3.7950   3.8090   3.8148   3.8253   3.8318   3.8471
  3.8621   3.8788   3.8901   3.9021   3.9126   3.9407   3.9565   3.9585
  3.9679   3.9861   4.0050   4.0195   4.0283   4.0357   4.0372   4.0499
  4.0677   4.0773   4.0888   4.0942   4.1150   4.1244   4.1461   4.1704
  4.1874   4.1916   4.2022   4.2041   4.2183   4.2251   4.2345   4.2465
  4.2533   4.2714   4.2837   4.3019   4.3048   4.3074   4.3353   4.3423
  4.3548   4.3644   4.3736   4.3844   4.4016   4.4099   4.4117   4.4460
  4.4580   4.4663   4.4725   4.4938   4.5057   4.5192   4.5412   4.5632
  4.5946   4.6077   4.6248   4.6362   4.6413   4.6633   4.6703   4.6985
  4.7036   4.7085   4.7351   4.7502   4.7738   4.8004   4.8143   4.8465
  4.8659   4.8871   4.9055   4.9219   4.9324   4.9590   4.9835   5.0608
  5.0803   5.0881   5.1156   5.1561   5.1695   5.1832   5.1894   5.1989
  5.2795   5.2832   5.2952   5.3054   5.3184   5.3663   5.3870   5.4026
  5.4097   5.4519   5.4706   5.4735   5.5227   5.5312   5.5474   5.5579
  5.5736   5.5967   5.6234   5.6360   5.6411   5.6601   5.6951   5.7182
  5.7846   5.8113   5.9179   5.9775   6.0311   6.0680   6.1031   6.2077
  6.2279   6.2524   6.2618   6.3000   6.3521   6.3588   6.5186   8.6332
  9.6999  11.5525  12.3763  12.8131  13.1593  13.7448  13.8470  14.2112
 14.4734
 --------------------------------------------------------------
 
          Ground-State Mulliken Net Atomic Charges

     Atom                 Charge (a.u.)
  ----------------------------------------
      1 C                    -0.240122
      2 C                    -0.245353
      3 C                     0.025965
      4 H                     0.182267
      5 C                    -0.008171
      6 S                    -0.013037
      7 C                    -0.312666
      8 H                     0.110256
      9 H                     0.111640
     10 H                     0.114649
     11 H                     0.201964
     12 C                    -0.049031
     13 C                    -0.184557
     14 C                     0.016346
     15 H                     0.187360
     16 C                    -0.204657
     17 S                     0.050415
     18 C                    -0.265438
     19 H                     0.103704
     20 H                     0.108611
     21 H                     0.107825
     22 H                     0.202030
  ----------------------------------------
  Sum of atomic charges =     0.000000

 -----------------------------------------------------------------
                    Cartesian Multipole Moments
 -----------------------------------------------------------------
    Charge (ESU x 10^10)
                -0.0000
    Dipole Moment (Debye)
         X       2.0367      Y       1.1472      Z      -0.0284
       Tot       2.3377
    Quadrupole Moments (Debye-Ang)
        XX     -85.1185     XY       6.5285     YY     -78.3184
        XZ       1.4302     YZ       3.1021     ZZ     -80.0445
    Octopole Moments (Debye-Ang^2)
       XXX    -143.0642    XXY      93.1385    XYY     -39.8051
       YYY     161.2718    XXZ      -1.2799    XYZ      -5.4452
       YYZ       0.7725    XZZ     -46.2904    YZZ      60.7877
       ZZZ       7.7954
    Hexadecapole Moments (Debye-Ang^3)
      XXXX    -688.0186   XXXY    -206.2274   XXYY    -536.5922
      XYYY    -225.1963   YYYY   -2165.3660   XXXZ    -130.6604
      XXYZ     -25.9203   XYYZ     -30.1407   YYYZ     -88.3548
      XXZZ    -293.0777   XYZZ     -66.9467   YYZZ    -529.3010
      XZZZ    -121.4035   YZZZ     -50.0218   ZZZZ   -1060.8350
 -----------------------------------------------------------------
 Total job time:  579.60s(wall), 576.29s(cpu) 
 Sat Jul  9 10:40:38 2022

        *************************************************************
        *                                                           *
        *  Thank you very much for using Q-Chem.  Have a nice day.  *
        *                                                           *
        *************************************************************


remove work dirs ./qchem3189226.0 -- ./qchem3189226.-1
rm -rf ./qchem3189226
