You are running Q-Chem version: 5.4.0

#
# job setting
#
local host:  exp-2-18
current dir: /expanse/lustre/scratch/theleonzhang/temp_project/Interring_Bonds
input file:  Methylthiophene_Phi_50_Theta_120_Methylthiophene.qcin
output file: 
nprocs     : 0
nthreads   : 1
#
# qchem installation setting
#
QC:          /cm/shared/apps/spack/cpu/opt/spack/linux-centos8-zen2/gcc-10.2.0/qchem-5.4-akfmr7b3t57bfs6qan3padb2wnb2i7cl
QCAUX:       /cm/shared/apps/spack/cpu/opt/spack/linux-centos8-zen2/gcc-10.2.0/qchem-5.4-akfmr7b3t57bfs6qan3padb2wnb2i7cl/qcaux
QCPROG:      /cm/shared/apps/spack/cpu/opt/spack/linux-centos8-zen2/gcc-10.2.0/qchem-5.4-akfmr7b3t57bfs6qan3padb2wnb2i7cl/exe/qcprog.exe_s
QCPROG_S:    /cm/shared/apps/spack/cpu/opt/spack/linux-centos8-zen2/gcc-10.2.0/qchem-5.4-akfmr7b3t57bfs6qan3padb2wnb2i7cl/exe/qcprog.exe_s
PARALLEL:    -DSERIAL
QCMPI:       mpich
#
# qchem directory setting
#
qcrun:       qchem1068891
QCSCRATCH:   .
QCLOCALSCR:  
QCTMPDIR:    .
QCFILEPREF:  ./qchem1068891
QCSAVEDIR:   
workdirs:    ./qchem1068891
workdir0:    ./qchem1068891
partmpdirs =  
#
# parallel setting
#
QCRSH:           ssh
QCMPI:           mpich
QCMPIRUN:        /cm/shared/apps/spack/cpu/opt/spack/linux-centos8-zen2/gcc-10.2.0/qchem-5.4-akfmr7b3t57bfs6qan3padb2wnb2i7cl/bin/mpi/mpirun_qchem
QCMACHINEFILE:   ./qchem1068891/hostfile

#
# env setting
#
exported envs:   QC QCAUX QCSCRATCH QCRUNNAME QCFILEPREF QCPROG QCPROG_S GUIFILE

Running Job 1 of 1 Methylthiophene_Phi_50_Theta_120_Methylthiophene.qcin
qchem Methylthiophene_Phi_50_Theta_120_Methylthiophene.qcin_1068891.0 ./qchem1068891/ 0
/cm/shared/apps/spack/cpu/opt/spack/linux-centos8-zen2/gcc-10.2.0/qchem-5.4-akfmr7b3t57bfs6qan3padb2wnb2i7cl/exe/qcprog.exe_s Methylthiophene_Phi_50_Theta_120_Methylthiophene.qcin_1068891.0 ./qchem1068891/
                  Welcome to Q-Chem
     A Quantum Leap Into The Future Of Chemistry


 Q-Chem 5.4, Q-Chem, Inc., Pleasanton, CA (2021)

 License issued to: University of California, San Diego (site)

 E. Epifanovsky,  A. T. B. Gilbert,  Xintian Feng,  Joonho Lee,  Yuezhi Mao,  
 N. Mardirossian,  P. Pokhilko,  A. White,  M. Wormit,  M. P. Coons,  
 A. L. Dempwolff,  Zhengting Gan,  D. Hait,  P. R. Horn,  L. D. Jacobson,  
 I. Kaliman,  J. Kussmann,  A. W. Lange,  Ka Un Lao,  D. S. Levine,  Jie Liu,  
 S. C. McKenzie,  A. F. Morrison,  K. Nanda,  F. Plasser,  D. R. Rehn,  
 M. L. Vidal,  Zhi-Qiang You,  Ying Zhu,  B. Alam,  B. Albrecht,  
 A. Aldossary,  E. Alguire,  J. H. Andersen,  D. Barton,  K. Begam,  A. Behn,  
 Y. A. Bernard,  E. J. Berquist,  H. Burton,  A. Carreras,  K. Carter-Fenk,  
 R. Chakraborty,  A. D. Chien,  K. D. Closser,  V. Cofer-Shabica,  
 S. Dasgupta,  Jia Deng,  M. de Wergifosse,  M. Diedenhofen,  Hainam Do,  
 S. Ehlert,  Po-Tung Fang,  S. Fatehi,  Qingguo Feng,  J. Gayvert,  
 Qinghui Ge,  G. Gidofalvi,  M. Goldey,  J. Gomes,  C. Gonzalez-Espinoza,  
 S. Gulania,  A. Gunina,  M. W. D. Hanson-Heine,  P. H. P. Harbach,  
 A. W. Hauser,  M. F. Herbst,  M. Hernandez Vera,  M. Hodecker,  
 Z. C. Holden,  S. Houck,  Xunkun Huang,  Kerwin Hui,  B. C. Huynh,  
 M. Ivanov,  Hyunjun Ji,  Hanjie Jiang,  B. Kaduk,  S. Kaehler,  
 K. Khistyaev,  Jaehoon Kim,  P. Klunzinger,  Z. Koczor-Benda,  
 Joong Hoon Koh,  D. Kosenkov,  L. Koulias,  T. Kowalczyk,  C. M. Krauter,  
 K. Kue,  A. Kunitsa,  T. Kus,  A. Landau,  K. V. Lawler,  D. Lefrancois,  
 S. Lehtola,  Rain Li,  Yi-Pei Li,  Jiashu Liang,  M. Liebenthal,  
 Hung-Hsuan Lin,  You-Sheng Lin,  Fenglai Liu,  Kuan-Yu Liu,  
 M. Loipersberger,  A. Luenser,  A. Manjanath,  P. Manohar,  E. Mansoor,  
 S. F. Manzer,  Shan-Ping Mao,  A. V. Marenich,  T. Markovich,  S. Mason,  
 S. A. Maurer,  P. F. McLaughlin,  M. F. S. J. Menger,  J.-M. Mewes,  
 S. A. Mewes,  P. Morgante,  J. W. Mullinax,  T. S. Nguyen-Beck,  
 K. J. Oosterbaan,  G. Paran,  Alexander C. Paul,  Suranjan K. Paul,  
 F. Pavosevic,  Zheng Pei,  S. Prager,  E. I. Proynov,  E. Ramos,  B. Rana,  
 A. E. Rask,  A. Rettig,  R. M. Richard,  F. Rob,  E. Rossomme,  T. Scheele,  
 M. Scheurer,  M. Schneider,  N. Sergueev,  S. M. Sharada,  W. Skomorowski,  
 D. W. Small,  C. J. Stein,  Yu-Chuan Su,  E. J. Sundstrom,  Zhen Tao,  
 J. Thirman,  T. Tsuchimochi,  N. M. Tubman,  S. P. Veccham,  O. Vydrov,  
 J. Wenzel,  J. Witte,  A. Yamada,  Kun Yao,  S. Yeganeh,  S. R. Yost,  
 A. Zech,  Igor Ying Zhang,  Xing Zhang,  Yu Zhang,  D. Zuev,  
 A. Aspuru-Guzik,  A. T. Bell,  N. A. Besley,  K. B. Bravaya,  B. R. Brooks,  
 D. Casanova,  Jeng-Da Chai,  S. Coriani,  C. J. Cramer,  
 A. E. DePrince, III,  R. A. DiStasio Jr.,  A. Dreuw,  B. D. Dunietz,  
 T. R. Furlani,  W. A. Goddard III,  S. Grimme,  S. Hammes-Schiffer,  
 T. Head-Gordon,  W. J. Hehre,  Chao-Ping Hsu,  T.-C. Jagau,  Yousung Jung,  
 A. Klamt,  Jing Kong,  D. S. Lambrecht,  WanZhen Liang,  N. J. Mayhall,  
 C. W. McCurdy,  J. B. Neaton,  C. Ochsenfeld,  J. A. Parkhill,  R. Peverati,  
 V. A. Rassolov,  Yihan Shao,  L. V. Slipchenko,  T. Stauch,  R. P. Steele,  
 J. E. Subotnik,  A. J. W. Thom,  A. Tkatchenko,  D. G. Truhlar,  
 T. Van Voorhis,  T. A. Wesolowski,  K. B. Whaley,  H. L. Woodcock III,  
 P. M. Zimmerman,  S. Faraji,  P. M. W. Gill,  M. Head-Gordon,  
 J. M. Herbert,  A. I. Krylov

 Contributors to earlier versions of Q-Chem not listed above: 
 R. D. Adamson,  B. Austin,  R. Baer,  J. Baker,  G. J. O. Beran,  
 K. Brandhorst,  S. T. Brown,  E. F. C. Byrd,  A. K. Chakraborty,  
 G. K. L. Chan,  Chun-Min Chang,  Yunqing Chen,  C.-L. Cheng,  
 Siu Hung Chien,  D. M. Chipman,  D. L. Crittenden,  H. Dachsel,  
 R. J. Doerksen,  A. D. Dutoi,  R. G. Edgar,  J. Fosso-Tande,  
 L. Fusti-Molnar,  D. Ghosh,  A. Ghysels,  A. Golubeva-Zadorozhnaya,  
 J. Gonthier,  M. S. Gordon,  S. R. Gwaltney,  G. Hawkins,  J. E. Herr,  
 A. Heyden,  S. Hirata,  E. G. Hohenstein,  G. Kedziora,  F. J. Keil,  
 C. Kelley,  Jihan Kim,  R. A. King,  R. Z. Khaliullin,  P. P. Korambath,  
 W. Kurlancheek,  A. Laurent,  A. M. Lee,  M. S. Lee,  S. V. Levchenko,  
 Ching Yeh Lin,  D. Liotard,  E. Livshits,  R. C. Lochan,  I. Lotan,  
 L. A. Martinez-Martinez,  P. E. Maslen,  N. Nair,  D. P. O'Neill,  
 D. Neuhauser,  E. Neuscamman,  C. M. Oana,  R. Olivares-Amaya,  R. Olson,  
 T. M. Perrine,  B. Peters,  P. A. Pieniazek,  A. Prociuk,  Y. M. Rhee,  
 J. Ritchie,  M. A. Rohrdanz,  E. Rosta,  N. J. Russ,  H. F. Schaefer III,  
 M. W. Schmidt,  N. E. Schultz,  S. Sharma,  N. Shenvi,  C. D. Sherrill,  
 A. C. Simmonett,  A. Sodt,  T. Stein,  D. Stuck,  K. S. Thanthiriwatte,  
 V. Vanovschi,  L. Vogt,  Tao Wang,  A. Warshel,  M. A. Watson,  
 C. F. Williams,  Q. Wu,  X. Xu,  Jun Yang,  W. Zhang,  Yan Zhao

 Please cite Q-Chem as follows:
 Y. Shao et al., Mol. Phys. 113, 184-215 (2015)
 DOI: 10.1080/00268976.2014.952696

 Q-Chem 5.4.0 for Intel X86 EM64T Linux

 Parts of Q-Chem use Armadillo 9.800.1 (Horizon Scraper).
 http://arma.sourceforge.net/

 Q-Chem begins on Sat Jul  9 00:05:42 2022  

 Host: 
0

     Scratch files written to ./qchem1068891//
 May1621 |scratch|qcdevops|jenkins|workspace|build_RNUM    
 Processing $rem in /cm/shared/apps/spack/cpu/opt/spack/linux-centos8-zen2/gcc-10.2.0/qchem-5.4-akfmr7b3t57bfs6qan3padb2wnb2i7cl/config/preferences:
 Processing $rem in /home/theleonzhang/.qchemrc:
 Symmetry turned off for PCM/SM12/SMD calculation
 Core orbitals will be frozen

 Checking the input file for inconsistencies... 	...done.

--------------------------------------------------------------
User input:
--------------------------------------------------------------
$molecule
0 1
C	-0.670924	-3.866725	-0.388181
C	0.530648	-3.703963	0.306020
C	0.923703	-2.357056	0.533378
H	1.128579	-4.561092	0.651043
C	0.000000	-1.440664	0.000000
S	-1.337567	-2.286957	-0.772234
C	2.183857	-1.978743	1.261192
H	2.742548	-2.878678	1.583666
H	1.970497	-1.376015	2.168641
H	2.863099	-1.375728	0.623012
H	-1.190530	-4.783437	-0.688443
C	0.000000	0.000000	0.000000
C	0.661577	0.555087	1.099446
C	1.721724	1.444630	0.776721
H	0.379056	0.318032	2.136088
C	1.890772	1.586449	-0.612546
S	0.721935	0.605744	-1.486809
C	2.555004	2.143805	1.814609
H	2.228946	1.870211	2.836676
H	2.482605	3.247987	1.726239
H	3.629830	1.880735	1.726228
H	2.617927	2.196579	-1.161575
$end

$rem
JOBTYPE		SP
EXCHANGE	HF
CORRELATION	pRIMP2
BASIS		cc-pvtz
METHOD		rimp2
AUX_BASIS	rimp2-cc-pvtz
SOLVENT_METHOD	PCM
PURECART	11111
SYMMETRY	false
MEM_TOTAL	110000
SCF_CONVERGENCE = 6
THRESH=10
$end



$solvent
dielectric 4.90
$end
--------------------------------------------------------------
 ----------------------------------------------------------------
             Standard Nuclear Orientation (Angstroms)
    I     Atom           X                Y                Z
 ----------------------------------------------------------------
    1      C      -0.6709240000    -3.8667250000    -0.3881810000
    2      C       0.5306480000    -3.7039630000     0.3060200000
    3      C       0.9237030000    -2.3570560000     0.5333780000
    4      H       1.1285790000    -4.5610920000     0.6510430000
    5      C       0.0000000000    -1.4406640000     0.0000000000
    6      S      -1.3375670000    -2.2869570000    -0.7722340000
    7      C       2.1838570000    -1.9787430000     1.2611920000
    8      H       2.7425480000    -2.8786780000     1.5836660000
    9      H       1.9704970000    -1.3760150000     2.1686410000
   10      H       2.8630990000    -1.3757280000     0.6230120000
   11      H      -1.1905300000    -4.7834370000    -0.6884430000
   12      C       0.0000000000     0.0000000000     0.0000000000
   13      C       0.6615770000     0.5550870000     1.0994460000
   14      C       1.7217240000     1.4446300000     0.7767210000
   15      H       0.3790560000     0.3180320000     2.1360880000
   16      C       1.8907720000     1.5864490000    -0.6125460000
   17      S       0.7219350000     0.6057440000    -1.4868090000
   18      C       2.5550040000     2.1438050000     1.8146090000
   19      H       2.2289460000     1.8702110000     2.8366760000
   20      H       2.4826050000     3.2479870000     1.7262390000
   21      H       3.6298300000     1.8807350000     1.7262280000
   22      H       2.6179270000     2.1965790000    -1.1615750000
 ----------------------------------------------------------------
 Nuclear Repulsion Energy =         855.28127645 hartrees
 There are       51 alpha and       51 beta electrons

 Q-Chem warning in module forms1/BasisType.C, line 2236:

 You are not using the predefined 5D/6D in this basis set.

 Requested basis set is cc-pVTZ
 There are 184 shells and 508 basis functions

 Total QAlloc Memory Limit 110000 MB
 Mega-Array Size       188 MB
 MEM_STATIC part       192 MB
 Discretize the solute cavity surface with Lebedev spheres
	Using 110 Lebedev grid points for each H atom
	Using 194 Lebedev grid points for other atoms
	Atomic van der Waals radii will be scaled by 1.20
 Remove points where switching function is < 1.0e-08
 Keep 1507 surface tesserae and discard 1921 interior tesserae
 Molecular Surface Area = 229.104 Angst**2
 Requested basis set is rimp2-cc-pVTZ
 There are 394 shells and 1354 basis functions
 A cutoff of  1.0D-10 yielded  13072 shell pairs
 There are     97492 function pairs (    125893 Cartesian)
 Smallest overlap matrix eigenvalue = 6.92E-05

 Scale SEOQF with 1.000000e-01/1.000000e-01/1.000000e-01

 Standard Electronic Orientation quadrupole field applied
 Nucleus-field energy     =     0.0000000280 hartrees
 Guess from superposition of atomic densities
 Warning:  Energy on first SCF cycle will be non-variational
 SAD guess density has 102.000000 electrons

 -----------------------------------------------------------------------
  General SCF calculation program by
  Eric Jon Sundstrom, Paul Horn, Yuezhi Mao, Dmitri Zuev, Alec White,
  David Stuck, Shaama M.S., Shane Yost, Joonho Lee, David Small,
  Daniel Levine, Susi Lehtola, Hugh Burton, Evgeny Epifanovsky,
  Bang C. Huynh
 -----------------------------------------------------------------------
 Hartree-Fock
 A restricted SCF calculation will be
 performed using DIIS
 SCF converges when DIIS error is below 1.0e-06
 ---------------------------------------
  Cycle       Energy         DIIS error
 ---------------------------------------
    1   -1184.3030304423      2.39e-02  
    2   -1179.4988369845      1.58e-03  
    3   -1179.6191855003      5.77e-04  
    4   -1179.6322848475      3.14e-04  
    5   -1179.6365453440      6.29e-05  
    6   -1179.6368357959      2.93e-05  
    7   -1179.6369286256      1.54e-05  
    8   -1179.6369634079      6.07e-06  
    9   -1179.6369701815      2.42e-06  
   10   -1179.6369710324      9.43e-07  Convergence criterion met
 ---------------------------------------
 SCF time:   CPU 529.11s  wall 531.00s 

************** Final PCM Free Energy Summary **************
 G_electrostatic  =      -0.00954648 hartree =      -5.99050526 kcal/mol
 G_cavitation     =       0.00000000 hartree =       0.00000000 kcal/mol
 G_dispersion     =       0.00000000 hartree =       0.00000000 kcal/mol
 G_repulsion      =       0.00000000 hartree =       0.00000000 kcal/mol
 --------------------------------------------------
 Non-electrostatic Free Energy =       0.00000000 hartree =       0.00000000 kcal/mol
 Total                         =      -0.00954648 hartree =      -5.99050526 kcal/mol
 --------------------------------------------------
 SCF Energy (H0 + V/2)                       =   -1179.63697103 
 Solute Internal Energy (H0)                 =   -1179.62742455 
 Total Free Energy (H0 + V/2 + non-elec)     =   -1179.63697103 hartree
                                             = -740233.37166457 kcal/mol
***********************************************************

 SCF   energy in the final basis set =    -1179.6369710324
 Total energy in the final basis set =    -1179.6369710324


 --------------------------------------------------------------
  Generalized many-body perturbation theory program
  by Joonho Lee, Fazle Rob, Xintian Feng, Evgeny Epifanovsky

 No regularization used 
 (reg. param. = 0.0000e+00)
  (P|Q)^-1/2 Time:  CPU 1.68 s  wall 1.69 s

 In RI-MP2 calculation: 
 # of frozen core orbitals: 20

 Components of the RIMP2 correlation energy:
        aaaa    correlation energy =        -0.2550934883 a.u.
        abab    correlation energy =        -1.4820918435 a.u.
        bbbb    correlation energy =        -0.2550934883 a.u.
        non-Brillouin singles      =        -0.0000000000 a.u.
        total same-spin energy     =        -0.5101869765 a.u.
        total opposite-spin energy =        -1.4820918435 a.u.

 Total  RIMP2   correlation energy =        -1.9922788200 a.u.
        RIMP2         total energy =     -1181.6292498524 a.u.

 RI-MP2 Energy Time:  CPU 69.46 s  wall 69.67 s
 
 --------------------------------------------------------------
 
                    Orbital Energies (a.u.)
 --------------------------------------------------------------
 
 Alpha MOs
 -- Occupied --
-91.9832 -91.9754 -11.2826 -11.2734 -11.2649 -11.2591 -11.2573 -11.2528
-11.2452 -11.2387 -11.2313 -11.2266  -8.9835  -8.9757  -6.6643  -6.6635
 -6.6631  -6.6566  -6.6560  -6.6554  -1.1861  -1.1467  -1.0440  -1.0209
 -0.9978  -0.9529  -0.9132  -0.8911  -0.7961  -0.7513  -0.7375  -0.6976
 -0.6562  -0.6182  -0.5880  -0.5820  -0.5703  -0.5654  -0.5496  -0.5366
 -0.5256  -0.5245  -0.5106  -0.4883  -0.4714  -0.4636  -0.4529  -0.3472
 -0.3392  -0.3337  -0.2835
 -- Virtual --
  0.0634   0.1089   0.1347   0.1522   0.1653   0.1752   0.1768   0.1880
  0.1928   0.1948   0.1992   0.2220   0.2323   0.2399   0.2454   0.2508
  0.2524   0.2699   0.2869   0.3097   0.3268   0.3447   0.3489   0.3711
  0.3794   0.3807   0.3971   0.4025   0.4101   0.4205   0.4303   0.4377
  0.4447   0.4462   0.4609   0.4684   0.4806   0.4873   0.4915   0.4975
  0.5147   0.5198   0.5240   0.5326   0.5446   0.5540   0.5602   0.5652
  0.5776   0.5815   0.5900   0.5951   0.6058   0.6119   0.6154   0.6214
  0.6321   0.6380   0.6445   0.6482   0.6546   0.6618   0.6665   0.6698
  0.6811   0.6855   0.7060   0.7150   0.7227   0.7379   0.7436   0.7577
  0.7722   0.7753   0.7924   0.8073   0.8143   0.8228   0.8269   0.8491
  0.8596   0.8702   0.8803   0.8952   0.9070   0.9195   0.9292   0.9401
  0.9588   0.9772   0.9910   1.0098   1.0116   1.0163   1.0259   1.0458
  1.0510   1.0562   1.0691   1.0773   1.0833   1.0899   1.0994   1.1089
  1.1160   1.1278   1.1495   1.1691   1.1718   1.1829   1.1953   1.2088
  1.2111   1.2228   1.2296   1.2373   1.2460   1.2604   1.2720   1.2815
  1.2832   1.2942   1.3298   1.3354   1.3476   1.3639   1.3668   1.3720
  1.3902   1.4074   1.4097   1.4260   1.4323   1.4454   1.4522   1.4632
  1.4757   1.4863   1.4948   1.5127   1.5234   1.5360   1.5441   1.5516
  1.5667   1.5748   1.5820   1.5919   1.5942   1.6040   1.6143   1.6436
  1.6553   1.6708   1.6929   1.6949   1.7016   1.7176   1.7235   1.7358
  1.7472   1.7621   1.7734   1.7908   1.8014   1.8259   1.8383   1.8628
  1.8863   1.8967   1.9018   1.9208   1.9475   1.9699   1.9857   1.9952
  1.9996   2.0541   2.0642   2.0954   2.1058   2.1370   2.1447   2.1685
  2.1843   2.1851   2.1951   2.2344   2.2417   2.2468   2.2640   2.2831
  2.3070   2.3201   2.3421   2.3496   2.3943   2.4129   2.4385   2.4495
  2.4735   2.4972   2.5212   2.5348   2.5446   2.5948   2.6036   2.6153
  2.6342   2.6633   2.6700   2.6769   2.6828   2.6920   2.7271   2.7327
  2.7341   2.7473   2.7685   2.7715   2.7795   2.7889   2.7914   2.8139
  2.8344   2.8475   2.8642   2.8760   2.8893   2.9005   2.9366   2.9635
  2.9700   2.9750   2.9889   2.9966   3.0068   3.0117   3.0383   3.0465
  3.0725   3.0901   3.0995   3.1090   3.1153   3.1174   3.1355   3.1456
  3.1607   3.1686   3.1821   3.1938   3.1982   3.2166   3.2216   3.2265
  3.2484   3.2555   3.2716   3.2761   3.2850   3.2961   3.2990   3.3120
  3.3242   3.3250   3.3356   3.3443   3.3545   3.3566   3.3701   3.3873
  3.3962   3.4057   3.4089   3.4130   3.4170   3.4354   3.4371   3.4480
  3.4571   3.4653   3.4897   3.4914   3.5070   3.5161   3.5207   3.5259
  3.5383   3.5410   3.5526   3.5680   3.5796   3.5875   3.5894   3.5998
  3.6107   3.6166   3.6249   3.6349   3.6548   3.6620   3.6646   3.6828
  3.6997   3.7061   3.7155   3.7211   3.7294   3.7452   3.7564   3.7723
  3.7778   3.7848   3.7941   3.8055   3.8230   3.8336   3.8490   3.8709
  3.8736   3.8927   3.8960   3.9243   3.9300   3.9448   3.9561   3.9654
  3.9784   3.9853   4.0200   4.0287   4.0314   4.0398   4.0482   4.0655
  4.0744   4.0817   4.0915   4.1178   4.1348   4.1495   4.1559   4.1729
  4.1820   4.1969   4.1997   4.2028   4.2147   4.2332   4.2390   4.2601
  4.2667   4.2767   4.2844   4.2933   4.3151   4.3236   4.3367   4.3543
  4.3609   4.3646   4.3821   4.3936   4.4051   4.4245   4.4269   4.4406
  4.4553   4.4742   4.4808   4.4987   4.5040   4.5184   4.5462   4.5650
  4.5911   4.6124   4.6228   4.6386   4.6482   4.6533   4.6769   4.6790
  4.6982   4.7263   4.7529   4.7612   4.7879   4.7924   4.8260   4.8461
  4.8811   4.8959   4.9104   4.9391   4.9460   4.9755   5.0219   5.0613
  5.0724   5.1073   5.1119   5.1377   5.1581   5.1764   5.1971   5.2136
  5.2715   5.2871   5.2981   5.3070   5.3167   5.3677   5.3846   5.4021
  5.4209   5.4548   5.4698   5.4798   5.5206   5.5318   5.5485   5.5575
  5.5744   5.6015   5.6225   5.6269   5.6589   5.6905   5.7074   5.7376
  5.7873   5.8111   5.9422   5.9766   6.0040   6.0446   6.1068   6.2186
  6.2438   6.2646   6.2874   6.3033   6.3839   6.4016   6.5275   8.7350
  9.8108  11.6264  12.4334  12.8362  13.2331  13.7695  13.9660  14.2416
 14.4572
 --------------------------------------------------------------
 
          Ground-State Mulliken Net Atomic Charges

     Atom                 Charge (a.u.)
  ----------------------------------------
      1 C                    -0.217949
      2 C                    -0.260165
      3 C                     0.046640
      4 H                     0.182779
      5 C                     0.002998
      6 S                     0.001152
      7 C                    -0.307227
      8 H                     0.116487
      9 H                     0.109595
     10 H                     0.116534
     11 H                     0.201585
     12 C                    -0.118857
     13 C                    -0.184516
     14 C                     0.014969
     15 H                     0.195007
     16 C                    -0.193015
     17 S                     0.039250
     18 C                    -0.272618
     19 H                     0.103889
     20 H                     0.114756
     21 H                     0.106821
     22 H                     0.201886
  ----------------------------------------
  Sum of atomic charges =     0.000000

 -----------------------------------------------------------------
                    Cartesian Multipole Moments
 -----------------------------------------------------------------
    Charge (ESU x 10^10)
                -0.0000
    Dipole Moment (Debye)
         X       3.6117      Y       0.7864      Z       2.4116
       Tot       4.4135
    Quadrupole Moments (Debye-Ang)
        XX     -80.9515     XY       4.0407     YY     -77.1646
        XZ       3.1433     YZ      -0.5857     ZZ     -84.7060
    Octopole Moments (Debye-Ang^2)
       XXX    -148.6851    XXY      75.9744    XYY     -44.4987
       YYY     155.7259    XXZ      -3.6309    XYZ     -11.7263
       YYZ      -4.7824    XZZ     -48.6448    YZZ      77.0549
       ZZZ       2.2477
    Hexadecapole Moments (Debye-Ang^3)
      XXXX   -1096.5858   XXXY    -215.6562   XXYY    -533.3033
      XYYY    -196.8810   YYYY   -2142.8314   XXXZ    -200.1907
      XXYZ     -31.2904   XYYZ     -29.6783   YYYZ     -51.1977
      XXZZ    -290.6146   XYZZ     -70.2228   YYZZ    -531.9985
      XZZZ    -198.2628   YZZZ     -64.1948   ZZZZ    -668.8217
 -----------------------------------------------------------------
 Total job time:  602.59s(wall), 599.39s(cpu) 
 Sat Jul  9 00:15:45 2022

        *************************************************************
        *                                                           *
        *  Thank you very much for using Q-Chem.  Have a nice day.  *
        *                                                           *
        *************************************************************


remove work dirs ./qchem1068891.0 -- ./qchem1068891.-1
rm -rf ./qchem1068891
