You are running Q-Chem version: 5.4.0

#
# job setting
#
local host:  exp-1-46
current dir: /expanse/lustre/scratch/theleonzhang/temp_project/Interring_Bonds
input file:  Methylthiophene_Phi_0_Theta_200_Methylthiophene.qcin
output file: 
nprocs     : 0
nthreads   : 1
#
# qchem installation setting
#
QC:          /cm/shared/apps/spack/cpu/opt/spack/linux-centos8-zen2/gcc-10.2.0/qchem-5.4-akfmr7b3t57bfs6qan3padb2wnb2i7cl
QCAUX:       /cm/shared/apps/spack/cpu/opt/spack/linux-centos8-zen2/gcc-10.2.0/qchem-5.4-akfmr7b3t57bfs6qan3padb2wnb2i7cl/qcaux
QCPROG:      /cm/shared/apps/spack/cpu/opt/spack/linux-centos8-zen2/gcc-10.2.0/qchem-5.4-akfmr7b3t57bfs6qan3padb2wnb2i7cl/exe/qcprog.exe_s
QCPROG_S:    /cm/shared/apps/spack/cpu/opt/spack/linux-centos8-zen2/gcc-10.2.0/qchem-5.4-akfmr7b3t57bfs6qan3padb2wnb2i7cl/exe/qcprog.exe_s
PARALLEL:    -DSERIAL
QCMPI:       mpich
#
# qchem directory setting
#
qcrun:       qchem3479181
QCSCRATCH:   .
QCLOCALSCR:  
QCTMPDIR:    .
QCFILEPREF:  ./qchem3479181
QCSAVEDIR:   
workdirs:    ./qchem3479181
workdir0:    ./qchem3479181
partmpdirs =  
#
# parallel setting
#
QCRSH:           ssh
QCMPI:           mpich
QCMPIRUN:        /cm/shared/apps/spack/cpu/opt/spack/linux-centos8-zen2/gcc-10.2.0/qchem-5.4-akfmr7b3t57bfs6qan3padb2wnb2i7cl/bin/mpi/mpirun_qchem
QCMACHINEFILE:   ./qchem3479181/hostfile

#
# env setting
#
exported envs:   QC QCAUX QCSCRATCH QCRUNNAME QCFILEPREF QCPROG QCPROG_S GUIFILE

Running Job 1 of 1 Methylthiophene_Phi_0_Theta_200_Methylthiophene.qcin
qchem Methylthiophene_Phi_0_Theta_200_Methylthiophene.qcin_3479181.0 ./qchem3479181/ 0
/cm/shared/apps/spack/cpu/opt/spack/linux-centos8-zen2/gcc-10.2.0/qchem-5.4-akfmr7b3t57bfs6qan3padb2wnb2i7cl/exe/qcprog.exe_s Methylthiophene_Phi_0_Theta_200_Methylthiophene.qcin_3479181.0 ./qchem3479181/
                  Welcome to Q-Chem
     A Quantum Leap Into The Future Of Chemistry


 Q-Chem 5.4, Q-Chem, Inc., Pleasanton, CA (2021)

 License issued to: University of California, San Diego (site)

 E. Epifanovsky,  A. T. B. Gilbert,  Xintian Feng,  Joonho Lee,  Yuezhi Mao,  
 N. Mardirossian,  P. Pokhilko,  A. White,  M. Wormit,  M. P. Coons,  
 A. L. Dempwolff,  Zhengting Gan,  D. Hait,  P. R. Horn,  L. D. Jacobson,  
 I. Kaliman,  J. Kussmann,  A. W. Lange,  Ka Un Lao,  D. S. Levine,  Jie Liu,  
 S. C. McKenzie,  A. F. Morrison,  K. Nanda,  F. Plasser,  D. R. Rehn,  
 M. L. Vidal,  Zhi-Qiang You,  Ying Zhu,  B. Alam,  B. Albrecht,  
 A. Aldossary,  E. Alguire,  J. H. Andersen,  D. Barton,  K. Begam,  A. Behn,  
 Y. A. Bernard,  E. J. Berquist,  H. Burton,  A. Carreras,  K. Carter-Fenk,  
 R. Chakraborty,  A. D. Chien,  K. D. Closser,  V. Cofer-Shabica,  
 S. Dasgupta,  Jia Deng,  M. de Wergifosse,  M. Diedenhofen,  Hainam Do,  
 S. Ehlert,  Po-Tung Fang,  S. Fatehi,  Qingguo Feng,  J. Gayvert,  
 Qinghui Ge,  G. Gidofalvi,  M. Goldey,  J. Gomes,  C. Gonzalez-Espinoza,  
 S. Gulania,  A. Gunina,  M. W. D. Hanson-Heine,  P. H. P. Harbach,  
 A. W. Hauser,  M. F. Herbst,  M. Hernandez Vera,  M. Hodecker,  
 Z. C. Holden,  S. Houck,  Xunkun Huang,  Kerwin Hui,  B. C. Huynh,  
 M. Ivanov,  Hyunjun Ji,  Hanjie Jiang,  B. Kaduk,  S. Kaehler,  
 K. Khistyaev,  Jaehoon Kim,  P. Klunzinger,  Z. Koczor-Benda,  
 Joong Hoon Koh,  D. Kosenkov,  L. Koulias,  T. Kowalczyk,  C. M. Krauter,  
 K. Kue,  A. Kunitsa,  T. Kus,  A. Landau,  K. V. Lawler,  D. Lefrancois,  
 S. Lehtola,  Rain Li,  Yi-Pei Li,  Jiashu Liang,  M. Liebenthal,  
 Hung-Hsuan Lin,  You-Sheng Lin,  Fenglai Liu,  Kuan-Yu Liu,  
 M. Loipersberger,  A. Luenser,  A. Manjanath,  P. Manohar,  E. Mansoor,  
 S. F. Manzer,  Shan-Ping Mao,  A. V. Marenich,  T. Markovich,  S. Mason,  
 S. A. Maurer,  P. F. McLaughlin,  M. F. S. J. Menger,  J.-M. Mewes,  
 S. A. Mewes,  P. Morgante,  J. W. Mullinax,  T. S. Nguyen-Beck,  
 K. J. Oosterbaan,  G. Paran,  Alexander C. Paul,  Suranjan K. Paul,  
 F. Pavosevic,  Zheng Pei,  S. Prager,  E. I. Proynov,  E. Ramos,  B. Rana,  
 A. E. Rask,  A. Rettig,  R. M. Richard,  F. Rob,  E. Rossomme,  T. Scheele,  
 M. Scheurer,  M. Schneider,  N. Sergueev,  S. M. Sharada,  W. Skomorowski,  
 D. W. Small,  C. J. Stein,  Yu-Chuan Su,  E. J. Sundstrom,  Zhen Tao,  
 J. Thirman,  T. Tsuchimochi,  N. M. Tubman,  S. P. Veccham,  O. Vydrov,  
 J. Wenzel,  J. Witte,  A. Yamada,  Kun Yao,  S. Yeganeh,  S. R. Yost,  
 A. Zech,  Igor Ying Zhang,  Xing Zhang,  Yu Zhang,  D. Zuev,  
 A. Aspuru-Guzik,  A. T. Bell,  N. A. Besley,  K. B. Bravaya,  B. R. Brooks,  
 D. Casanova,  Jeng-Da Chai,  S. Coriani,  C. J. Cramer,  
 A. E. DePrince, III,  R. A. DiStasio Jr.,  A. Dreuw,  B. D. Dunietz,  
 T. R. Furlani,  W. A. Goddard III,  S. Grimme,  S. Hammes-Schiffer,  
 T. Head-Gordon,  W. J. Hehre,  Chao-Ping Hsu,  T.-C. Jagau,  Yousung Jung,  
 A. Klamt,  Jing Kong,  D. S. Lambrecht,  WanZhen Liang,  N. J. Mayhall,  
 C. W. McCurdy,  J. B. Neaton,  C. Ochsenfeld,  J. A. Parkhill,  R. Peverati,  
 V. A. Rassolov,  Yihan Shao,  L. V. Slipchenko,  T. Stauch,  R. P. Steele,  
 J. E. Subotnik,  A. J. W. Thom,  A. Tkatchenko,  D. G. Truhlar,  
 T. Van Voorhis,  T. A. Wesolowski,  K. B. Whaley,  H. L. Woodcock III,  
 P. M. Zimmerman,  S. Faraji,  P. M. W. Gill,  M. Head-Gordon,  
 J. M. Herbert,  A. I. Krylov

 Contributors to earlier versions of Q-Chem not listed above: 
 R. D. Adamson,  B. Austin,  R. Baer,  J. Baker,  G. J. O. Beran,  
 K. Brandhorst,  S. T. Brown,  E. F. C. Byrd,  A. K. Chakraborty,  
 G. K. L. Chan,  Chun-Min Chang,  Yunqing Chen,  C.-L. Cheng,  
 Siu Hung Chien,  D. M. Chipman,  D. L. Crittenden,  H. Dachsel,  
 R. J. Doerksen,  A. D. Dutoi,  R. G. Edgar,  J. Fosso-Tande,  
 L. Fusti-Molnar,  D. Ghosh,  A. Ghysels,  A. Golubeva-Zadorozhnaya,  
 J. Gonthier,  M. S. Gordon,  S. R. Gwaltney,  G. Hawkins,  J. E. Herr,  
 A. Heyden,  S. Hirata,  E. G. Hohenstein,  G. Kedziora,  F. J. Keil,  
 C. Kelley,  Jihan Kim,  R. A. King,  R. Z. Khaliullin,  P. P. Korambath,  
 W. Kurlancheek,  A. Laurent,  A. M. Lee,  M. S. Lee,  S. V. Levchenko,  
 Ching Yeh Lin,  D. Liotard,  E. Livshits,  R. C. Lochan,  I. Lotan,  
 L. A. Martinez-Martinez,  P. E. Maslen,  N. Nair,  D. P. O'Neill,  
 D. Neuhauser,  E. Neuscamman,  C. M. Oana,  R. Olivares-Amaya,  R. Olson,  
 T. M. Perrine,  B. Peters,  P. A. Pieniazek,  A. Prociuk,  Y. M. Rhee,  
 J. Ritchie,  M. A. Rohrdanz,  E. Rosta,  N. J. Russ,  H. F. Schaefer III,  
 M. W. Schmidt,  N. E. Schultz,  S. Sharma,  N. Shenvi,  C. D. Sherrill,  
 A. C. Simmonett,  A. Sodt,  T. Stein,  D. Stuck,  K. S. Thanthiriwatte,  
 V. Vanovschi,  L. Vogt,  Tao Wang,  A. Warshel,  M. A. Watson,  
 C. F. Williams,  Q. Wu,  X. Xu,  Jun Yang,  W. Zhang,  Yan Zhao

 Please cite Q-Chem as follows:
 Y. Shao et al., Mol. Phys. 113, 184-215 (2015)
 DOI: 10.1080/00268976.2014.952696

 Q-Chem 5.4.0 for Intel X86 EM64T Linux

 Parts of Q-Chem use Armadillo 9.800.1 (Horizon Scraper).
 http://arma.sourceforge.net/

 Q-Chem begins on Sat Jul  9 07:38:55 2022  

 Host: 
0

     Scratch files written to ./qchem3479181//
 May1621 |scratch|qcdevops|jenkins|workspace|build_RNUM    
 Processing $rem in /cm/shared/apps/spack/cpu/opt/spack/linux-centos8-zen2/gcc-10.2.0/qchem-5.4-akfmr7b3t57bfs6qan3padb2wnb2i7cl/config/preferences:
 Processing $rem in /home/theleonzhang/.qchemrc:
 Symmetry turned off for PCM/SM12/SMD calculation
 Core orbitals will be frozen

 Checking the input file for inconsistencies... 	...done.

--------------------------------------------------------------
User input:
--------------------------------------------------------------
$molecule
0 1
C	0.265779	-3.866725	-0.728138
C	-0.209225	-3.703963	0.575726
C	-0.364875	-2.357056	1.002290
H	-0.445176	-4.561092	1.224486
C	0.000000	-1.440664	0.000000
S	0.528236	-2.286957	-1.451343
C	-0.862808	-1.978743	2.369683
H	-1.083368	-2.878678	2.975883
H	-1.793522	-1.376015	2.317142
H	-0.116375	-1.375728	2.927787
H	0.471251	-4.783437	-1.291990
C	0.000000	0.000000	0.000000
C	0.000033	0.863600	1.099446
C	0.000052	2.247508	0.776721
H	0.000026	0.494801	2.136088
C	0.000074	2.468165	-0.612546
S	0.000024	0.942399	-1.486809
C	0.000075	3.335257	1.814609
H	0.000074	2.909620	2.836676
H	-0.892314	3.989552	1.726239
H	0.892483	3.989525	1.726228
H	0.000094	3.417382	-1.161575
$end

$rem
JOBTYPE		SP
EXCHANGE	HF
CORRELATION	pRIMP2
BASIS		cc-pvtz
METHOD		rimp2
AUX_BASIS	rimp2-cc-pvtz
SOLVENT_METHOD	PCM
PURECART	11111
SYMMETRY	false
MEM_TOTAL	110000
SCF_CONVERGENCE = 6
THRESH=10
$end



$solvent
dielectric 4.90
$end
--------------------------------------------------------------
 ----------------------------------------------------------------
             Standard Nuclear Orientation (Angstroms)
    I     Atom           X                Y                Z
 ----------------------------------------------------------------
    1      C       0.2657790000    -3.8667250000    -0.7281380000
    2      C      -0.2092250000    -3.7039630000     0.5757260000
    3      C      -0.3648750000    -2.3570560000     1.0022900000
    4      H      -0.4451760000    -4.5610920000     1.2244860000
    5      C       0.0000000000    -1.4406640000     0.0000000000
    6      S       0.5282360000    -2.2869570000    -1.4513430000
    7      C      -0.8628080000    -1.9787430000     2.3696830000
    8      H      -1.0833680000    -2.8786780000     2.9758830000
    9      H      -1.7935220000    -1.3760150000     2.3171420000
   10      H      -0.1163750000    -1.3757280000     2.9277870000
   11      H       0.4712510000    -4.7834370000    -1.2919900000
   12      C       0.0000000000     0.0000000000     0.0000000000
   13      C       0.0000330000     0.8636000000     1.0994460000
   14      C       0.0000520000     2.2475080000     0.7767210000
   15      H       0.0000260000     0.4948010000     2.1360880000
   16      C       0.0000740000     2.4681650000    -0.6125460000
   17      S       0.0000240000     0.9423990000    -1.4868090000
   18      C       0.0000750000     3.3352570000     1.8146090000
   19      H       0.0000740000     2.9096200000     2.8366760000
   20      H      -0.8923140000     3.9895520000     1.7262390000
   21      H       0.8924830000     3.9895250000     1.7262280000
   22      H       0.0000940000     3.4173820000    -1.1615750000
 ----------------------------------------------------------------
 Nuclear Repulsion Energy =         836.72026051 hartrees
 There are       51 alpha and       51 beta electrons

 Q-Chem warning in module forms1/BasisType.C, line 2236:

 You are not using the predefined 5D/6D in this basis set.

 Requested basis set is cc-pVTZ
 There are 184 shells and 508 basis functions

 Total QAlloc Memory Limit 110000 MB
 Mega-Array Size       188 MB
 MEM_STATIC part       192 MB
 Discretize the solute cavity surface with Lebedev spheres
	Using 110 Lebedev grid points for each H atom
	Using 194 Lebedev grid points for other atoms
	Atomic van der Waals radii will be scaled by 1.20
 Remove points where switching function is < 1.0e-08
 Keep 1519 surface tesserae and discard 1909 interior tesserae
 Molecular Surface Area = 231.391 Angst**2
 Requested basis set is rimp2-cc-pVTZ
 There are 394 shells and 1354 basis functions
 A cutoff of  1.0D-10 yielded  12342 shell pairs
 There are     91518 function pairs (    118027 Cartesian)
 Smallest overlap matrix eigenvalue = 4.84E-05

 Scale SEOQF with 1.000000e-01/1.000000e-01/1.000000e-01

 Standard Electronic Orientation quadrupole field applied
 Nucleus-field energy     =     0.0000000218 hartrees
 Guess from superposition of atomic densities
 Warning:  Energy on first SCF cycle will be non-variational
 SAD guess density has 102.000000 electrons

 -----------------------------------------------------------------------
  General SCF calculation program by
  Eric Jon Sundstrom, Paul Horn, Yuezhi Mao, Dmitri Zuev, Alec White,
  David Stuck, Shaama M.S., Shane Yost, Joonho Lee, David Small,
  Daniel Levine, Susi Lehtola, Hugh Burton, Evgeny Epifanovsky,
  Bang C. Huynh
 -----------------------------------------------------------------------
 Hartree-Fock
 A restricted SCF calculation will be
 performed using DIIS
 SCF converges when DIIS error is below 1.0e-06
 ---------------------------------------
  Cycle       Energy         DIIS error
 ---------------------------------------
    1   -1184.2454662129      2.38e-02  
    2   -1179.5455050492      1.61e-03  
    3   -1179.6666904588      6.26e-04  
    4   -1179.6806752823      3.43e-04  
    5   -1179.6856062707      6.37e-05  
    6   -1179.6858710239      2.93e-05  
    7   -1179.6859499724      1.19e-05  
    8   -1179.6859741407      5.18e-06  
    9   -1179.6859783905      1.56e-06  
   10   -1179.6859788124      5.27e-07  Convergence criterion met
 ---------------------------------------
 SCF time:   CPU 490.17s  wall 492.00s 

************** Final PCM Free Energy Summary **************
 G_electrostatic  =      -0.00863461 hartree =      -5.41830057 kcal/mol
 G_cavitation     =       0.00000000 hartree =       0.00000000 kcal/mol
 G_dispersion     =       0.00000000 hartree =       0.00000000 kcal/mol
 G_repulsion      =       0.00000000 hartree =       0.00000000 kcal/mol
 --------------------------------------------------
 Non-electrostatic Free Energy =       0.00000000 hartree =       0.00000000 kcal/mol
 Total                         =      -0.00863461 hartree =      -5.41830057 kcal/mol
 --------------------------------------------------
 SCF Energy (H0 + V/2)                       =   -1179.68597881 
 Solute Internal Energy (H0)                 =   -1179.67734420 
 Total Free Energy (H0 + V/2 + non-elec)     =   -1179.68597881 hartree
                                             = -740264.12451071 kcal/mol
***********************************************************

 SCF   energy in the final basis set =    -1179.6859788124
 Total energy in the final basis set =    -1179.6859788124


 --------------------------------------------------------------
  Generalized many-body perturbation theory program
  by Joonho Lee, Fazle Rob, Xintian Feng, Evgeny Epifanovsky

 No regularization used 
 (reg. param. = 0.0000e+00)
  (P|Q)^-1/2 Time:  CPU 2.06 s  wall 2.07 s

 In RI-MP2 calculation: 
 # of frozen core orbitals: 20

 Components of the RIMP2 correlation energy:
        aaaa    correlation energy =        -0.2529079638 a.u.
        abab    correlation energy =        -1.4739274654 a.u.
        bbbb    correlation energy =        -0.2529079638 a.u.
        non-Brillouin singles      =        -0.0000000000 a.u.
        total same-spin energy     =        -0.5058159276 a.u.
        total opposite-spin energy =        -1.4739274654 a.u.

 Total  RIMP2   correlation energy =        -1.9797433930 a.u.
        RIMP2         total energy =     -1181.6657222055 a.u.

 RI-MP2 Energy Time:  CPU 97.69 s  wall 98.07 s
 
 --------------------------------------------------------------
 
                    Orbital Energies (a.u.)
 --------------------------------------------------------------
 
 Alpha MOs
 -- Occupied --
-91.9861 -91.9854 -11.2837 -11.2783 -11.2729 -11.2637 -11.2543 -11.2522
-11.2441 -11.2399 -11.2315 -11.2294  -8.9858  -8.9853  -6.6667  -6.6663
 -6.6662  -6.6657  -6.6655  -6.6651  -1.1814  -1.1504  -1.0419  -1.0274
 -0.9960  -0.9565  -0.9144  -0.8945  -0.8034  -0.7567  -0.7276  -0.7003
 -0.6625  -0.6144  -0.5900  -0.5820  -0.5702  -0.5640  -0.5523  -0.5395
 -0.5299  -0.5233  -0.5049  -0.4908  -0.4891  -0.4765  -0.4525  -0.3678
 -0.3465  -0.3384  -0.2708
 -- Virtual --
  0.0629   0.1342   0.1422   0.1503   0.1610   0.1728   0.1798   0.1859
  0.1994   0.2018   0.2064   0.2193   0.2346   0.2371   0.2406   0.2640
  0.2768   0.2837   0.2995   0.3168   0.3243   0.3580   0.3719   0.3782
  0.3841   0.3873   0.3913   0.3993   0.4058   0.4186   0.4330   0.4407
  0.4573   0.4662   0.4730   0.4794   0.4875   0.4890   0.5089   0.5118
  0.5148   0.5214   0.5307   0.5343   0.5409   0.5532   0.5566   0.5707
  0.5819   0.5849   0.5923   0.5948   0.6032   0.6112   0.6142   0.6198
  0.6267   0.6330   0.6387   0.6427   0.6481   0.6569   0.6743   0.6796
  0.6832   0.6905   0.6982   0.7164   0.7205   0.7372   0.7558   0.7565
  0.7675   0.7770   0.7919   0.8018   0.8088   0.8275   0.8377   0.8523
  0.8614   0.8710   0.8815   0.8990   0.9066   0.9230   0.9387   0.9483
  0.9613   0.9629   0.9806   0.9889   1.0019   1.0248   1.0329   1.0457
  1.0502   1.0592   1.0649   1.0751   1.0799   1.0830   1.0912   1.0971
  1.1046   1.1162   1.1218   1.1558   1.1569   1.1680   1.1830   1.1941
  1.2145   1.2168   1.2227   1.2363   1.2464   1.2548   1.2570   1.2647
  1.2768   1.2883   1.3086   1.3169   1.3332   1.3369   1.3497   1.3662
  1.3777   1.3858   1.3974   1.4151   1.4209   1.4414   1.4480   1.4635
  1.4773   1.4868   1.5091   1.5193   1.5233   1.5383   1.5428   1.5522
  1.5555   1.5686   1.5781   1.5812   1.5932   1.6007   1.6150   1.6327
  1.6489   1.6707   1.6814   1.6857   1.7002   1.7156   1.7220   1.7366
  1.7499   1.7600   1.7845   1.7988   1.8130   1.8305   1.8570   1.8588
  1.8738   1.8902   1.8937   1.9222   1.9423   1.9557   1.9711   1.9864
  2.0122   2.0459   2.0707   2.1006   2.1276   2.1409   2.1545   2.1690
  2.1975   2.2062   2.2213   2.2293   2.2392   2.2566   2.2679   2.2739
  2.2757   2.2950   2.3189   2.3834   2.4123   2.4309   2.4455   2.4613
  2.4861   2.4956   2.4998   2.5174   2.5446   2.5683   2.5970   2.5982
  2.6318   2.6409   2.6615   2.6737   2.6936   2.7106   2.7177   2.7309
  2.7417   2.7495   2.7531   2.7626   2.7687   2.7714   2.8004   2.8108
  2.8160   2.8474   2.8545   2.8611   2.8782   2.8943   2.9115   2.9253
  2.9383   2.9563   2.9916   2.9936   3.0020   3.0206   3.0320   3.0412
  3.0453   3.0727   3.0811   3.1024   3.1115   3.1246   3.1334   3.1449
  3.1515   3.1545   3.1588   3.1786   3.1880   3.2026   3.2078   3.2276
  3.2342   3.2464   3.2547   3.2691   3.2865   3.2922   3.2976   3.2995
  3.3104   3.3242   3.3312   3.3456   3.3521   3.3624   3.3713   3.3810
  3.3840   3.3966   3.4004   3.4109   3.4227   3.4298   3.4348   3.4405
  3.4492   3.4530   3.4688   3.4863   3.4883   3.5000   3.5108   3.5221
  3.5297   3.5331   3.5404   3.5414   3.5576   3.5651   3.5701   3.5919
  3.5967   3.6133   3.6192   3.6252   3.6337   3.6467   3.6592   3.6631
  3.6823   3.6836   3.6983   3.7052   3.7091   3.7152   3.7394   3.7520
  3.7708   3.7740   3.7798   3.7915   3.8010   3.8169   3.8252   3.8449
  3.8633   3.8834   3.8949   3.9116   3.9216   3.9347   3.9423   3.9725
  3.9882   3.9946   4.0029   4.0075   4.0182   4.0282   4.0406   4.0534
  4.0625   4.0839   4.0953   4.0986   4.1309   4.1349   4.1409   4.1554
  4.1593   4.1764   4.1955   4.2035   4.2081   4.2122   4.2202   4.2422
  4.2500   4.2639   4.2781   4.2834   4.3050   4.3224   4.3443   4.3493
  4.3569   4.3676   4.3769   4.4006   4.4042   4.4190   4.4204   4.4288
  4.4319   4.4653   4.4678   4.4838   4.5046   4.5301   4.5595   4.5713
  4.5891   4.6086   4.6133   4.6184   4.6381   4.6424   4.6536   4.6881
  4.6981   4.7247   4.7568   4.7709   4.7782   4.8038   4.8398   4.8544
  4.8742   4.8918   4.9056   4.9559   4.9890   4.9968   5.0276   5.0552
  5.0944   5.1078   5.1133   5.1433   5.1810   5.1994   5.2019   5.2731
  5.2801   5.2977   5.3078   5.3211   5.3518   5.3749   5.3809   5.4004
  5.4093   5.4446   5.4665   5.4964   5.5214   5.5241   5.5471   5.5684
  5.5775   5.6017   5.6212   5.6291   5.6353   5.7013   5.7053   5.7499
  5.7813   5.8364   5.9126   5.9811   6.0691   6.1340   6.2208   6.2262
  6.2628   6.2708   6.2923   6.3440   6.3658   6.4690   6.6049   8.8061
 10.1767  11.5582  12.0805  12.8499  13.1479  13.7554  14.1745  14.3002
 14.6118
 --------------------------------------------------------------
 
          Ground-State Mulliken Net Atomic Charges

     Atom                 Charge (a.u.)
  ----------------------------------------
      1 C                    -0.213394
      2 C                    -0.253882
      3 C                     0.070839
      4 H                     0.184170
      5 C                    -0.048198
      6 S                     0.010381
      7 C                    -0.310727
      8 H                     0.116928
      9 H                     0.118257
     10 H                     0.106568
     11 H                     0.207170
     12 C                     0.027449
     13 C                    -0.240781
     14 C                     0.022421
     15 H                     0.195275
     16 C                    -0.249823
     17 S                     0.010699
     18 C                    -0.272071
     19 H                     0.101603
     20 H                     0.108717
     21 H                     0.108907
     22 H                     0.199492
  ----------------------------------------
  Sum of atomic charges =     0.000000

 -----------------------------------------------------------------
                    Cartesian Multipole Moments
 -----------------------------------------------------------------
    Charge (ESU x 10^10)
                -0.0000
    Dipole Moment (Debye)
         X      -0.5152      Y       0.1218      Z       2.8435
       Tot       2.8923
    Quadrupole Moments (Debye-Ang)
        XX     -91.9886     XY       0.7312     YY     -68.2284
        XZ      -2.1629     YZ      -1.0060     ZZ     -80.8467
    Octopole Moments (Debye-Ang^2)
       XXX       2.0096    XXY      45.4533    XYY       1.8336
       YYY      92.3260    XXZ      -2.7552    XYZ       8.1172
       YYZ      -8.6465    XZZ      -0.0673    YZZ      37.4905
       ZZZ      -0.6001
    Hexadecapole Moments (Debye-Ang^3)
      XXXX    -195.0542   XXXY       1.8741   XXYY    -568.4822
      XYYY     -11.6624   YYYY   -2573.6673   XXXZ      92.0526
      XXYZ     -32.5829   XYYZ      -3.5323   YYYZ     -77.8408
      XXZZ    -210.9598   XYZZ       2.4988   YYZZ    -601.8417
      XZZZ      84.9912   YZZZ    -106.7784   ZZZZ   -1016.1444
 -----------------------------------------------------------------
 Total job time:  592.42s(wall), 588.76s(cpu) 
 Sat Jul  9 07:48:47 2022

        *************************************************************
        *                                                           *
        *  Thank you very much for using Q-Chem.  Have a nice day.  *
        *                                                           *
        *************************************************************


remove work dirs ./qchem3479181.0 -- ./qchem3479181.-1
rm -rf ./qchem3479181
