You are running Q-Chem version: 5.4.0

#
# job setting
#
local host:  exp-1-52
current dir: /expanse/lustre/scratch/theleonzhang/temp_project/Interring_Bonds
input file:  Methylthiophene_Phi_25_Theta_220_Methylthiophene.qcin
output file: 
nprocs     : 0
nthreads   : 1
#
# qchem installation setting
#
QC:          /cm/shared/apps/spack/cpu/opt/spack/linux-centos8-zen2/gcc-10.2.0/qchem-5.4-akfmr7b3t57bfs6qan3padb2wnb2i7cl
QCAUX:       /cm/shared/apps/spack/cpu/opt/spack/linux-centos8-zen2/gcc-10.2.0/qchem-5.4-akfmr7b3t57bfs6qan3padb2wnb2i7cl/qcaux
QCPROG:      /cm/shared/apps/spack/cpu/opt/spack/linux-centos8-zen2/gcc-10.2.0/qchem-5.4-akfmr7b3t57bfs6qan3padb2wnb2i7cl/exe/qcprog.exe_s
QCPROG_S:    /cm/shared/apps/spack/cpu/opt/spack/linux-centos8-zen2/gcc-10.2.0/qchem-5.4-akfmr7b3t57bfs6qan3padb2wnb2i7cl/exe/qcprog.exe_s
PARALLEL:    -DSERIAL
QCMPI:       mpich
#
# qchem directory setting
#
qcrun:       qchem2518242
QCSCRATCH:   .
QCLOCALSCR:  
QCTMPDIR:    .
QCFILEPREF:  ./qchem2518242
QCSAVEDIR:   
workdirs:    ./qchem2518242
workdir0:    ./qchem2518242
partmpdirs =  
#
# parallel setting
#
QCRSH:           ssh
QCMPI:           mpich
QCMPIRUN:        /cm/shared/apps/spack/cpu/opt/spack/linux-centos8-zen2/gcc-10.2.0/qchem-5.4-akfmr7b3t57bfs6qan3padb2wnb2i7cl/bin/mpi/mpirun_qchem
QCMACHINEFILE:   ./qchem2518242/hostfile

#
# env setting
#
exported envs:   QC QCAUX QCSCRATCH QCRUNNAME QCFILEPREF QCPROG QCPROG_S GUIFILE

Running Job 1 of 1 Methylthiophene_Phi_25_Theta_220_Methylthiophene.qcin
qchem Methylthiophene_Phi_25_Theta_220_Methylthiophene.qcin_2518242.0 ./qchem2518242/ 0
/cm/shared/apps/spack/cpu/opt/spack/linux-centos8-zen2/gcc-10.2.0/qchem-5.4-akfmr7b3t57bfs6qan3padb2wnb2i7cl/exe/qcprog.exe_s Methylthiophene_Phi_25_Theta_220_Methylthiophene.qcin_2518242.0 ./qchem2518242/
                  Welcome to Q-Chem
     A Quantum Leap Into The Future Of Chemistry


 Q-Chem 5.4, Q-Chem, Inc., Pleasanton, CA (2021)

 License issued to: University of California, San Diego (site)

 E. Epifanovsky,  A. T. B. Gilbert,  Xintian Feng,  Joonho Lee,  Yuezhi Mao,  
 N. Mardirossian,  P. Pokhilko,  A. White,  M. Wormit,  M. P. Coons,  
 A. L. Dempwolff,  Zhengting Gan,  D. Hait,  P. R. Horn,  L. D. Jacobson,  
 I. Kaliman,  J. Kussmann,  A. W. Lange,  Ka Un Lao,  D. S. Levine,  Jie Liu,  
 S. C. McKenzie,  A. F. Morrison,  K. Nanda,  F. Plasser,  D. R. Rehn,  
 M. L. Vidal,  Zhi-Qiang You,  Ying Zhu,  B. Alam,  B. Albrecht,  
 A. Aldossary,  E. Alguire,  J. H. Andersen,  D. Barton,  K. Begam,  A. Behn,  
 Y. A. Bernard,  E. J. Berquist,  H. Burton,  A. Carreras,  K. Carter-Fenk,  
 R. Chakraborty,  A. D. Chien,  K. D. Closser,  V. Cofer-Shabica,  
 S. Dasgupta,  Jia Deng,  M. de Wergifosse,  M. Diedenhofen,  Hainam Do,  
 S. Ehlert,  Po-Tung Fang,  S. Fatehi,  Qingguo Feng,  J. Gayvert,  
 Qinghui Ge,  G. Gidofalvi,  M. Goldey,  J. Gomes,  C. Gonzalez-Espinoza,  
 S. Gulania,  A. Gunina,  M. W. D. Hanson-Heine,  P. H. P. Harbach,  
 A. W. Hauser,  M. F. Herbst,  M. Hernandez Vera,  M. Hodecker,  
 Z. C. Holden,  S. Houck,  Xunkun Huang,  Kerwin Hui,  B. C. Huynh,  
 M. Ivanov,  Hyunjun Ji,  Hanjie Jiang,  B. Kaduk,  S. Kaehler,  
 K. Khistyaev,  Jaehoon Kim,  P. Klunzinger,  Z. Koczor-Benda,  
 Joong Hoon Koh,  D. Kosenkov,  L. Koulias,  T. Kowalczyk,  C. M. Krauter,  
 K. Kue,  A. Kunitsa,  T. Kus,  A. Landau,  K. V. Lawler,  D. Lefrancois,  
 S. Lehtola,  Rain Li,  Yi-Pei Li,  Jiashu Liang,  M. Liebenthal,  
 Hung-Hsuan Lin,  You-Sheng Lin,  Fenglai Liu,  Kuan-Yu Liu,  
 M. Loipersberger,  A. Luenser,  A. Manjanath,  P. Manohar,  E. Mansoor,  
 S. F. Manzer,  Shan-Ping Mao,  A. V. Marenich,  T. Markovich,  S. Mason,  
 S. A. Maurer,  P. F. McLaughlin,  M. F. S. J. Menger,  J.-M. Mewes,  
 S. A. Mewes,  P. Morgante,  J. W. Mullinax,  T. S. Nguyen-Beck,  
 K. J. Oosterbaan,  G. Paran,  Alexander C. Paul,  Suranjan K. Paul,  
 F. Pavosevic,  Zheng Pei,  S. Prager,  E. I. Proynov,  E. Ramos,  B. Rana,  
 A. E. Rask,  A. Rettig,  R. M. Richard,  F. Rob,  E. Rossomme,  T. Scheele,  
 M. Scheurer,  M. Schneider,  N. Sergueev,  S. M. Sharada,  W. Skomorowski,  
 D. W. Small,  C. J. Stein,  Yu-Chuan Su,  E. J. Sundstrom,  Zhen Tao,  
 J. Thirman,  T. Tsuchimochi,  N. M. Tubman,  S. P. Veccham,  O. Vydrov,  
 J. Wenzel,  J. Witte,  A. Yamada,  Kun Yao,  S. Yeganeh,  S. R. Yost,  
 A. Zech,  Igor Ying Zhang,  Xing Zhang,  Yu Zhang,  D. Zuev,  
 A. Aspuru-Guzik,  A. T. Bell,  N. A. Besley,  K. B. Bravaya,  B. R. Brooks,  
 D. Casanova,  Jeng-Da Chai,  S. Coriani,  C. J. Cramer,  
 A. E. DePrince, III,  R. A. DiStasio Jr.,  A. Dreuw,  B. D. Dunietz,  
 T. R. Furlani,  W. A. Goddard III,  S. Grimme,  S. Hammes-Schiffer,  
 T. Head-Gordon,  W. J. Hehre,  Chao-Ping Hsu,  T.-C. Jagau,  Yousung Jung,  
 A. Klamt,  Jing Kong,  D. S. Lambrecht,  WanZhen Liang,  N. J. Mayhall,  
 C. W. McCurdy,  J. B. Neaton,  C. Ochsenfeld,  J. A. Parkhill,  R. Peverati,  
 V. A. Rassolov,  Yihan Shao,  L. V. Slipchenko,  T. Stauch,  R. P. Steele,  
 J. E. Subotnik,  A. J. W. Thom,  A. Tkatchenko,  D. G. Truhlar,  
 T. Van Voorhis,  T. A. Wesolowski,  K. B. Whaley,  H. L. Woodcock III,  
 P. M. Zimmerman,  S. Faraji,  P. M. W. Gill,  M. Head-Gordon,  
 J. M. Herbert,  A. I. Krylov

 Contributors to earlier versions of Q-Chem not listed above: 
 R. D. Adamson,  B. Austin,  R. Baer,  J. Baker,  G. J. O. Beran,  
 K. Brandhorst,  S. T. Brown,  E. F. C. Byrd,  A. K. Chakraborty,  
 G. K. L. Chan,  Chun-Min Chang,  Yunqing Chen,  C.-L. Cheng,  
 Siu Hung Chien,  D. M. Chipman,  D. L. Crittenden,  H. Dachsel,  
 R. J. Doerksen,  A. D. Dutoi,  R. G. Edgar,  J. Fosso-Tande,  
 L. Fusti-Molnar,  D. Ghosh,  A. Ghysels,  A. Golubeva-Zadorozhnaya,  
 J. Gonthier,  M. S. Gordon,  S. R. Gwaltney,  G. Hawkins,  J. E. Herr,  
 A. Heyden,  S. Hirata,  E. G. Hohenstein,  G. Kedziora,  F. J. Keil,  
 C. Kelley,  Jihan Kim,  R. A. King,  R. Z. Khaliullin,  P. P. Korambath,  
 W. Kurlancheek,  A. Laurent,  A. M. Lee,  M. S. Lee,  S. V. Levchenko,  
 Ching Yeh Lin,  D. Liotard,  E. Livshits,  R. C. Lochan,  I. Lotan,  
 L. A. Martinez-Martinez,  P. E. Maslen,  N. Nair,  D. P. O'Neill,  
 D. Neuhauser,  E. Neuscamman,  C. M. Oana,  R. Olivares-Amaya,  R. Olson,  
 T. M. Perrine,  B. Peters,  P. A. Pieniazek,  A. Prociuk,  Y. M. Rhee,  
 J. Ritchie,  M. A. Rohrdanz,  E. Rosta,  N. J. Russ,  H. F. Schaefer III,  
 M. W. Schmidt,  N. E. Schultz,  S. Sharma,  N. Shenvi,  C. D. Sherrill,  
 A. C. Simmonett,  A. Sodt,  T. Stein,  D. Stuck,  K. S. Thanthiriwatte,  
 V. Vanovschi,  L. Vogt,  Tao Wang,  A. Warshel,  M. A. Watson,  
 C. F. Williams,  Q. Wu,  X. Xu,  Jun Yang,  W. Zhang,  Yan Zhao

 Please cite Q-Chem as follows:
 Y. Shao et al., Mol. Phys. 113, 184-215 (2015)
 DOI: 10.1080/00268976.2014.952696

 Q-Chem 5.4.0 for Intel X86 EM64T Linux

 Parts of Q-Chem use Armadillo 9.800.1 (Horizon Scraper).
 http://arma.sourceforge.net/

 Q-Chem begins on Sat Jul  9 15:30:47 2022  

 Host: 
0

     Scratch files written to ./qchem2518242//
 May1621 |scratch|qcdevops|jenkins|workspace|build_RNUM    
 Processing $rem in /cm/shared/apps/spack/cpu/opt/spack/linux-centos8-zen2/gcc-10.2.0/qchem-5.4-akfmr7b3t57bfs6qan3padb2wnb2i7cl/config/preferences:
 Processing $rem in /home/theleonzhang/.qchemrc:
 Symmetry turned off for PCM/SM12/SMD calculation
 Core orbitals will be frozen

 Checking the input file for inconsistencies... 	...done.

--------------------------------------------------------------
User input:
--------------------------------------------------------------
$molecule
0 1
C	0.498788	-3.866725	-0.593324
C	-0.393517	-3.703963	0.469446
C	-0.685674	-2.357056	0.817050
H	-0.837128	-4.561092	0.998381
C	-0.000000	-1.440664	-0.000000
S	0.992768	-2.286957	-1.183149
C	-1.621254	-1.978743	1.931676
H	-2.035845	-2.878678	2.425882
H	-2.477868	-1.376015	1.563980
H	-1.110719	-1.375728	2.711417
H	0.884718	-4.783437	-1.052896
C	0.000000	0.000000	0.000000
C	0.365003	0.782674	1.099446
C	0.949885	2.036912	0.776721
H	0.209135	0.448431	2.136088
C	1.043159	2.236886	-0.612546
S	0.398297	0.854094	-1.486809
C	1.409609	3.022738	1.814609
H	1.229726	2.636980	2.836676
H	0.877346	3.992870	1.726239
H	2.494910	3.238558	1.726228
H	1.444334	3.097160	-1.161575
$end

$rem
JOBTYPE		SP
EXCHANGE	HF
CORRELATION	pRIMP2
BASIS		cc-pvtz
METHOD		rimp2
AUX_BASIS	rimp2-cc-pvtz
SOLVENT_METHOD	PCM
PURECART	11111
SYMMETRY	false
MEM_TOTAL	110000
SCF_CONVERGENCE = 6
THRESH=10
$end



$solvent
dielectric 4.90
$end
--------------------------------------------------------------
 ----------------------------------------------------------------
             Standard Nuclear Orientation (Angstroms)
    I     Atom           X                Y                Z
 ----------------------------------------------------------------
    1      C       0.4987880000    -3.8667250000    -0.5933240000
    2      C      -0.3935170000    -3.7039630000     0.4694460000
    3      C      -0.6856740000    -2.3570560000     0.8170500000
    4      H      -0.8371280000    -4.5610920000     0.9983810000
    5      C       0.0000000000    -1.4406640000     0.0000000000
    6      S       0.9927680000    -2.2869570000    -1.1831490000
    7      C      -1.6212540000    -1.9787430000     1.9316760000
    8      H      -2.0358450000    -2.8786780000     2.4258820000
    9      H      -2.4778680000    -1.3760150000     1.5639800000
   10      H      -1.1107190000    -1.3757280000     2.7114170000
   11      H       0.8847180000    -4.7834370000    -1.0528960000
   12      C       0.0000000000     0.0000000000     0.0000000000
   13      C       0.3650030000     0.7826740000     1.0994460000
   14      C       0.9498850000     2.0369120000     0.7767210000
   15      H       0.2091350000     0.4484310000     2.1360880000
   16      C       1.0431590000     2.2368860000    -0.6125460000
   17      S       0.3982970000     0.8540940000    -1.4868090000
   18      C       1.4096090000     3.0227380000     1.8146090000
   19      H       1.2297260000     2.6369800000     2.8366760000
   20      H       0.8773460000     3.9928700000     1.7262390000
   21      H       2.4949100000     3.2385580000     1.7262280000
   22      H       1.4443340000     3.0971600000    -1.1615750000
 ----------------------------------------------------------------
 Nuclear Repulsion Energy =         840.00308871 hartrees
 There are       51 alpha and       51 beta electrons

 Q-Chem warning in module forms1/BasisType.C, line 2236:

 You are not using the predefined 5D/6D in this basis set.

 Requested basis set is cc-pVTZ
 There are 184 shells and 508 basis functions

 Total QAlloc Memory Limit 110000 MB
 Mega-Array Size       188 MB
 MEM_STATIC part       192 MB
 Discretize the solute cavity surface with Lebedev spheres
	Using 110 Lebedev grid points for each H atom
	Using 194 Lebedev grid points for other atoms
	Atomic van der Waals radii will be scaled by 1.20
 Remove points where switching function is < 1.0e-08
 Keep 1543 surface tesserae and discard 1885 interior tesserae
 Molecular Surface Area = 232.251 Angst**2
 Requested basis set is rimp2-cc-pVTZ
 There are 394 shells and 1354 basis functions
 A cutoff of  1.0D-10 yielded  12340 shell pairs
 There are     91524 function pairs (    118111 Cartesian)
 Smallest overlap matrix eigenvalue = 7.19E-05

 Scale SEOQF with 1.000000e-01/1.000000e-01/1.000000e-01

 Standard Electronic Orientation quadrupole field applied
 Nucleus-field energy     =     0.0000000254 hartrees
 Guess from superposition of atomic densities
 Warning:  Energy on first SCF cycle will be non-variational
 SAD guess density has 102.000000 electrons

 -----------------------------------------------------------------------
  General SCF calculation program by
  Eric Jon Sundstrom, Paul Horn, Yuezhi Mao, Dmitri Zuev, Alec White,
  David Stuck, Shaama M.S., Shane Yost, Joonho Lee, David Small,
  Daniel Levine, Susi Lehtola, Hugh Burton, Evgeny Epifanovsky,
  Bang C. Huynh
 -----------------------------------------------------------------------
 Hartree-Fock
 A restricted SCF calculation will be
 performed using DIIS
 SCF converges when DIIS error is below 1.0e-06
 ---------------------------------------
  Cycle       Energy         DIIS error
 ---------------------------------------
    1   -1184.2396806769      2.38e-02  
    2   -1179.5349175845      1.60e-03  
    3   -1179.6553352562      6.18e-04  
    4   -1179.6690176748      3.42e-04  
    5   -1179.6739113485      6.52e-05  
    6   -1179.6741867876      3.04e-05  
    7   -1179.6742717003      1.25e-05  
    8   -1179.6742988950      5.24e-06  
    9   -1179.6743036725      1.67e-06  
   10   -1179.6743041256      4.98e-07  Convergence criterion met
 ---------------------------------------
 SCF time:   CPU 484.74s  wall 486.00s 

************** Final PCM Free Energy Summary **************
 G_electrostatic  =      -0.00849578 hartree =      -5.33118484 kcal/mol
 G_cavitation     =       0.00000000 hartree =       0.00000000 kcal/mol
 G_dispersion     =       0.00000000 hartree =       0.00000000 kcal/mol
 G_repulsion      =       0.00000000 hartree =       0.00000000 kcal/mol
 --------------------------------------------------
 Non-electrostatic Free Energy =       0.00000000 hartree =       0.00000000 kcal/mol
 Total                         =      -0.00849578 hartree =      -5.33118484 kcal/mol
 --------------------------------------------------
 SCF Energy (H0 + V/2)                       =   -1179.67430413 
 Solute Internal Energy (H0)                 =   -1179.66580834 
 Total Free Energy (H0 + V/2 + non-elec)     =   -1179.67430413 hartree
                                             = -740256.79853415 kcal/mol
***********************************************************

 SCF   energy in the final basis set =    -1179.6743041256
 Total energy in the final basis set =    -1179.6743041256


 --------------------------------------------------------------
  Generalized many-body perturbation theory program
  by Joonho Lee, Fazle Rob, Xintian Feng, Evgeny Epifanovsky

 No regularization used 
 (reg. param. = 0.0000e+00)
  (P|Q)^-1/2 Time:  CPU 1.70 s  wall 1.71 s

 In RI-MP2 calculation: 
 # of frozen core orbitals: 20

 Components of the RIMP2 correlation energy:
        aaaa    correlation energy =        -0.2531943406 a.u.
        abab    correlation energy =        -1.4756652935 a.u.
        bbbb    correlation energy =        -0.2531943406 a.u.
        non-Brillouin singles      =        -0.0000000000 a.u.
        total same-spin energy     =        -0.5063886811 a.u.
        total opposite-spin energy =        -1.4756652935 a.u.

 Total  RIMP2   correlation energy =        -1.9820539746 a.u.
        RIMP2         total energy =     -1181.6563581002 a.u.

 RI-MP2 Energy Time:  CPU 68.49 s  wall 68.71 s
 
 --------------------------------------------------------------
 
                    Orbital Energies (a.u.)
 --------------------------------------------------------------
 
 Alpha MOs
 -- Occupied --
-91.9865 -91.9839 -11.2787 -11.2766 -11.2688 -11.2676 -11.2531 -11.2480
-11.2460 -11.2415 -11.2299 -11.2292  -8.9862  -8.9837  -6.6671  -6.6665
 -6.6660  -6.6645  -6.6640  -6.6633  -1.1818  -1.1494  -1.0425  -1.0238
 -0.9964  -0.9561  -0.9119  -0.8936  -0.8023  -0.7533  -0.7308  -0.6973
 -0.6606  -0.6153  -0.5873  -0.5805  -0.5700  -0.5651  -0.5521  -0.5369
 -0.5306  -0.5204  -0.5076  -0.4907  -0.4828  -0.4741  -0.4549  -0.3614
 -0.3413  -0.3377  -0.2750
 -- Virtual --
  0.0663   0.1238   0.1413   0.1539   0.1622   0.1728   0.1779   0.1860
  0.1976   0.2002   0.2080   0.2234   0.2308   0.2377   0.2399   0.2445
  0.2622   0.2806   0.2949   0.3192   0.3321   0.3556   0.3570   0.3712
  0.3792   0.3839   0.3921   0.4002   0.4089   0.4112   0.4317   0.4421
  0.4467   0.4481   0.4695   0.4708   0.4761   0.4903   0.4929   0.5027
  0.5107   0.5208   0.5311   0.5364   0.5404   0.5521   0.5610   0.5662
  0.5733   0.5853   0.5874   0.5956   0.6046   0.6082   0.6156   0.6198
  0.6231   0.6318   0.6420   0.6423   0.6447   0.6518   0.6595   0.6731
  0.6883   0.6908   0.6971   0.7139   0.7237   0.7258   0.7413   0.7520
  0.7618   0.7775   0.7892   0.7983   0.8103   0.8199   0.8405   0.8443
  0.8555   0.8636   0.8766   0.9013   0.9105   0.9163   0.9213   0.9419
  0.9463   0.9576   0.9693   0.9984   1.0085   1.0172   1.0272   1.0311
  1.0489   1.0496   1.0627   1.0691   1.0737   1.0845   1.0910   1.1017
  1.1170   1.1242   1.1280   1.1431   1.1528   1.1658   1.1730   1.1900
  1.1954   1.2161   1.2287   1.2316   1.2368   1.2530   1.2619   1.2625
  1.2743   1.2825   1.3002   1.3198   1.3276   1.3390   1.3497   1.3673
  1.3750   1.3838   1.3973   1.4138   1.4172   1.4272   1.4392   1.4659
  1.4765   1.4823   1.5041   1.5095   1.5168   1.5295   1.5367   1.5470
  1.5524   1.5626   1.5697   1.5766   1.5818   1.5924   1.6076   1.6461
  1.6500   1.6670   1.6738   1.6768   1.6899   1.7086   1.7286   1.7315
  1.7444   1.7527   1.7658   1.7855   1.7969   1.8043   1.8415   1.8558
  1.8640   1.8898   1.9118   1.9202   1.9422   1.9602   1.9746   1.9850
  2.0056   2.0316   2.0889   2.1079   2.1235   2.1415   2.1497   2.1702
  2.1822   2.1941   2.2190   2.2265   2.2319   2.2503   2.2650   2.2770
  2.2899   2.2915   2.3078   2.3858   2.4041   2.4110   2.4401   2.4514
  2.4746   2.4886   2.5066   2.5163   2.5421   2.5630   2.5832   2.5851
  2.5991   2.6267   2.6539   2.6702   2.6753   2.6823   2.7200   2.7280
  2.7394   2.7498   2.7524   2.7622   2.7738   2.7799   2.8004   2.8079
  2.8281   2.8347   2.8501   2.8666   2.8883   2.9066   2.9186   2.9207
  2.9423   2.9657   2.9820   2.9934   3.0147   3.0247   3.0287   3.0377
  3.0492   3.0633   3.0989   3.1074   3.1113   3.1221   3.1354   3.1390
  3.1484   3.1561   3.1673   3.1804   3.1869   3.1962   3.2125   3.2200
  3.2350   3.2460   3.2559   3.2749   3.2779   3.2923   3.2972   3.3071
  3.3233   3.3284   3.3331   3.3478   3.3502   3.3658   3.3693   3.3848
  3.3872   3.3967   3.4002   3.4063   3.4133   3.4257   3.4263   3.4426
  3.4474   3.4653   3.4722   3.4788   3.4922   3.5014   3.5163   3.5258
  3.5297   3.5390   3.5403   3.5459   3.5616   3.5700   3.5842   3.5977
  3.6065   3.6134   3.6225   3.6296   3.6407   3.6429   3.6574   3.6598
  3.6731   3.6883   3.6946   3.7030   3.7212   3.7314   3.7407   3.7587
  3.7678   3.7772   3.7830   3.7887   3.8004   3.8185   3.8234   3.8366
  3.8494   3.8747   3.8826   3.8941   3.9142   3.9313   3.9399   3.9491
  3.9589   3.9821   4.0008   4.0092   4.0193   4.0301   4.0373   4.0469
  4.0568   4.0696   4.0911   4.0996   4.1047   4.1367   4.1427   4.1489
  4.1694   4.1802   4.1938   4.1985   4.2111   4.2205   4.2229   4.2262
  4.2517   4.2674   4.2739   4.2821   4.2900   4.2995   4.3239   4.3372
  4.3565   4.3592   4.3597   4.3919   4.4009   4.4026   4.4153   4.4249
  4.4484   4.4611   4.4643   4.4706   4.4899   4.5114   4.5390   4.5584
  4.5776   4.5983   4.6043   4.6161   4.6324   4.6475   4.6531   4.6729
  4.6938   4.7267   4.7441   4.7607   4.7705   4.7891   4.8369   4.8383
  4.8801   4.9006   4.9184   4.9318   4.9649   4.9826   5.0177   5.0579
  5.0910   5.0933   5.1162   5.1357   5.1687   5.1797   5.1976   5.2369
  5.2679   5.2744   5.2940   5.3134   5.3229   5.3676   5.3987   5.4026
  5.4131   5.4546   5.4649   5.4927   5.5198   5.5311   5.5483   5.5547
  5.5584   5.6130   5.6201   5.6243   5.6535   5.6763   5.6996   5.7127
  5.7738   5.8238   5.9105   5.9607   6.0326   6.1056   6.1244   6.2252
  6.2353   6.2396   6.2800   6.2880   6.3291   6.4185   6.5122   8.7463
  9.8458  11.6201  12.1185  12.8886  13.0801  13.7648  13.9719  14.2254
 14.3217
 --------------------------------------------------------------
 
          Ground-State Mulliken Net Atomic Charges

     Atom                 Charge (a.u.)
  ----------------------------------------
      1 C                    -0.225087
      2 C                    -0.246791
      3 C                     0.032180
      4 H                     0.183099
      5 C                    -0.023330
      6 S                     0.020834
      7 C                    -0.293875
      8 H                     0.110067
      9 H                     0.111850
     10 H                     0.105609
     11 H                     0.204283
     12 C                    -0.012823
     13 C                    -0.204914
     14 C                     0.011340
     15 H                     0.193500
     16 C                    -0.222953
     17 S                     0.009517
     18 C                    -0.271122
     19 H                     0.102135
     20 H                     0.108487
     21 H                     0.108356
     22 H                     0.199640
  ----------------------------------------
  Sum of atomic charges =     0.000000

 -----------------------------------------------------------------
                    Cartesian Multipole Moments
 -----------------------------------------------------------------
    Charge (ESU x 10^10)
                -0.0000
    Dipole Moment (Debye)
         X       0.0008      Y       0.5969      Z       2.5771
       Tot       2.6453
    Quadrupole Moments (Debye-Ang)
        XX     -88.0443     XY       5.7039     YY     -71.4612
        XZ      -2.7202     YZ      -0.7780     ZZ     -82.7523
    Octopole Moments (Debye-Ang^2)
       XXX     -85.2141    XXY      52.9124    XYY     -12.2817
       YYY     110.6157    XXZ      -2.6496    XYZ      10.9658
       YYZ      -7.2418    XZZ     -25.3929    YZZ      51.7837
       ZZZ      -0.6414
    Hexadecapole Moments (Debye-Ang^3)
      XXXX    -541.3892   XXXY    -181.8293   XXYY    -545.9294
      XYYY    -171.5035   YYYY   -2465.3165   XXXZ      97.6342
      XXYZ     -33.5356   XYYZ     -23.8395   YYYZ     -73.5385
      XXZZ    -231.9917   XYZZ     -49.7857   YYZZ    -582.9018
      XZZZ      94.1744   YZZZ     -93.5230   ZZZZ    -857.2847
 -----------------------------------------------------------------
 Total job time:  558.06s(wall), 554.06s(cpu) 
 Sat Jul  9 15:40:05 2022

        *************************************************************
        *                                                           *
        *  Thank you very much for using Q-Chem.  Have a nice day.  *
        *                                                           *
        *************************************************************


remove work dirs ./qchem2518242.0 -- ./qchem2518242.-1
rm -rf ./qchem2518242
