You are running Q-Chem version: 5.4.0

#
# job setting
#
local host:  exp-1-39
current dir: /expanse/lustre/scratch/theleonzhang/temp_project/Interring_Bonds
input file:  Methylthiophene_Phi_50_Theta_270_Methylthiophene.qcin
output file: 
nprocs     : 0
nthreads   : 1
#
# qchem installation setting
#
QC:          /cm/shared/apps/spack/cpu/opt/spack/linux-centos8-zen2/gcc-10.2.0/qchem-5.4-akfmr7b3t57bfs6qan3padb2wnb2i7cl
QCAUX:       /cm/shared/apps/spack/cpu/opt/spack/linux-centos8-zen2/gcc-10.2.0/qchem-5.4-akfmr7b3t57bfs6qan3padb2wnb2i7cl/qcaux
QCPROG:      /cm/shared/apps/spack/cpu/opt/spack/linux-centos8-zen2/gcc-10.2.0/qchem-5.4-akfmr7b3t57bfs6qan3padb2wnb2i7cl/exe/qcprog.exe_s
QCPROG_S:    /cm/shared/apps/spack/cpu/opt/spack/linux-centos8-zen2/gcc-10.2.0/qchem-5.4-akfmr7b3t57bfs6qan3padb2wnb2i7cl/exe/qcprog.exe_s
PARALLEL:    -DSERIAL
QCMPI:       mpich
#
# qchem directory setting
#
qcrun:       qchem3154345
QCSCRATCH:   .
QCLOCALSCR:  
QCTMPDIR:    .
QCFILEPREF:  ./qchem3154345
QCSAVEDIR:   
workdirs:    ./qchem3154345
workdir0:    ./qchem3154345
partmpdirs =  
#
# parallel setting
#
QCRSH:           ssh
QCMPI:           mpich
QCMPIRUN:        /cm/shared/apps/spack/cpu/opt/spack/linux-centos8-zen2/gcc-10.2.0/qchem-5.4-akfmr7b3t57bfs6qan3padb2wnb2i7cl/bin/mpi/mpirun_qchem
QCMACHINEFILE:   ./qchem3154345/hostfile

#
# env setting
#
exported envs:   QC QCAUX QCSCRATCH QCRUNNAME QCFILEPREF QCPROG QCPROG_S GUIFILE

Running Job 1 of 1 Methylthiophene_Phi_50_Theta_270_Methylthiophene.qcin
qchem Methylthiophene_Phi_50_Theta_270_Methylthiophene.qcin_3154345.0 ./qchem3154345/ 0
/cm/shared/apps/spack/cpu/opt/spack/linux-centos8-zen2/gcc-10.2.0/qchem-5.4-akfmr7b3t57bfs6qan3padb2wnb2i7cl/exe/qcprog.exe_s Methylthiophene_Phi_50_Theta_270_Methylthiophene.qcin_3154345.0 ./qchem3154345/
                  Welcome to Q-Chem
     A Quantum Leap Into The Future Of Chemistry


 Q-Chem 5.4, Q-Chem, Inc., Pleasanton, CA (2021)

 License issued to: University of California, San Diego (site)

 E. Epifanovsky,  A. T. B. Gilbert,  Xintian Feng,  Joonho Lee,  Yuezhi Mao,  
 N. Mardirossian,  P. Pokhilko,  A. White,  M. Wormit,  M. P. Coons,  
 A. L. Dempwolff,  Zhengting Gan,  D. Hait,  P. R. Horn,  L. D. Jacobson,  
 I. Kaliman,  J. Kussmann,  A. W. Lange,  Ka Un Lao,  D. S. Levine,  Jie Liu,  
 S. C. McKenzie,  A. F. Morrison,  K. Nanda,  F. Plasser,  D. R. Rehn,  
 M. L. Vidal,  Zhi-Qiang You,  Ying Zhu,  B. Alam,  B. Albrecht,  
 A. Aldossary,  E. Alguire,  J. H. Andersen,  D. Barton,  K. Begam,  A. Behn,  
 Y. A. Bernard,  E. J. Berquist,  H. Burton,  A. Carreras,  K. Carter-Fenk,  
 R. Chakraborty,  A. D. Chien,  K. D. Closser,  V. Cofer-Shabica,  
 S. Dasgupta,  Jia Deng,  M. de Wergifosse,  M. Diedenhofen,  Hainam Do,  
 S. Ehlert,  Po-Tung Fang,  S. Fatehi,  Qingguo Feng,  J. Gayvert,  
 Qinghui Ge,  G. Gidofalvi,  M. Goldey,  J. Gomes,  C. Gonzalez-Espinoza,  
 S. Gulania,  A. Gunina,  M. W. D. Hanson-Heine,  P. H. P. Harbach,  
 A. W. Hauser,  M. F. Herbst,  M. Hernandez Vera,  M. Hodecker,  
 Z. C. Holden,  S. Houck,  Xunkun Huang,  Kerwin Hui,  B. C. Huynh,  
 M. Ivanov,  Hyunjun Ji,  Hanjie Jiang,  B. Kaduk,  S. Kaehler,  
 K. Khistyaev,  Jaehoon Kim,  P. Klunzinger,  Z. Koczor-Benda,  
 Joong Hoon Koh,  D. Kosenkov,  L. Koulias,  T. Kowalczyk,  C. M. Krauter,  
 K. Kue,  A. Kunitsa,  T. Kus,  A. Landau,  K. V. Lawler,  D. Lefrancois,  
 S. Lehtola,  Rain Li,  Yi-Pei Li,  Jiashu Liang,  M. Liebenthal,  
 Hung-Hsuan Lin,  You-Sheng Lin,  Fenglai Liu,  Kuan-Yu Liu,  
 M. Loipersberger,  A. Luenser,  A. Manjanath,  P. Manohar,  E. Mansoor,  
 S. F. Manzer,  Shan-Ping Mao,  A. V. Marenich,  T. Markovich,  S. Mason,  
 S. A. Maurer,  P. F. McLaughlin,  M. F. S. J. Menger,  J.-M. Mewes,  
 S. A. Mewes,  P. Morgante,  J. W. Mullinax,  T. S. Nguyen-Beck,  
 K. J. Oosterbaan,  G. Paran,  Alexander C. Paul,  Suranjan K. Paul,  
 F. Pavosevic,  Zheng Pei,  S. Prager,  E. I. Proynov,  E. Ramos,  B. Rana,  
 A. E. Rask,  A. Rettig,  R. M. Richard,  F. Rob,  E. Rossomme,  T. Scheele,  
 M. Scheurer,  M. Schneider,  N. Sergueev,  S. M. Sharada,  W. Skomorowski,  
 D. W. Small,  C. J. Stein,  Yu-Chuan Su,  E. J. Sundstrom,  Zhen Tao,  
 J. Thirman,  T. Tsuchimochi,  N. M. Tubman,  S. P. Veccham,  O. Vydrov,  
 J. Wenzel,  J. Witte,  A. Yamada,  Kun Yao,  S. Yeganeh,  S. R. Yost,  
 A. Zech,  Igor Ying Zhang,  Xing Zhang,  Yu Zhang,  D. Zuev,  
 A. Aspuru-Guzik,  A. T. Bell,  N. A. Besley,  K. B. Bravaya,  B. R. Brooks,  
 D. Casanova,  Jeng-Da Chai,  S. Coriani,  C. J. Cramer,  
 A. E. DePrince, III,  R. A. DiStasio Jr.,  A. Dreuw,  B. D. Dunietz,  
 T. R. Furlani,  W. A. Goddard III,  S. Grimme,  S. Hammes-Schiffer,  
 T. Head-Gordon,  W. J. Hehre,  Chao-Ping Hsu,  T.-C. Jagau,  Yousung Jung,  
 A. Klamt,  Jing Kong,  D. S. Lambrecht,  WanZhen Liang,  N. J. Mayhall,  
 C. W. McCurdy,  J. B. Neaton,  C. Ochsenfeld,  J. A. Parkhill,  R. Peverati,  
 V. A. Rassolov,  Yihan Shao,  L. V. Slipchenko,  T. Stauch,  R. P. Steele,  
 J. E. Subotnik,  A. J. W. Thom,  A. Tkatchenko,  D. G. Truhlar,  
 T. Van Voorhis,  T. A. Wesolowski,  K. B. Whaley,  H. L. Woodcock III,  
 P. M. Zimmerman,  S. Faraji,  P. M. W. Gill,  M. Head-Gordon,  
 J. M. Herbert,  A. I. Krylov

 Contributors to earlier versions of Q-Chem not listed above: 
 R. D. Adamson,  B. Austin,  R. Baer,  J. Baker,  G. J. O. Beran,  
 K. Brandhorst,  S. T. Brown,  E. F. C. Byrd,  A. K. Chakraborty,  
 G. K. L. Chan,  Chun-Min Chang,  Yunqing Chen,  C.-L. Cheng,  
 Siu Hung Chien,  D. M. Chipman,  D. L. Crittenden,  H. Dachsel,  
 R. J. Doerksen,  A. D. Dutoi,  R. G. Edgar,  J. Fosso-Tande,  
 L. Fusti-Molnar,  D. Ghosh,  A. Ghysels,  A. Golubeva-Zadorozhnaya,  
 J. Gonthier,  M. S. Gordon,  S. R. Gwaltney,  G. Hawkins,  J. E. Herr,  
 A. Heyden,  S. Hirata,  E. G. Hohenstein,  G. Kedziora,  F. J. Keil,  
 C. Kelley,  Jihan Kim,  R. A. King,  R. Z. Khaliullin,  P. P. Korambath,  
 W. Kurlancheek,  A. Laurent,  A. M. Lee,  M. S. Lee,  S. V. Levchenko,  
 Ching Yeh Lin,  D. Liotard,  E. Livshits,  R. C. Lochan,  I. Lotan,  
 L. A. Martinez-Martinez,  P. E. Maslen,  N. Nair,  D. P. O'Neill,  
 D. Neuhauser,  E. Neuscamman,  C. M. Oana,  R. Olivares-Amaya,  R. Olson,  
 T. M. Perrine,  B. Peters,  P. A. Pieniazek,  A. Prociuk,  Y. M. Rhee,  
 J. Ritchie,  M. A. Rohrdanz,  E. Rosta,  N. J. Russ,  H. F. Schaefer III,  
 M. W. Schmidt,  N. E. Schultz,  S. Sharma,  N. Shenvi,  C. D. Sherrill,  
 A. C. Simmonett,  A. Sodt,  T. Stein,  D. Stuck,  K. S. Thanthiriwatte,  
 V. Vanovschi,  L. Vogt,  Tao Wang,  A. Warshel,  M. A. Watson,  
 C. F. Williams,  Q. Wu,  X. Xu,  Jun Yang,  W. Zhang,  Yan Zhao

 Please cite Q-Chem as follows:
 Y. Shao et al., Mol. Phys. 113, 184-215 (2015)
 DOI: 10.1080/00268976.2014.952696

 Q-Chem 5.4.0 for Intel X86 EM64T Linux

 Parts of Q-Chem use Armadillo 9.800.1 (Horizon Scraper).
 http://arma.sourceforge.net/

 Q-Chem begins on Sat Jul  9 09:15:09 2022  

 Host: 
0

     Scratch files written to ./qchem3154345//
 May1621 |scratch|qcdevops|jenkins|workspace|build_RNUM    
 Processing $rem in /cm/shared/apps/spack/cpu/opt/spack/linux-centos8-zen2/gcc-10.2.0/qchem-5.4-akfmr7b3t57bfs6qan3padb2wnb2i7cl/config/preferences:
 Processing $rem in /home/theleonzhang/.qchemrc:
 Symmetry turned off for PCM/SM12/SMD calculation
 Core orbitals will be frozen

 Checking the input file for inconsistencies... 	...done.

--------------------------------------------------------------
User input:
--------------------------------------------------------------
$molecule
0 1
C	0.775127	-3.866725	0.000713
C	-0.612565	-3.703963	0.000302
C	-1.066639	-2.357056	-0.000067
H	-1.302900	-4.561092	0.000470
C	0.000000	-1.440664	0.000000
S	1.544483	-2.286957	-0.000009
C	-2.521872	-1.978743	-0.000295
H	-3.166949	-2.878678	-0.000221
H	-2.790821	-1.376015	-0.892850
H	-2.791023	-1.375728	0.892005
H	1.375251	-4.783437	0.000945
C	0.000000	0.000000	0.000000
C	0.661577	0.555087	1.099446
C	1.721724	1.444630	0.776721
H	0.379056	0.318032	2.136088
C	1.890772	1.586449	-0.612546
S	0.721935	0.605744	-1.486809
C	2.555004	2.143805	1.814609
H	2.228946	1.870211	2.836676
H	2.482605	3.247987	1.726239
H	3.629830	1.880735	1.726228
H	2.617927	2.196579	-1.161575
$end

$rem
JOBTYPE		SP
EXCHANGE	HF
CORRELATION	pRIMP2
BASIS		cc-pvtz
METHOD		rimp2
AUX_BASIS	rimp2-cc-pvtz
SOLVENT_METHOD	PCM
PURECART	11111
SYMMETRY	false
MEM_TOTAL	110000
SCF_CONVERGENCE = 6
THRESH=10
$end



$solvent
dielectric 4.90
$end
--------------------------------------------------------------
 ----------------------------------------------------------------
             Standard Nuclear Orientation (Angstroms)
    I     Atom           X                Y                Z
 ----------------------------------------------------------------
    1      C       0.7751270000    -3.8667250000     0.0007130000
    2      C      -0.6125650000    -3.7039630000     0.0003020000
    3      C      -1.0666390000    -2.3570560000    -0.0000670000
    4      H      -1.3029000000    -4.5610920000     0.0004700000
    5      C       0.0000000000    -1.4406640000     0.0000000000
    6      S       1.5444830000    -2.2869570000    -0.0000090000
    7      C      -2.5218720000    -1.9787430000    -0.0002950000
    8      H      -3.1669490000    -2.8786780000    -0.0002210000
    9      H      -2.7908210000    -1.3760150000    -0.8928500000
   10      H      -2.7910230000    -1.3757280000     0.8920050000
   11      H       1.3752510000    -4.7834370000     0.0009450000
   12      C       0.0000000000     0.0000000000     0.0000000000
   13      C       0.6615770000     0.5550870000     1.0994460000
   14      C       1.7217240000     1.4446300000     0.7767210000
   15      H       0.3790560000     0.3180320000     2.1360880000
   16      C       1.8907720000     1.5864490000    -0.6125460000
   17      S       0.7219350000     0.6057440000    -1.4868090000
   18      C       2.5550040000     2.1438050000     1.8146090000
   19      H       2.2289460000     1.8702110000     2.8366760000
   20      H       2.4826050000     3.2479870000     1.7262390000
   21      H       3.6298300000     1.8807350000     1.7262280000
   22      H       2.6179270000     2.1965790000    -1.1615750000
 ----------------------------------------------------------------
 Nuclear Repulsion Energy =         853.05220722 hartrees
 There are       51 alpha and       51 beta electrons

 Q-Chem warning in module forms1/BasisType.C, line 2236:

 You are not using the predefined 5D/6D in this basis set.

 Requested basis set is cc-pVTZ
 There are 184 shells and 508 basis functions

 Total QAlloc Memory Limit 110000 MB
 Mega-Array Size       188 MB
 MEM_STATIC part       192 MB
 Discretize the solute cavity surface with Lebedev spheres
	Using 110 Lebedev grid points for each H atom
	Using 194 Lebedev grid points for other atoms
	Atomic van der Waals radii will be scaled by 1.20
 Remove points where switching function is < 1.0e-08
 Keep 1530 surface tesserae and discard 1898 interior tesserae
 Molecular Surface Area = 233.367 Angst**2
 Requested basis set is rimp2-cc-pVTZ
 There are 394 shells and 1354 basis functions
 A cutoff of  1.0D-10 yielded  12485 shell pairs
 There are     92649 function pairs (    119627 Cartesian)
 Smallest overlap matrix eigenvalue = 6.95E-05

 Scale SEOQF with 1.000000e-01/1.000000e-01/1.000000e-01

 Standard Electronic Orientation quadrupole field applied
 Nucleus-field energy     =     0.0000000322 hartrees
 Guess from superposition of atomic densities
 Warning:  Energy on first SCF cycle will be non-variational
 SAD guess density has 102.000000 electrons

 -----------------------------------------------------------------------
  General SCF calculation program by
  Eric Jon Sundstrom, Paul Horn, Yuezhi Mao, Dmitri Zuev, Alec White,
  David Stuck, Shaama M.S., Shane Yost, Joonho Lee, David Small,
  Daniel Levine, Susi Lehtola, Hugh Burton, Evgeny Epifanovsky,
  Bang C. Huynh
 -----------------------------------------------------------------------
 Hartree-Fock
 A restricted SCF calculation will be
 performed using DIIS
 SCF converges when DIIS error is below 1.0e-06
 ---------------------------------------
  Cycle       Energy         DIIS error
 ---------------------------------------
    1   -1184.2743628270      2.39e-02  
    2   -1179.5002675649      1.58e-03  
    3   -1179.6199300751      5.74e-04  
    4   -1179.6329513279      3.06e-04  
    5   -1179.6369922233      5.95e-05  
    6   -1179.6372668597      2.98e-05  
    7   -1179.6373543800      1.47e-05  
    8   -1179.6373889710      5.48e-06  
    9   -1179.6373951904      2.02e-06  
   10   -1179.6373958035      6.64e-07  Convergence criterion met
 ---------------------------------------
 SCF time:   CPU 493.33s  wall 496.00s 

************** Final PCM Free Energy Summary **************
 G_electrostatic  =      -0.00862137 hartree =      -5.40998904 kcal/mol
 G_cavitation     =       0.00000000 hartree =       0.00000000 kcal/mol
 G_dispersion     =       0.00000000 hartree =       0.00000000 kcal/mol
 G_repulsion      =       0.00000000 hartree =       0.00000000 kcal/mol
 --------------------------------------------------
 Non-electrostatic Free Energy =       0.00000000 hartree =       0.00000000 kcal/mol
 Total                         =      -0.00862137 hartree =      -5.40998904 kcal/mol
 --------------------------------------------------
 SCF Energy (H0 + V/2)                       =   -1179.63739580 
 Solute Internal Energy (H0)                 =   -1179.62877444 
 Total Free Energy (H0 + V/2 + non-elec)     =   -1179.63739580 hartree
                                             = -740233.63821247 kcal/mol
***********************************************************

 SCF   energy in the final basis set =    -1179.6373958035
 Total energy in the final basis set =    -1179.6373958035


 --------------------------------------------------------------
  Generalized many-body perturbation theory program
  by Joonho Lee, Fazle Rob, Xintian Feng, Evgeny Epifanovsky

 No regularization used 
 (reg. param. = 0.0000e+00)
  (P|Q)^-1/2 Time:  CPU 1.67 s  wall 1.68 s

 In RI-MP2 calculation: 
 # of frozen core orbitals: 20

 Components of the RIMP2 correlation energy:
        aaaa    correlation energy =        -0.2542191787 a.u.
        abab    correlation energy =        -1.4803805030 a.u.
        bbbb    correlation energy =        -0.2542191787 a.u.
        non-Brillouin singles      =        -0.0000000000 a.u.
        total same-spin energy     =        -0.5084383575 a.u.
        total opposite-spin energy =        -1.4803805030 a.u.

 Total  RIMP2   correlation energy =        -1.9888188605 a.u.
        RIMP2         total energy =     -1181.6262146640 a.u.

 RI-MP2 Energy Time:  CPU 67.87 s  wall 68.10 s
 
 --------------------------------------------------------------
 
                    Orbital Energies (a.u.)
 --------------------------------------------------------------
 
 Alpha MOs
 -- Occupied --
-91.9827 -91.9763 -11.2827 -11.2695 -11.2664 -11.2583 -11.2571 -11.2526
-11.2431 -11.2367 -11.2303 -11.2262  -8.9830  -8.9766  -6.6638  -6.6631
 -6.6627  -6.6575  -6.6569  -6.6563  -1.1857  -1.1464  -1.0435  -1.0185
 -0.9990  -0.9510  -0.9118  -0.8907  -0.7975  -0.7505  -0.7374  -0.6901
 -0.6576  -0.6199  -0.5847  -0.5796  -0.5692  -0.5686  -0.5492  -0.5337
 -0.5303  -0.5166  -0.5083  -0.4900  -0.4685  -0.4620  -0.4609  -0.3585
 -0.3292  -0.3140  -0.2985
 -- Virtual --
  0.0643   0.1025   0.1401   0.1491   0.1643   0.1721   0.1736   0.1816
  0.1883   0.2012   0.2084   0.2174   0.2272   0.2342   0.2381   0.2478
  0.2576   0.2677   0.2947   0.3087   0.3162   0.3339   0.3498   0.3570
  0.3792   0.3852   0.3916   0.3981   0.4036   0.4161   0.4186   0.4222
  0.4431   0.4506   0.4635   0.4693   0.4811   0.4872   0.4939   0.5016
  0.5038   0.5159   0.5176   0.5330   0.5426   0.5474   0.5613   0.5695
  0.5729   0.5785   0.5925   0.6007   0.6081   0.6136   0.6200   0.6253
  0.6327   0.6368   0.6415   0.6462   0.6488   0.6531   0.6613   0.6650
  0.6751   0.6776   0.6911   0.7145   0.7201   0.7367   0.7430   0.7503
  0.7686   0.7713   0.7972   0.8014   0.8129   0.8307   0.8337   0.8416
  0.8500   0.8558   0.8656   0.8938   0.9056   0.9116   0.9242   0.9470
  0.9584   0.9715   0.9845   0.9925   1.0017   1.0202   1.0279   1.0356
  1.0479   1.0645   1.0676   1.0696   1.0845   1.0864   1.0962   1.1120
  1.1163   1.1365   1.1427   1.1525   1.1546   1.1680   1.1772   1.1973
  1.2119   1.2181   1.2202   1.2389   1.2444   1.2510   1.2641   1.2657
  1.2735   1.2836   1.2965   1.3085   1.3349   1.3513   1.3641   1.3674
  1.3854   1.3933   1.4086   1.4195   1.4274   1.4397   1.4469   1.4624
  1.4704   1.4797   1.5019   1.5055   1.5190   1.5346   1.5430   1.5491
  1.5582   1.5621   1.5669   1.5718   1.5767   1.5943   1.5998   1.6306
  1.6370   1.6551   1.6776   1.6814   1.6999   1.7039   1.7086   1.7259
  1.7504   1.7646   1.7652   1.7744   1.7903   1.8035   1.8407   1.8515
  1.8627   1.8881   1.9159   1.9252   1.9436   1.9501   1.9805   1.9991
  2.0088   2.0200   2.0640   2.0822   2.1012   2.1229   2.1619   2.1740
  2.1833   2.1848   2.1935   2.2230   2.2399   2.2427   2.2680   2.2745
  2.2865   2.3079   2.3420   2.3775   2.4020   2.4078   2.4462   2.4667
  2.4706   2.5055   2.5078   2.5278   2.5461   2.5518   2.5850   2.5983
  2.6167   2.6421   2.6623   2.6717   2.6849   2.7061   2.7132   2.7315
  2.7366   2.7560   2.7652   2.7728   2.7809   2.7886   2.7961   2.8123
  2.8237   2.8294   2.8505   2.8707   2.8863   2.8926   2.9073   2.9403
  2.9513   2.9617   2.9813   2.9919   3.0001   3.0095   3.0254   3.0387
  3.0523   3.0695   3.0860   3.1087   3.1122   3.1221   3.1409   3.1512
  3.1615   3.1686   3.1720   3.1743   3.1839   3.2014   3.2128   3.2225
  3.2432   3.2546   3.2605   3.2632   3.2725   3.2928   3.2951   3.3075
  3.3129   3.3305   3.3343   3.3424   3.3535   3.3585   3.3661   3.3765
  3.3927   3.3928   3.4025   3.4081   3.4180   3.4284   3.4387   3.4462
  3.4502   3.4656   3.4731   3.4855   3.4986   3.5066   3.5185   3.5292
  3.5370   3.5424   3.5511   3.5605   3.5724   3.5794   3.5812   3.5992
  3.6094   3.6122   3.6255   3.6336   3.6468   3.6587   3.6640   3.6725
  3.6855   3.7025   3.7087   3.7148   3.7247   3.7399   3.7522   3.7631
  3.7669   3.7779   3.7826   3.7913   3.8045   3.8177   3.8392   3.8615
  3.8650   3.8796   3.8886   3.8945   3.9194   3.9384   3.9546   3.9650
  3.9760   3.9813   4.0163   4.0178   4.0208   4.0353   4.0437   4.0502
  4.0665   4.0713   4.0826   4.1095   4.1159   4.1265   4.1383   4.1675
  4.1689   4.1802   4.1985   4.2031   4.2093   4.2188   4.2354   4.2418
  4.2558   4.2641   4.2694   4.2894   4.2992   4.3141   4.3244   4.3422
  4.3510   4.3529   4.3552   4.3725   4.3923   4.4012   4.4043   4.4220
  4.4259   4.4437   4.4598   4.4804   4.4985   4.5115   4.5241   4.5470
  4.5859   4.6066   4.6250   4.6309   4.6447   4.6594   4.6624   4.6780
  4.6926   4.7094   4.7449   4.7553   4.7637   4.7862   4.8171   4.8537
  4.8764   4.9007   4.9091   4.9303   4.9542   4.9848   4.9948   5.0606
  5.0753   5.0961   5.1161   5.1417   5.1588   5.1699   5.1881   5.2068
  5.2751   5.2779   5.2979   5.3022   5.3230   5.3690   5.3941   5.4031
  5.4118   5.4446   5.4647   5.4739   5.5178   5.5284   5.5448   5.5558
  5.5647   5.5884   5.6247   5.6287   5.6382   5.6640   5.6997   5.7129
  5.7664   5.8087   5.9035   5.9684   6.0186   6.0303   6.0916   6.2131
  6.2292   6.2318   6.2693   6.2735   6.3264   6.3855   6.5048   8.8054
  9.7365  11.6335  12.4935  12.8078  12.9430  13.7637  13.8755  14.2031
 14.3660
 --------------------------------------------------------------
 
          Ground-State Mulliken Net Atomic Charges

     Atom                 Charge (a.u.)
  ----------------------------------------
      1 C                    -0.217145
      2 C                    -0.252800
      3 C                     0.054101
      4 H                     0.180633
      5 C                    -0.063105
      6 S                     0.013883
      7 C                    -0.283414
      8 H                     0.106197
      9 H                     0.109186
     10 H                     0.107818
     11 H                     0.202634
     12 C                    -0.076819
     13 C                    -0.176896
     14 C                     0.012343
     15 H                     0.185457
     16 C                    -0.191945
     17 S                     0.037927
     18 C                    -0.266866
     19 H                     0.103183
     20 H                     0.107879
     21 H                     0.106977
     22 H                     0.200774
  ----------------------------------------
  Sum of atomic charges =     0.000000

 -----------------------------------------------------------------
                    Cartesian Multipole Moments
 -----------------------------------------------------------------
    Charge (ESU x 10^10)
                -0.0000
    Dipole Moment (Debye)
         X       0.7580      Y       0.7248      Z       1.5625
       Tot       1.8818
    Quadrupole Moments (Debye-Ang)
        XX     -79.3972     XY       8.3230     YY     -76.9564
        XZ       0.5357     YZ       0.6317     ZZ     -86.0162
    Octopole Moments (Debye-Ang^2)
       XXX    -140.2814    XXY      69.8680    XYY     -35.7674
       YYY     155.2531    XXZ      -3.6078    XYZ      -1.9818
       YYZ      -2.8418    XZZ     -45.0938    YZZ      82.5338
       ZZZ       4.6362
    Hexadecapole Moments (Debye-Ang^3)
      XXXX   -1231.2507   XXXY    -197.6648   XXYY    -531.2318
      XYYY    -253.9854   YYYY   -2141.7533   XXXZ     -81.4156
      XXYZ     -28.4015   XYYZ     -31.0697   YYYZ     -65.0104
      XXZZ    -294.3630   XYZZ     -66.2472   YYZZ    -532.3103
      XZZZ     -74.3894   YZZZ     -60.7320   ZZZZ    -523.4363
 -----------------------------------------------------------------
 Total job time:  564.76s(wall), 562.05s(cpu) 
 Sat Jul  9 09:24:34 2022

        *************************************************************
        *                                                           *
        *  Thank you very much for using Q-Chem.  Have a nice day.  *
        *                                                           *
        *************************************************************


remove work dirs ./qchem3154345.0 -- ./qchem3154345.-1
rm -rf ./qchem3154345
