You are running Q-Chem version: 5.4.0

#
# job setting
#
local host:  exp-1-39
current dir: /expanse/lustre/scratch/theleonzhang/temp_project/Interring_Bonds
input file:  Methylthiophene_Phi_50_Theta_240_Methylthiophene.qcin
output file: 
nprocs     : 0
nthreads   : 1
#
# qchem installation setting
#
QC:          /cm/shared/apps/spack/cpu/opt/spack/linux-centos8-zen2/gcc-10.2.0/qchem-5.4-akfmr7b3t57bfs6qan3padb2wnb2i7cl
QCAUX:       /cm/shared/apps/spack/cpu/opt/spack/linux-centos8-zen2/gcc-10.2.0/qchem-5.4-akfmr7b3t57bfs6qan3padb2wnb2i7cl/qcaux
QCPROG:      /cm/shared/apps/spack/cpu/opt/spack/linux-centos8-zen2/gcc-10.2.0/qchem-5.4-akfmr7b3t57bfs6qan3padb2wnb2i7cl/exe/qcprog.exe_s
QCPROG_S:    /cm/shared/apps/spack/cpu/opt/spack/linux-centos8-zen2/gcc-10.2.0/qchem-5.4-akfmr7b3t57bfs6qan3padb2wnb2i7cl/exe/qcprog.exe_s
PARALLEL:    -DSERIAL
QCMPI:       mpich
#
# qchem directory setting
#
qcrun:       qchem3141133
QCSCRATCH:   .
QCLOCALSCR:  
QCTMPDIR:    .
QCFILEPREF:  ./qchem3141133
QCSAVEDIR:   
workdirs:    ./qchem3141133
workdir0:    ./qchem3141133
partmpdirs =  
#
# parallel setting
#
QCRSH:           ssh
QCMPI:           mpich
QCMPIRUN:        /cm/shared/apps/spack/cpu/opt/spack/linux-centos8-zen2/gcc-10.2.0/qchem-5.4-akfmr7b3t57bfs6qan3padb2wnb2i7cl/bin/mpi/mpirun_qchem
QCMACHINEFILE:   ./qchem3141133/hostfile

#
# env setting
#
exported envs:   QC QCAUX QCSCRATCH QCRUNNAME QCFILEPREF QCPROG QCPROG_S GUIFILE

Running Job 1 of 1 Methylthiophene_Phi_50_Theta_240_Methylthiophene.qcin
qchem Methylthiophene_Phi_50_Theta_240_Methylthiophene.qcin_3141133.0 ./qchem3141133/ 0
/cm/shared/apps/spack/cpu/opt/spack/linux-centos8-zen2/gcc-10.2.0/qchem-5.4-akfmr7b3t57bfs6qan3padb2wnb2i7cl/exe/qcprog.exe_s Methylthiophene_Phi_50_Theta_240_Methylthiophene.qcin_3141133.0 ./qchem3141133/
                  Welcome to Q-Chem
     A Quantum Leap Into The Future Of Chemistry


 Q-Chem 5.4, Q-Chem, Inc., Pleasanton, CA (2021)

 License issued to: University of California, San Diego (site)

 E. Epifanovsky,  A. T. B. Gilbert,  Xintian Feng,  Joonho Lee,  Yuezhi Mao,  
 N. Mardirossian,  P. Pokhilko,  A. White,  M. Wormit,  M. P. Coons,  
 A. L. Dempwolff,  Zhengting Gan,  D. Hait,  P. R. Horn,  L. D. Jacobson,  
 I. Kaliman,  J. Kussmann,  A. W. Lange,  Ka Un Lao,  D. S. Levine,  Jie Liu,  
 S. C. McKenzie,  A. F. Morrison,  K. Nanda,  F. Plasser,  D. R. Rehn,  
 M. L. Vidal,  Zhi-Qiang You,  Ying Zhu,  B. Alam,  B. Albrecht,  
 A. Aldossary,  E. Alguire,  J. H. Andersen,  D. Barton,  K. Begam,  A. Behn,  
 Y. A. Bernard,  E. J. Berquist,  H. Burton,  A. Carreras,  K. Carter-Fenk,  
 R. Chakraborty,  A. D. Chien,  K. D. Closser,  V. Cofer-Shabica,  
 S. Dasgupta,  Jia Deng,  M. de Wergifosse,  M. Diedenhofen,  Hainam Do,  
 S. Ehlert,  Po-Tung Fang,  S. Fatehi,  Qingguo Feng,  J. Gayvert,  
 Qinghui Ge,  G. Gidofalvi,  M. Goldey,  J. Gomes,  C. Gonzalez-Espinoza,  
 S. Gulania,  A. Gunina,  M. W. D. Hanson-Heine,  P. H. P. Harbach,  
 A. W. Hauser,  M. F. Herbst,  M. Hernandez Vera,  M. Hodecker,  
 Z. C. Holden,  S. Houck,  Xunkun Huang,  Kerwin Hui,  B. C. Huynh,  
 M. Ivanov,  Hyunjun Ji,  Hanjie Jiang,  B. Kaduk,  S. Kaehler,  
 K. Khistyaev,  Jaehoon Kim,  P. Klunzinger,  Z. Koczor-Benda,  
 Joong Hoon Koh,  D. Kosenkov,  L. Koulias,  T. Kowalczyk,  C. M. Krauter,  
 K. Kue,  A. Kunitsa,  T. Kus,  A. Landau,  K. V. Lawler,  D. Lefrancois,  
 S. Lehtola,  Rain Li,  Yi-Pei Li,  Jiashu Liang,  M. Liebenthal,  
 Hung-Hsuan Lin,  You-Sheng Lin,  Fenglai Liu,  Kuan-Yu Liu,  
 M. Loipersberger,  A. Luenser,  A. Manjanath,  P. Manohar,  E. Mansoor,  
 S. F. Manzer,  Shan-Ping Mao,  A. V. Marenich,  T. Markovich,  S. Mason,  
 S. A. Maurer,  P. F. McLaughlin,  M. F. S. J. Menger,  J.-M. Mewes,  
 S. A. Mewes,  P. Morgante,  J. W. Mullinax,  T. S. Nguyen-Beck,  
 K. J. Oosterbaan,  G. Paran,  Alexander C. Paul,  Suranjan K. Paul,  
 F. Pavosevic,  Zheng Pei,  S. Prager,  E. I. Proynov,  E. Ramos,  B. Rana,  
 A. E. Rask,  A. Rettig,  R. M. Richard,  F. Rob,  E. Rossomme,  T. Scheele,  
 M. Scheurer,  M. Schneider,  N. Sergueev,  S. M. Sharada,  W. Skomorowski,  
 D. W. Small,  C. J. Stein,  Yu-Chuan Su,  E. J. Sundstrom,  Zhen Tao,  
 J. Thirman,  T. Tsuchimochi,  N. M. Tubman,  S. P. Veccham,  O. Vydrov,  
 J. Wenzel,  J. Witte,  A. Yamada,  Kun Yao,  S. Yeganeh,  S. R. Yost,  
 A. Zech,  Igor Ying Zhang,  Xing Zhang,  Yu Zhang,  D. Zuev,  
 A. Aspuru-Guzik,  A. T. Bell,  N. A. Besley,  K. B. Bravaya,  B. R. Brooks,  
 D. Casanova,  Jeng-Da Chai,  S. Coriani,  C. J. Cramer,  
 A. E. DePrince, III,  R. A. DiStasio Jr.,  A. Dreuw,  B. D. Dunietz,  
 T. R. Furlani,  W. A. Goddard III,  S. Grimme,  S. Hammes-Schiffer,  
 T. Head-Gordon,  W. J. Hehre,  Chao-Ping Hsu,  T.-C. Jagau,  Yousung Jung,  
 A. Klamt,  Jing Kong,  D. S. Lambrecht,  WanZhen Liang,  N. J. Mayhall,  
 C. W. McCurdy,  J. B. Neaton,  C. Ochsenfeld,  J. A. Parkhill,  R. Peverati,  
 V. A. Rassolov,  Yihan Shao,  L. V. Slipchenko,  T. Stauch,  R. P. Steele,  
 J. E. Subotnik,  A. J. W. Thom,  A. Tkatchenko,  D. G. Truhlar,  
 T. Van Voorhis,  T. A. Wesolowski,  K. B. Whaley,  H. L. Woodcock III,  
 P. M. Zimmerman,  S. Faraji,  P. M. W. Gill,  M. Head-Gordon,  
 J. M. Herbert,  A. I. Krylov

 Contributors to earlier versions of Q-Chem not listed above: 
 R. D. Adamson,  B. Austin,  R. Baer,  J. Baker,  G. J. O. Beran,  
 K. Brandhorst,  S. T. Brown,  E. F. C. Byrd,  A. K. Chakraborty,  
 G. K. L. Chan,  Chun-Min Chang,  Yunqing Chen,  C.-L. Cheng,  
 Siu Hung Chien,  D. M. Chipman,  D. L. Crittenden,  H. Dachsel,  
 R. J. Doerksen,  A. D. Dutoi,  R. G. Edgar,  J. Fosso-Tande,  
 L. Fusti-Molnar,  D. Ghosh,  A. Ghysels,  A. Golubeva-Zadorozhnaya,  
 J. Gonthier,  M. S. Gordon,  S. R. Gwaltney,  G. Hawkins,  J. E. Herr,  
 A. Heyden,  S. Hirata,  E. G. Hohenstein,  G. Kedziora,  F. J. Keil,  
 C. Kelley,  Jihan Kim,  R. A. King,  R. Z. Khaliullin,  P. P. Korambath,  
 W. Kurlancheek,  A. Laurent,  A. M. Lee,  M. S. Lee,  S. V. Levchenko,  
 Ching Yeh Lin,  D. Liotard,  E. Livshits,  R. C. Lochan,  I. Lotan,  
 L. A. Martinez-Martinez,  P. E. Maslen,  N. Nair,  D. P. O'Neill,  
 D. Neuhauser,  E. Neuscamman,  C. M. Oana,  R. Olivares-Amaya,  R. Olson,  
 T. M. Perrine,  B. Peters,  P. A. Pieniazek,  A. Prociuk,  Y. M. Rhee,  
 J. Ritchie,  M. A. Rohrdanz,  E. Rosta,  N. J. Russ,  H. F. Schaefer III,  
 M. W. Schmidt,  N. E. Schultz,  S. Sharma,  N. Shenvi,  C. D. Sherrill,  
 A. C. Simmonett,  A. Sodt,  T. Stein,  D. Stuck,  K. S. Thanthiriwatte,  
 V. Vanovschi,  L. Vogt,  Tao Wang,  A. Warshel,  M. A. Watson,  
 C. F. Williams,  Q. Wu,  X. Xu,  Jun Yang,  W. Zhang,  Yan Zhao

 Please cite Q-Chem as follows:
 Y. Shao et al., Mol. Phys. 113, 184-215 (2015)
 DOI: 10.1080/00268976.2014.952696

 Q-Chem 5.4.0 for Intel X86 EM64T Linux

 Parts of Q-Chem use Armadillo 9.800.1 (Horizon Scraper).
 http://arma.sourceforge.net/

 Q-Chem begins on Sat Jul  9 08:46:05 2022  

 Host: 
0

     Scratch files written to ./qchem3141133//
 May1621 |scratch|qcdevops|jenkins|workspace|build_RNUM    
 Processing $rem in /cm/shared/apps/spack/cpu/opt/spack/linux-centos8-zen2/gcc-10.2.0/qchem-5.4-akfmr7b3t57bfs6qan3padb2wnb2i7cl/config/preferences:
 Processing $rem in /home/theleonzhang/.qchemrc:
 Symmetry turned off for PCM/SM12/SMD calculation
 Core orbitals will be frozen

 Checking the input file for inconsistencies... 	...done.

--------------------------------------------------------------
User input:
--------------------------------------------------------------
$molecule
0 1
C	0.671636	-3.866725	-0.386946
C	-0.530345	-3.703963	0.306544
C	-0.923770	-2.357056	0.533261
H	-1.128109	-4.561092	0.651857
C	0.000000	-1.440664	0.000000
S	1.337557	-2.286957	-0.772250
C	-2.184153	-1.978743	1.260680
H	-2.742769	-2.878678	1.583283
H	-2.863347	-1.376015	0.622180
H	-1.971094	-1.375728	2.168011
H	1.191474	-4.783437	-0.686807
C	0.000000	0.000000	0.000000
C	0.661577	0.555087	1.099446
C	1.721724	1.444630	0.776721
H	0.379056	0.318032	2.136088
C	1.890772	1.586449	-0.612546
S	0.721935	0.605744	-1.486809
C	2.555004	2.143805	1.814609
H	2.228946	1.870211	2.836676
H	2.482605	3.247987	1.726239
H	3.629830	1.880735	1.726228
H	2.617927	2.196579	-1.161575
$end

$rem
JOBTYPE		SP
EXCHANGE	HF
CORRELATION	pRIMP2
BASIS		cc-pvtz
METHOD		rimp2
AUX_BASIS	rimp2-cc-pvtz
SOLVENT_METHOD	PCM
PURECART	11111
SYMMETRY	false
MEM_TOTAL	110000
SCF_CONVERGENCE = 6
THRESH=10
$end



$solvent
dielectric 4.90
$end
--------------------------------------------------------------
 ----------------------------------------------------------------
             Standard Nuclear Orientation (Angstroms)
    I     Atom           X                Y                Z
 ----------------------------------------------------------------
    1      C       0.6716360000    -3.8667250000    -0.3869460000
    2      C      -0.5303450000    -3.7039630000     0.3065440000
    3      C      -0.9237700000    -2.3570560000     0.5332610000
    4      H      -1.1281090000    -4.5610920000     0.6518570000
    5      C       0.0000000000    -1.4406640000     0.0000000000
    6      S       1.3375570000    -2.2869570000    -0.7722500000
    7      C      -2.1841530000    -1.9787430000     1.2606800000
    8      H      -2.7427690000    -2.8786780000     1.5832830000
    9      H      -2.8633470000    -1.3760150000     0.6221800000
   10      H      -1.9710940000    -1.3757280000     2.1680110000
   11      H       1.1914740000    -4.7834370000    -0.6868070000
   12      C       0.0000000000     0.0000000000     0.0000000000
   13      C       0.6615770000     0.5550870000     1.0994460000
   14      C       1.7217240000     1.4446300000     0.7767210000
   15      H       0.3790560000     0.3180320000     2.1360880000
   16      C       1.8907720000     1.5864490000    -0.6125460000
   17      S       0.7219350000     0.6057440000    -1.4868090000
   18      C       2.5550040000     2.1438050000     1.8146090000
   19      H       2.2289460000     1.8702110000     2.8366760000
   20      H       2.4826050000     3.2479870000     1.7262390000
   21      H       3.6298300000     1.8807350000     1.7262280000
   22      H       2.6179270000     2.1965790000    -1.1615750000
 ----------------------------------------------------------------
 Nuclear Repulsion Energy =         854.25848185 hartrees
 There are       51 alpha and       51 beta electrons

 Q-Chem warning in module forms1/BasisType.C, line 2236:

 You are not using the predefined 5D/6D in this basis set.

 Requested basis set is cc-pVTZ
 There are 184 shells and 508 basis functions

 Total QAlloc Memory Limit 110000 MB
 Mega-Array Size       188 MB
 MEM_STATIC part       192 MB
 Discretize the solute cavity surface with Lebedev spheres
	Using 110 Lebedev grid points for each H atom
	Using 194 Lebedev grid points for other atoms
	Atomic van der Waals radii will be scaled by 1.20
 Remove points where switching function is < 1.0e-08
 Keep 1531 surface tesserae and discard 1897 interior tesserae
 Molecular Surface Area = 232.300 Angst**2
 Requested basis set is rimp2-cc-pVTZ
 There are 394 shells and 1354 basis functions
 A cutoff of  1.0D-10 yielded  12540 shell pairs
 There are     93050 function pairs (    120147 Cartesian)
 Smallest overlap matrix eigenvalue = 7.12E-05

 Scale SEOQF with 1.000000e-01/1.000000e-01/1.000000e-01

 Standard Electronic Orientation quadrupole field applied
 Nucleus-field energy     =     0.0000000280 hartrees
 Guess from superposition of atomic densities
 Warning:  Energy on first SCF cycle will be non-variational
 SAD guess density has 102.000000 electrons

 -----------------------------------------------------------------------
  General SCF calculation program by
  Eric Jon Sundstrom, Paul Horn, Yuezhi Mao, Dmitri Zuev, Alec White,
  David Stuck, Shaama M.S., Shane Yost, Joonho Lee, David Small,
  Daniel Levine, Susi Lehtola, Hugh Burton, Evgeny Epifanovsky,
  Bang C. Huynh
 -----------------------------------------------------------------------
 Hartree-Fock
 A restricted SCF calculation will be
 performed using DIIS
 SCF converges when DIIS error is below 1.0e-06
 ---------------------------------------
  Cycle       Energy         DIIS error
 ---------------------------------------
    1   -1184.2923608650      2.40e-02  
    2   -1179.4969419360      1.59e-03  
    3   -1179.6173653531      5.94e-04  
    4   -1179.6307633071      3.23e-04  
    5   -1179.6352222735      6.36e-05  
    6   -1179.6355099194      3.15e-05  
    7   -1179.6356074049      1.46e-05  
    8   -1179.6356444385      5.70e-06  
    9   -1179.6356513828      2.13e-06  
   10   -1179.6356521062      7.65e-07  Convergence criterion met
 ---------------------------------------
 SCF time:   CPU 495.50s  wall 497.00s 

************** Final PCM Free Energy Summary **************
 G_electrostatic  =      -0.00887921 hartree =      -5.57178695 kcal/mol
 G_cavitation     =       0.00000000 hartree =       0.00000000 kcal/mol
 G_dispersion     =       0.00000000 hartree =       0.00000000 kcal/mol
 G_repulsion      =       0.00000000 hartree =       0.00000000 kcal/mol
 --------------------------------------------------
 Non-electrostatic Free Energy =       0.00000000 hartree =       0.00000000 kcal/mol
 Total                         =      -0.00887921 hartree =      -5.57178695 kcal/mol
 --------------------------------------------------
 SCF Energy (H0 + V/2)                       =   -1179.63565211 
 Solute Internal Energy (H0)                 =   -1179.62677290 
 Total Free Energy (H0 + V/2 + non-elec)     =   -1179.63565211 hartree
                                             = -740232.54402590 kcal/mol
***********************************************************

 SCF   energy in the final basis set =    -1179.6356521062
 Total energy in the final basis set =    -1179.6356521062


 --------------------------------------------------------------
  Generalized many-body perturbation theory program
  by Joonho Lee, Fazle Rob, Xintian Feng, Evgeny Epifanovsky

 No regularization used 
 (reg. param. = 0.0000e+00)
  (P|Q)^-1/2 Time:  CPU 1.67 s  wall 1.67 s

 In RI-MP2 calculation: 
 # of frozen core orbitals: 20

 Components of the RIMP2 correlation energy:
        aaaa    correlation energy =        -0.2546403772 a.u.
        abab    correlation energy =        -1.4808939048 a.u.
        bbbb    correlation energy =        -0.2546403772 a.u.
        non-Brillouin singles      =        -0.0000000000 a.u.
        total same-spin energy     =        -0.5092807545 a.u.
        total opposite-spin energy =        -1.4808939048 a.u.

 Total  RIMP2   correlation energy =        -1.9901746593 a.u.
        RIMP2         total energy =     -1181.6258267655 a.u.

 RI-MP2 Energy Time:  CPU 67.15 s  wall 67.37 s
 
 --------------------------------------------------------------
 
                    Orbital Energies (a.u.)
 --------------------------------------------------------------
 
 Alpha MOs
 -- Occupied --
-91.9848 -91.9772 -11.2836 -11.2733 -11.2621 -11.2605 -11.2595 -11.2538
-11.2384 -11.2364 -11.2309 -11.2257  -8.9852  -8.9773  -6.6660  -6.6652
 -6.6649  -6.6581  -6.6575  -6.6569  -1.1875  -1.1458  -1.0450  -1.0186
 -0.9982  -0.9537  -0.9096  -0.8914  -0.7996  -0.7488  -0.7374  -0.6930
 -0.6562  -0.6192  -0.5870  -0.5793  -0.5686  -0.5668  -0.5495  -0.5348
 -0.5325  -0.5169  -0.5079  -0.4890  -0.4757  -0.4609  -0.4572  -0.3611
 -0.3379  -0.3231  -0.2803
 -- Virtual --
  0.0618   0.1112   0.1401   0.1523   0.1645   0.1710   0.1757   0.1803
  0.1912   0.2009   0.2081   0.2203   0.2291   0.2335   0.2392   0.2442
  0.2559   0.2746   0.2941   0.3139   0.3323   0.3421   0.3480   0.3578
  0.3806   0.3849   0.3893   0.3933   0.3976   0.4168   0.4185   0.4313
  0.4418   0.4456   0.4680   0.4726   0.4768   0.4873   0.4977   0.4993
  0.5094   0.5123   0.5261   0.5349   0.5410   0.5524   0.5600   0.5684
  0.5748   0.5782   0.5939   0.6020   0.6045   0.6079   0.6210   0.6256
  0.6311   0.6341   0.6388   0.6418   0.6478   0.6501   0.6630   0.6687
  0.6765   0.6886   0.7032   0.7105   0.7205   0.7374   0.7432   0.7452
  0.7588   0.7857   0.7965   0.8071   0.8088   0.8246   0.8369   0.8415
  0.8466   0.8611   0.8817   0.8870   0.8969   0.9087   0.9256   0.9391
  0.9542   0.9707   0.9746   0.9994   1.0007   1.0161   1.0303   1.0431
  1.0561   1.0601   1.0674   1.0723   1.0785   1.0866   1.0953   1.1023
  1.1068   1.1239   1.1381   1.1532   1.1697   1.1778   1.1841   1.2050
  1.2081   1.2142   1.2279   1.2342   1.2492   1.2578   1.2625   1.2651
  1.2816   1.2838   1.2970   1.3228   1.3303   1.3424   1.3584   1.3652
  1.3867   1.3890   1.4041   1.4076   1.4313   1.4345   1.4516   1.4602
  1.4809   1.4849   1.4974   1.4997   1.5151   1.5370   1.5411   1.5500
  1.5532   1.5566   1.5617   1.5677   1.5819   1.5901   1.6142   1.6349
  1.6515   1.6627   1.6758   1.6879   1.6903   1.6990   1.7156   1.7270
  1.7438   1.7527   1.7620   1.7803   1.7977   1.8101   1.8300   1.8370
  1.8472   1.8769   1.8941   1.9424   1.9587   1.9695   1.9797   1.9944
  2.0088   2.0336   2.0515   2.0942   2.1035   2.1297   2.1630   2.1673
  2.1782   2.1954   2.2100   2.2224   2.2365   2.2529   2.2649   2.2767
  2.2921   2.3074   2.3437   2.3866   2.4099   2.4204   2.4309   2.4597
  2.4684   2.4889   2.5069   2.5281   2.5309   2.5453   2.5785   2.5942
  2.6217   2.6387   2.6530   2.6640   2.6769   2.7018   2.7230   2.7323
  2.7351   2.7488   2.7635   2.7702   2.7782   2.7860   2.7969   2.8246
  2.8276   2.8372   2.8512   2.8601   2.8798   2.9016   2.9072   2.9274
  2.9484   2.9640   2.9713   2.9911   3.0028   3.0110   3.0321   3.0383
  3.0524   3.0683   3.0843   3.1081   3.1116   3.1223   3.1317   3.1513
  3.1604   3.1659   3.1747   3.1852   3.2000   3.2097   3.2133   3.2261
  3.2290   3.2471   3.2564   3.2673   3.2775   3.2843   3.3023   3.3177
  3.3212   3.3355   3.3372   3.3443   3.3471   3.3657   3.3682   3.3837
  3.3882   3.3922   3.4006   3.4042   3.4130   3.4258   3.4364   3.4450
  3.4560   3.4645   3.4722   3.4775   3.5040   3.5093   3.5193   3.5233
  3.5287   3.5423   3.5515   3.5566   3.5605   3.5700   3.5847   3.6001
  3.6109   3.6263   3.6297   3.6417   3.6481   3.6495   3.6615   3.6699
  3.6817   3.6966   3.7067   3.7172   3.7240   3.7366   3.7544   3.7620
  3.7709   3.7763   3.7887   3.7971   3.8045   3.8168   3.8439   3.8532
  3.8603   3.8817   3.8928   3.8982   3.9224   3.9443   3.9543   3.9569
  3.9659   3.9772   4.0094   4.0155   4.0248   4.0354   4.0431   4.0477
  4.0687   4.0792   4.0904   4.1020   4.1170   4.1319   4.1400   4.1638
  4.1759   4.1868   4.1981   4.1991   4.2055   4.2205   4.2302   4.2441
  4.2559   4.2601   4.2685   4.2867   4.2954   4.3113   4.3291   4.3409
  4.3425   4.3563   4.3721   4.3829   4.3945   4.4002   4.4085   4.4207
  4.4382   4.4448   4.4653   4.4783   4.4962   4.5057   4.5385   4.5623
  4.5858   4.6021   4.6214   4.6299   4.6355   4.6507   4.6656   4.6737
  4.6900   4.7139   4.7369   4.7443   4.7546   4.7786   4.8251   4.8549
  4.8865   4.8949   4.9157   4.9317   4.9471   4.9798   5.0192   5.0583
  5.0688   5.1012   5.1127   5.1407   5.1624   5.1671   5.1884   5.2014
  5.2723   5.2741   5.2883   5.3037   5.3250   5.3663   5.3979   5.4025
  5.4154   5.4505   5.4701   5.4746   5.5178   5.5282   5.5453   5.5487
  5.5676   5.6012   5.6221   5.6237   5.6355   5.6515   5.6985   5.7149
  5.7720   5.8077   5.9179   5.9837   6.0119   6.0770   6.0938   6.2121
  6.2265   6.2330   6.2658   6.2776   6.3273   6.3649   6.5061   8.7784
  9.7704  11.6506  12.4494  12.8497  13.0129  13.7652  13.9573  14.2155
 14.3350
 --------------------------------------------------------------
 
          Ground-State Mulliken Net Atomic Charges

     Atom                 Charge (a.u.)
  ----------------------------------------
      1 C                    -0.240245
      2 C                    -0.245118
      3 C                     0.020898
      4 H                     0.180393
      5 C                    -0.025645
      6 S                     0.021042
      7 C                    -0.286981
      8 H                     0.105828
      9 H                     0.107796
     10 H                     0.104182
     11 H                     0.201018
     12 C                    -0.087934
     13 C                    -0.127841
     14 C                    -0.007775
     15 H                     0.190812
     16 C                    -0.187420
     17 S                     0.025276
     18 C                    -0.267532
     19 H                     0.102862
     20 H                     0.107943
     21 H                     0.107031
     22 H                     0.201409
  ----------------------------------------
  Sum of atomic charges =     0.000000

 -----------------------------------------------------------------
                    Cartesian Multipole Moments
 -----------------------------------------------------------------
    Charge (ESU x 10^10)
                -0.0000
    Dipole Moment (Debye)
         X       1.0932      Y       1.1326      Z       2.2356
       Tot       2.7342
    Quadrupole Moments (Debye-Ang)
        XX     -80.9744     XY       8.0297     YY     -78.2850
        XZ      -2.0215     YZ      -0.5748     ZZ     -84.3503
    Octopole Moments (Debye-Ang^2)
       XXX    -139.3686    XXY      76.3321    XYY     -36.7546
       YYY     161.7405    XXZ      -4.3404    XYZ       7.8939
       YYZ      -4.9971    XZZ     -45.0951    YZZ      77.3969
       ZZZ       0.8032
    Hexadecapole Moments (Debye-Ang^3)
      XXXX   -1096.5727   XXXY    -200.7860   XXYY    -533.4923
      XYYY    -244.9998   YYYY   -2168.4910   XXXZ      37.3921
      XXYZ     -30.5737   XYYZ     -32.5351   YYYZ     -51.3301
      XXZZ    -289.6160   XYZZ     -65.5540   YYZZ    -532.6172
      XZZZ      49.4446   YZZZ     -63.6162   ZZZZ    -666.1520
 -----------------------------------------------------------------
 Total job time:  566.80s(wall), 563.48s(cpu) 
 Sat Jul  9 08:55:32 2022

        *************************************************************
        *                                                           *
        *  Thank you very much for using Q-Chem.  Have a nice day.  *
        *                                                           *
        *************************************************************


remove work dirs ./qchem3141133.0 -- ./qchem3141133.-1
rm -rf ./qchem3141133
