You are running Q-Chem version: 5.4.0

#
# job setting
#
local host:  exp-2-18
current dir: /expanse/lustre/scratch/theleonzhang/temp_project/Interring_Bonds
input file:  Methylthiophene_Phi_50_Theta_0_Methylthiophene.qcin
output file: 
nprocs     : 0
nthreads   : 1
#
# qchem installation setting
#
QC:          /cm/shared/apps/spack/cpu/opt/spack/linux-centos8-zen2/gcc-10.2.0/qchem-5.4-akfmr7b3t57bfs6qan3padb2wnb2i7cl
QCAUX:       /cm/shared/apps/spack/cpu/opt/spack/linux-centos8-zen2/gcc-10.2.0/qchem-5.4-akfmr7b3t57bfs6qan3padb2wnb2i7cl/qcaux
QCPROG:      /cm/shared/apps/spack/cpu/opt/spack/linux-centos8-zen2/gcc-10.2.0/qchem-5.4-akfmr7b3t57bfs6qan3padb2wnb2i7cl/exe/qcprog.exe_s
QCPROG_S:    /cm/shared/apps/spack/cpu/opt/spack/linux-centos8-zen2/gcc-10.2.0/qchem-5.4-akfmr7b3t57bfs6qan3padb2wnb2i7cl/exe/qcprog.exe_s
PARALLEL:    -DSERIAL
QCMPI:       mpich
#
# qchem directory setting
#
qcrun:       qchem1017421
QCSCRATCH:   .
QCLOCALSCR:  
QCTMPDIR:    .
QCFILEPREF:  ./qchem1017421
QCSAVEDIR:   
workdirs:    ./qchem1017421
workdir0:    ./qchem1017421
partmpdirs =  
#
# parallel setting
#
QCRSH:           ssh
QCMPI:           mpich
QCMPIRUN:        /cm/shared/apps/spack/cpu/opt/spack/linux-centos8-zen2/gcc-10.2.0/qchem-5.4-akfmr7b3t57bfs6qan3padb2wnb2i7cl/bin/mpi/mpirun_qchem
QCMACHINEFILE:   ./qchem1017421/hostfile

#
# env setting
#
exported envs:   QC QCAUX QCSCRATCH QCRUNNAME QCFILEPREF QCPROG QCPROG_S GUIFILE

Running Job 1 of 1 Methylthiophene_Phi_50_Theta_0_Methylthiophene.qcin
qchem Methylthiophene_Phi_50_Theta_0_Methylthiophene.qcin_1017421.0 ./qchem1017421/ 0
/cm/shared/apps/spack/cpu/opt/spack/linux-centos8-zen2/gcc-10.2.0/qchem-5.4-akfmr7b3t57bfs6qan3padb2wnb2i7cl/exe/qcprog.exe_s Methylthiophene_Phi_50_Theta_0_Methylthiophene.qcin_1017421.0 ./qchem1017421/
                  Welcome to Q-Chem
     A Quantum Leap Into The Future Of Chemistry


 Q-Chem 5.4, Q-Chem, Inc., Pleasanton, CA (2021)

 License issued to: University of California, San Diego (site)

 E. Epifanovsky,  A. T. B. Gilbert,  Xintian Feng,  Joonho Lee,  Yuezhi Mao,  
 N. Mardirossian,  P. Pokhilko,  A. White,  M. Wormit,  M. P. Coons,  
 A. L. Dempwolff,  Zhengting Gan,  D. Hait,  P. R. Horn,  L. D. Jacobson,  
 I. Kaliman,  J. Kussmann,  A. W. Lange,  Ka Un Lao,  D. S. Levine,  Jie Liu,  
 S. C. McKenzie,  A. F. Morrison,  K. Nanda,  F. Plasser,  D. R. Rehn,  
 M. L. Vidal,  Zhi-Qiang You,  Ying Zhu,  B. Alam,  B. Albrecht,  
 A. Aldossary,  E. Alguire,  J. H. Andersen,  D. Barton,  K. Begam,  A. Behn,  
 Y. A. Bernard,  E. J. Berquist,  H. Burton,  A. Carreras,  K. Carter-Fenk,  
 R. Chakraborty,  A. D. Chien,  K. D. Closser,  V. Cofer-Shabica,  
 S. Dasgupta,  Jia Deng,  M. de Wergifosse,  M. Diedenhofen,  Hainam Do,  
 S. Ehlert,  Po-Tung Fang,  S. Fatehi,  Qingguo Feng,  J. Gayvert,  
 Qinghui Ge,  G. Gidofalvi,  M. Goldey,  J. Gomes,  C. Gonzalez-Espinoza,  
 S. Gulania,  A. Gunina,  M. W. D. Hanson-Heine,  P. H. P. Harbach,  
 A. W. Hauser,  M. F. Herbst,  M. Hernandez Vera,  M. Hodecker,  
 Z. C. Holden,  S. Houck,  Xunkun Huang,  Kerwin Hui,  B. C. Huynh,  
 M. Ivanov,  Hyunjun Ji,  Hanjie Jiang,  B. Kaduk,  S. Kaehler,  
 K. Khistyaev,  Jaehoon Kim,  P. Klunzinger,  Z. Koczor-Benda,  
 Joong Hoon Koh,  D. Kosenkov,  L. Koulias,  T. Kowalczyk,  C. M. Krauter,  
 K. Kue,  A. Kunitsa,  T. Kus,  A. Landau,  K. V. Lawler,  D. Lefrancois,  
 S. Lehtola,  Rain Li,  Yi-Pei Li,  Jiashu Liang,  M. Liebenthal,  
 Hung-Hsuan Lin,  You-Sheng Lin,  Fenglai Liu,  Kuan-Yu Liu,  
 M. Loipersberger,  A. Luenser,  A. Manjanath,  P. Manohar,  E. Mansoor,  
 S. F. Manzer,  Shan-Ping Mao,  A. V. Marenich,  T. Markovich,  S. Mason,  
 S. A. Maurer,  P. F. McLaughlin,  M. F. S. J. Menger,  J.-M. Mewes,  
 S. A. Mewes,  P. Morgante,  J. W. Mullinax,  T. S. Nguyen-Beck,  
 K. J. Oosterbaan,  G. Paran,  Alexander C. Paul,  Suranjan K. Paul,  
 F. Pavosevic,  Zheng Pei,  S. Prager,  E. I. Proynov,  E. Ramos,  B. Rana,  
 A. E. Rask,  A. Rettig,  R. M. Richard,  F. Rob,  E. Rossomme,  T. Scheele,  
 M. Scheurer,  M. Schneider,  N. Sergueev,  S. M. Sharada,  W. Skomorowski,  
 D. W. Small,  C. J. Stein,  Yu-Chuan Su,  E. J. Sundstrom,  Zhen Tao,  
 J. Thirman,  T. Tsuchimochi,  N. M. Tubman,  S. P. Veccham,  O. Vydrov,  
 J. Wenzel,  J. Witte,  A. Yamada,  Kun Yao,  S. Yeganeh,  S. R. Yost,  
 A. Zech,  Igor Ying Zhang,  Xing Zhang,  Yu Zhang,  D. Zuev,  
 A. Aspuru-Guzik,  A. T. Bell,  N. A. Besley,  K. B. Bravaya,  B. R. Brooks,  
 D. Casanova,  Jeng-Da Chai,  S. Coriani,  C. J. Cramer,  
 A. E. DePrince, III,  R. A. DiStasio Jr.,  A. Dreuw,  B. D. Dunietz,  
 T. R. Furlani,  W. A. Goddard III,  S. Grimme,  S. Hammes-Schiffer,  
 T. Head-Gordon,  W. J. Hehre,  Chao-Ping Hsu,  T.-C. Jagau,  Yousung Jung,  
 A. Klamt,  Jing Kong,  D. S. Lambrecht,  WanZhen Liang,  N. J. Mayhall,  
 C. W. McCurdy,  J. B. Neaton,  C. Ochsenfeld,  J. A. Parkhill,  R. Peverati,  
 V. A. Rassolov,  Yihan Shao,  L. V. Slipchenko,  T. Stauch,  R. P. Steele,  
 J. E. Subotnik,  A. J. W. Thom,  A. Tkatchenko,  D. G. Truhlar,  
 T. Van Voorhis,  T. A. Wesolowski,  K. B. Whaley,  H. L. Woodcock III,  
 P. M. Zimmerman,  S. Faraji,  P. M. W. Gill,  M. Head-Gordon,  
 J. M. Herbert,  A. I. Krylov

 Contributors to earlier versions of Q-Chem not listed above: 
 R. D. Adamson,  B. Austin,  R. Baer,  J. Baker,  G. J. O. Beran,  
 K. Brandhorst,  S. T. Brown,  E. F. C. Byrd,  A. K. Chakraborty,  
 G. K. L. Chan,  Chun-Min Chang,  Yunqing Chen,  C.-L. Cheng,  
 Siu Hung Chien,  D. M. Chipman,  D. L. Crittenden,  H. Dachsel,  
 R. J. Doerksen,  A. D. Dutoi,  R. G. Edgar,  J. Fosso-Tande,  
 L. Fusti-Molnar,  D. Ghosh,  A. Ghysels,  A. Golubeva-Zadorozhnaya,  
 J. Gonthier,  M. S. Gordon,  S. R. Gwaltney,  G. Hawkins,  J. E. Herr,  
 A. Heyden,  S. Hirata,  E. G. Hohenstein,  G. Kedziora,  F. J. Keil,  
 C. Kelley,  Jihan Kim,  R. A. King,  R. Z. Khaliullin,  P. P. Korambath,  
 W. Kurlancheek,  A. Laurent,  A. M. Lee,  M. S. Lee,  S. V. Levchenko,  
 Ching Yeh Lin,  D. Liotard,  E. Livshits,  R. C. Lochan,  I. Lotan,  
 L. A. Martinez-Martinez,  P. E. Maslen,  N. Nair,  D. P. O'Neill,  
 D. Neuhauser,  E. Neuscamman,  C. M. Oana,  R. Olivares-Amaya,  R. Olson,  
 T. M. Perrine,  B. Peters,  P. A. Pieniazek,  A. Prociuk,  Y. M. Rhee,  
 J. Ritchie,  M. A. Rohrdanz,  E. Rosta,  N. J. Russ,  H. F. Schaefer III,  
 M. W. Schmidt,  N. E. Schultz,  S. Sharma,  N. Shenvi,  C. D. Sherrill,  
 A. C. Simmonett,  A. Sodt,  T. Stein,  D. Stuck,  K. S. Thanthiriwatte,  
 V. Vanovschi,  L. Vogt,  Tao Wang,  A. Warshel,  M. A. Watson,  
 C. F. Williams,  Q. Wu,  X. Xu,  Jun Yang,  W. Zhang,  Yan Zhao

 Please cite Q-Chem as follows:
 Y. Shao et al., Mol. Phys. 113, 184-215 (2015)
 DOI: 10.1080/00268976.2014.952696

 Q-Chem 5.4.0 for Intel X86 EM64T Linux

 Parts of Q-Chem use Armadillo 9.800.1 (Horizon Scraper).
 http://arma.sourceforge.net/

 Q-Chem begins on Fri Jul  8 22:03:23 2022  

 Host: 
0

     Scratch files written to ./qchem1017421//
 May1621 |scratch|qcdevops|jenkins|workspace|build_RNUM    
 Processing $rem in /cm/shared/apps/spack/cpu/opt/spack/linux-centos8-zen2/gcc-10.2.0/qchem-5.4-akfmr7b3t57bfs6qan3padb2wnb2i7cl/config/preferences:
 Processing $rem in /home/theleonzhang/.qchemrc:
 Symmetry turned off for PCM/SM12/SMD calculation
 Core orbitals will be frozen

 Checking the input file for inconsistencies... 	...done.

--------------------------------------------------------------
User input:
--------------------------------------------------------------
$molecule
0 1
C	0.670748	-3.808105	0.775127
C	0.642889	-3.647744	-0.612565
C	0.409365	-2.321236	-1.066639
H	0.791563	-4.491881	-1.302900
C	0.250169	-1.418777	0.000000
S	0.397135	-2.252211	1.544483
C	0.343896	-1.948630	-2.521872
H	0.500095	-2.834906	-3.166949
H	1.118228	-1.200068	-2.790821
H	-0.639561	-1.509723	-2.791023
H	0.829705	-4.710930	1.375251
C	0.000000	0.000000	0.000000
C	0.555137	0.661535	1.099446
C	1.444710	1.721658	0.776721
H	0.318072	0.379023	2.136088
C	1.586563	1.890676	-0.612546
S	0.605781	0.721904	-1.486809
C	2.143920	2.554907	1.814609
H	1.870325	2.228851	2.836676
H	1.880882	3.629742	1.726239
H	3.248098	2.482476	1.726228
H	2.196723	2.617806	-1.161575
$end

$rem
JOBTYPE		SP
EXCHANGE	HF
CORRELATION	pRIMP2
BASIS		cc-pvtz
METHOD		rimp2
AUX_BASIS	rimp2-cc-pvtz
SOLVENT_METHOD	PCM
PURECART	11111
SYMMETRY	false
MEM_TOTAL	110000
SCF_CONVERGENCE = 6
THRESH=10
$end



$solvent
dielectric 4.90
$end
--------------------------------------------------------------
 ----------------------------------------------------------------
             Standard Nuclear Orientation (Angstroms)
    I     Atom           X                Y                Z
 ----------------------------------------------------------------
    1      C       0.6707480000    -3.8081050000     0.7751270000
    2      C       0.6428890000    -3.6477440000    -0.6125650000
    3      C       0.4093650000    -2.3212360000    -1.0666390000
    4      H       0.7915630000    -4.4918810000    -1.3029000000
    5      C       0.2501690000    -1.4187770000     0.0000000000
    6      S       0.3971350000    -2.2522110000     1.5444830000
    7      C       0.3438960000    -1.9486300000    -2.5218720000
    8      H       0.5000950000    -2.8349060000    -3.1669490000
    9      H       1.1182280000    -1.2000680000    -2.7908210000
   10      H      -0.6395610000    -1.5097230000    -2.7910230000
   11      H       0.8297050000    -4.7109300000     1.3752510000
   12      C       0.0000000000     0.0000000000     0.0000000000
   13      C       0.5551370000     0.6615350000     1.0994460000
   14      C       1.4447100000     1.7216580000     0.7767210000
   15      H       0.3180720000     0.3790230000     2.1360880000
   16      C       1.5865630000     1.8906760000    -0.6125460000
   17      S       0.6057810000     0.7219040000    -1.4868090000
   18      C       2.1439200000     2.5549070000     1.8146090000
   19      H       1.8703250000     2.2288510000     2.8366760000
   20      H       1.8808820000     3.6297420000     1.7262390000
   21      H       3.2480980000     2.4824760000     1.7262280000
   22      H       2.1967230000     2.6178060000    -1.1615750000
 ----------------------------------------------------------------
 Nuclear Repulsion Energy =         856.68294867 hartrees
 There are       51 alpha and       51 beta electrons

 Q-Chem warning in module forms1/BasisType.C, line 2236:

 You are not using the predefined 5D/6D in this basis set.

 Requested basis set is cc-pVTZ
 There are 184 shells and 508 basis functions

 Total QAlloc Memory Limit 110000 MB
 Mega-Array Size       188 MB
 MEM_STATIC part       192 MB
 Discretize the solute cavity surface with Lebedev spheres
	Using 110 Lebedev grid points for each H atom
	Using 194 Lebedev grid points for other atoms
	Atomic van der Waals radii will be scaled by 1.20
 Remove points where switching function is < 1.0e-08
 Keep 1488 surface tesserae and discard 1940 interior tesserae
 Molecular Surface Area = 224.919 Angst**2
 Requested basis set is rimp2-cc-pVTZ
 There are 394 shells and 1354 basis functions
 A cutoff of  1.0D-10 yielded  12654 shell pairs
 There are     93966 function pairs (    121275 Cartesian)
 Smallest overlap matrix eigenvalue = 6.61E-05

 Scale SEOQF with 1.000000e-01/1.000000e-01/1.000000e-01

 Standard Electronic Orientation quadrupole field applied
 Nucleus-field energy     =     0.0000000164 hartrees
 Guess from superposition of atomic densities
 Warning:  Energy on first SCF cycle will be non-variational
 SAD guess density has 102.000000 electrons

 -----------------------------------------------------------------------
  General SCF calculation program by
  Eric Jon Sundstrom, Paul Horn, Yuezhi Mao, Dmitri Zuev, Alec White,
  David Stuck, Shaama M.S., Shane Yost, Joonho Lee, David Small,
  Daniel Levine, Susi Lehtola, Hugh Burton, Evgeny Epifanovsky,
  Bang C. Huynh
 -----------------------------------------------------------------------
 Hartree-Fock
 A restricted SCF calculation will be
 performed using DIIS
 SCF converges when DIIS error is below 1.0e-06
 ---------------------------------------
  Cycle       Energy         DIIS error
 ---------------------------------------
    1   -1184.3674640492      2.40e-02  
    2   -1179.4868738509      1.59e-03  
    3   -1179.6091530192      5.90e-04  
    4   -1179.6226666013      3.16e-04  
    5   -1179.6269665753      6.25e-05  
    6   -1179.6272549929      3.12e-05  
    7   -1179.6273509573      1.43e-05  
    8   -1179.6273871441      5.78e-06  
    9   -1179.6273949178      2.58e-06  
   10   -1179.6273960181      1.05e-06  
   11   -1179.6273962479      5.89e-07  Convergence criterion met
 ---------------------------------------
 SCF time:   CPU 556.14s  wall 558.00s 

************** Final PCM Free Energy Summary **************
 G_electrostatic  =      -0.00854145 hartree =      -5.35983846 kcal/mol
 G_cavitation     =       0.00000000 hartree =       0.00000000 kcal/mol
 G_dispersion     =       0.00000000 hartree =       0.00000000 kcal/mol
 G_repulsion      =       0.00000000 hartree =       0.00000000 kcal/mol
 --------------------------------------------------
 Non-electrostatic Free Energy =       0.00000000 hartree =       0.00000000 kcal/mol
 Total                         =      -0.00854145 hartree =      -5.35983846 kcal/mol
 --------------------------------------------------
 SCF Energy (H0 + V/2)                       =   -1179.62739625 
 Solute Internal Energy (H0)                 =   -1179.61885480 
 Total Free Energy (H0 + V/2 + non-elec)     =   -1179.62739625 hartree
                                             = -740227.36339666 kcal/mol
***********************************************************

 SCF   energy in the final basis set =    -1179.6273962479
 Total energy in the final basis set =    -1179.6273962479


 --------------------------------------------------------------
  Generalized many-body perturbation theory program
  by Joonho Lee, Fazle Rob, Xintian Feng, Evgeny Epifanovsky

 No regularization used 
 (reg. param. = 0.0000e+00)
  (P|Q)^-1/2 Time:  CPU 1.68 s  wall 1.69 s

 In RI-MP2 calculation: 
 # of frozen core orbitals: 20

 Components of the RIMP2 correlation energy:
        aaaa    correlation energy =        -0.2558863304 a.u.
        abab    correlation energy =        -1.4831698481 a.u.
        bbbb    correlation energy =        -0.2558863304 a.u.
        non-Brillouin singles      =        -0.0000000000 a.u.
        total same-spin energy     =        -0.5117726608 a.u.
        total opposite-spin energy =        -1.4831698481 a.u.

 Total  RIMP2   correlation energy =        -1.9949425089 a.u.
        RIMP2         total energy =     -1181.6223387569 a.u.

 RI-MP2 Energy Time:  CPU 68.40 s  wall 68.60 s
 
 --------------------------------------------------------------
 
                    Orbital Energies (a.u.)
 --------------------------------------------------------------
 
 Alpha MOs
 -- Occupied --
-91.9834 -91.9763 -11.2817 -11.2795 -11.2669 -11.2601 -11.2576 -11.2545
-11.2392 -11.2381 -11.2308 -11.2234  -8.9842  -8.9767  -6.6649  -6.6642
 -6.6637  -6.6577  -6.6571  -6.6565  -1.1892  -1.1465  -1.0462  -1.0234
 -0.9997  -0.9496  -0.9124  -0.8951  -0.7961  -0.7671  -0.7233  -0.6933
 -0.6569  -0.6188  -0.5888  -0.5840  -0.5770  -0.5699  -0.5512  -0.5343
 -0.5255  -0.5195  -0.5119  -0.4946  -0.4740  -0.4616  -0.4437  -0.3701
 -0.3424  -0.3363  -0.2619
 -- Virtual --
  0.0541   0.1268   0.1411   0.1568   0.1653   0.1677   0.1816   0.1855
  0.1914   0.1948   0.2101   0.2149   0.2346   0.2383   0.2428   0.2466
  0.2710   0.2771   0.2957   0.3090   0.3330   0.3539   0.3635   0.3666
  0.3775   0.3865   0.4002   0.4064   0.4141   0.4245   0.4388   0.4420
  0.4550   0.4602   0.4630   0.4761   0.4806   0.4901   0.4996   0.5124
  0.5132   0.5166   0.5314   0.5331   0.5479   0.5539   0.5597   0.5669
  0.5777   0.5863   0.5890   0.5947   0.6067   0.6144   0.6196   0.6256
  0.6305   0.6327   0.6414   0.6463   0.6519   0.6544   0.6621   0.6657
  0.6861   0.6866   0.7030   0.7111   0.7225   0.7425   0.7514   0.7609
  0.7689   0.7785   0.7826   0.8000   0.8246   0.8314   0.8442   0.8493
  0.8559   0.8641   0.8700   0.8817   0.8968   0.9130   0.9347   0.9490
  0.9498   0.9612   0.9670   0.9862   1.0030   1.0226   1.0279   1.0335
  1.0552   1.0583   1.0661   1.0734   1.0867   1.0913   1.0973   1.1112
  1.1134   1.1305   1.1333   1.1419   1.1570   1.1699   1.1798   1.2027
  1.2085   1.2209   1.2296   1.2414   1.2465   1.2608   1.2701   1.2750
  1.2905   1.2951   1.3078   1.3108   1.3369   1.3556   1.3655   1.3710
  1.3804   1.3947   1.4043   1.4106   1.4205   1.4285   1.4375   1.4548
  1.4755   1.4888   1.4931   1.5084   1.5132   1.5217   1.5302   1.5449
  1.5577   1.5614   1.5681   1.5717   1.5791   1.5979   1.6068   1.6328
  1.6551   1.6587   1.6757   1.6875   1.7001   1.7028   1.7142   1.7402
  1.7528   1.7707   1.7721   1.7847   1.8095   1.8290   1.8353   1.8690
  1.8805   1.8976   1.9281   1.9469   1.9576   1.9697   1.9946   1.9983
  2.0613   2.0787   2.0845   2.0987   2.1162   2.1315   2.1443   2.1638
  2.1867   2.1877   2.2034   2.2119   2.2481   2.2615   2.2749   2.2791
  2.3051   2.3105   2.3348   2.3782   2.4024   2.4211   2.4228   2.4564
  2.4686   2.5035   2.5056   2.5250   2.5420   2.5546   2.5971   2.6178
  2.6325   2.6399   2.6548   2.6657   2.6863   2.6994   2.7237   2.7285
  2.7318   2.7368   2.7594   2.7721   2.7756   2.7895   2.8065   2.8149
  2.8336   2.8413   2.8490   2.8534   2.8743   2.9203   2.9255   2.9530
  2.9684   2.9804   2.9826   2.9985   3.0142   3.0217   3.0386   3.0528
  3.0560   3.0600   3.0865   3.1085   3.1161   3.1272   3.1421   3.1492
  3.1522   3.1662   3.1764   3.1818   3.1922   3.2052   3.2186   3.2247
  3.2340   3.2541   3.2624   3.2671   3.2769   3.2885   3.3074   3.3119
  3.3200   3.3260   3.3293   3.3370   3.3462   3.3572   3.3723   3.3776
  3.3938   3.4020   3.4105   3.4155   3.4196   3.4302   3.4387   3.4496
  3.4543   3.4705   3.4852   3.4952   3.5003   3.5138   3.5213   3.5261
  3.5320   3.5413   3.5448   3.5458   3.5590   3.5781   3.5913   3.6045
  3.6063   3.6157   3.6325   3.6364   3.6583   3.6665   3.6784   3.6809
  3.6994   3.7186   3.7229   3.7276   3.7340   3.7407   3.7562   3.7614
  3.7658   3.7889   3.8015   3.8098   3.8230   3.8331   3.8389   3.8548
  3.8664   3.8810   3.8890   3.9034   3.9140   3.9449   3.9517   3.9565
  3.9628   3.9850   4.0063   4.0203   4.0306   4.0321   4.0395   4.0562
  4.0733   4.0772   4.0851   4.0923   4.1197   4.1353   4.1401   4.1702
  4.1867   4.1899   4.2030   4.2057   4.2207   4.2247   4.2398   4.2503
  4.2555   4.2629   4.2843   4.2928   4.3073   4.3115   4.3337   4.3423
  4.3565   4.3680   4.3774   4.3902   4.4001   4.4051   4.4071   4.4470
  4.4557   4.4648   4.4868   4.5041   4.5123   4.5243   4.5430   4.5687
  4.5977   4.6132   4.6216   4.6350   4.6469   4.6623   4.6734   4.6965
  4.7032   4.7090   4.7378   4.7531   4.7718   4.8031   4.8132   4.8452
  4.8729   4.8899   4.9027   4.9278   4.9368   4.9628   4.9837   5.0612
  5.0780   5.0889   5.1162   5.1568   5.1706   5.1833   5.1936   5.1950
  5.2787   5.2819   5.2962   5.3081   5.3166   5.3670   5.3893   5.4028
  5.4105   5.4491   5.4701   5.4751   5.5197   5.5337   5.5475   5.5583
  5.5774   5.5963   5.6231   5.6345   5.6426   5.6618   5.6945   5.7226
  5.7864   5.8123   5.9361   5.9790   6.0283   6.0782   6.1119   6.2080
  6.2275   6.2573   6.2605   6.3017   6.3531   6.3624   6.5208   8.6220
  9.6879  11.5572  12.3756  12.8207  13.1859  13.7425  13.8578  14.2077
 14.4752
 --------------------------------------------------------------
 
          Ground-State Mulliken Net Atomic Charges

     Atom                 Charge (a.u.)
  ----------------------------------------
      1 C                    -0.236251
      2 C                    -0.247758
      3 C                     0.030457
      4 H                     0.182539
      5 C                    -0.015537
      6 S                    -0.018852
      7 C                    -0.308429
      8 H                     0.108788
      9 H                     0.115252
     10 H                     0.112059
     11 H                     0.202087
     12 C                    -0.047100
     13 C                    -0.168001
     14 C                     0.008491
     15 H                     0.184808
     16 C                    -0.207667
     17 S                     0.050058
     18 C                    -0.265538
     19 H                     0.103477
     20 H                     0.108310
     21 H                     0.107184
     22 H                     0.201623
  ----------------------------------------
  Sum of atomic charges =     0.000000

 -----------------------------------------------------------------
                    Cartesian Multipole Moments
 -----------------------------------------------------------------
    Charge (ESU x 10^10)
                -0.0000
    Dipole Moment (Debye)
         X       2.0702      Y       1.5195      Z      -0.1288
       Tot       2.5712
    Quadrupole Moments (Debye-Ang)
        XX     -87.1437     XY       4.4607     YY     -76.7603
        XZ      -0.2542     YZ       3.0723     ZZ     -79.8532
    Octopole Moments (Debye-Ang^2)
       XXX    -189.5680    XXY      77.7368    XYY     -36.8717
       YYY     141.4430    XXZ      -0.9968    XYZ      -1.7991
       YYZ       0.5628    XZZ     -55.8231    YZZ      51.5434
       ZZZ       7.4551
    Hexadecapole Moments (Debye-Ang^3)
      XXXX    -584.9347   XXXY     -37.7856   XXYY    -521.7654
      XYYY    -109.7148   YYYY   -2285.2406   XXXZ     -66.9406
      XXYZ     -29.2256   XYYZ     -23.7604   YYYZ    -104.5409
      XXZZ    -277.0701   XYZZ     -23.8101   YYZZ    -547.2566
      XZZZ     -66.9824   YZZZ     -63.6858   ZZZZ   -1077.4085
 -----------------------------------------------------------------
 Total job time:  629.90s(wall), 625.35s(cpu) 
 Fri Jul  8 22:13:53 2022

        *************************************************************
        *                                                           *
        *  Thank you very much for using Q-Chem.  Have a nice day.  *
        *                                                           *
        *************************************************************


remove work dirs ./qchem1017421.0 -- ./qchem1017421.-1
rm -rf ./qchem1017421
