You are running Q-Chem version: 5.4.0

#
# job setting
#
local host:  exp-1-39
current dir: /expanse/lustre/scratch/theleonzhang/temp_project/Interring_Bonds
input file:  Methylthiophene_Phi_50_Theta_250_Methylthiophene.qcin
output file: 
nprocs     : 0
nthreads   : 1
#
# qchem installation setting
#
QC:          /cm/shared/apps/spack/cpu/opt/spack/linux-centos8-zen2/gcc-10.2.0/qchem-5.4-akfmr7b3t57bfs6qan3padb2wnb2i7cl
QCAUX:       /cm/shared/apps/spack/cpu/opt/spack/linux-centos8-zen2/gcc-10.2.0/qchem-5.4-akfmr7b3t57bfs6qan3padb2wnb2i7cl/qcaux
QCPROG:      /cm/shared/apps/spack/cpu/opt/spack/linux-centos8-zen2/gcc-10.2.0/qchem-5.4-akfmr7b3t57bfs6qan3padb2wnb2i7cl/exe/qcprog.exe_s
QCPROG_S:    /cm/shared/apps/spack/cpu/opt/spack/linux-centos8-zen2/gcc-10.2.0/qchem-5.4-akfmr7b3t57bfs6qan3padb2wnb2i7cl/exe/qcprog.exe_s
PARALLEL:    -DSERIAL
QCMPI:       mpich
#
# qchem directory setting
#
qcrun:       qchem3143677
QCSCRATCH:   .
QCLOCALSCR:  
QCTMPDIR:    .
QCFILEPREF:  ./qchem3143677
QCSAVEDIR:   
workdirs:    ./qchem3143677
workdir0:    ./qchem3143677
partmpdirs =  
#
# parallel setting
#
QCRSH:           ssh
QCMPI:           mpich
QCMPIRUN:        /cm/shared/apps/spack/cpu/opt/spack/linux-centos8-zen2/gcc-10.2.0/qchem-5.4-akfmr7b3t57bfs6qan3padb2wnb2i7cl/bin/mpi/mpirun_qchem
QCMACHINEFILE:   ./qchem3143677/hostfile

#
# env setting
#
exported envs:   QC QCAUX QCSCRATCH QCRUNNAME QCFILEPREF QCPROG QCPROG_S GUIFILE

Running Job 1 of 1 Methylthiophene_Phi_50_Theta_250_Methylthiophene.qcin
qchem Methylthiophene_Phi_50_Theta_250_Methylthiophene.qcin_3143677.0 ./qchem3143677/ 0
/cm/shared/apps/spack/cpu/opt/spack/linux-centos8-zen2/gcc-10.2.0/qchem-5.4-akfmr7b3t57bfs6qan3padb2wnb2i7cl/exe/qcprog.exe_s Methylthiophene_Phi_50_Theta_250_Methylthiophene.qcin_3143677.0 ./qchem3143677/
                  Welcome to Q-Chem
     A Quantum Leap Into The Future Of Chemistry


 Q-Chem 5.4, Q-Chem, Inc., Pleasanton, CA (2021)

 License issued to: University of California, San Diego (site)

 E. Epifanovsky,  A. T. B. Gilbert,  Xintian Feng,  Joonho Lee,  Yuezhi Mao,  
 N. Mardirossian,  P. Pokhilko,  A. White,  M. Wormit,  M. P. Coons,  
 A. L. Dempwolff,  Zhengting Gan,  D. Hait,  P. R. Horn,  L. D. Jacobson,  
 I. Kaliman,  J. Kussmann,  A. W. Lange,  Ka Un Lao,  D. S. Levine,  Jie Liu,  
 S. C. McKenzie,  A. F. Morrison,  K. Nanda,  F. Plasser,  D. R. Rehn,  
 M. L. Vidal,  Zhi-Qiang You,  Ying Zhu,  B. Alam,  B. Albrecht,  
 A. Aldossary,  E. Alguire,  J. H. Andersen,  D. Barton,  K. Begam,  A. Behn,  
 Y. A. Bernard,  E. J. Berquist,  H. Burton,  A. Carreras,  K. Carter-Fenk,  
 R. Chakraborty,  A. D. Chien,  K. D. Closser,  V. Cofer-Shabica,  
 S. Dasgupta,  Jia Deng,  M. de Wergifosse,  M. Diedenhofen,  Hainam Do,  
 S. Ehlert,  Po-Tung Fang,  S. Fatehi,  Qingguo Feng,  J. Gayvert,  
 Qinghui Ge,  G. Gidofalvi,  M. Goldey,  J. Gomes,  C. Gonzalez-Espinoza,  
 S. Gulania,  A. Gunina,  M. W. D. Hanson-Heine,  P. H. P. Harbach,  
 A. W. Hauser,  M. F. Herbst,  M. Hernandez Vera,  M. Hodecker,  
 Z. C. Holden,  S. Houck,  Xunkun Huang,  Kerwin Hui,  B. C. Huynh,  
 M. Ivanov,  Hyunjun Ji,  Hanjie Jiang,  B. Kaduk,  S. Kaehler,  
 K. Khistyaev,  Jaehoon Kim,  P. Klunzinger,  Z. Koczor-Benda,  
 Joong Hoon Koh,  D. Kosenkov,  L. Koulias,  T. Kowalczyk,  C. M. Krauter,  
 K. Kue,  A. Kunitsa,  T. Kus,  A. Landau,  K. V. Lawler,  D. Lefrancois,  
 S. Lehtola,  Rain Li,  Yi-Pei Li,  Jiashu Liang,  M. Liebenthal,  
 Hung-Hsuan Lin,  You-Sheng Lin,  Fenglai Liu,  Kuan-Yu Liu,  
 M. Loipersberger,  A. Luenser,  A. Manjanath,  P. Manohar,  E. Mansoor,  
 S. F. Manzer,  Shan-Ping Mao,  A. V. Marenich,  T. Markovich,  S. Mason,  
 S. A. Maurer,  P. F. McLaughlin,  M. F. S. J. Menger,  J.-M. Mewes,  
 S. A. Mewes,  P. Morgante,  J. W. Mullinax,  T. S. Nguyen-Beck,  
 K. J. Oosterbaan,  G. Paran,  Alexander C. Paul,  Suranjan K. Paul,  
 F. Pavosevic,  Zheng Pei,  S. Prager,  E. I. Proynov,  E. Ramos,  B. Rana,  
 A. E. Rask,  A. Rettig,  R. M. Richard,  F. Rob,  E. Rossomme,  T. Scheele,  
 M. Scheurer,  M. Schneider,  N. Sergueev,  S. M. Sharada,  W. Skomorowski,  
 D. W. Small,  C. J. Stein,  Yu-Chuan Su,  E. J. Sundstrom,  Zhen Tao,  
 J. Thirman,  T. Tsuchimochi,  N. M. Tubman,  S. P. Veccham,  O. Vydrov,  
 J. Wenzel,  J. Witte,  A. Yamada,  Kun Yao,  S. Yeganeh,  S. R. Yost,  
 A. Zech,  Igor Ying Zhang,  Xing Zhang,  Yu Zhang,  D. Zuev,  
 A. Aspuru-Guzik,  A. T. Bell,  N. A. Besley,  K. B. Bravaya,  B. R. Brooks,  
 D. Casanova,  Jeng-Da Chai,  S. Coriani,  C. J. Cramer,  
 A. E. DePrince, III,  R. A. DiStasio Jr.,  A. Dreuw,  B. D. Dunietz,  
 T. R. Furlani,  W. A. Goddard III,  S. Grimme,  S. Hammes-Schiffer,  
 T. Head-Gordon,  W. J. Hehre,  Chao-Ping Hsu,  T.-C. Jagau,  Yousung Jung,  
 A. Klamt,  Jing Kong,  D. S. Lambrecht,  WanZhen Liang,  N. J. Mayhall,  
 C. W. McCurdy,  J. B. Neaton,  C. Ochsenfeld,  J. A. Parkhill,  R. Peverati,  
 V. A. Rassolov,  Yihan Shao,  L. V. Slipchenko,  T. Stauch,  R. P. Steele,  
 J. E. Subotnik,  A. J. W. Thom,  A. Tkatchenko,  D. G. Truhlar,  
 T. Van Voorhis,  T. A. Wesolowski,  K. B. Whaley,  H. L. Woodcock III,  
 P. M. Zimmerman,  S. Faraji,  P. M. W. Gill,  M. Head-Gordon,  
 J. M. Herbert,  A. I. Krylov

 Contributors to earlier versions of Q-Chem not listed above: 
 R. D. Adamson,  B. Austin,  R. Baer,  J. Baker,  G. J. O. Beran,  
 K. Brandhorst,  S. T. Brown,  E. F. C. Byrd,  A. K. Chakraborty,  
 G. K. L. Chan,  Chun-Min Chang,  Yunqing Chen,  C.-L. Cheng,  
 Siu Hung Chien,  D. M. Chipman,  D. L. Crittenden,  H. Dachsel,  
 R. J. Doerksen,  A. D. Dutoi,  R. G. Edgar,  J. Fosso-Tande,  
 L. Fusti-Molnar,  D. Ghosh,  A. Ghysels,  A. Golubeva-Zadorozhnaya,  
 J. Gonthier,  M. S. Gordon,  S. R. Gwaltney,  G. Hawkins,  J. E. Herr,  
 A. Heyden,  S. Hirata,  E. G. Hohenstein,  G. Kedziora,  F. J. Keil,  
 C. Kelley,  Jihan Kim,  R. A. King,  R. Z. Khaliullin,  P. P. Korambath,  
 W. Kurlancheek,  A. Laurent,  A. M. Lee,  M. S. Lee,  S. V. Levchenko,  
 Ching Yeh Lin,  D. Liotard,  E. Livshits,  R. C. Lochan,  I. Lotan,  
 L. A. Martinez-Martinez,  P. E. Maslen,  N. Nair,  D. P. O'Neill,  
 D. Neuhauser,  E. Neuscamman,  C. M. Oana,  R. Olivares-Amaya,  R. Olson,  
 T. M. Perrine,  B. Peters,  P. A. Pieniazek,  A. Prociuk,  Y. M. Rhee,  
 J. Ritchie,  M. A. Rohrdanz,  E. Rosta,  N. J. Russ,  H. F. Schaefer III,  
 M. W. Schmidt,  N. E. Schultz,  S. Sharma,  N. Shenvi,  C. D. Sherrill,  
 A. C. Simmonett,  A. Sodt,  T. Stein,  D. Stuck,  K. S. Thanthiriwatte,  
 V. Vanovschi,  L. Vogt,  Tao Wang,  A. Warshel,  M. A. Watson,  
 C. F. Williams,  Q. Wu,  X. Xu,  Jun Yang,  W. Zhang,  Yan Zhao

 Please cite Q-Chem as follows:
 Y. Shao et al., Mol. Phys. 113, 184-215 (2015)
 DOI: 10.1080/00268976.2014.952696

 Q-Chem 5.4.0 for Intel X86 EM64T Linux

 Parts of Q-Chem use Armadillo 9.800.1 (Horizon Scraper).
 http://arma.sourceforge.net/

 Q-Chem begins on Sat Jul  9 08:55:32 2022  

 Host: 
0

     Scratch files written to ./qchem3143677//
 May1621 |scratch|qcdevops|jenkins|workspace|build_RNUM    
 Processing $rem in /cm/shared/apps/spack/cpu/opt/spack/linux-centos8-zen2/gcc-10.2.0/qchem-5.4-akfmr7b3t57bfs6qan3padb2wnb2i7cl/config/preferences:
 Processing $rem in /home/theleonzhang/.qchemrc:
 Symmetry turned off for PCM/SM12/SMD calculation
 Core orbitals will be frozen

 Checking the input file for inconsistencies... 	...done.

--------------------------------------------------------------
User input:
--------------------------------------------------------------
$molecule
0 1
C	0.728625	-3.866725	-0.264439
C	-0.575519	-3.703963	0.209794
C	-1.002336	-2.357056	0.364749
H	-1.224165	-4.561092	0.446060
C	0.000000	-1.440664	0.000000
S	1.451336	-2.286957	-0.528253
C	-2.369885	-1.978743	0.862253
H	-2.976034	-2.878678	1.082953
H	-2.927887	-1.376015	0.115513
H	-2.317620	-1.375728	1.792797
H	1.292636	-4.783437	-0.469476
C	0.000000	0.000000	0.000000
C	0.661577	0.555087	1.099446
C	1.721724	1.444630	0.776721
H	0.379056	0.318032	2.136088
C	1.890772	1.586449	-0.612546
S	0.721935	0.605744	-1.486809
C	2.555004	2.143805	1.814609
H	2.228946	1.870211	2.836676
H	2.482605	3.247987	1.726239
H	3.629830	1.880735	1.726228
H	2.617927	2.196579	-1.161575
$end

$rem
JOBTYPE		SP
EXCHANGE	HF
CORRELATION	pRIMP2
BASIS		cc-pvtz
METHOD		rimp2
AUX_BASIS	rimp2-cc-pvtz
SOLVENT_METHOD	PCM
PURECART	11111
SYMMETRY	false
MEM_TOTAL	110000
SCF_CONVERGENCE = 6
THRESH=10
$end



$solvent
dielectric 4.90
$end
--------------------------------------------------------------
 ----------------------------------------------------------------
             Standard Nuclear Orientation (Angstroms)
    I     Atom           X                Y                Z
 ----------------------------------------------------------------
    1      C       0.7286250000    -3.8667250000    -0.2644390000
    2      C      -0.5755190000    -3.7039630000     0.2097940000
    3      C      -1.0023360000    -2.3570560000     0.3647490000
    4      H      -1.2241650000    -4.5610920000     0.4460600000
    5      C       0.0000000000    -1.4406640000     0.0000000000
    6      S       1.4513360000    -2.2869570000    -0.5282530000
    7      C      -2.3698850000    -1.9787430000     0.8622530000
    8      H      -2.9760340000    -2.8786780000     1.0829530000
    9      H      -2.9278870000    -1.3760150000     0.1155130000
   10      H      -2.3176200000    -1.3757280000     1.7927970000
   11      H       1.2926360000    -4.7834370000    -0.4694760000
   12      C       0.0000000000     0.0000000000     0.0000000000
   13      C       0.6615770000     0.5550870000     1.0994460000
   14      C       1.7217240000     1.4446300000     0.7767210000
   15      H       0.3790560000     0.3180320000     2.1360880000
   16      C       1.8907720000     1.5864490000    -0.6125460000
   17      S       0.7219350000     0.6057440000    -1.4868090000
   18      C       2.5550040000     2.1438050000     1.8146090000
   19      H       2.2289460000     1.8702110000     2.8366760000
   20      H       2.4826050000     3.2479870000     1.7262390000
   21      H       3.6298300000     1.8807350000     1.7262280000
   22      H       2.6179270000     2.1965790000    -1.1615750000
 ----------------------------------------------------------------
 Nuclear Repulsion Energy =         853.74154539 hartrees
 There are       51 alpha and       51 beta electrons

 Q-Chem warning in module forms1/BasisType.C, line 2236:

 You are not using the predefined 5D/6D in this basis set.

 Requested basis set is cc-pVTZ
 There are 184 shells and 508 basis functions

 Total QAlloc Memory Limit 110000 MB
 Mega-Array Size       188 MB
 MEM_STATIC part       192 MB
 Discretize the solute cavity surface with Lebedev spheres
	Using 110 Lebedev grid points for each H atom
	Using 194 Lebedev grid points for other atoms
	Atomic van der Waals radii will be scaled by 1.20
 Remove points where switching function is < 1.0e-08
 Keep 1537 surface tesserae and discard 1891 interior tesserae
 Molecular Surface Area = 232.592 Angst**2
 Requested basis set is rimp2-cc-pVTZ
 There are 394 shells and 1354 basis functions
 A cutoff of  1.0D-10 yielded  12510 shell pairs
 There are     92820 function pairs (    119876 Cartesian)
 Smallest overlap matrix eigenvalue = 7.00E-05

 Scale SEOQF with 1.000000e-01/1.000000e-01/1.000000e-01

 Standard Electronic Orientation quadrupole field applied
 Nucleus-field energy     =     0.0000000303 hartrees
 Guess from superposition of atomic densities
 Warning:  Energy on first SCF cycle will be non-variational
 SAD guess density has 102.000000 electrons

 -----------------------------------------------------------------------
  General SCF calculation program by
  Eric Jon Sundstrom, Paul Horn, Yuezhi Mao, Dmitri Zuev, Alec White,
  David Stuck, Shaama M.S., Shane Yost, Joonho Lee, David Small,
  Daniel Levine, Susi Lehtola, Hugh Burton, Evgeny Epifanovsky,
  Bang C. Huynh
 -----------------------------------------------------------------------
 Hartree-Fock
 A restricted SCF calculation will be
 performed using DIIS
 SCF converges when DIIS error is below 1.0e-06
 ---------------------------------------
  Cycle       Energy         DIIS error
 ---------------------------------------
    1   -1184.2834184145      2.40e-02  
    2   -1179.4979088506      1.58e-03  
    3   -1179.6179526191      5.85e-04  
    4   -1179.6311755186      3.16e-04  
    5   -1179.6354673262      6.24e-05  
    6   -1179.6357508447      3.10e-05  
    7   -1179.6358455696      1.47e-05  
    8   -1179.6358820645      5.64e-06  
    9   -1179.6358887809      2.09e-06  
   10   -1179.6358894696      7.24e-07  Convergence criterion met
 ---------------------------------------
 SCF time:   CPU 514.99s  wall 517.00s 

************** Final PCM Free Energy Summary **************
 G_electrostatic  =      -0.00874276 hartree =      -5.48616167 kcal/mol
 G_cavitation     =       0.00000000 hartree =       0.00000000 kcal/mol
 G_dispersion     =       0.00000000 hartree =       0.00000000 kcal/mol
 G_repulsion      =       0.00000000 hartree =       0.00000000 kcal/mol
 --------------------------------------------------
 Non-electrostatic Free Energy =       0.00000000 hartree =       0.00000000 kcal/mol
 Total                         =      -0.00874276 hartree =      -5.48616167 kcal/mol
 --------------------------------------------------
 SCF Energy (H0 + V/2)                       =   -1179.63588947 
 Solute Internal Energy (H0)                 =   -1179.62714671 
 Total Free Energy (H0 + V/2 + non-elec)     =   -1179.63588947 hartree
                                             = -740232.69297367 kcal/mol
***********************************************************

 SCF   energy in the final basis set =    -1179.6358894696
 Total energy in the final basis set =    -1179.6358894696


 --------------------------------------------------------------
  Generalized many-body perturbation theory program
  by Joonho Lee, Fazle Rob, Xintian Feng, Evgeny Epifanovsky

 No regularization used 
 (reg. param. = 0.0000e+00)
  (P|Q)^-1/2 Time:  CPU 1.73 s  wall 1.73 s

 In RI-MP2 calculation: 
 # of frozen core orbitals: 20

 Components of the RIMP2 correlation energy:
        aaaa    correlation energy =        -0.2544353103 a.u.
        abab    correlation energy =        -1.4807152002 a.u.
        bbbb    correlation energy =        -0.2544353103 a.u.
        non-Brillouin singles      =        -0.0000000000 a.u.
        total same-spin energy     =        -0.5088706205 a.u.
        total opposite-spin energy =        -1.4807152002 a.u.

 Total  RIMP2   correlation energy =        -1.9895858207 a.u.
        RIMP2         total energy =     -1181.6254752903 a.u.

 RI-MP2 Energy Time:  CPU 70.71 s  wall 70.91 s
 
 --------------------------------------------------------------
 
                    Orbital Energies (a.u.)
 --------------------------------------------------------------
 
 Alpha MOs
 -- Occupied --
-91.9839 -91.9764 -11.2832 -11.2715 -11.2632 -11.2603 -11.2586 -11.2530
-11.2404 -11.2363 -11.2306 -11.2258  -8.9843  -8.9766  -6.6651  -6.6643
 -6.6639  -6.6575  -6.6569  -6.6563  -1.1866  -1.1460  -1.0443  -1.0183
 -0.9983  -0.9528  -0.9103  -0.8911  -0.7987  -0.7481  -0.7386  -0.6918
 -0.6567  -0.6195  -0.5859  -0.5793  -0.5687  -0.5677  -0.5493  -0.5336
 -0.5321  -0.5167  -0.5082  -0.4892  -0.4725  -0.4608  -0.4592  -0.3608
 -0.3338  -0.3193  -0.2872
 -- Virtual --
  0.0632   0.1072   0.1401   0.1509   0.1646   0.1711   0.1746   0.1804
  0.1902   0.2010   0.2082   0.2197   0.2270   0.2322   0.2385   0.2450
  0.2565   0.2718   0.2942   0.3136   0.3256   0.3385   0.3505   0.3548
  0.3821   0.3863   0.3885   0.3922   0.3997   0.4149   0.4189   0.4271
  0.4438   0.4441   0.4665   0.4745   0.4772   0.4856   0.4942   0.5003
  0.5076   0.5129   0.5281   0.5320   0.5408   0.5511   0.5630   0.5660
  0.5721   0.5780   0.5935   0.6010   0.6060   0.6101   0.6223   0.6290
  0.6310   0.6359   0.6397   0.6417   0.6499   0.6504   0.6612   0.6631
  0.6761   0.6835   0.6982   0.7129   0.7239   0.7344   0.7419   0.7443
  0.7619   0.7812   0.7998   0.8103   0.8141   0.8231   0.8393   0.8436
  0.8465   0.8561   0.8732   0.8891   0.8988   0.9091   0.9251   0.9375
  0.9582   0.9707   0.9798   0.9990   1.0040   1.0142   1.0270   1.0420
  1.0464   1.0604   1.0683   1.0731   1.0818   1.0890   1.0936   1.1030
  1.1102   1.1260   1.1395   1.1535   1.1666   1.1798   1.1816   1.2029
  1.2085   1.2156   1.2303   1.2360   1.2497   1.2556   1.2636   1.2660
  1.2745   1.2820   1.2950   1.3210   1.3323   1.3440   1.3608   1.3645
  1.3854   1.3943   1.4023   1.4121   1.4268   1.4365   1.4539   1.4616
  1.4787   1.4866   1.4950   1.5009   1.5184   1.5358   1.5421   1.5485
  1.5535   1.5571   1.5634   1.5707   1.5786   1.5929   1.6086   1.6311
  1.6460   1.6590   1.6808   1.6918   1.6934   1.6995   1.7166   1.7276
  1.7425   1.7575   1.7634   1.7772   1.7958   1.8029   1.8379   1.8420
  1.8552   1.8727   1.8994   1.9379   1.9546   1.9601   1.9778   1.9933
  2.0041   2.0175   2.0525   2.0863   2.1062   2.1322   2.1617   2.1754
  2.1793   2.1975   2.2037   2.2214   2.2331   2.2483   2.2679   2.2742
  2.2880   2.3067   2.3494   2.3776   2.4073   2.4139   2.4404   2.4584
  2.4744   2.4853   2.5039   2.5282   2.5372   2.5473   2.5837   2.5929
  2.6193   2.6451   2.6505   2.6683   2.6754   2.7039   2.7193   2.7319
  2.7363   2.7523   2.7659   2.7724   2.7769   2.7872   2.8015   2.8215
  2.8254   2.8334   2.8557   2.8630   2.8843   2.8977   2.9136   2.9367
  2.9484   2.9650   2.9733   2.9908   3.0026   3.0079   3.0312   3.0394
  3.0591   3.0663   3.0791   3.1078   3.1125   3.1191   3.1351   3.1522
  3.1617   3.1654   3.1749   3.1810   3.1923   3.2070   3.2139   3.2235
  3.2314   3.2471   3.2571   3.2648   3.2761   3.2879   3.2985   3.3154
  3.3270   3.3342   3.3376   3.3389   3.3464   3.3617   3.3684   3.3860
  3.3899   3.3903   3.4005   3.4078   3.4170   3.4240   3.4378   3.4444
  3.4566   3.4648   3.4745   3.4768   3.5048   3.5111   3.5151   3.5262
  3.5295   3.5410   3.5517   3.5603   3.5658   3.5722   3.5849   3.6027
  3.6168   3.6210   3.6291   3.6377   3.6441   3.6452   3.6565   3.6695
  3.6812   3.7012   3.7081   3.7181   3.7227   3.7378   3.7542   3.7636
  3.7684   3.7756   3.7893   3.7983   3.8038   3.8126   3.8454   3.8513
  3.8602   3.8838   3.8893   3.8996   3.9222   3.9449   3.9509   3.9582
  3.9679   3.9785   4.0122   4.0159   4.0214   4.0382   4.0456   4.0490
  4.0680   4.0762   4.0860   4.1048   4.1225   4.1256   4.1377   4.1676
  4.1757   4.1854   4.1972   4.1997   4.2052   4.2194   4.2255   4.2412
  4.2525   4.2588   4.2656   4.2864   4.3019   4.3147   4.3237   4.3381
  4.3457   4.3529   4.3692   4.3810   4.3882   4.3996   4.4029   4.4221
  4.4353   4.4458   4.4642   4.4777   4.4990   4.5080   4.5306   4.5573
  4.5863   4.6062   4.6225   4.6302   4.6402   4.6540   4.6672   4.6716
  4.6881   4.7122   4.7362   4.7469   4.7577   4.7816   4.8242   4.8535
  4.8828   4.8984   4.9186   4.9315   4.9477   4.9848   5.0092   5.0590
  5.0707   5.1012   5.1135   5.1403   5.1624   5.1670   5.1882   5.2046
  5.2715   5.2760   5.2896   5.3028   5.3250   5.3671   5.3968   5.4023
  5.4148   5.4480   5.4667   5.4748   5.5183   5.5286   5.5449   5.5493
  5.5663   5.5981   5.6237   5.6258   5.6365   5.6547   5.6994   5.7149
  5.7691   5.8077   5.9139   5.9772   6.0133   6.0560   6.0896   6.2126
  6.2274   6.2312   6.2679   6.2754   6.3268   6.3701   6.5050   8.7979
  9.7695  11.6478  12.4673  12.8383  12.9777  13.7606  13.9411  14.2109
 14.3478
 --------------------------------------------------------------
 
          Ground-State Mulliken Net Atomic Charges

     Atom                 Charge (a.u.)
  ----------------------------------------
      1 C                    -0.229833
      2 C                    -0.248788
      3 C                     0.036743
      4 H                     0.180513
      5 C                    -0.047032
      6 S                     0.019309
      7 C                    -0.284737
      8 H                     0.105752
      9 H                     0.108640
     10 H                     0.105323
     11 H                     0.201751
     12 C                    -0.088178
     13 C                    -0.134269
     14 C                    -0.004823
     15 H                     0.186789
     16 C                    -0.189531
     17 S                     0.031291
     18 C                    -0.267433
     19 H                     0.102976
     20 H                     0.107822
     21 H                     0.106905
     22 H                     0.200812
  ----------------------------------------
  Sum of atomic charges =     0.000000

 -----------------------------------------------------------------
                    Cartesian Multipole Moments
 -----------------------------------------------------------------
    Charge (ESU x 10^10)
                -0.0000
    Dipole Moment (Debye)
         X       0.9318      Y       0.9585      Z       2.0348
       Tot       2.4347
    Quadrupole Moments (Debye-Ang)
        XX     -80.1742     XY       8.1645     YY     -77.7587
        XZ      -1.3912     YZ      -0.2081     ZZ     -85.1835
    Octopole Moments (Debye-Ang^2)
       XXX    -139.6520    XXY      72.9641    XYY     -36.2384
       YYY     159.0418    XXZ      -3.9756    XYZ       5.3347
       YYZ      -4.4587    XZZ     -45.0642    YZZ      80.1619
       ZZZ       2.0385
    Hexadecapole Moments (Debye-Ang^3)
      XXXX   -1169.0178   XXXY    -199.5165   XXYY    -532.6316
      XYYY    -249.6602   YYYY   -2157.4952   XXXZ       5.5544
      XXYZ     -30.3529   XYYZ     -32.2481   YYYZ     -54.8972
      XXZZ    -291.8280   XYZZ     -65.8892   YYZZ    -532.6019
      XZZZ      18.3936   YZZZ     -62.6291   ZZZZ    -590.1308
 -----------------------------------------------------------------
 Total job time:  589.35s(wall), 586.52s(cpu) 
 Sat Jul  9 09:05:21 2022

        *************************************************************
        *                                                           *
        *  Thank you very much for using Q-Chem.  Have a nice day.  *
        *                                                           *
        *************************************************************


remove work dirs ./qchem3143677.0 -- ./qchem3143677.-1
rm -rf ./qchem3143677
