You are running Q-Chem version: 5.4.0

#
# job setting
#
local host:  exp-1-34
current dir: /expanse/lustre/scratch/theleonzhang/temp_project/Interring_Bonds
input file:  Methylthiophene_Phi_30_Theta_320_Methylthiophene.qcin
output file: 
nprocs     : 0
nthreads   : 1
#
# qchem installation setting
#
QC:          /cm/shared/apps/spack/cpu/opt/spack/linux-centos8-zen2/gcc-10.2.0/qchem-5.4-akfmr7b3t57bfs6qan3padb2wnb2i7cl
QCAUX:       /cm/shared/apps/spack/cpu/opt/spack/linux-centos8-zen2/gcc-10.2.0/qchem-5.4-akfmr7b3t57bfs6qan3padb2wnb2i7cl/qcaux
QCPROG:      /cm/shared/apps/spack/cpu/opt/spack/linux-centos8-zen2/gcc-10.2.0/qchem-5.4-akfmr7b3t57bfs6qan3padb2wnb2i7cl/exe/qcprog.exe_s
QCPROG_S:    /cm/shared/apps/spack/cpu/opt/spack/linux-centos8-zen2/gcc-10.2.0/qchem-5.4-akfmr7b3t57bfs6qan3padb2wnb2i7cl/exe/qcprog.exe_s
PARALLEL:    -DSERIAL
QCMPI:       mpich
#
# qchem directory setting
#
qcrun:       qchem579083
QCSCRATCH:   .
QCLOCALSCR:  
QCTMPDIR:    .
QCFILEPREF:  ./qchem579083
QCSAVEDIR:   
workdirs:    ./qchem579083
workdir0:    ./qchem579083
partmpdirs =  
#
# parallel setting
#
QCRSH:           ssh
QCMPI:           mpich
QCMPIRUN:        /cm/shared/apps/spack/cpu/opt/spack/linux-centos8-zen2/gcc-10.2.0/qchem-5.4-akfmr7b3t57bfs6qan3padb2wnb2i7cl/bin/mpi/mpirun_qchem
QCMACHINEFILE:   ./qchem579083/hostfile

#
# env setting
#
exported envs:   QC QCAUX QCSCRATCH QCRUNNAME QCFILEPREF QCPROG QCPROG_S GUIFILE

Running Job 1 of 1 Methylthiophene_Phi_30_Theta_320_Methylthiophene.qcin
qchem Methylthiophene_Phi_30_Theta_320_Methylthiophene.qcin_579083.0 ./qchem579083/ 0
/cm/shared/apps/spack/cpu/opt/spack/linux-centos8-zen2/gcc-10.2.0/qchem-5.4-akfmr7b3t57bfs6qan3padb2wnb2i7cl/exe/qcprog.exe_s Methylthiophene_Phi_30_Theta_320_Methylthiophene.qcin_579083.0 ./qchem579083/
                  Welcome to Q-Chem
     A Quantum Leap Into The Future Of Chemistry


 Q-Chem 5.4, Q-Chem, Inc., Pleasanton, CA (2021)

 License issued to: University of California, San Diego (site)

 E. Epifanovsky,  A. T. B. Gilbert,  Xintian Feng,  Joonho Lee,  Yuezhi Mao,  
 N. Mardirossian,  P. Pokhilko,  A. White,  M. Wormit,  M. P. Coons,  
 A. L. Dempwolff,  Zhengting Gan,  D. Hait,  P. R. Horn,  L. D. Jacobson,  
 I. Kaliman,  J. Kussmann,  A. W. Lange,  Ka Un Lao,  D. S. Levine,  Jie Liu,  
 S. C. McKenzie,  A. F. Morrison,  K. Nanda,  F. Plasser,  D. R. Rehn,  
 M. L. Vidal,  Zhi-Qiang You,  Ying Zhu,  B. Alam,  B. Albrecht,  
 A. Aldossary,  E. Alguire,  J. H. Andersen,  D. Barton,  K. Begam,  A. Behn,  
 Y. A. Bernard,  E. J. Berquist,  H. Burton,  A. Carreras,  K. Carter-Fenk,  
 R. Chakraborty,  A. D. Chien,  K. D. Closser,  V. Cofer-Shabica,  
 S. Dasgupta,  Jia Deng,  M. de Wergifosse,  M. Diedenhofen,  Hainam Do,  
 S. Ehlert,  Po-Tung Fang,  S. Fatehi,  Qingguo Feng,  J. Gayvert,  
 Qinghui Ge,  G. Gidofalvi,  M. Goldey,  J. Gomes,  C. Gonzalez-Espinoza,  
 S. Gulania,  A. Gunina,  M. W. D. Hanson-Heine,  P. H. P. Harbach,  
 A. W. Hauser,  M. F. Herbst,  M. Hernandez Vera,  M. Hodecker,  
 Z. C. Holden,  S. Houck,  Xunkun Huang,  Kerwin Hui,  B. C. Huynh,  
 M. Ivanov,  Hyunjun Ji,  Hanjie Jiang,  B. Kaduk,  S. Kaehler,  
 K. Khistyaev,  Jaehoon Kim,  P. Klunzinger,  Z. Koczor-Benda,  
 Joong Hoon Koh,  D. Kosenkov,  L. Koulias,  T. Kowalczyk,  C. M. Krauter,  
 K. Kue,  A. Kunitsa,  T. Kus,  A. Landau,  K. V. Lawler,  D. Lefrancois,  
 S. Lehtola,  Rain Li,  Yi-Pei Li,  Jiashu Liang,  M. Liebenthal,  
 Hung-Hsuan Lin,  You-Sheng Lin,  Fenglai Liu,  Kuan-Yu Liu,  
 M. Loipersberger,  A. Luenser,  A. Manjanath,  P. Manohar,  E. Mansoor,  
 S. F. Manzer,  Shan-Ping Mao,  A. V. Marenich,  T. Markovich,  S. Mason,  
 S. A. Maurer,  P. F. McLaughlin,  M. F. S. J. Menger,  J.-M. Mewes,  
 S. A. Mewes,  P. Morgante,  J. W. Mullinax,  T. S. Nguyen-Beck,  
 K. J. Oosterbaan,  G. Paran,  Alexander C. Paul,  Suranjan K. Paul,  
 F. Pavosevic,  Zheng Pei,  S. Prager,  E. I. Proynov,  E. Ramos,  B. Rana,  
 A. E. Rask,  A. Rettig,  R. M. Richard,  F. Rob,  E. Rossomme,  T. Scheele,  
 M. Scheurer,  M. Schneider,  N. Sergueev,  S. M. Sharada,  W. Skomorowski,  
 D. W. Small,  C. J. Stein,  Yu-Chuan Su,  E. J. Sundstrom,  Zhen Tao,  
 J. Thirman,  T. Tsuchimochi,  N. M. Tubman,  S. P. Veccham,  O. Vydrov,  
 J. Wenzel,  J. Witte,  A. Yamada,  Kun Yao,  S. Yeganeh,  S. R. Yost,  
 A. Zech,  Igor Ying Zhang,  Xing Zhang,  Yu Zhang,  D. Zuev,  
 A. Aspuru-Guzik,  A. T. Bell,  N. A. Besley,  K. B. Bravaya,  B. R. Brooks,  
 D. Casanova,  Jeng-Da Chai,  S. Coriani,  C. J. Cramer,  
 A. E. DePrince, III,  R. A. DiStasio Jr.,  A. Dreuw,  B. D. Dunietz,  
 T. R. Furlani,  W. A. Goddard III,  S. Grimme,  S. Hammes-Schiffer,  
 T. Head-Gordon,  W. J. Hehre,  Chao-Ping Hsu,  T.-C. Jagau,  Yousung Jung,  
 A. Klamt,  Jing Kong,  D. S. Lambrecht,  WanZhen Liang,  N. J. Mayhall,  
 C. W. McCurdy,  J. B. Neaton,  C. Ochsenfeld,  J. A. Parkhill,  R. Peverati,  
 V. A. Rassolov,  Yihan Shao,  L. V. Slipchenko,  T. Stauch,  R. P. Steele,  
 J. E. Subotnik,  A. J. W. Thom,  A. Tkatchenko,  D. G. Truhlar,  
 T. Van Voorhis,  T. A. Wesolowski,  K. B. Whaley,  H. L. Woodcock III,  
 P. M. Zimmerman,  S. Faraji,  P. M. W. Gill,  M. Head-Gordon,  
 J. M. Herbert,  A. I. Krylov

 Contributors to earlier versions of Q-Chem not listed above: 
 R. D. Adamson,  B. Austin,  R. Baer,  J. Baker,  G. J. O. Beran,  
 K. Brandhorst,  S. T. Brown,  E. F. C. Byrd,  A. K. Chakraborty,  
 G. K. L. Chan,  Chun-Min Chang,  Yunqing Chen,  C.-L. Cheng,  
 Siu Hung Chien,  D. M. Chipman,  D. L. Crittenden,  H. Dachsel,  
 R. J. Doerksen,  A. D. Dutoi,  R. G. Edgar,  J. Fosso-Tande,  
 L. Fusti-Molnar,  D. Ghosh,  A. Ghysels,  A. Golubeva-Zadorozhnaya,  
 J. Gonthier,  M. S. Gordon,  S. R. Gwaltney,  G. Hawkins,  J. E. Herr,  
 A. Heyden,  S. Hirata,  E. G. Hohenstein,  G. Kedziora,  F. J. Keil,  
 C. Kelley,  Jihan Kim,  R. A. King,  R. Z. Khaliullin,  P. P. Korambath,  
 W. Kurlancheek,  A. Laurent,  A. M. Lee,  M. S. Lee,  S. V. Levchenko,  
 Ching Yeh Lin,  D. Liotard,  E. Livshits,  R. C. Lochan,  I. Lotan,  
 L. A. Martinez-Martinez,  P. E. Maslen,  N. Nair,  D. P. O'Neill,  
 D. Neuhauser,  E. Neuscamman,  C. M. Oana,  R. Olivares-Amaya,  R. Olson,  
 T. M. Perrine,  B. Peters,  P. A. Pieniazek,  A. Prociuk,  Y. M. Rhee,  
 J. Ritchie,  M. A. Rohrdanz,  E. Rosta,  N. J. Russ,  H. F. Schaefer III,  
 M. W. Schmidt,  N. E. Schultz,  S. Sharma,  N. Shenvi,  C. D. Sherrill,  
 A. C. Simmonett,  A. Sodt,  T. Stein,  D. Stuck,  K. S. Thanthiriwatte,  
 V. Vanovschi,  L. Vogt,  Tao Wang,  A. Warshel,  M. A. Watson,  
 C. F. Williams,  Q. Wu,  X. Xu,  Jun Yang,  W. Zhang,  Yan Zhao

 Please cite Q-Chem as follows:
 Y. Shao et al., Mol. Phys. 113, 184-215 (2015)
 DOI: 10.1080/00268976.2014.952696

 Q-Chem 5.4.0 for Intel X86 EM64T Linux

 Parts of Q-Chem use Armadillo 9.800.1 (Horizon Scraper).
 http://arma.sourceforge.net/

 Q-Chem begins on Sat Jul  9 09:28:50 2022  

 Host: 
0

     Scratch files written to ./qchem579083//
 May1621 |scratch|qcdevops|jenkins|workspace|build_RNUM    
 Processing $rem in /cm/shared/apps/spack/cpu/opt/spack/linux-centos8-zen2/gcc-10.2.0/qchem-5.4-akfmr7b3t57bfs6qan3padb2wnb2i7cl/config/preferences:
 Processing $rem in /home/theleonzhang/.qchemrc:
 Symmetry turned off for PCM/SM12/SMD calculation
 Core orbitals will be frozen

 Checking the input file for inconsistencies... 	...done.

--------------------------------------------------------------
User input:
--------------------------------------------------------------
$molecule
0 1
C	0.497696	-3.866725	0.594240
C	-0.393981	-3.703963	-0.469057
C	-0.685571	-2.357056	-0.817136
H	-0.837848	-4.561092	-0.997777
C	0.000000	-1.440664	0.000000
S	0.992782	-2.286957	1.183137
C	-1.620802	-1.978743	-1.932056
H	-2.035506	-2.878678	-2.426166
H	-1.109943	-1.376015	-2.711806
H	-2.477350	-1.375728	-1.564678
H	0.883271	-4.783437	1.054110
C	0.000000	0.000000	0.000000
C	0.431829	0.747884	1.099446
C	1.123799	1.946373	0.776721
H	0.247423	0.428497	2.136088
C	1.234147	2.137457	-0.612546
S	0.471221	0.816130	-1.486809
C	1.667694	2.888380	1.814609
H	1.454874	2.519768	2.836676
H	1.222009	3.901210	1.726239
H	2.767675	3.008788	1.726228
H	1.708773	2.959493	-1.161575
$end

$rem
JOBTYPE		SP
EXCHANGE	HF
CORRELATION	pRIMP2
BASIS		cc-pvtz
METHOD		rimp2
AUX_BASIS	rimp2-cc-pvtz
SOLVENT_METHOD	PCM
PURECART	11111
SYMMETRY	false
MEM_TOTAL	110000
SCF_CONVERGENCE = 6
THRESH=10
$end



$solvent
dielectric 4.90
$end
--------------------------------------------------------------
 ----------------------------------------------------------------
             Standard Nuclear Orientation (Angstroms)
    I     Atom           X                Y                Z
 ----------------------------------------------------------------
    1      C       0.4976960000    -3.8667250000     0.5942400000
    2      C      -0.3939810000    -3.7039630000    -0.4690570000
    3      C      -0.6855710000    -2.3570560000    -0.8171360000
    4      H      -0.8378480000    -4.5610920000    -0.9977770000
    5      C       0.0000000000    -1.4406640000     0.0000000000
    6      S       0.9927820000    -2.2869570000     1.1831370000
    7      C      -1.6208020000    -1.9787430000    -1.9320560000
    8      H      -2.0355060000    -2.8786780000    -2.4261660000
    9      H      -1.1099430000    -1.3760150000    -2.7118060000
   10      H      -2.4773500000    -1.3757280000    -1.5646780000
   11      H       0.8832710000    -4.7834370000     1.0541100000
   12      C       0.0000000000     0.0000000000     0.0000000000
   13      C       0.4318290000     0.7478840000     1.0994460000
   14      C       1.1237990000     1.9463730000     0.7767210000
   15      H       0.2474230000     0.4284970000     2.1360880000
   16      C       1.2341470000     2.1374570000    -0.6125460000
   17      S       0.4712210000     0.8161300000    -1.4868090000
   18      C       1.6676940000     2.8883800000     1.8146090000
   19      H       1.4548740000     2.5197680000     2.8366760000
   20      H       1.2220090000     3.9012100000     1.7262390000
   21      H       2.7676750000     3.0087880000     1.7262280000
   22      H       1.7087730000     2.9594930000    -1.1615750000
 ----------------------------------------------------------------
 Nuclear Repulsion Energy =         841.50612117 hartrees
 There are       51 alpha and       51 beta electrons

 Q-Chem warning in module forms1/BasisType.C, line 2236:

 You are not using the predefined 5D/6D in this basis set.

 Requested basis set is cc-pVTZ
 There are 184 shells and 508 basis functions

 Total QAlloc Memory Limit 110000 MB
 Mega-Array Size       188 MB
 MEM_STATIC part       192 MB
 Discretize the solute cavity surface with Lebedev spheres
	Using 110 Lebedev grid points for each H atom
	Using 194 Lebedev grid points for other atoms
	Atomic van der Waals radii will be scaled by 1.20
 Remove points where switching function is < 1.0e-08
 Keep 1520 surface tesserae and discard 1908 interior tesserae
 Molecular Surface Area = 232.093 Angst**2
 Requested basis set is rimp2-cc-pVTZ
 There are 394 shells and 1354 basis functions
 A cutoff of  1.0D-10 yielded  12257 shell pairs
 There are     91093 function pairs (    117637 Cartesian)
 Smallest overlap matrix eigenvalue = 6.88E-05

 Scale SEOQF with 1.000000e-01/1.000000e-01/1.000000e-01

 Standard Electronic Orientation quadrupole field applied
 Nucleus-field energy     =     0.0000000249 hartrees
 Guess from superposition of atomic densities
 Warning:  Energy on first SCF cycle will be non-variational
 SAD guess density has 102.000000 electrons

 -----------------------------------------------------------------------
  General SCF calculation program by
  Eric Jon Sundstrom, Paul Horn, Yuezhi Mao, Dmitri Zuev, Alec White,
  David Stuck, Shaama M.S., Shane Yost, Joonho Lee, David Small,
  Daniel Levine, Susi Lehtola, Hugh Burton, Evgeny Epifanovsky,
  Bang C. Huynh
 -----------------------------------------------------------------------
 Hartree-Fock
 A restricted SCF calculation will be
 performed using DIIS
 SCF converges when DIIS error is below 1.0e-06
 ---------------------------------------
  Cycle       Energy         DIIS error
 ---------------------------------------
    1   -1184.2430691976      2.39e-02  
    2   -1179.5330575551      1.59e-03  
    3   -1179.6531937119      5.96e-04  
    4   -1179.6664212039      3.24e-04  
    5   -1179.6708471422      6.35e-05  
    6   -1179.6711190486      3.06e-05  
    7   -1179.6712056014      1.28e-05  
    8   -1179.6712346090      5.18e-06  
    9   -1179.6712397138      1.71e-06  
   10   -1179.6712401854      5.17e-07  Convergence criterion met
 ---------------------------------------
 SCF time:   CPU 478.48s  wall 481.00s 

************** Final PCM Free Energy Summary **************
 G_electrostatic  =      -0.00795575 hartree =      -4.99230930 kcal/mol
 G_cavitation     =       0.00000000 hartree =       0.00000000 kcal/mol
 G_dispersion     =       0.00000000 hartree =       0.00000000 kcal/mol
 G_repulsion      =       0.00000000 hartree =       0.00000000 kcal/mol
 --------------------------------------------------
 Non-electrostatic Free Energy =       0.00000000 hartree =       0.00000000 kcal/mol
 Total                         =      -0.00795575 hartree =      -4.99230930 kcal/mol
 --------------------------------------------------
 SCF Energy (H0 + V/2)                       =   -1179.67124019 
 Solute Internal Energy (H0)                 =   -1179.66328443 
 Total Free Energy (H0 + V/2 + non-elec)     =   -1179.67124019 hartree
                                             = -740254.87588263 kcal/mol
***********************************************************

 SCF   energy in the final basis set =    -1179.6712401854
 Total energy in the final basis set =    -1179.6712401854


 --------------------------------------------------------------
  Generalized many-body perturbation theory program
  by Joonho Lee, Fazle Rob, Xintian Feng, Evgeny Epifanovsky

 No regularization used 
 (reg. param. = 0.0000e+00)
  (P|Q)^-1/2 Time:  CPU 1.68 s  wall 1.69 s

 In RI-MP2 calculation: 
 # of frozen core orbitals: 20

 Components of the RIMP2 correlation energy:
        aaaa    correlation energy =        -0.2533947791 a.u.
        abab    correlation energy =        -1.4763002871 a.u.
        bbbb    correlation energy =        -0.2533947791 a.u.
        non-Brillouin singles      =        -0.0000000000 a.u.
        total same-spin energy     =        -0.5067895582 a.u.
        total opposite-spin energy =        -1.4763002871 a.u.

 Total  RIMP2   correlation energy =        -1.9830898452 a.u.
        RIMP2         total energy =     -1181.6543300306 a.u.

 RI-MP2 Energy Time:  CPU 68.11 s  wall 68.40 s
 
 --------------------------------------------------------------
 
                    Orbital Energies (a.u.)
 --------------------------------------------------------------
 
 Alpha MOs
 -- Occupied --
-91.9850 -91.9837 -11.2760 -11.2744 -11.2704 -11.2687 -11.2528 -11.2482
-11.2459 -11.2411 -11.2296 -11.2292  -8.9849  -8.9834  -6.6658  -6.6652
 -6.6646  -6.6643  -6.6637  -6.6631  -1.1820  -1.1491  -1.0422  -1.0230
 -0.9996  -0.9512  -0.9148  -0.8928  -0.7994  -0.7619  -0.7244  -0.6926
 -0.6613  -0.6170  -0.5835  -0.5794  -0.5760  -0.5699  -0.5516  -0.5343
 -0.5262  -0.5186  -0.5087  -0.4951  -0.4828  -0.4679  -0.4563  -0.3539
 -0.3431  -0.3410  -0.2756
 -- Virtual --
  0.0636   0.1218   0.1420   0.1510   0.1619   0.1734   0.1799   0.1868
  0.1911   0.1970   0.2072   0.2251   0.2286   0.2372   0.2408   0.2463
  0.2616   0.2760   0.2962   0.3143   0.3331   0.3499   0.3600   0.3677
  0.3781   0.3848   0.3931   0.4102   0.4178   0.4227   0.4259   0.4397
  0.4458   0.4600   0.4608   0.4749   0.4797   0.4856   0.4943   0.5042
  0.5131   0.5193   0.5268   0.5362   0.5490   0.5512   0.5534   0.5627
  0.5683   0.5796   0.5935   0.6067   0.6094   0.6108   0.6168   0.6206
  0.6234   0.6323   0.6399   0.6432   0.6468   0.6521   0.6547   0.6618
  0.6802   0.6894   0.6959   0.7104   0.7192   0.7310   0.7380   0.7550
  0.7733   0.7832   0.7937   0.8094   0.8121   0.8150   0.8372   0.8458
  0.8551   0.8641   0.8731   0.8850   0.9048   0.9131   0.9317   0.9408
  0.9464   0.9632   0.9736   0.9982   1.0036   1.0173   1.0322   1.0360
  1.0482   1.0536   1.0607   1.0731   1.0748   1.0858   1.0901   1.0947
  1.1046   1.1202   1.1271   1.1503   1.1525   1.1607   1.1817   1.1963
  1.2032   1.2177   1.2260   1.2351   1.2420   1.2575   1.2649   1.2711
  1.2837   1.2909   1.2974   1.3022   1.3330   1.3431   1.3550   1.3666
  1.3703   1.3875   1.4106   1.4148   1.4316   1.4338   1.4480   1.4643
  1.4749   1.4924   1.4961   1.5058   1.5119   1.5166   1.5353   1.5416
  1.5519   1.5563   1.5684   1.5785   1.5790   1.6038   1.6088   1.6253
  1.6500   1.6556   1.6725   1.6790   1.6848   1.7157   1.7228   1.7359
  1.7501   1.7546   1.7727   1.7844   1.7964   1.8114   1.8315   1.8424
  1.8728   1.8974   1.9169   1.9312   1.9528   1.9627   1.9735   1.9857
  2.0089   2.0451   2.0552   2.0821   2.1244   2.1372   2.1398   2.1729
  2.1783   2.1875   2.2065   2.2278   2.2426   2.2627   2.2650   2.2730
  2.2830   2.2979   2.3158   2.3688   2.3975   2.4070   2.4264   2.4451
  2.4784   2.4905   2.5081   2.5275   2.5402   2.5684   2.5851   2.6170
  2.6203   2.6329   2.6477   2.6581   2.6767   2.6965   2.7155   2.7218
  2.7331   2.7508   2.7576   2.7588   2.7734   2.7790   2.7874   2.7975
  2.8172   2.8345   2.8379   2.8612   2.8741   2.8920   2.9052   2.9443
  2.9480   2.9711   2.9766   2.9903   2.9927   3.0118   3.0324   3.0407
  3.0450   3.0805   3.0963   3.1076   3.1127   3.1214   3.1231   3.1354
  3.1422   3.1557   3.1678   3.1714   3.1886   3.1964   3.2044   3.2174
  3.2445   3.2545   3.2664   3.2668   3.2784   3.2843   3.2925   3.3084
  3.3167   3.3202   3.3249   3.3447   3.3479   3.3641   3.3731   3.3735
  3.3834   3.3918   3.3988   3.4124   3.4183   3.4257   3.4391   3.4461
  3.4501   3.4522   3.4720   3.4853   3.4894   3.5121   3.5183   3.5201
  3.5277   3.5379   3.5491   3.5522   3.5572   3.5618   3.5855   3.5978
  3.6089   3.6221   3.6291   3.6362   3.6499   3.6531   3.6692   3.6782
  3.6883   3.6983   3.7023   3.7197   3.7261   3.7392   3.7461   3.7617
  3.7654   3.7770   3.7853   3.7911   3.8052   3.8109   3.8188   3.8436
  3.8557   3.8637   3.8931   3.9014   3.9191   3.9277   3.9423   3.9549
  3.9658   3.9771   3.9872   3.9975   4.0134   4.0186   4.0363   4.0459
  4.0541   4.0769   4.0845   4.0965   4.1193   4.1313   4.1493   4.1504
  4.1736   4.1766   4.1927   4.1946   4.2018   4.2182   4.2217   4.2435
  4.2508   4.2704   4.2817   4.2884   4.2988   4.3059   4.3197   4.3335
  4.3546   4.3592   4.3601   4.3667   4.4014   4.4086   4.4132   4.4210
  4.4344   4.4362   4.4672   4.4786   4.4911   4.5146   4.5376   4.5527
  4.5958   4.6019   4.6232   4.6322   4.6392   4.6492   4.6626   4.6971
  4.7075   4.7247   4.7335   4.7523   4.7622   4.7859   4.8040   4.8397
  4.8708   4.8886   4.8997   4.9203   4.9311   4.9449   4.9701   5.0572
  5.0777   5.0998   5.1088   5.1557   5.1660   5.1715   5.2003   5.2201
  5.2692   5.2826   5.2897   5.3106   5.3192   5.3677   5.3952   5.4043
  5.4088   5.4504   5.4631   5.4666   5.5205   5.5311   5.5446   5.5604
  5.5683   5.5880   5.6202   5.6242   5.6287   5.6936   5.7058   5.7164
  5.7806   5.8249   5.8882   5.9832   6.0186   6.0580   6.1201   6.2274
  6.2289   6.2335   6.2739   6.2927   6.3301   6.4365   6.5125   8.8367
  9.7992  11.5377  12.1210  12.8641  13.0760  13.7720  13.8667  14.2140
 14.4213
 --------------------------------------------------------------
 
          Ground-State Mulliken Net Atomic Charges

     Atom                 Charge (a.u.)
  ----------------------------------------
      1 C                    -0.221789
      2 C                    -0.245492
      3 C                     0.026644
      4 H                     0.183358
      5 C                    -0.008724
      6 S                     0.019204
      7 C                    -0.299048
      8 H                     0.110593
      9 H                     0.110780
     10 H                     0.113054
     11 H                     0.204252
     12 C                     0.020019
     13 C                    -0.310093
     14 C                     0.059265
     15 H                     0.190141
     16 C                    -0.241126
     17 S                     0.038395
     18 C                    -0.268026
     19 H                     0.103330
     20 H                     0.108219
     21 H                     0.108856
     22 H                     0.198188
  ----------------------------------------
  Sum of atomic charges =     0.000000

 -----------------------------------------------------------------
                    Cartesian Multipole Moments
 -----------------------------------------------------------------
    Charge (ESU x 10^10)
                -0.0000
    Dipole Moment (Debye)
         X       0.1607      Y       0.4831      Z       0.3304
       Tot       0.6069
    Quadrupole Moments (Debye-Ang)
        XX     -87.1513     XY       6.4082     YY     -71.9841
        XZ       3.7137     YZ       2.5659     ZZ     -82.6884
    Octopole Moments (Debye-Ang^2)
       XXX    -100.0212    XXY      58.3071    XYY     -16.6397
       YYY     114.5007    XXZ      -0.9704    XYZ     -13.3308
       YYZ       0.4885    XZZ     -30.6224    YZZ      53.9276
       ZZZ       7.4532
    Hexadecapole Moments (Debye-Ang^3)
      XXXX    -609.1380   XXXY    -200.8384   XXYY    -539.5179
      XYYY    -195.9252   YYYY   -2404.2366   XXXZ    -185.5283
      XXYZ     -27.3510   XYYZ     -18.2145   YYYZ    -115.4280
      XXZZ    -241.5039   XYZZ     -55.9206   YYZZ    -572.6836
      XZZZ    -183.6366   YZZZ     -76.6598   ZZZZ    -856.4280
 -----------------------------------------------------------------
 Total job time:  551.71s(wall), 547.40s(cpu) 
 Sat Jul  9 09:38:02 2022

        *************************************************************
        *                                                           *
        *  Thank you very much for using Q-Chem.  Have a nice day.  *
        *                                                           *
        *************************************************************


remove work dirs ./qchem579083.0 -- ./qchem579083.-1
rm -rf ./qchem579083
