You are running Q-Chem version: 5.4.0

#
# job setting
#
local host:  exp-1-55
current dir: /expanse/lustre/scratch/theleonzhang/temp_project/Interring_Bonds
input file:  Methylthiophene_Phi_5_Theta_130_Methylthiophene.qcin
output file: 
nprocs     : 0
nthreads   : 1
#
# qchem installation setting
#
QC:          /cm/shared/apps/spack/cpu/opt/spack/linux-centos8-zen2/gcc-10.2.0/qchem-5.4-akfmr7b3t57bfs6qan3padb2wnb2i7cl
QCAUX:       /cm/shared/apps/spack/cpu/opt/spack/linux-centos8-zen2/gcc-10.2.0/qchem-5.4-akfmr7b3t57bfs6qan3padb2wnb2i7cl/qcaux
QCPROG:      /cm/shared/apps/spack/cpu/opt/spack/linux-centos8-zen2/gcc-10.2.0/qchem-5.4-akfmr7b3t57bfs6qan3padb2wnb2i7cl/exe/qcprog.exe_s
QCPROG_S:    /cm/shared/apps/spack/cpu/opt/spack/linux-centos8-zen2/gcc-10.2.0/qchem-5.4-akfmr7b3t57bfs6qan3padb2wnb2i7cl/exe/qcprog.exe_s
PARALLEL:    -DSERIAL
QCMPI:       mpich
#
# qchem directory setting
#
qcrun:       qchem900107
QCSCRATCH:   .
QCLOCALSCR:  
QCTMPDIR:    .
QCFILEPREF:  ./qchem900107
QCSAVEDIR:   
workdirs:    ./qchem900107
workdir0:    ./qchem900107
partmpdirs =  
#
# parallel setting
#
QCRSH:           ssh
QCMPI:           mpich
QCMPIRUN:        /cm/shared/apps/spack/cpu/opt/spack/linux-centos8-zen2/gcc-10.2.0/qchem-5.4-akfmr7b3t57bfs6qan3padb2wnb2i7cl/bin/mpi/mpirun_qchem
QCMACHINEFILE:   ./qchem900107/hostfile

#
# env setting
#
exported envs:   QC QCAUX QCSCRATCH QCRUNNAME QCFILEPREF QCPROG QCPROG_S GUIFILE

Running Job 1 of 1 Methylthiophene_Phi_5_Theta_130_Methylthiophene.qcin
qchem Methylthiophene_Phi_5_Theta_130_Methylthiophene.qcin_900107.0 ./qchem900107/ 0
/cm/shared/apps/spack/cpu/opt/spack/linux-centos8-zen2/gcc-10.2.0/qchem-5.4-akfmr7b3t57bfs6qan3padb2wnb2i7cl/exe/qcprog.exe_s Methylthiophene_Phi_5_Theta_130_Methylthiophene.qcin_900107.0 ./qchem900107/
                  Welcome to Q-Chem
     A Quantum Leap Into The Future Of Chemistry


 Q-Chem 5.4, Q-Chem, Inc., Pleasanton, CA (2021)

 License issued to: University of California, San Diego (site)

 E. Epifanovsky,  A. T. B. Gilbert,  Xintian Feng,  Joonho Lee,  Yuezhi Mao,  
 N. Mardirossian,  P. Pokhilko,  A. White,  M. Wormit,  M. P. Coons,  
 A. L. Dempwolff,  Zhengting Gan,  D. Hait,  P. R. Horn,  L. D. Jacobson,  
 I. Kaliman,  J. Kussmann,  A. W. Lange,  Ka Un Lao,  D. S. Levine,  Jie Liu,  
 S. C. McKenzie,  A. F. Morrison,  K. Nanda,  F. Plasser,  D. R. Rehn,  
 M. L. Vidal,  Zhi-Qiang You,  Ying Zhu,  B. Alam,  B. Albrecht,  
 A. Aldossary,  E. Alguire,  J. H. Andersen,  D. Barton,  K. Begam,  A. Behn,  
 Y. A. Bernard,  E. J. Berquist,  H. Burton,  A. Carreras,  K. Carter-Fenk,  
 R. Chakraborty,  A. D. Chien,  K. D. Closser,  V. Cofer-Shabica,  
 S. Dasgupta,  Jia Deng,  M. de Wergifosse,  M. Diedenhofen,  Hainam Do,  
 S. Ehlert,  Po-Tung Fang,  S. Fatehi,  Qingguo Feng,  J. Gayvert,  
 Qinghui Ge,  G. Gidofalvi,  M. Goldey,  J. Gomes,  C. Gonzalez-Espinoza,  
 S. Gulania,  A. Gunina,  M. W. D. Hanson-Heine,  P. H. P. Harbach,  
 A. W. Hauser,  M. F. Herbst,  M. Hernandez Vera,  M. Hodecker,  
 Z. C. Holden,  S. Houck,  Xunkun Huang,  Kerwin Hui,  B. C. Huynh,  
 M. Ivanov,  Hyunjun Ji,  Hanjie Jiang,  B. Kaduk,  S. Kaehler,  
 K. Khistyaev,  Jaehoon Kim,  P. Klunzinger,  Z. Koczor-Benda,  
 Joong Hoon Koh,  D. Kosenkov,  L. Koulias,  T. Kowalczyk,  C. M. Krauter,  
 K. Kue,  A. Kunitsa,  T. Kus,  A. Landau,  K. V. Lawler,  D. Lefrancois,  
 S. Lehtola,  Rain Li,  Yi-Pei Li,  Jiashu Liang,  M. Liebenthal,  
 Hung-Hsuan Lin,  You-Sheng Lin,  Fenglai Liu,  Kuan-Yu Liu,  
 M. Loipersberger,  A. Luenser,  A. Manjanath,  P. Manohar,  E. Mansoor,  
 S. F. Manzer,  Shan-Ping Mao,  A. V. Marenich,  T. Markovich,  S. Mason,  
 S. A. Maurer,  P. F. McLaughlin,  M. F. S. J. Menger,  J.-M. Mewes,  
 S. A. Mewes,  P. Morgante,  J. W. Mullinax,  T. S. Nguyen-Beck,  
 K. J. Oosterbaan,  G. Paran,  Alexander C. Paul,  Suranjan K. Paul,  
 F. Pavosevic,  Zheng Pei,  S. Prager,  E. I. Proynov,  E. Ramos,  B. Rana,  
 A. E. Rask,  A. Rettig,  R. M. Richard,  F. Rob,  E. Rossomme,  T. Scheele,  
 M. Scheurer,  M. Schneider,  N. Sergueev,  S. M. Sharada,  W. Skomorowski,  
 D. W. Small,  C. J. Stein,  Yu-Chuan Su,  E. J. Sundstrom,  Zhen Tao,  
 J. Thirman,  T. Tsuchimochi,  N. M. Tubman,  S. P. Veccham,  O. Vydrov,  
 J. Wenzel,  J. Witte,  A. Yamada,  Kun Yao,  S. Yeganeh,  S. R. Yost,  
 A. Zech,  Igor Ying Zhang,  Xing Zhang,  Yu Zhang,  D. Zuev,  
 A. Aspuru-Guzik,  A. T. Bell,  N. A. Besley,  K. B. Bravaya,  B. R. Brooks,  
 D. Casanova,  Jeng-Da Chai,  S. Coriani,  C. J. Cramer,  
 A. E. DePrince, III,  R. A. DiStasio Jr.,  A. Dreuw,  B. D. Dunietz,  
 T. R. Furlani,  W. A. Goddard III,  S. Grimme,  S. Hammes-Schiffer,  
 T. Head-Gordon,  W. J. Hehre,  Chao-Ping Hsu,  T.-C. Jagau,  Yousung Jung,  
 A. Klamt,  Jing Kong,  D. S. Lambrecht,  WanZhen Liang,  N. J. Mayhall,  
 C. W. McCurdy,  J. B. Neaton,  C. Ochsenfeld,  J. A. Parkhill,  R. Peverati,  
 V. A. Rassolov,  Yihan Shao,  L. V. Slipchenko,  T. Stauch,  R. P. Steele,  
 J. E. Subotnik,  A. J. W. Thom,  A. Tkatchenko,  D. G. Truhlar,  
 T. Van Voorhis,  T. A. Wesolowski,  K. B. Whaley,  H. L. Woodcock III,  
 P. M. Zimmerman,  S. Faraji,  P. M. W. Gill,  M. Head-Gordon,  
 J. M. Herbert,  A. I. Krylov

 Contributors to earlier versions of Q-Chem not listed above: 
 R. D. Adamson,  B. Austin,  R. Baer,  J. Baker,  G. J. O. Beran,  
 K. Brandhorst,  S. T. Brown,  E. F. C. Byrd,  A. K. Chakraborty,  
 G. K. L. Chan,  Chun-Min Chang,  Yunqing Chen,  C.-L. Cheng,  
 Siu Hung Chien,  D. M. Chipman,  D. L. Crittenden,  H. Dachsel,  
 R. J. Doerksen,  A. D. Dutoi,  R. G. Edgar,  J. Fosso-Tande,  
 L. Fusti-Molnar,  D. Ghosh,  A. Ghysels,  A. Golubeva-Zadorozhnaya,  
 J. Gonthier,  M. S. Gordon,  S. R. Gwaltney,  G. Hawkins,  J. E. Herr,  
 A. Heyden,  S. Hirata,  E. G. Hohenstein,  G. Kedziora,  F. J. Keil,  
 C. Kelley,  Jihan Kim,  R. A. King,  R. Z. Khaliullin,  P. P. Korambath,  
 W. Kurlancheek,  A. Laurent,  A. M. Lee,  M. S. Lee,  S. V. Levchenko,  
 Ching Yeh Lin,  D. Liotard,  E. Livshits,  R. C. Lochan,  I. Lotan,  
 L. A. Martinez-Martinez,  P. E. Maslen,  N. Nair,  D. P. O'Neill,  
 D. Neuhauser,  E. Neuscamman,  C. M. Oana,  R. Olivares-Amaya,  R. Olson,  
 T. M. Perrine,  B. Peters,  P. A. Pieniazek,  A. Prociuk,  Y. M. Rhee,  
 J. Ritchie,  M. A. Rohrdanz,  E. Rosta,  N. J. Russ,  H. F. Schaefer III,  
 M. W. Schmidt,  N. E. Schultz,  S. Sharma,  N. Shenvi,  C. D. Sherrill,  
 A. C. Simmonett,  A. Sodt,  T. Stein,  D. Stuck,  K. S. Thanthiriwatte,  
 V. Vanovschi,  L. Vogt,  Tao Wang,  A. Warshel,  M. A. Watson,  
 C. F. Williams,  Q. Wu,  X. Xu,  Jun Yang,  W. Zhang,  Yan Zhao

 Please cite Q-Chem as follows:
 Y. Shao et al., Mol. Phys. 113, 184-215 (2015)
 DOI: 10.1080/00268976.2014.952696

 Q-Chem 5.4.0 for Intel X86 EM64T Linux

 Parts of Q-Chem use Armadillo 9.800.1 (Horizon Scraper).
 http://arma.sourceforge.net/

 Q-Chem begins on Sat Jul  9 13:51:11 2022  

 Host: 
0

     Scratch files written to ./qchem900107//
 May1621 |scratch|qcdevops|jenkins|workspace|build_RNUM    
 Processing $rem in /cm/shared/apps/spack/cpu/opt/spack/linux-centos8-zen2/gcc-10.2.0/qchem-5.4-akfmr7b3t57bfs6qan3padb2wnb2i7cl/config/preferences:
 Processing $rem in /home/theleonzhang/.qchemrc:
 Symmetry turned off for PCM/SM12/SMD calculation
 Core orbitals will be frozen

 Checking the input file for inconsistencies... 	...done.

--------------------------------------------------------------
User input:
--------------------------------------------------------------
$molecule
0 1
C	-0.593324	-3.866725	-0.498788
C	0.469446	-3.703963	0.393517
C	0.817050	-2.357056	0.685674
H	0.998381	-4.561092	0.837128
C	-0.000000	-1.440664	-0.000000
S	-1.183149	-2.286957	-0.992768
C	1.931676	-1.978743	1.621254
H	2.425882	-2.878678	2.035845
H	1.563980	-1.376015	2.477868
H	2.711417	-1.375728	1.110719
H	-1.052896	-4.783437	-0.884718
C	0.000000	0.000000	0.000000
C	0.075300	0.860311	1.099446
C	0.195935	2.238951	0.776721
H	0.043151	0.492916	2.136088
C	0.215188	2.458766	-0.612546
S	0.082160	0.938811	-1.486809
C	0.290762	3.322559	1.814609
H	0.253664	2.898542	2.836676
H	-0.541206	4.052140	1.726239
H	1.236797	3.896558	1.726228
H	0.297938	3.404370	-1.161575
$end

$rem
JOBTYPE		SP
EXCHANGE	HF
CORRELATION	pRIMP2
BASIS		cc-pvtz
METHOD		rimp2
AUX_BASIS	rimp2-cc-pvtz
SOLVENT_METHOD	PCM
PURECART	11111
SYMMETRY	false
MEM_TOTAL	110000
SCF_CONVERGENCE = 6
THRESH=10
$end



$solvent
dielectric 4.90
$end
--------------------------------------------------------------
 ----------------------------------------------------------------
             Standard Nuclear Orientation (Angstroms)
    I     Atom           X                Y                Z
 ----------------------------------------------------------------
    1      C      -0.5933240000    -3.8667250000    -0.4987880000
    2      C       0.4694460000    -3.7039630000     0.3935170000
    3      C       0.8170500000    -2.3570560000     0.6856740000
    4      H       0.9983810000    -4.5610920000     0.8371280000
    5      C       0.0000000000    -1.4406640000     0.0000000000
    6      S      -1.1831490000    -2.2869570000    -0.9927680000
    7      C       1.9316760000    -1.9787430000     1.6212540000
    8      H       2.4258820000    -2.8786780000     2.0358450000
    9      H       1.5639800000    -1.3760150000     2.4778680000
   10      H       2.7114170000    -1.3757280000     1.1107190000
   11      H      -1.0528960000    -4.7834370000    -0.8847180000
   12      C       0.0000000000     0.0000000000     0.0000000000
   13      C       0.0753000000     0.8603110000     1.0994460000
   14      C       0.1959350000     2.2389510000     0.7767210000
   15      H       0.0431510000     0.4929160000     2.1360880000
   16      C       0.2151880000     2.4587660000    -0.6125460000
   17      S       0.0821600000     0.9388110000    -1.4868090000
   18      C       0.2907620000     3.3225590000     1.8146090000
   19      H       0.2536640000     2.8985420000     2.8366760000
   20      H      -0.5412060000     4.0521400000     1.7262390000
   21      H       1.2367970000     3.8965580000     1.7262280000
   22      H       0.2979380000     3.4043700000    -1.1615750000
 ----------------------------------------------------------------
 Nuclear Repulsion Energy =         834.59019733 hartrees
 There are       51 alpha and       51 beta electrons

 Q-Chem warning in module forms1/BasisType.C, line 2236:

 You are not using the predefined 5D/6D in this basis set.

 Requested basis set is cc-pVTZ
 There are 184 shells and 508 basis functions

 Total QAlloc Memory Limit 110000 MB
 Mega-Array Size       188 MB
 MEM_STATIC part       192 MB
 Discretize the solute cavity surface with Lebedev spheres
	Using 110 Lebedev grid points for each H atom
	Using 194 Lebedev grid points for other atoms
	Atomic van der Waals radii will be scaled by 1.20
 Remove points where switching function is < 1.0e-08
 Keep 1550 surface tesserae and discard 1878 interior tesserae
 Molecular Surface Area = 234.791 Angst**2
 Requested basis set is rimp2-cc-pVTZ
 There are 394 shells and 1354 basis functions
 A cutoff of  1.0D-10 yielded  12323 shell pairs
 There are     91459 function pairs (    118016 Cartesian)
 Smallest overlap matrix eigenvalue = 5.87E-05

 Scale SEOQF with 1.000000e-01/1.000000e-01/1.000000e-01

 Standard Electronic Orientation quadrupole field applied
 Nucleus-field energy     =     0.0000000295 hartrees
 Guess from superposition of atomic densities
 Warning:  Energy on first SCF cycle will be non-variational
 SAD guess density has 102.000000 electrons

 -----------------------------------------------------------------------
  General SCF calculation program by
  Eric Jon Sundstrom, Paul Horn, Yuezhi Mao, Dmitri Zuev, Alec White,
  David Stuck, Shaama M.S., Shane Yost, Joonho Lee, David Small,
  Daniel Levine, Susi Lehtola, Hugh Burton, Evgeny Epifanovsky,
  Bang C. Huynh
 -----------------------------------------------------------------------
 Hartree-Fock
 A restricted SCF calculation will be
 performed using DIIS
 SCF converges when DIIS error is below 1.0e-06
 ---------------------------------------
  Cycle       Energy         DIIS error
 ---------------------------------------
    1   -1184.2132218718      2.38e-02  
    2   -1179.5474510496      1.60e-03  
    3   -1179.6673561285      6.19e-04  
    4   -1179.6809879371      3.44e-04  
    5   -1179.6859107466      6.61e-05  
    6   -1179.6861859100      3.00e-05  
    7   -1179.6862694170      1.23e-05  
    8   -1179.6862956286      5.30e-06  
    9   -1179.6863002969      1.63e-06  
   10   -1179.6863007435      5.22e-07  Convergence criterion met
 ---------------------------------------
 SCF time:   CPU 480.26s  wall 483.00s 

************** Final PCM Free Energy Summary **************
 G_electrostatic  =      -0.00834693 hartree =      -5.23777691 kcal/mol
 G_cavitation     =       0.00000000 hartree =       0.00000000 kcal/mol
 G_dispersion     =       0.00000000 hartree =       0.00000000 kcal/mol
 G_repulsion      =       0.00000000 hartree =       0.00000000 kcal/mol
 --------------------------------------------------
 Non-electrostatic Free Energy =       0.00000000 hartree =       0.00000000 kcal/mol
 Total                         =      -0.00834693 hartree =      -5.23777691 kcal/mol
 --------------------------------------------------
 SCF Energy (H0 + V/2)                       =   -1179.68630074 
 Solute Internal Energy (H0)                 =   -1179.67795381 
 Total Free Energy (H0 + V/2 + non-elec)     =   -1179.68630074 hartree
                                             = -740264.32652552 kcal/mol
***********************************************************

 SCF   energy in the final basis set =    -1179.6863007435
 Total energy in the final basis set =    -1179.6863007435


 --------------------------------------------------------------
  Generalized many-body perturbation theory program
  by Joonho Lee, Fazle Rob, Xintian Feng, Evgeny Epifanovsky

 No regularization used 
 (reg. param. = 0.0000e+00)
  (P|Q)^-1/2 Time:  CPU 1.68 s  wall 1.69 s

 In RI-MP2 calculation: 
 # of frozen core orbitals: 20

 Components of the RIMP2 correlation energy:
        aaaa    correlation energy =        -0.2525092105 a.u.
        abab    correlation energy =        -1.4736565660 a.u.
        bbbb    correlation energy =        -0.2525092105 a.u.
        non-Brillouin singles      =        -0.0000000000 a.u.
        total same-spin energy     =        -0.5050184210 a.u.
        total opposite-spin energy =        -1.4736565660 a.u.

 Total  RIMP2   correlation energy =        -1.9786749870 a.u.
        RIMP2         total energy =     -1181.6649757305 a.u.

 RI-MP2 Energy Time:  CPU 67.30 s  wall 67.59 s
 
 --------------------------------------------------------------
 
                    Orbital Energies (a.u.)
 --------------------------------------------------------------
 
 Alpha MOs
 -- Occupied --
-91.9860 -91.9848 -11.2807 -11.2753 -11.2726 -11.2642 -11.2542 -11.2516
-11.2429 -11.2412 -11.2297 -11.2293  -8.9855  -8.9846  -6.6664  -6.6658
 -6.6655  -6.6652  -6.6649  -6.6643  -1.1796  -1.1499  -1.0408  -1.0247
 -0.9964  -0.9555  -0.9132  -0.8932  -0.8020  -0.7540  -0.7302  -0.6973
 -0.6623  -0.6154  -0.5853  -0.5803  -0.5703  -0.5657  -0.5522  -0.5352
 -0.5294  -0.5216  -0.5071  -0.4914  -0.4878  -0.4698  -0.4586  -0.3517
 -0.3415  -0.3393  -0.2828
 -- Virtual --
  0.0740   0.1210   0.1403   0.1498   0.1623   0.1744   0.1784   0.1879
  0.1962   0.1994   0.2016   0.2198   0.2329   0.2377   0.2434   0.2466
  0.2602   0.2790   0.2885   0.3186   0.3393   0.3470   0.3649   0.3770
  0.3792   0.3818   0.3945   0.4013   0.4086   0.4135   0.4217   0.4367
  0.4420   0.4546   0.4707   0.4713   0.4823   0.4903   0.4935   0.4980
  0.5087   0.5122   0.5287   0.5379   0.5452   0.5525   0.5609   0.5627
  0.5757   0.5845   0.5903   0.5958   0.5990   0.6083   0.6121   0.6189
  0.6244   0.6314   0.6406   0.6437   0.6495   0.6555   0.6659   0.6699
  0.6778   0.6895   0.6985   0.7064   0.7128   0.7320   0.7371   0.7555
  0.7709   0.7796   0.7865   0.7918   0.8071   0.8284   0.8366   0.8434
  0.8610   0.8644   0.8769   0.8889   0.9029   0.9236   0.9382   0.9422
  0.9448   0.9590   0.9741   0.9919   1.0051   1.0195   1.0288   1.0324
  1.0477   1.0578   1.0614   1.0703   1.0781   1.0859   1.0922   1.1008
  1.1018   1.1241   1.1397   1.1456   1.1566   1.1614   1.1787   1.2020
  1.2082   1.2167   1.2264   1.2332   1.2446   1.2558   1.2589   1.2631
  1.2766   1.2862   1.3147   1.3235   1.3312   1.3455   1.3498   1.3697
  1.3831   1.3944   1.4027   1.4119   1.4171   1.4389   1.4558   1.4618
  1.4792   1.4823   1.4955   1.5010   1.5172   1.5254   1.5407   1.5436
  1.5554   1.5655   1.5748   1.5799   1.5838   1.6040   1.6236   1.6380
  1.6512   1.6572   1.6653   1.6921   1.6975   1.7131   1.7263   1.7337
  1.7394   1.7625   1.7698   1.7847   1.7990   1.8137   1.8416   1.8561
  1.8861   1.8909   1.9153   1.9200   1.9295   1.9538   1.9602   1.9868
  2.0073   2.0456   2.0563   2.0942   2.1171   2.1334   2.1495   2.1760
  2.1928   2.1951   2.2140   2.2154   2.2299   2.2571   2.2631   2.2721
  2.2773   2.3101   2.3299   2.3867   2.4049   2.4116   2.4432   2.4600
  2.4739   2.4965   2.5177   2.5227   2.5392   2.5651   2.5900   2.6073
  2.6125   2.6291   2.6495   2.6708   2.6746   2.6883   2.7182   2.7303
  2.7383   2.7459   2.7499   2.7601   2.7693   2.7845   2.7961   2.8143
  2.8255   2.8364   2.8522   2.8558   2.8650   2.8904   2.9065   2.9171
  2.9448   2.9616   2.9751   2.9795   2.9913   3.0186   3.0265   3.0382
  3.0437   3.0563   3.0898   3.1104   3.1148   3.1199   3.1288   3.1375
  3.1479   3.1536   3.1630   3.1878   3.1942   3.2016   3.2139   3.2174
  3.2282   3.2450   3.2668   3.2709   3.2808   3.2918   3.2983   3.3143
  3.3191   3.3276   3.3422   3.3479   3.3518   3.3589   3.3626   3.3841
  3.3872   3.3936   3.3977   3.4155   3.4198   3.4254   3.4317   3.4387
  3.4449   3.4571   3.4699   3.4715   3.4898   3.5061   3.5134   3.5208
  3.5259   3.5283   3.5424   3.5572   3.5628   3.5648   3.5777   3.5863
  3.5954   3.6185   3.6237   3.6260   3.6338   3.6490   3.6587   3.6711
  3.6801   3.6812   3.6974   3.7036   3.7255   3.7335   3.7405   3.7531
  3.7594   3.7718   3.7838   3.7967   3.8000   3.8217   3.8325   3.8331
  3.8626   3.8748   3.8882   3.9077   3.9186   3.9353   3.9513   3.9574
  3.9688   3.9883   3.9993   4.0073   4.0157   4.0208   4.0334   4.0538
  4.0673   4.0766   4.0889   4.0993   4.1160   4.1374   4.1413   4.1537
  4.1539   4.1696   4.1872   4.1931   4.2021   4.2073   4.2187   4.2376
  4.2442   4.2653   4.2762   4.2883   4.2913   4.3049   4.3270   4.3462
  4.3470   4.3571   4.3760   4.3948   4.4014   4.4109   4.4178   4.4256
  4.4306   4.4483   4.4621   4.4749   4.4882   4.5026   4.5516   4.5724
  4.5794   4.6005   4.6118   4.6162   4.6359   4.6417   4.6568   4.6712
  4.6974   4.7256   4.7358   4.7484   4.7846   4.7907   4.8182   4.8286
  4.8883   4.8919   4.9082   4.9251   4.9485   4.9721   5.0027   5.0565
  5.0824   5.1058   5.1139   5.1381   5.1680   5.1889   5.2030   5.2693
  5.2742   5.2783   5.2936   5.3108   5.3163   5.3691   5.3847   5.3965
  5.4120   5.4455   5.4693   5.4935   5.5096   5.5295   5.5446   5.5590
  5.5691   5.6043   5.6170   5.6249   5.6382   5.6940   5.7003   5.7170
  5.7746   5.8273   5.9199   5.9725   6.0055   6.1033   6.1401   6.2271
  6.2366   6.2547   6.2814   6.3045   6.3308   6.4495   6.5701   8.7676
  9.9872  11.5976  11.9982  12.8667  13.1225  13.7585  14.0634  14.2479
 14.3781
 --------------------------------------------------------------
 
          Ground-State Mulliken Net Atomic Charges

     Atom                 Charge (a.u.)
  ----------------------------------------
      1 C                    -0.214503
      2 C                    -0.248248
      3 C                     0.045864
      4 H                     0.184506
      5 C                    -0.034669
      6 S                     0.020532
      7 C                    -0.284336
      8 H                     0.111264
      9 H                     0.107515
     10 H                     0.113799
     11 H                     0.205121
     12 C                    -0.002863
     13 C                    -0.246051
     14 C                     0.023901
     15 H                     0.192751
     16 C                    -0.243836
     17 S                     0.023453
     18 C                    -0.271723
     19 H                     0.102218
     20 H                     0.108782
     21 H                     0.108265
     22 H                     0.198260
  ----------------------------------------
  Sum of atomic charges =     0.000000

 -----------------------------------------------------------------
                    Cartesian Multipole Moments
 -----------------------------------------------------------------
    Charge (ESU x 10^10)
                -0.0000
    Dipole Moment (Debye)
         X       1.3262      Y       0.2027      Z       2.4263
       Tot       2.7726
    Quadrupole Moments (Debye-Ang)
        XX     -88.8099     XY      -0.6382     YY     -68.6190
        XZ       3.3256     YZ      -0.3508     ZZ     -84.0241
    Octopole Moments (Debye-Ang^2)
       XXX     -22.7547    XXY      34.6054    XYY      -6.8771
       YYY      93.7640    XXZ      -1.5359    XYZ     -12.3489
       YYZ      -7.1279    XZZ      -6.2406    YZZ      49.6640
       ZZZ       0.2569
    Hexadecapole Moments (Debye-Ang^3)
      XXXX    -466.3165   XXXY     -50.5024   XXYY    -563.2244
      XYYY      -6.1612   YYYY   -2574.3473   XXXZ    -142.9302
      XXYZ     -33.7011   XYYZ       0.1195   YYYZ     -87.4395
      XXZZ    -208.6533   XYZZ     -14.8841   YYZZ    -607.0143
      XZZZ    -146.1777   YZZZ    -101.4926   ZZZZ    -762.2269
 -----------------------------------------------------------------
 Total job time:  552.64s(wall), 548.40s(cpu) 
 Sat Jul  9 14:00:24 2022

        *************************************************************
        *                                                           *
        *  Thank you very much for using Q-Chem.  Have a nice day.  *
        *                                                           *
        *************************************************************


remove work dirs ./qchem900107.0 -- ./qchem900107.-1
rm -rf ./qchem900107
