You are running Q-Chem version: 5.4.0

#
# job setting
#
local host:  exp-1-34
current dir: /expanse/lustre/scratch/theleonzhang/temp_project/Interring_Bonds
input file:  Methylthiophene_Phi_30_Theta_260_Methylthiophene.qcin
output file: 
nprocs     : 0
nthreads   : 1
#
# qchem installation setting
#
QC:          /cm/shared/apps/spack/cpu/opt/spack/linux-centos8-zen2/gcc-10.2.0/qchem-5.4-akfmr7b3t57bfs6qan3padb2wnb2i7cl
QCAUX:       /cm/shared/apps/spack/cpu/opt/spack/linux-centos8-zen2/gcc-10.2.0/qchem-5.4-akfmr7b3t57bfs6qan3padb2wnb2i7cl/qcaux
QCPROG:      /cm/shared/apps/spack/cpu/opt/spack/linux-centos8-zen2/gcc-10.2.0/qchem-5.4-akfmr7b3t57bfs6qan3padb2wnb2i7cl/exe/qcprog.exe_s
QCPROG_S:    /cm/shared/apps/spack/cpu/opt/spack/linux-centos8-zen2/gcc-10.2.0/qchem-5.4-akfmr7b3t57bfs6qan3padb2wnb2i7cl/exe/qcprog.exe_s
PARALLEL:    -DSERIAL
QCMPI:       mpich
#
# qchem directory setting
#
qcrun:       qchem562283
QCSCRATCH:   .
QCLOCALSCR:  
QCTMPDIR:    .
QCFILEPREF:  ./qchem562283
QCSAVEDIR:   
workdirs:    ./qchem562283
workdir0:    ./qchem562283
partmpdirs =  
#
# parallel setting
#
QCRSH:           ssh
QCMPI:           mpich
QCMPIRUN:        /cm/shared/apps/spack/cpu/opt/spack/linux-centos8-zen2/gcc-10.2.0/qchem-5.4-akfmr7b3t57bfs6qan3padb2wnb2i7cl/bin/mpi/mpirun_qchem
QCMACHINEFILE:   ./qchem562283/hostfile

#
# env setting
#
exported envs:   QC QCAUX QCSCRATCH QCRUNNAME QCFILEPREF QCPROG QCPROG_S GUIFILE

Running Job 1 of 1 Methylthiophene_Phi_30_Theta_260_Methylthiophene.qcin
qchem Methylthiophene_Phi_30_Theta_260_Methylthiophene.qcin_562283.0 ./qchem562283/ 0
/cm/shared/apps/spack/cpu/opt/spack/linux-centos8-zen2/gcc-10.2.0/qchem-5.4-akfmr7b3t57bfs6qan3padb2wnb2i7cl/exe/qcprog.exe_s Methylthiophene_Phi_30_Theta_260_Methylthiophene.qcin_562283.0 ./qchem562283/
                  Welcome to Q-Chem
     A Quantum Leap Into The Future Of Chemistry


 Q-Chem 5.4, Q-Chem, Inc., Pleasanton, CA (2021)

 License issued to: University of California, San Diego (site)

 E. Epifanovsky,  A. T. B. Gilbert,  Xintian Feng,  Joonho Lee,  Yuezhi Mao,  
 N. Mardirossian,  P. Pokhilko,  A. White,  M. Wormit,  M. P. Coons,  
 A. L. Dempwolff,  Zhengting Gan,  D. Hait,  P. R. Horn,  L. D. Jacobson,  
 I. Kaliman,  J. Kussmann,  A. W. Lange,  Ka Un Lao,  D. S. Levine,  Jie Liu,  
 S. C. McKenzie,  A. F. Morrison,  K. Nanda,  F. Plasser,  D. R. Rehn,  
 M. L. Vidal,  Zhi-Qiang You,  Ying Zhu,  B. Alam,  B. Albrecht,  
 A. Aldossary,  E. Alguire,  J. H. Andersen,  D. Barton,  K. Begam,  A. Behn,  
 Y. A. Bernard,  E. J. Berquist,  H. Burton,  A. Carreras,  K. Carter-Fenk,  
 R. Chakraborty,  A. D. Chien,  K. D. Closser,  V. Cofer-Shabica,  
 S. Dasgupta,  Jia Deng,  M. de Wergifosse,  M. Diedenhofen,  Hainam Do,  
 S. Ehlert,  Po-Tung Fang,  S. Fatehi,  Qingguo Feng,  J. Gayvert,  
 Qinghui Ge,  G. Gidofalvi,  M. Goldey,  J. Gomes,  C. Gonzalez-Espinoza,  
 S. Gulania,  A. Gunina,  M. W. D. Hanson-Heine,  P. H. P. Harbach,  
 A. W. Hauser,  M. F. Herbst,  M. Hernandez Vera,  M. Hodecker,  
 Z. C. Holden,  S. Houck,  Xunkun Huang,  Kerwin Hui,  B. C. Huynh,  
 M. Ivanov,  Hyunjun Ji,  Hanjie Jiang,  B. Kaduk,  S. Kaehler,  
 K. Khistyaev,  Jaehoon Kim,  P. Klunzinger,  Z. Koczor-Benda,  
 Joong Hoon Koh,  D. Kosenkov,  L. Koulias,  T. Kowalczyk,  C. M. Krauter,  
 K. Kue,  A. Kunitsa,  T. Kus,  A. Landau,  K. V. Lawler,  D. Lefrancois,  
 S. Lehtola,  Rain Li,  Yi-Pei Li,  Jiashu Liang,  M. Liebenthal,  
 Hung-Hsuan Lin,  You-Sheng Lin,  Fenglai Liu,  Kuan-Yu Liu,  
 M. Loipersberger,  A. Luenser,  A. Manjanath,  P. Manohar,  E. Mansoor,  
 S. F. Manzer,  Shan-Ping Mao,  A. V. Marenich,  T. Markovich,  S. Mason,  
 S. A. Maurer,  P. F. McLaughlin,  M. F. S. J. Menger,  J.-M. Mewes,  
 S. A. Mewes,  P. Morgante,  J. W. Mullinax,  T. S. Nguyen-Beck,  
 K. J. Oosterbaan,  G. Paran,  Alexander C. Paul,  Suranjan K. Paul,  
 F. Pavosevic,  Zheng Pei,  S. Prager,  E. I. Proynov,  E. Ramos,  B. Rana,  
 A. E. Rask,  A. Rettig,  R. M. Richard,  F. Rob,  E. Rossomme,  T. Scheele,  
 M. Scheurer,  M. Schneider,  N. Sergueev,  S. M. Sharada,  W. Skomorowski,  
 D. W. Small,  C. J. Stein,  Yu-Chuan Su,  E. J. Sundstrom,  Zhen Tao,  
 J. Thirman,  T. Tsuchimochi,  N. M. Tubman,  S. P. Veccham,  O. Vydrov,  
 J. Wenzel,  J. Witte,  A. Yamada,  Kun Yao,  S. Yeganeh,  S. R. Yost,  
 A. Zech,  Igor Ying Zhang,  Xing Zhang,  Yu Zhang,  D. Zuev,  
 A. Aspuru-Guzik,  A. T. Bell,  N. A. Besley,  K. B. Bravaya,  B. R. Brooks,  
 D. Casanova,  Jeng-Da Chai,  S. Coriani,  C. J. Cramer,  
 A. E. DePrince, III,  R. A. DiStasio Jr.,  A. Dreuw,  B. D. Dunietz,  
 T. R. Furlani,  W. A. Goddard III,  S. Grimme,  S. Hammes-Schiffer,  
 T. Head-Gordon,  W. J. Hehre,  Chao-Ping Hsu,  T.-C. Jagau,  Yousung Jung,  
 A. Klamt,  Jing Kong,  D. S. Lambrecht,  WanZhen Liang,  N. J. Mayhall,  
 C. W. McCurdy,  J. B. Neaton,  C. Ochsenfeld,  J. A. Parkhill,  R. Peverati,  
 V. A. Rassolov,  Yihan Shao,  L. V. Slipchenko,  T. Stauch,  R. P. Steele,  
 J. E. Subotnik,  A. J. W. Thom,  A. Tkatchenko,  D. G. Truhlar,  
 T. Van Voorhis,  T. A. Wesolowski,  K. B. Whaley,  H. L. Woodcock III,  
 P. M. Zimmerman,  S. Faraji,  P. M. W. Gill,  M. Head-Gordon,  
 J. M. Herbert,  A. I. Krylov

 Contributors to earlier versions of Q-Chem not listed above: 
 R. D. Adamson,  B. Austin,  R. Baer,  J. Baker,  G. J. O. Beran,  
 K. Brandhorst,  S. T. Brown,  E. F. C. Byrd,  A. K. Chakraborty,  
 G. K. L. Chan,  Chun-Min Chang,  Yunqing Chen,  C.-L. Cheng,  
 Siu Hung Chien,  D. M. Chipman,  D. L. Crittenden,  H. Dachsel,  
 R. J. Doerksen,  A. D. Dutoi,  R. G. Edgar,  J. Fosso-Tande,  
 L. Fusti-Molnar,  D. Ghosh,  A. Ghysels,  A. Golubeva-Zadorozhnaya,  
 J. Gonthier,  M. S. Gordon,  S. R. Gwaltney,  G. Hawkins,  J. E. Herr,  
 A. Heyden,  S. Hirata,  E. G. Hohenstein,  G. Kedziora,  F. J. Keil,  
 C. Kelley,  Jihan Kim,  R. A. King,  R. Z. Khaliullin,  P. P. Korambath,  
 W. Kurlancheek,  A. Laurent,  A. M. Lee,  M. S. Lee,  S. V. Levchenko,  
 Ching Yeh Lin,  D. Liotard,  E. Livshits,  R. C. Lochan,  I. Lotan,  
 L. A. Martinez-Martinez,  P. E. Maslen,  N. Nair,  D. P. O'Neill,  
 D. Neuhauser,  E. Neuscamman,  C. M. Oana,  R. Olivares-Amaya,  R. Olson,  
 T. M. Perrine,  B. Peters,  P. A. Pieniazek,  A. Prociuk,  Y. M. Rhee,  
 J. Ritchie,  M. A. Rohrdanz,  E. Rosta,  N. J. Russ,  H. F. Schaefer III,  
 M. W. Schmidt,  N. E. Schultz,  S. Sharma,  N. Shenvi,  C. D. Sherrill,  
 A. C. Simmonett,  A. Sodt,  T. Stein,  D. Stuck,  K. S. Thanthiriwatte,  
 V. Vanovschi,  L. Vogt,  Tao Wang,  A. Warshel,  M. A. Watson,  
 C. F. Williams,  Q. Wu,  X. Xu,  Jun Yang,  W. Zhang,  Yan Zhao

 Please cite Q-Chem as follows:
 Y. Shao et al., Mol. Phys. 113, 184-215 (2015)
 DOI: 10.1080/00268976.2014.952696

 Q-Chem 5.4.0 for Intel X86 EM64T Linux

 Parts of Q-Chem use Armadillo 9.800.1 (Horizon Scraper).
 http://arma.sourceforge.net/

 Q-Chem begins on Sat Jul  9 08:33:44 2022  

 Host: 
0

     Scratch files written to ./qchem562283//
 May1621 |scratch|qcdevops|jenkins|workspace|build_RNUM    
 Processing $rem in /cm/shared/apps/spack/cpu/opt/spack/linux-centos8-zen2/gcc-10.2.0/qchem-5.4-akfmr7b3t57bfs6qan3padb2wnb2i7cl/config/preferences:
 Processing $rem in /home/theleonzhang/.qchemrc:
 Symmetry turned off for PCM/SM12/SMD calculation
 Core orbitals will be frozen

 Checking the input file for inconsistencies... 	...done.

--------------------------------------------------------------
User input:
--------------------------------------------------------------
$molecule
0 1
C	0.763475	-3.866725	-0.133897
C	-0.603206	-3.703963	0.106669
C	-1.050446	-2.357056	0.185154
H	-1.283024	-4.561092	0.226709
C	0.000000	-1.440664	0.000000
S	1.521018	-2.286957	-0.268206
C	-2.483610	-1.978743	0.437628
H	-3.118875	-2.878678	0.549717
H	-2.903464	-1.376015	-0.394664
H	-2.593726	-1.375728	1.363110
H	1.354522	-4.783437	-0.237880
C	0.000000	0.000000	0.000000
C	0.431829	0.747884	1.099446
C	1.123799	1.946373	0.776721
H	0.247423	0.428497	2.136088
C	1.234147	2.137457	-0.612546
S	0.471221	0.816130	-1.486809
C	1.667694	2.888380	1.814609
H	1.454874	2.519768	2.836676
H	1.222009	3.901210	1.726239
H	2.767675	3.008788	1.726228
H	1.708773	2.959493	-1.161575
$end

$rem
JOBTYPE		SP
EXCHANGE	HF
CORRELATION	pRIMP2
BASIS		cc-pvtz
METHOD		rimp2
AUX_BASIS	rimp2-cc-pvtz
SOLVENT_METHOD	PCM
PURECART	11111
SYMMETRY	false
MEM_TOTAL	110000
SCF_CONVERGENCE = 6
THRESH=10
$end



$solvent
dielectric 4.90
$end
--------------------------------------------------------------
 ----------------------------------------------------------------
             Standard Nuclear Orientation (Angstroms)
    I     Atom           X                Y                Z
 ----------------------------------------------------------------
    1      C       0.7634750000    -3.8667250000    -0.1338970000
    2      C      -0.6032060000    -3.7039630000     0.1066690000
    3      C      -1.0504460000    -2.3570560000     0.1851540000
    4      H      -1.2830240000    -4.5610920000     0.2267090000
    5      C       0.0000000000    -1.4406640000     0.0000000000
    6      S       1.5210180000    -2.2869570000    -0.2682060000
    7      C      -2.4836100000    -1.9787430000     0.4376280000
    8      H      -3.1188750000    -2.8786780000     0.5497170000
    9      H      -2.9034640000    -1.3760150000    -0.3946640000
   10      H      -2.5937260000    -1.3757280000     1.3631100000
   11      H       1.3545220000    -4.7834370000    -0.2378800000
   12      C       0.0000000000     0.0000000000     0.0000000000
   13      C       0.4318290000     0.7478840000     1.0994460000
   14      C       1.1237990000     1.9463730000     0.7767210000
   15      H       0.2474230000     0.4284970000     2.1360880000
   16      C       1.2341470000     2.1374570000    -0.6125460000
   17      S       0.4712210000     0.8161300000    -1.4868090000
   18      C       1.6676940000     2.8883800000     1.8146090000
   19      H       1.4548740000     2.5197680000     2.8366760000
   20      H       1.2220090000     3.9012100000     1.7262390000
   21      H       2.7676750000     3.0087880000     1.7262280000
   22      H       1.7087730000     2.9594930000    -1.1615750000
 ----------------------------------------------------------------
 Nuclear Repulsion Energy =         839.62631107 hartrees
 There are       51 alpha and       51 beta electrons

 Q-Chem warning in module forms1/BasisType.C, line 2236:

 You are not using the predefined 5D/6D in this basis set.

 Requested basis set is cc-pVTZ
 There are 184 shells and 508 basis functions

 Total QAlloc Memory Limit 110000 MB
 Mega-Array Size       188 MB
 MEM_STATIC part       192 MB
 Discretize the solute cavity surface with Lebedev spheres
	Using 110 Lebedev grid points for each H atom
	Using 194 Lebedev grid points for other atoms
	Atomic van der Waals radii will be scaled by 1.20
 Remove points where switching function is < 1.0e-08
 Keep 1555 surface tesserae and discard 1873 interior tesserae
 Molecular Surface Area = 236.093 Angst**2
 Requested basis set is rimp2-cc-pVTZ
 There are 394 shells and 1354 basis functions
 A cutoff of  1.0D-10 yielded  12254 shell pairs
 There are     90704 function pairs (    117044 Cartesian)
 Smallest overlap matrix eigenvalue = 7.08E-05

 Scale SEOQF with 1.000000e-01/1.000000e-01/1.000000e-01

 Standard Electronic Orientation quadrupole field applied
 Nucleus-field energy     =     0.0000000341 hartrees
 Guess from superposition of atomic densities
 Warning:  Energy on first SCF cycle will be non-variational
 SAD guess density has 102.000000 electrons

 -----------------------------------------------------------------------
  General SCF calculation program by
  Eric Jon Sundstrom, Paul Horn, Yuezhi Mao, Dmitri Zuev, Alec White,
  David Stuck, Shaama M.S., Shane Yost, Joonho Lee, David Small,
  Daniel Levine, Susi Lehtola, Hugh Burton, Evgeny Epifanovsky,
  Bang C. Huynh
 -----------------------------------------------------------------------
 Hartree-Fock
 A restricted SCF calculation will be
 performed using DIIS
 SCF converges when DIIS error is below 1.0e-06
 ---------------------------------------
  Cycle       Energy         DIIS error
 ---------------------------------------
    1   -1184.2210485617      2.38e-02  
    2   -1179.5311973769      1.59e-03  
    3   -1179.6503905762      5.98e-04  
    4   -1179.6635099130      3.31e-04  
    5   -1179.6680950694      6.66e-05  
    6   -1179.6683766000      3.12e-05  
    7   -1179.6684669268      1.32e-05  
    8   -1179.6684970481      5.32e-06  
    9   -1179.6685022488      1.74e-06  
   10   -1179.6685027243      5.19e-07  Convergence criterion met
 ---------------------------------------
 SCF time:   CPU 480.82s  wall 483.00s 

************** Final PCM Free Energy Summary **************
 G_electrostatic  =      -0.00806040 hartree =      -5.05797567 kcal/mol
 G_cavitation     =       0.00000000 hartree =       0.00000000 kcal/mol
 G_dispersion     =       0.00000000 hartree =       0.00000000 kcal/mol
 G_repulsion      =       0.00000000 hartree =       0.00000000 kcal/mol
 --------------------------------------------------
 Non-electrostatic Free Energy =       0.00000000 hartree =       0.00000000 kcal/mol
 Total                         =      -0.00806040 hartree =      -5.05797567 kcal/mol
 --------------------------------------------------
 SCF Energy (H0 + V/2)                       =   -1179.66850272 
 Solute Internal Energy (H0)                 =   -1179.66044233 
 Total Free Energy (H0 + V/2 + non-elec)     =   -1179.66850272 hartree
                                             = -740253.15809989 kcal/mol
***********************************************************

 SCF   energy in the final basis set =    -1179.6685027243
 Total energy in the final basis set =    -1179.6685027243


 --------------------------------------------------------------
  Generalized many-body perturbation theory program
  by Joonho Lee, Fazle Rob, Xintian Feng, Evgeny Epifanovsky

 No regularization used 
 (reg. param. = 0.0000e+00)
  (P|Q)^-1/2 Time:  CPU 1.68 s  wall 1.69 s

 In RI-MP2 calculation: 
 # of frozen core orbitals: 20

 Components of the RIMP2 correlation energy:
        aaaa    correlation energy =        -0.2528478115 a.u.
        abab    correlation energy =        -1.4760333714 a.u.
        bbbb    correlation energy =        -0.2528478115 a.u.
        non-Brillouin singles      =        -0.0000000000 a.u.
        total same-spin energy     =        -0.5056956230 a.u.
        total opposite-spin energy =        -1.4760333714 a.u.

 Total  RIMP2   correlation energy =        -1.9817289943 a.u.
        RIMP2         total energy =     -1181.6502317186 a.u.

 RI-MP2 Energy Time:  CPU 67.34 s  wall 67.59 s
 
 --------------------------------------------------------------
 
                    Orbital Energies (a.u.)
 --------------------------------------------------------------
 
 Alpha MOs
 -- Occupied --
-91.9845 -91.9818 -11.2720 -11.2711 -11.2707 -11.2698 -11.2514 -11.2492
-11.2474 -11.2396 -11.2293 -11.2283  -8.9842  -8.9816  -6.6651  -6.6645
 -6.6639  -6.6625  -6.6619  -6.6613  -1.1802  -1.1485  -1.0410  -1.0215
 -0.9969  -0.9534  -0.9121  -0.8919  -0.7997  -0.7512  -0.7333  -0.6933
 -0.6604  -0.6169  -0.5831  -0.5792  -0.5698  -0.5688  -0.5510  -0.5317
 -0.5305  -0.5186  -0.5085  -0.4909  -0.4789  -0.4658  -0.4618  -0.3525
 -0.3341  -0.3180  -0.3009
 -- Virtual --
  0.0803   0.1014   0.1421   0.1488   0.1634   0.1733   0.1745   0.1836
  0.1898   0.1976   0.2062   0.2182   0.2300   0.2309   0.2383   0.2457
  0.2543   0.2685   0.2932   0.3099   0.3344   0.3423   0.3516   0.3622
  0.3779   0.3847   0.3919   0.3954   0.4053   0.4147   0.4241   0.4264
  0.4369   0.4484   0.4659   0.4702   0.4758   0.4814   0.4903   0.5001
  0.5072   0.5124   0.5172   0.5367   0.5388   0.5527   0.5575   0.5621
  0.5739   0.5841   0.5913   0.6008   0.6057   0.6144   0.6186   0.6239
  0.6319   0.6341   0.6397   0.6414   0.6468   0.6510   0.6553   0.6654
  0.6684   0.6827   0.6858   0.7059   0.7173   0.7312   0.7393   0.7481
  0.7615   0.7853   0.7978   0.8080   0.8172   0.8214   0.8302   0.8424
  0.8454   0.8462   0.8690   0.8856   0.9037   0.9217   0.9252   0.9435
  0.9533   0.9738   0.9781   0.9902   1.0057   1.0152   1.0163   1.0384
  1.0441   1.0506   1.0535   1.0660   1.0699   1.0893   1.0906   1.1039
  1.1085   1.1239   1.1359   1.1433   1.1621   1.1798   1.1831   1.1889
  1.1969   1.2115   1.2227   1.2240   1.2418   1.2491   1.2584   1.2661
  1.2752   1.2795   1.2917   1.3162   1.3389   1.3473   1.3545   1.3638
  1.3832   1.3888   1.4032   1.4155   1.4236   1.4429   1.4490   1.4575
  1.4743   1.4804   1.4990   1.5072   1.5141   1.5297   1.5400   1.5492
  1.5563   1.5637   1.5665   1.5700   1.5882   1.5927   1.6007   1.6234
  1.6480   1.6601   1.6797   1.6862   1.6998   1.7056   1.7157   1.7246
  1.7402   1.7563   1.7650   1.7780   1.7911   1.7987   1.8341   1.8540
  1.8729   1.8841   1.8943   1.9271   1.9343   1.9483   1.9738   1.9928
  2.0054   2.0456   2.0646   2.0834   2.1012   2.1367   2.1453   2.1728
  2.1815   2.1892   2.1953   2.2247   2.2339   2.2445   2.2659   2.2752
  2.2949   2.3115   2.3313   2.3959   2.3991   2.4209   2.4323   2.4507
  2.4854   2.4938   2.5086   2.5326   2.5398   2.5651   2.5695   2.5760
  2.6184   2.6281   2.6429   2.6677   2.6771   2.6882   2.7246   2.7334
  2.7398   2.7441   2.7569   2.7634   2.7697   2.7851   2.8078   2.8242
  2.8244   2.8380   2.8472   2.8736   2.8808   2.9018   2.9089   2.9237
  2.9496   2.9648   2.9807   2.9848   2.9927   3.0132   3.0193   3.0382
  3.0442   3.0698   3.0885   3.1091   3.1152   3.1179   3.1230   3.1470
  3.1500   3.1573   3.1699   3.1787   3.1834   3.1981   3.2102   3.2170
  3.2470   3.2536   3.2641   3.2667   3.2746   3.2854   3.2967   3.3161
  3.3189   3.3287   3.3378   3.3456   3.3497   3.3550   3.3736   3.3786
  3.3874   3.3936   3.4007   3.4069   3.4142   3.4199   3.4360   3.4428
  3.4522   3.4596   3.4702   3.4863   3.5039   3.5081   3.5168   3.5202
  3.5303   3.5378   3.5444   3.5558   3.5571   3.5847   3.5879   3.6009
  3.6157   3.6189   3.6272   3.6307   3.6469   3.6503   3.6588   3.6665
  3.6801   3.6902   3.7121   3.7140   3.7242   3.7339   3.7421   3.7531
  3.7683   3.7745   3.7770   3.7891   3.8085   3.8152   3.8188   3.8432
  3.8616   3.8661   3.8796   3.8826   3.9104   3.9197   3.9404   3.9544
  3.9665   3.9732   3.9993   4.0114   4.0162   4.0292   4.0434   4.0484
  4.0741   4.0814   4.0859   4.1067   4.1124   4.1220   4.1269   4.1593
  4.1669   4.1728   4.1902   4.1946   4.2000   4.2147   4.2195   4.2351
  4.2525   4.2561   4.2598   4.2881   4.2990   4.3166   4.3226   4.3328
  4.3373   4.3557   4.3660   4.3817   4.3839   4.4000   4.4061   4.4220
  4.4311   4.4418   4.4661   4.4768   4.4877   4.4978   4.5219   4.5593
  4.5833   4.5991   4.6210   4.6241   4.6337   4.6485   4.6604   4.6826
  4.7064   4.7184   4.7299   4.7385   4.7558   4.7772   4.8286   4.8426
  4.8765   4.8904   4.8951   4.9320   4.9534   4.9696   5.0237   5.0556
  5.0861   5.1058   5.1170   5.1471   5.1528   5.1663   5.1915   5.2048
  5.2633   5.2791   5.2927   5.3013   5.3301   5.3666   5.3951   5.4010
  5.4231   5.4535   5.4660   5.4748   5.5214   5.5249   5.5440   5.5508
  5.5782   5.5932   5.6233   5.6273   5.6375   5.6698   5.7009   5.7132
  5.7670   5.8173   5.9014   5.9266   6.0069   6.0319   6.1077   6.2247
  6.2269   6.2327   6.2706   6.2809   6.3222   6.4051   6.5034   8.8580
  9.7915  11.6722  12.1410  12.8687  12.9766  13.7463  13.9066  14.2060
 14.3137
 --------------------------------------------------------------
 
          Ground-State Mulliken Net Atomic Charges

     Atom                 Charge (a.u.)
  ----------------------------------------
      1 C                    -0.208954
      2 C                    -0.253134
      3 C                     0.060158
      4 H                     0.182123
      5 C                    -0.066091
      6 S                     0.026504
      7 C                    -0.284097
      8 H                     0.106728
      9 H                     0.110603
     10 H                     0.108256
     11 H                     0.203782
     12 C                    -0.025845
     13 C                    -0.216040
     14 C                     0.023258
     15 H                     0.183934
     16 C                    -0.225457
     17 S                     0.026881
     18 C                    -0.269297
     19 H                     0.102772
     20 H                     0.107722
     21 H                     0.107707
     22 H                     0.198486
  ----------------------------------------
  Sum of atomic charges =     0.000000

 -----------------------------------------------------------------
                    Cartesian Multipole Moments
 -----------------------------------------------------------------
    Charge (ESU x 10^10)
                -0.0000
    Dipole Moment (Debye)
         X      -0.3157      Y       0.4962      Z       1.7545
       Tot       1.8504
    Quadrupole Moments (Debye-Ang)
        XX     -83.6498     XY       7.0070     YY     -72.1363
        XZ      -0.6106     YZ       0.4429     ZZ     -86.2892
    Octopole Moments (Debye-Ang^2)
       XXX     -99.3659    XXY      44.8635    XYY     -14.6091
       YYY     114.6919    XXZ      -1.8672    XYZ       2.7331
       YYZ      -4.4337    XZZ     -29.0504    YZZ      67.4931
       ZZZ       2.8543
    Hexadecapole Moments (Debye-Ang^3)
      XXXX    -913.3648   XXXY    -195.7958   XXYY    -536.3548
      XYYY    -210.1229   YYYY   -2406.7383   XXXZ      -2.9325
      XXYZ     -32.1331   XYYZ     -24.2092   YYYZ     -86.7701
      XXZZ    -247.8018   XYZZ     -58.1425   YYZZ    -577.9177
      XZZZ       0.7244   YZZZ     -84.4857   ZZZZ    -543.3189
 -----------------------------------------------------------------
 Total job time:  552.49s(wall), 548.97s(cpu) 
 Sat Jul  9 08:42:56 2022

        *************************************************************
        *                                                           *
        *  Thank you very much for using Q-Chem.  Have a nice day.  *
        *                                                           *
        *************************************************************


remove work dirs ./qchem562283.0 -- ./qchem562283.-1
rm -rf ./qchem562283
