You are running Q-Chem version: 5.4.0

#
# job setting
#
local host:  exp-2-41
current dir: /expanse/lustre/scratch/theleonzhang/temp_project/Interring_Bonds
input file:  Methylthiophene_Phi_10_Theta_130_Methylthiophene.qcin
output file: 
nprocs     : 0
nthreads   : 1
#
# qchem installation setting
#
QC:          /cm/shared/apps/spack/cpu/opt/spack/linux-centos8-zen2/gcc-10.2.0/qchem-5.4-akfmr7b3t57bfs6qan3padb2wnb2i7cl
QCAUX:       /cm/shared/apps/spack/cpu/opt/spack/linux-centos8-zen2/gcc-10.2.0/qchem-5.4-akfmr7b3t57bfs6qan3padb2wnb2i7cl/qcaux
QCPROG:      /cm/shared/apps/spack/cpu/opt/spack/linux-centos8-zen2/gcc-10.2.0/qchem-5.4-akfmr7b3t57bfs6qan3padb2wnb2i7cl/exe/qcprog.exe_s
QCPROG_S:    /cm/shared/apps/spack/cpu/opt/spack/linux-centos8-zen2/gcc-10.2.0/qchem-5.4-akfmr7b3t57bfs6qan3padb2wnb2i7cl/exe/qcprog.exe_s
PARALLEL:    -DSERIAL
QCMPI:       mpich
#
# qchem directory setting
#
qcrun:       qchem3037177
QCSCRATCH:   .
QCLOCALSCR:  
QCTMPDIR:    .
QCFILEPREF:  ./qchem3037177
QCSAVEDIR:   
workdirs:    ./qchem3037177
workdir0:    ./qchem3037177
partmpdirs =  
#
# parallel setting
#
QCRSH:           ssh
QCMPI:           mpich
QCMPIRUN:        /cm/shared/apps/spack/cpu/opt/spack/linux-centos8-zen2/gcc-10.2.0/qchem-5.4-akfmr7b3t57bfs6qan3padb2wnb2i7cl/bin/mpi/mpirun_qchem
QCMACHINEFILE:   ./qchem3037177/hostfile

#
# env setting
#
exported envs:   QC QCAUX QCSCRATCH QCRUNNAME QCFILEPREF QCPROG QCPROG_S GUIFILE

Running Job 1 of 1 Methylthiophene_Phi_10_Theta_130_Methylthiophene.qcin
qchem Methylthiophene_Phi_10_Theta_130_Methylthiophene.qcin_3037177.0 ./qchem3037177/ 0
/cm/shared/apps/spack/cpu/opt/spack/linux-centos8-zen2/gcc-10.2.0/qchem-5.4-akfmr7b3t57bfs6qan3padb2wnb2i7cl/exe/qcprog.exe_s Methylthiophene_Phi_10_Theta_130_Methylthiophene.qcin_3037177.0 ./qchem3037177/
                  Welcome to Q-Chem
     A Quantum Leap Into The Future Of Chemistry


 Q-Chem 5.4, Q-Chem, Inc., Pleasanton, CA (2021)

 License issued to: University of California, San Diego (site)

 E. Epifanovsky,  A. T. B. Gilbert,  Xintian Feng,  Joonho Lee,  Yuezhi Mao,  
 N. Mardirossian,  P. Pokhilko,  A. White,  M. Wormit,  M. P. Coons,  
 A. L. Dempwolff,  Zhengting Gan,  D. Hait,  P. R. Horn,  L. D. Jacobson,  
 I. Kaliman,  J. Kussmann,  A. W. Lange,  Ka Un Lao,  D. S. Levine,  Jie Liu,  
 S. C. McKenzie,  A. F. Morrison,  K. Nanda,  F. Plasser,  D. R. Rehn,  
 M. L. Vidal,  Zhi-Qiang You,  Ying Zhu,  B. Alam,  B. Albrecht,  
 A. Aldossary,  E. Alguire,  J. H. Andersen,  D. Barton,  K. Begam,  A. Behn,  
 Y. A. Bernard,  E. J. Berquist,  H. Burton,  A. Carreras,  K. Carter-Fenk,  
 R. Chakraborty,  A. D. Chien,  K. D. Closser,  V. Cofer-Shabica,  
 S. Dasgupta,  Jia Deng,  M. de Wergifosse,  M. Diedenhofen,  Hainam Do,  
 S. Ehlert,  Po-Tung Fang,  S. Fatehi,  Qingguo Feng,  J. Gayvert,  
 Qinghui Ge,  G. Gidofalvi,  M. Goldey,  J. Gomes,  C. Gonzalez-Espinoza,  
 S. Gulania,  A. Gunina,  M. W. D. Hanson-Heine,  P. H. P. Harbach,  
 A. W. Hauser,  M. F. Herbst,  M. Hernandez Vera,  M. Hodecker,  
 Z. C. Holden,  S. Houck,  Xunkun Huang,  Kerwin Hui,  B. C. Huynh,  
 M. Ivanov,  Hyunjun Ji,  Hanjie Jiang,  B. Kaduk,  S. Kaehler,  
 K. Khistyaev,  Jaehoon Kim,  P. Klunzinger,  Z. Koczor-Benda,  
 Joong Hoon Koh,  D. Kosenkov,  L. Koulias,  T. Kowalczyk,  C. M. Krauter,  
 K. Kue,  A. Kunitsa,  T. Kus,  A. Landau,  K. V. Lawler,  D. Lefrancois,  
 S. Lehtola,  Rain Li,  Yi-Pei Li,  Jiashu Liang,  M. Liebenthal,  
 Hung-Hsuan Lin,  You-Sheng Lin,  Fenglai Liu,  Kuan-Yu Liu,  
 M. Loipersberger,  A. Luenser,  A. Manjanath,  P. Manohar,  E. Mansoor,  
 S. F. Manzer,  Shan-Ping Mao,  A. V. Marenich,  T. Markovich,  S. Mason,  
 S. A. Maurer,  P. F. McLaughlin,  M. F. S. J. Menger,  J.-M. Mewes,  
 S. A. Mewes,  P. Morgante,  J. W. Mullinax,  T. S. Nguyen-Beck,  
 K. J. Oosterbaan,  G. Paran,  Alexander C. Paul,  Suranjan K. Paul,  
 F. Pavosevic,  Zheng Pei,  S. Prager,  E. I. Proynov,  E. Ramos,  B. Rana,  
 A. E. Rask,  A. Rettig,  R. M. Richard,  F. Rob,  E. Rossomme,  T. Scheele,  
 M. Scheurer,  M. Schneider,  N. Sergueev,  S. M. Sharada,  W. Skomorowski,  
 D. W. Small,  C. J. Stein,  Yu-Chuan Su,  E. J. Sundstrom,  Zhen Tao,  
 J. Thirman,  T. Tsuchimochi,  N. M. Tubman,  S. P. Veccham,  O. Vydrov,  
 J. Wenzel,  J. Witte,  A. Yamada,  Kun Yao,  S. Yeganeh,  S. R. Yost,  
 A. Zech,  Igor Ying Zhang,  Xing Zhang,  Yu Zhang,  D. Zuev,  
 A. Aspuru-Guzik,  A. T. Bell,  N. A. Besley,  K. B. Bravaya,  B. R. Brooks,  
 D. Casanova,  Jeng-Da Chai,  S. Coriani,  C. J. Cramer,  
 A. E. DePrince, III,  R. A. DiStasio Jr.,  A. Dreuw,  B. D. Dunietz,  
 T. R. Furlani,  W. A. Goddard III,  S. Grimme,  S. Hammes-Schiffer,  
 T. Head-Gordon,  W. J. Hehre,  Chao-Ping Hsu,  T.-C. Jagau,  Yousung Jung,  
 A. Klamt,  Jing Kong,  D. S. Lambrecht,  WanZhen Liang,  N. J. Mayhall,  
 C. W. McCurdy,  J. B. Neaton,  C. Ochsenfeld,  J. A. Parkhill,  R. Peverati,  
 V. A. Rassolov,  Yihan Shao,  L. V. Slipchenko,  T. Stauch,  R. P. Steele,  
 J. E. Subotnik,  A. J. W. Thom,  A. Tkatchenko,  D. G. Truhlar,  
 T. Van Voorhis,  T. A. Wesolowski,  K. B. Whaley,  H. L. Woodcock III,  
 P. M. Zimmerman,  S. Faraji,  P. M. W. Gill,  M. Head-Gordon,  
 J. M. Herbert,  A. I. Krylov

 Contributors to earlier versions of Q-Chem not listed above: 
 R. D. Adamson,  B. Austin,  R. Baer,  J. Baker,  G. J. O. Beran,  
 K. Brandhorst,  S. T. Brown,  E. F. C. Byrd,  A. K. Chakraborty,  
 G. K. L. Chan,  Chun-Min Chang,  Yunqing Chen,  C.-L. Cheng,  
 Siu Hung Chien,  D. M. Chipman,  D. L. Crittenden,  H. Dachsel,  
 R. J. Doerksen,  A. D. Dutoi,  R. G. Edgar,  J. Fosso-Tande,  
 L. Fusti-Molnar,  D. Ghosh,  A. Ghysels,  A. Golubeva-Zadorozhnaya,  
 J. Gonthier,  M. S. Gordon,  S. R. Gwaltney,  G. Hawkins,  J. E. Herr,  
 A. Heyden,  S. Hirata,  E. G. Hohenstein,  G. Kedziora,  F. J. Keil,  
 C. Kelley,  Jihan Kim,  R. A. King,  R. Z. Khaliullin,  P. P. Korambath,  
 W. Kurlancheek,  A. Laurent,  A. M. Lee,  M. S. Lee,  S. V. Levchenko,  
 Ching Yeh Lin,  D. Liotard,  E. Livshits,  R. C. Lochan,  I. Lotan,  
 L. A. Martinez-Martinez,  P. E. Maslen,  N. Nair,  D. P. O'Neill,  
 D. Neuhauser,  E. Neuscamman,  C. M. Oana,  R. Olivares-Amaya,  R. Olson,  
 T. M. Perrine,  B. Peters,  P. A. Pieniazek,  A. Prociuk,  Y. M. Rhee,  
 J. Ritchie,  M. A. Rohrdanz,  E. Rosta,  N. J. Russ,  H. F. Schaefer III,  
 M. W. Schmidt,  N. E. Schultz,  S. Sharma,  N. Shenvi,  C. D. Sherrill,  
 A. C. Simmonett,  A. Sodt,  T. Stein,  D. Stuck,  K. S. Thanthiriwatte,  
 V. Vanovschi,  L. Vogt,  Tao Wang,  A. Warshel,  M. A. Watson,  
 C. F. Williams,  Q. Wu,  X. Xu,  Jun Yang,  W. Zhang,  Yan Zhao

 Please cite Q-Chem as follows:
 Y. Shao et al., Mol. Phys. 113, 184-215 (2015)
 DOI: 10.1080/00268976.2014.952696

 Q-Chem 5.4.0 for Intel X86 EM64T Linux

 Parts of Q-Chem use Armadillo 9.800.1 (Horizon Scraper).
 http://arma.sourceforge.net/

 Q-Chem begins on Fri Jul  8 23:49:24 2022  

 Host: 
0

     Scratch files written to ./qchem3037177//
 May1621 |scratch|qcdevops|jenkins|workspace|build_RNUM    
 Processing $rem in /cm/shared/apps/spack/cpu/opt/spack/linux-centos8-zen2/gcc-10.2.0/qchem-5.4-akfmr7b3t57bfs6qan3padb2wnb2i7cl/config/preferences:
 Processing $rem in /home/theleonzhang/.qchemrc:
 Symmetry turned off for PCM/SM12/SMD calculation
 Core orbitals will be frozen

 Checking the input file for inconsistencies... 	...done.

--------------------------------------------------------------
User input:
--------------------------------------------------------------
$molecule
0 1
C	-0.593324	-3.866725	-0.498788
C	0.469446	-3.703963	0.393517
C	0.817050	-2.357056	0.685674
H	0.998381	-4.561092	0.837128
C	-0.000000	-1.440664	-0.000000
S	-1.183149	-2.286957	-0.992768
C	1.931676	-1.978743	1.621254
H	2.425882	-2.878678	2.035845
H	1.563980	-1.376015	2.477868
H	2.711417	-1.375728	1.110719
H	-1.052896	-4.783437	-0.884718
C	0.000000	0.000000	0.000000
C	0.149995	0.850475	1.099446
C	0.390327	2.213354	0.776721
H	0.085947	0.487279	2.136088
C	0.428665	2.430655	-0.612546
S	0.163670	0.928078	-1.486809
C	0.579235	3.284574	1.814609
H	0.505323	2.865404	2.836676
H	-0.185980	4.083890	1.726239
H	1.571698	3.773937	1.726228
H	0.593515	3.365448	-1.161575
$end

$rem
JOBTYPE		SP
EXCHANGE	HF
CORRELATION	pRIMP2
BASIS		cc-pvtz
METHOD		rimp2
AUX_BASIS	rimp2-cc-pvtz
SOLVENT_METHOD	PCM
PURECART	11111
SYMMETRY	false
MEM_TOTAL	110000
SCF_CONVERGENCE = 6
THRESH=10
$end



$solvent
dielectric 4.90
$end
--------------------------------------------------------------
 ----------------------------------------------------------------
             Standard Nuclear Orientation (Angstroms)
    I     Atom           X                Y                Z
 ----------------------------------------------------------------
    1      C      -0.5933240000    -3.8667250000    -0.4987880000
    2      C       0.4694460000    -3.7039630000     0.3935170000
    3      C       0.8170500000    -2.3570560000     0.6856740000
    4      H       0.9983810000    -4.5610920000     0.8371280000
    5      C       0.0000000000    -1.4406640000     0.0000000000
    6      S      -1.1831490000    -2.2869570000    -0.9927680000
    7      C       1.9316760000    -1.9787430000     1.6212540000
    8      H       2.4258820000    -2.8786780000     2.0358450000
    9      H       1.5639800000    -1.3760150000     2.4778680000
   10      H       2.7114170000    -1.3757280000     1.1107190000
   11      H      -1.0528960000    -4.7834370000    -0.8847180000
   12      C       0.0000000000     0.0000000000     0.0000000000
   13      C       0.1499950000     0.8504750000     1.0994460000
   14      C       0.3903270000     2.2133540000     0.7767210000
   15      H       0.0859470000     0.4872790000     2.1360880000
   16      C       0.4286650000     2.4306550000    -0.6125460000
   17      S       0.1636700000     0.9280780000    -1.4868090000
   18      C       0.5792350000     3.2845740000     1.8146090000
   19      H       0.5053230000     2.8654040000     2.8366760000
   20      H      -0.1859800000     4.0838900000     1.7262390000
   21      H       1.5716980000     3.7739370000     1.7262280000
   22      H       0.5935150000     3.3654480000    -1.1615750000
 ----------------------------------------------------------------
 Nuclear Repulsion Energy =         835.21420950 hartrees
 There are       51 alpha and       51 beta electrons

 Q-Chem warning in module forms1/BasisType.C, line 2236:

 You are not using the predefined 5D/6D in this basis set.

 Requested basis set is cc-pVTZ
 There are 184 shells and 508 basis functions

 Total QAlloc Memory Limit 110000 MB
 Mega-Array Size       188 MB
 MEM_STATIC part       192 MB
 Discretize the solute cavity surface with Lebedev spheres
	Using 110 Lebedev grid points for each H atom
	Using 194 Lebedev grid points for other atoms
	Atomic van der Waals radii will be scaled by 1.20
 Remove points where switching function is < 1.0e-08
 Keep 1544 surface tesserae and discard 1884 interior tesserae
 Molecular Surface Area = 234.107 Angst**2
 Requested basis set is rimp2-cc-pVTZ
 There are 394 shells and 1354 basis functions
 A cutoff of  1.0D-10 yielded  12355 shell pairs
 There are     91741 function pairs (    118376 Cartesian)
 Smallest overlap matrix eigenvalue = 5.69E-05

 Scale SEOQF with 1.000000e-01/1.000000e-01/1.000000e-01

 Standard Electronic Orientation quadrupole field applied
 Nucleus-field energy     =     0.0000000294 hartrees
 Guess from superposition of atomic densities
 Warning:  Energy on first SCF cycle will be non-variational
 SAD guess density has 102.000000 electrons

 -----------------------------------------------------------------------
  General SCF calculation program by
  Eric Jon Sundstrom, Paul Horn, Yuezhi Mao, Dmitri Zuev, Alec White,
  David Stuck, Shaama M.S., Shane Yost, Joonho Lee, David Small,
  Daniel Levine, Susi Lehtola, Hugh Burton, Evgeny Epifanovsky,
  Bang C. Huynh
 -----------------------------------------------------------------------
 Hartree-Fock
 A restricted SCF calculation will be
 performed using DIIS
 SCF converges when DIIS error is below 1.0e-06
 ---------------------------------------
  Cycle       Energy         DIIS error
 ---------------------------------------
    1   -1184.2157492498      2.38e-02  
    2   -1179.5460730935      1.60e-03  
    3   -1179.6659718864      6.17e-04  
    4   -1179.6795536326      3.43e-04  
    5   -1179.6844516983      6.61e-05  
    6   -1179.6847267286      3.00e-05  
    7   -1179.6848101670      1.24e-05  
    8   -1179.6848364002      5.30e-06  
    9   -1179.6848410760      1.64e-06  
   10   -1179.6848415249      5.22e-07  Convergence criterion met
 ---------------------------------------
 SCF time:   CPU 480.95s  wall 483.00s 

************** Final PCM Free Energy Summary **************
 G_electrostatic  =      -0.00836894 hartree =      -5.25159223 kcal/mol
 G_cavitation     =       0.00000000 hartree =       0.00000000 kcal/mol
 G_dispersion     =       0.00000000 hartree =       0.00000000 kcal/mol
 G_repulsion      =       0.00000000 hartree =       0.00000000 kcal/mol
 --------------------------------------------------
 Non-electrostatic Free Energy =       0.00000000 hartree =       0.00000000 kcal/mol
 Total                         =      -0.00836894 hartree =      -5.25159223 kcal/mol
 --------------------------------------------------
 SCF Energy (H0 + V/2)                       =   -1179.68484152 
 Solute Internal Energy (H0)                 =   -1179.67647258 
 Total Free Energy (H0 + V/2 + non-elec)     =   -1179.68484152 hartree
                                             = -740263.41085198 kcal/mol
***********************************************************

 SCF   energy in the final basis set =    -1179.6848415249
 Total energy in the final basis set =    -1179.6848415249


 --------------------------------------------------------------
  Generalized many-body perturbation theory program
  by Joonho Lee, Fazle Rob, Xintian Feng, Evgeny Epifanovsky

 No regularization used 
 (reg. param. = 0.0000e+00)
  (P|Q)^-1/2 Time:  CPU 1.67 s  wall 1.67 s

 In RI-MP2 calculation: 
 # of frozen core orbitals: 20

 Components of the RIMP2 correlation energy:
        aaaa    correlation energy =        -0.2526030734 a.u.
        abab    correlation energy =        -1.4739663425 a.u.
        bbbb    correlation energy =        -0.2526030734 a.u.
        non-Brillouin singles      =        -0.0000000000 a.u.
        total same-spin energy     =        -0.5052061468 a.u.
        total opposite-spin energy =        -1.4739663425 a.u.

 Total  RIMP2   correlation energy =        -1.9791724893 a.u.
        RIMP2         total energy =     -1181.6640140141 a.u.

 RI-MP2 Energy Time:  CPU 66.76 s  wall 67.02 s
 
 --------------------------------------------------------------
 
                    Orbital Energies (a.u.)
 --------------------------------------------------------------
 
 Alpha MOs
 -- Occupied --
-91.9858 -91.9843 -11.2799 -11.2752 -11.2725 -11.2647 -11.2541 -11.2517
-11.2428 -11.2416 -11.2295 -11.2293  -8.9853  -8.9841  -6.6662  -6.6657
 -6.6650  -6.6650  -6.6645  -6.6639  -1.1797  -1.1498  -1.0409  -1.0245
 -0.9964  -0.9554  -0.9132  -0.8931  -0.8016  -0.7540  -0.7303  -0.6975
 -0.6620  -0.6154  -0.5854  -0.5803  -0.5705  -0.5655  -0.5520  -0.5353
 -0.5291  -0.5218  -0.5073  -0.4915  -0.4868  -0.4693  -0.4585  -0.3509
 -0.3414  -0.3399  -0.2827
 -- Virtual --
  0.0739   0.1203   0.1396   0.1493   0.1625   0.1747   0.1783   0.1877
  0.1959   0.1995   0.2008   0.2195   0.2327   0.2383   0.2447   0.2476
  0.2608   0.2787   0.2877   0.3175   0.3393   0.3470   0.3625   0.3780
  0.3794   0.3828   0.3963   0.4008   0.4092   0.4156   0.4211   0.4368
  0.4424   0.4549   0.4687   0.4717   0.4789   0.4901   0.4936   0.4969
  0.5076   0.5147   0.5295   0.5393   0.5424   0.5534   0.5616   0.5650
  0.5767   0.5841   0.5896   0.5951   0.5992   0.6071   0.6130   0.6180
  0.6237   0.6319   0.6403   0.6432   0.6512   0.6564   0.6656   0.6705
  0.6746   0.6876   0.6986   0.7084   0.7129   0.7360   0.7396   0.7568
  0.7674   0.7793   0.7864   0.7896   0.8063   0.8260   0.8343   0.8438
  0.8591   0.8640   0.8792   0.8868   0.9019   0.9252   0.9375   0.9414
  0.9422   0.9653   0.9774   0.9947   1.0038   1.0205   1.0288   1.0335
  1.0450   1.0551   1.0642   1.0702   1.0793   1.0883   1.0912   1.1024
  1.1036   1.1266   1.1431   1.1440   1.1575   1.1615   1.1781   1.2020
  1.2087   1.2182   1.2265   1.2331   1.2465   1.2541   1.2623   1.2627
  1.2781   1.2884   1.3123   1.3232   1.3315   1.3407   1.3481   1.3706
  1.3813   1.3956   1.4028   1.4112   1.4176   1.4399   1.4544   1.4636
  1.4771   1.4816   1.4960   1.5009   1.5203   1.5270   1.5383   1.5443
  1.5553   1.5664   1.5747   1.5782   1.5820   1.6050   1.6266   1.6396
  1.6481   1.6580   1.6653   1.6919   1.6974   1.7116   1.7228   1.7332
  1.7412   1.7625   1.7684   1.7852   1.8013   1.8171   1.8436   1.8603
  1.8874   1.8911   1.9151   1.9163   1.9354   1.9501   1.9633   1.9911
  2.0098   2.0426   2.0560   2.0973   2.1146   2.1309   2.1474   2.1757
  2.1893   2.1935   2.2110   2.2212   2.2354   2.2562   2.2629   2.2706
  2.2770   2.3140   2.3292   2.3808   2.4001   2.4079   2.4446   2.4573
  2.4763   2.4943   2.5185   2.5235   2.5455   2.5678   2.5917   2.6098
  2.6142   2.6316   2.6514   2.6701   2.6790   2.6875   2.7192   2.7314
  2.7403   2.7463   2.7492   2.7578   2.7727   2.7810   2.7922   2.8211
  2.8290   2.8379   2.8497   2.8548   2.8670   2.8907   2.9084   2.9170
  2.9460   2.9603   2.9703   2.9817   2.9915   3.0174   3.0281   3.0383
  3.0462   3.0565   3.0889   3.1104   3.1120   3.1172   3.1256   3.1371
  3.1483   3.1533   3.1683   3.1893   3.1918   3.1993   3.2158   3.2183
  3.2213   3.2472   3.2691   3.2708   3.2792   3.2905   3.2983   3.3143
  3.3200   3.3287   3.3427   3.3497   3.3543   3.3621   3.3698   3.3818
  3.3868   3.3939   3.3975   3.4165   3.4195   3.4262   3.4349   3.4374
  3.4456   3.4552   3.4708   3.4771   3.4903   3.5074   3.5139   3.5199
  3.5254   3.5282   3.5420   3.5574   3.5640   3.5687   3.5759   3.5862
  3.5949   3.6177   3.6236   3.6248   3.6353   3.6530   3.6554   3.6728
  3.6798   3.6826   3.6984   3.7055   3.7227   3.7368   3.7459   3.7519
  3.7608   3.7749   3.7806   3.7959   3.8019   3.8265   3.8337   3.8367
  3.8604   3.8705   3.8932   3.9058   3.9160   3.9352   3.9529   3.9602
  3.9671   3.9833   3.9972   4.0088   4.0137   4.0204   4.0326   4.0544
  4.0677   4.0756   4.0906   4.1000   4.1160   4.1358   4.1398   4.1528
  4.1578   4.1697   4.1880   4.1934   4.2043   4.2065   4.2204   4.2348
  4.2475   4.2636   4.2757   4.2888   4.2918   4.3066   4.3277   4.3474
  4.3483   4.3561   4.3762   4.3912   4.4015   4.4123   4.4154   4.4250
  4.4321   4.4481   4.4635   4.4782   4.4896   4.5026   4.5553   4.5700
  4.5810   4.6051   4.6141   4.6200   4.6342   4.6426   4.6555   4.6698
  4.6948   4.7265   4.7358   4.7438   4.7813   4.7928   4.8199   4.8323
  4.8839   4.8914   4.9127   4.9231   4.9452   4.9631   4.9986   5.0568
  5.0795   5.1056   5.1148   5.1405   5.1665   5.1877   5.2011   5.2659
  5.2728   5.2748   5.2946   5.3101   5.3152   5.3671   5.3799   5.3974
  5.4093   5.4446   5.4692   5.4934   5.5098   5.5269   5.5452   5.5590
  5.5716   5.5976   5.6160   5.6238   5.6394   5.6978   5.7017   5.7230
  5.7755   5.8265   5.9236   5.9643   6.0030   6.0960   6.1385   6.2277
  6.2380   6.2532   6.2822   6.3025   6.3302   6.4488   6.5792   8.7528
  9.9455  11.5844  11.9974  12.8561  13.1423  13.7555  14.0625  14.2436
 14.4019
 --------------------------------------------------------------
 
          Ground-State Mulliken Net Atomic Charges

     Atom                 Charge (a.u.)
  ----------------------------------------
      1 C                    -0.213841
      2 C                    -0.248718
      3 C                     0.051154
      4 H                     0.184354
      5 C                    -0.033794
      6 S                     0.020671
      7 C                    -0.284412
      8 H                     0.111820
      9 H                     0.107266
     10 H                     0.114443
     11 H                     0.205119
     12 C                    -0.008232
     13 C                    -0.254955
     14 C                     0.029471
     15 H                     0.192797
     16 C                    -0.244504
     17 S                     0.025075
     18 C                    -0.271282
     19 H                     0.102194
     20 H                     0.108758
     21 H                     0.108339
     22 H                     0.198277
  ----------------------------------------
  Sum of atomic charges =     0.000000

 -----------------------------------------------------------------
                    Cartesian Multipole Moments
 -----------------------------------------------------------------
    Charge (ESU x 10^10)
                -0.0000
    Dipole Moment (Debye)
         X       1.5025      Y       0.2188      Z       2.4387
       Tot       2.8728
    Quadrupole Moments (Debye-Ang)
        XX     -88.5661     XY       0.2799     YY     -68.8911
        XZ       3.4073     YZ      -0.3721     ZZ     -84.0304
    Octopole Moments (Debye-Ang^2)
       XXX     -41.4615    XXY      36.4855    XYY      -9.6323
       YYY      95.1907    XXZ      -1.5799    XYZ     -12.5176
       YYZ      -7.0818    XZZ     -11.6229    YZZ      50.4186
       ZZZ       0.3304
    Hexadecapole Moments (Debye-Ang^3)
      XXXX    -489.4160   XXXY     -93.0583   XXYY    -560.2879
      XYYY     -38.3340   YYYY   -2558.0946   XXXZ    -150.9706
      XXYZ     -33.7843   XYYZ      -4.2086   YYYZ     -86.0480
      XXZZ    -211.8193   XYZZ     -26.4886   YYZZ    -604.0789
      XZZZ    -154.7176   YZZZ    -100.3044   ZZZZ    -762.3071
 -----------------------------------------------------------------
 Total job time:  551.74s(wall), 548.56s(cpu) 
 Fri Jul  8 23:58:35 2022

        *************************************************************
        *                                                           *
        *  Thank you very much for using Q-Chem.  Have a nice day.  *
        *                                                           *
        *************************************************************


remove work dirs ./qchem3037177.0 -- ./qchem3037177.-1
rm -rf ./qchem3037177
