
                                 *****************
                                 * O   R   C   A *
                                 *****************

           --- An Ab Initio, DFT and Semiempirical electronic structure package ---

                  #######################################################
                  #                        -***-                        #
                  #          Department of theory and spectroscopy      #
                  #               Directorship: Frank Neese             #
                  #        Max Planck Institute fuer Kohlenforschung    #
                  #                Kaiser Wilhelm Platz 1               #
                  #                 D-45470 Muelheim/Ruhr               #
                  #                      Germany                        #
                  #                                                     #
                  #                  All rights reserved                #
                  #                        -***-                        #
                  #######################################################


                         Program Version 4.2.0 -  RELEASE  -


 With contributions from (in alphabetic order):
   Daniel Aravena         : Magnetic Suceptibility
   Michael Atanasov       : Ab Initio Ligand Field Theory (pilot matlab implementation)
   Alexander A. Auer      : GIAO ZORA, VPT2
   Ute Becker             : Parallelization
   Giovanni Bistoni       : ED, misc. LED, open-shell LED, HFLED
   Martin Brehm           : Molecular dynamics
   Dmytro Bykov           : SCF Hessian
   Vijay G. Chilkuri      : MRCI spin determinant printing, contributions to CSF-ICE
   Dipayan Datta          : RHF DLPNO-CCSD density
   Achintya Kumar Dutta   : EOM-CC, STEOM-CC
   Dmitry Ganyushin       : Spin-Orbit,Spin-Spin,Magnetic field MRCI
   Miquel Garcia          : C-PCM Hessian, Gaussian charge scheme
   Yang Guo               : DLPNO-NEVPT2, CIM, IAO-localization
   Andreas Hansen         : Spin unrestricted coupled pair/coupled cluster methods
   Benjamin Helmich-Paris : CASSCF linear response (MC-RPA)
   Lee Huntington         : MR-EOM, pCC
   Robert Izsak           : Overlap fitted RIJCOSX, COSX-SCS-MP3, EOM
   Christian Kollmar      : KDIIS, OOCD, Brueckner-CCSD(T), CCSD density
   Simone Kossmann        : Meta GGA functionals, TD-DFT gradient, OOMP2, MP2 Hessian
   Martin Krupicka        : AUTO-CI
   Lucas Lang             : DCDCAS
   Dagmar Lenk            : GEPOL surface, SMD
   Dimitrios Liakos       : Extrapolation schemes; Compound Job, initial MDCI parallelization
   Dimitrios Manganas     : Further ROCIS development; embedding schemes
   Dimitrios Pantazis     : SARC Basis sets
   Taras Petrenko         : DFT Hessian,TD-DFT gradient, ASA, ECA, R-Raman, ABS, FL, XAS/XES, NRVS
   Peter Pinski           : DLPNO-MP2, DLPNO-MP2 Gradient
   Christoph Reimann      : Effective Core Potentials
   Marius Retegan         : Local ZFS, SOC
   Christoph Riplinger    : Optimizer, TS searches, QM/MM, DLPNO-CCSD(T), (RO)-DLPNO pert. Triples
   Tobias Risthaus        : Range-separated hybrids, TD-DFT gradient, RPA, STAB
   Michael Roemelt        : Original ROCIS implementation
   Masaaki Saitow         : Open-shell DLPNO-CCSD energy and density
   Barbara Sandhoefer     : DKH picture change effects
   Avijit Sen             : IP-ROCIS
   Kantharuban Sivalingam : CASSCF convergence, NEVPT2, FIC-MRCI
   Bernardo de Souza      : ESD, SOC TD-DFT
   Georgi Stoychev        : AutoAux, RI-MP2 NMR
   Willem Van den Heuvel  : Paramagnetic NMR
   Boris Wezisla          : Elementary symmetry handling
   Frank Wennmohs         : Technical directorship


 We gratefully acknowledge several colleagues who have allowed us to
 interface, adapt or use parts of their codes:
   Stefan Grimme, W. Hujo, H. Kruse,             : VdW corrections, initial TS optimization,
                  C. Bannwarth                     DFT functionals, gCP, sTDA/sTD-DF
   Ed Valeev, F. Pavosevic, A. Kumar             : LibInt (2-el integral package), F12 methods
   Garnet Chan, S. Sharma, J. Yang, R. Olivares  : DMRG
   Ulf Ekstrom                                   : XCFun DFT Library
   Mihaly Kallay                                 : mrcc  (arbitrary order and MRCC methods)
   Andreas Klamt, Michael Diedenhofen            : otool_cosmo (COSMO solvation model)
   Jiri Pittner, Ondrej Demel                    : Mk-CCSD
   Frank Weinhold                                : gennbo (NPA and NBO analysis)
   Christopher J. Cramer and Donald G. Truhlar   : smd solvation model
   Lars Goerigk                                  : TD-DFT with DH, B97 family of functionals
   V. Asgeirsson, H. Jonsson                     : NEB implementation
   FAccTs GmbH                                   : IRC, NEB, NEB-TS, Multilevel, MM, QM/MM, CI optimization
   S Lehtola, MJT Oliveira, MAL Marques          : LibXC Library


 Your calculation uses the libint2 library for the computation of 2-el integrals
 For citations please refer to: http://libint.valeyev.net

 Your ORCA version has been built with support for libXC version: 4.2.3
 For citations please refer to: https://tddft.org/programs/libxc/

 This ORCA versions uses:
   CBLAS   interface :  Fast vector & matrix operations
   LAPACKE interface :  Fast linear algebra routines
   SCALAPACK package :  Parallel linear algebra routines


Your calculation utilizes the atom-pairwise dispersion correction
with the Becke-Johnson damping scheme (D3BJ)
Cite in your paper:
S.Grimme, S.Ehrlich, L.Goerigk, J Comput Chem, (2011), 32, 1456–1465 
S.Grimme, J.Antony, S.Ehrlich and H.Krieg, J.Chem.Phys., 132, (2010), 154104 
   

----- Orbital basis set information -----
Your calculation utilizes the basis: def2-SVP
   F. Weigend and R. Ahlrichs, Phys. Chem. Chem. Phys. 7, 3297 (2005).

----- AuxJ basis set information -----
Your calculation utilizes the auxiliary basis: def2/J
   F. Weigend, Phys. Chem. Chem. Phys. 8, 1057 (2006).

================================================================================
                                        WARNINGS
                       Please study these warnings very carefully!
================================================================================


WARNING: Geometry Optimization
  ===> : Switching off AutoStart
         For restart on a previous wavefunction, please use MOREAD

INFO   : the flag for use of LIBINT has been found!

================================================================================
                                       INPUT FILE
================================================================================
NAME = Dimethyl_Diketopyrrolopyrrole_Optimize_Monomer.inp
|  1> ! RI BP86 def2-SVP def2/J D3BJ TIGHTSCF  Opt Grid3 FinalGrid5
|  2> %maxcore 3000
|  3> %geom
|  4> optimizehydrogens true
|  5> end
|  6> 
|  7> 
|  8> *xyz 0 1
|  9> C	-3.566724	0.006178	-0.030134
| 10> C	-2.677602	-1.083421	0.013667
| 11> N	-2.805951	1.170083	-0.056306
| 12> C	-1.340961	-0.574755	0.013897
| 13> C	-1.381430	0.881374	-0.031222
| 14> C	-3.268860	2.537620	-0.103362
| 15> H	-3.856085	2.741490	-1.022877
| 16> H	-2.357926	3.167437	-0.109963
| 17> H	-3.880418	2.795359	0.786292
| 18> C	-2.634505	-2.544132	0.057843
| 19> N	-1.204807	-2.831237	0.082741
| 20> C	-0.450902	-1.668393	0.057516
| 21> O	-0.538262	1.778219	-0.048031
| 22> O	-3.477538	-3.432407	0.074354
| 23> C	-0.728246	-4.193122	0.131095
| 24> H	-1.631584	-4.834214	0.137730
| 25> H	-0.138027	-4.389402	1.050802
| 26> H	-0.112443	-4.444491	-0.757913
| 27> H	-4.646517	-0.011555	-0.041723
| 28> H	0.628165	-1.625207	0.069727
| 29> **                         ****END OF INPUT****
================================================================================

                       *****************************
                       * Geometry Optimization Run *
                       *****************************

Geometry optimization settings:
Update method            Update   .... BFGS
Choice of coordinates    CoordSys .... Z-matrix Internals
Initial Hessian          InHess   .... Almoef's Model

Convergence Tolerances:
Energy Change            TolE     ....  5.0000e-06 Eh
Max. Gradient            TolMAXG  ....  3.0000e-04 Eh/bohr
RMS Gradient             TolRMSG  ....  1.0000e-04 Eh/bohr
Max. Displacement        TolMAXD  ....  4.0000e-03 bohr
RMS Displacement         TolRMSD  ....  2.0000e-03 bohr
Strict Convergence                ....  False
------------------------------------------------------------------------------
                        ORCA OPTIMIZATION COORDINATE SETUP
------------------------------------------------------------------------------

The optimization will be done in new redundant internal coordinates
Making redundant internal coordinates   ...  (new redundants) done
Evaluating the initial hessian          ...  (Almloef) done
Evaluating the coordinates              ...  done
Calculating the B-matrix                .... done
Calculating the G-matrix                .... done
Diagonalizing the G-matrix              .... done
Imposing constraints:
 Iter   0:  RMS(Cart)=    0.0000000000 RMS(Int)=    0.0000000000
CONVERGED
The first mode is                       ....   51
The number of degrees of freedom        ....   54
Storing new coordinates                 .... done

    -----------------------------------------------------------------
                    Redundant Internal Coordinates


    -----------------------------------------------------------------
         Definition                    Initial Value    Approx d2E/dq
    -----------------------------------------------------------------
      1. B(C   1,C   0)                  1.4070         0.586945 C 
      2. B(N   2,C   0)                  1.3907         0.558094 C 
      3. B(C   3,C   1)                  1.4302         0.539101 C 
      4. B(C   4,N   2)                  1.4537         0.442840 C 
      5. B(C   4,C   3)                  1.4574         0.487778 C 
      6. B(C   5,N   2)                  1.4445         0.458018 C 
      7. B(H   6,C   5)                  1.1099         0.334700   
      8. B(H   7,C   5)                  1.1075         0.337702   
      9. B(H   8,C   5)                  1.1099         0.334693   
     10. B(C   9,C   1)                  1.4620         0.479562 C 
     11. B(N  10,C   9)                  1.4585         0.435174 C 
     12. B(C  11,C   3)                  1.4107         0.578988 C 
     13. B(C  11,N  10)                  1.3861         0.567716 C 
     14. B(O  12,C   4)                  1.2311         1.003298 C 
     15. B(O  13,C   9)                  1.2247         1.026888 C 
     16. B(C  14,N  10)                  1.4437         0.459463 C 
     17. B(H  15,C  14)                  1.1077         0.337395   
     18. B(H  16,C  14)                  1.1103         0.334234   
     19. B(H  17,C  14)                  1.1103         0.334240   
     20. B(H  18,C   0)                  1.0800         0.373574   
     21. B(H  19,C  11)                  1.0800         0.373575   
     22. A(N   2,C   0,H  18)          124.0880         0.346713   
     23. A(C   1,C   0,N   2)          107.6383         0.419056 C 
     24. A(C   1,C   0,H  18)          128.2737         0.351833   
     25. A(C   0,C   1,C   9)          142.4935         0.410565 C 
     26. A(C   0,C   1,C   3)          108.3712         0.419197 C 
     27. A(C   3,C   1,C   9)          109.1352         0.404436 C 
     28. A(C   0,N   2,C   5)          128.1418         0.398471 C 
     29. A(C   0,N   2,C   4)          111.6857         0.396120 C 
     30. A(C   4,N   2,C   5)          120.1725         0.382685 C 
     31. A(C   1,C   3,C   4)          109.2327         0.405651 C 
     32. A(C   4,C   3,C  11)          142.4701         0.410808 C 
     33. A(C   1,C   3,C  11)          108.2971         0.418178 C 
     34. A(C   3,C   4,O  12)          135.1763         0.450451 C 
     35. A(N   2,C   4,C   3)          103.0720         0.389371 C 
     36. A(N   2,C   4,O  12)          121.7516         0.439720 C 
     37. A(N   2,C   5,H   6)          111.7418         0.329386   
     38. A(N   2,C   5,H   7)          105.9616         0.329873   
     39. A(H   6,C   5,H   7)          109.0129         0.284661   
     40. A(N   2,C   5,H   8)          111.7340         0.329385   
     41. A(H   6,C   5,H   8)          109.2615         0.284265   
     42. A(H   7,C   5,H   8)          109.0217         0.284660   
     43. A(C   1,C   9,N  10)          103.0671         0.387038 C 
     44. A(C   1,C   9,O  13)          134.8087         0.450963 C 
     45. A(N  10,C   9,O  13)          122.1242         0.440179 C 
     46. A(C   9,N  10,C  11)          111.5755         0.396094 C 
     47. A(C   9,N  10,C  14)          120.6553         0.381735 C 
     48. A(C  11,N  10,C  14)          127.7691         0.399892 C 
     49. A(C   3,C  11,H  19)          126.8504         0.351022   
     50. A(N  10,C  11,H  19)          125.2246         0.347712   
     51. A(C   3,C  11,N  10)          107.9250         0.419314 C 
     52. A(H  15,C  14,H  17)          109.0301         0.284559   
     53. A(H  16,C  14,H  17)          109.1716         0.284143   
     54. A(N  10,C  14,H  15)          106.0791         0.329995   
     55. A(N  10,C  14,H  16)          111.7151         0.329482   
     56. A(H  15,C  14,H  16)          109.0402         0.284559   
     57. A(N  10,C  14,H  17)          111.7060         0.329483   
     58. D(C   3,C   1,C   0,N   2)     -0.0183         0.023696 C 
     59. D(C   9,C   1,C   0,N   2)   -179.9552         0.023696 C 
     60. D(C   9,C   1,C   0,H  18)      0.1047         0.023696   
     61. D(C   3,C   1,C   0,H  18)   -179.9584         0.023696   
     62. D(C   4,N   2,C   0,C   1)      0.0361         0.024865 C 
     63. D(C   4,N   2,C   0,H  18)    179.9793         0.024865   
     64. D(C   5,N   2,C   0,C   1)   -179.9976         0.024865 C 
     65. D(C   5,N   2,C   0,H  18)     -0.0544         0.024865   
     66. D(C   4,C   3,C   1,C   0)     -0.0055         0.019856 C 
     67. D(C   4,C   3,C   1,C   9)    179.9538         0.019856 C 
     68. D(C  11,C   3,C   1,C   0)   -179.9865         0.019856 C 
     69. D(C  11,C   3,C   1,C   9)     -0.0272         0.019856 C 
     70. D(O  12,C   4,N   2,C   0)   -179.9783         0.015443 C 
     71. D(C   3,C   4,N   2,C   0)     -0.0379         0.015443 C 
     72. D(C   3,C   4,N   2,C   5)    179.9927         0.015443 C 
     73. D(O  12,C   4,N   2,C   5)      0.0523         0.015443 C 
     74. D(N   2,C   4,C   3,C   1)      0.0255         0.016200 C 
     75. D(N   2,C   4,C   3,C  11)    179.9959         0.016200 C 
     76. D(O  12,C   4,C   3,C   1)    179.9536         0.016200 C 
     77. D(O  12,C   4,C   3,C  11)     -0.0761         0.016200 C 
     78. D(H   6,C   5,N   2,C   0)    -61.4731         0.017905   
     79. D(H   6,C   5,N   2,C   4)    118.4907         0.017905   
     80. D(H   7,C   5,N   2,C   0)    179.9160         0.017905   
     81. D(H   7,C   5,N   2,C   4)     -0.1202         0.017905   
     82. D(H   8,C   5,N   2,C   0)     61.2988         0.017905   
     83. D(H   8,C   5,N   2,C   4)   -118.7374         0.017905   
     84. D(N  10,C   9,C   1,C   0)    179.9284         0.015658 C 
     85. D(N  10,C   9,C   1,C   3)     -0.0081         0.015658 C 
     86. D(O  13,C   9,C   1,C   0)     -0.0429         0.015658 C 
     87. D(O  13,C   9,C   1,C   3)   -179.9794         0.015658 C 
     88. D(C  11,N  10,C   9,C   1)      0.0422         0.014914 C 
     89. D(C  11,N  10,C   9,O  13)   -179.9819         0.014914 C 
     90. D(C  14,N  10,C   9,C   1)    179.8991         0.014914 C 
     91. D(C  14,N  10,C   9,O  13)     -0.1249         0.014914 C 
     92. D(N  10,C  11,C   3,C   1)      0.0533         0.023028 C 
     93. D(N  10,C  11,C   3,C   4)   -179.9172         0.023028 C 
     94. D(H  19,C  11,C   3,C   1)   -179.9421         0.023028   
     95. D(H  19,C  11,C   3,C   4)      0.0875         0.023028   
     96. D(C   3,C  11,N  10,C   9)     -0.0605         0.025781 C 
     97. D(C   3,C  11,N  10,C  14)   -179.9048         0.025781 C 
     98. D(H  19,C  11,N  10,C   9)    179.9349         0.025781   
     99. D(H  19,C  11,N  10,C  14)      0.0906         0.025781   
    100. D(H  15,C  14,N  10,C   9)      0.1965         0.018020   
    101. D(H  15,C  14,N  10,C  11)   -179.9718         0.018020   
    102. D(H  16,C  14,N  10,C   9)   -118.5045         0.018020   
    103. D(H  16,C  14,N  10,C  11)     61.3271         0.018020   
    104. D(H  17,C  14,N  10,C   9)    118.8804         0.018020   
    105. D(H  17,C  14,N  10,C  11)    -61.2879         0.018020   
    -----------------------------------------------------------------

Number of atoms                         .... 20
Number of degrees of freedom            .... 105

         *************************************************************
         *                GEOMETRY OPTIMIZATION CYCLE   1            *
         *************************************************************
---------------------------------
CARTESIAN COORDINATES (ANGSTROEM)
---------------------------------
  C     -3.566724    0.006178   -0.030134
  C     -2.677602   -1.083421    0.013667
  N     -2.805951    1.170083   -0.056306
  C     -1.340961   -0.574755    0.013897
  C     -1.381430    0.881374   -0.031222
  C     -3.268860    2.537620   -0.103362
  H     -3.856085    2.741490   -1.022877
  H     -2.357926    3.167437   -0.109963
  H     -3.880418    2.795359    0.786292
  C     -2.634505   -2.544132    0.057843
  N     -1.204807   -2.831237    0.082741
  C     -0.450902   -1.668393    0.057516
  O     -0.538262    1.778219   -0.048031
  O     -3.477538   -3.432407    0.074354
  C     -0.728246   -4.193122    0.131095
  H     -1.631584   -4.834214    0.137730
  H     -0.138027   -4.389402    1.050802
  H     -0.112443   -4.444491   -0.757913
  H     -4.646517   -0.011555   -0.041723
  H      0.628165   -1.625207    0.069727

----------------------------
CARTESIAN COORDINATES (A.U.)
----------------------------
  NO LB      ZA    FRAG     MASS         X           Y           Z
   0 C     6.0000    0    12.011   -6.740132    0.011675   -0.056945
   1 C     6.0000    0    12.011   -5.059934   -2.047369    0.025827
   2 N     7.0000    0    14.007   -5.302479    2.211136   -0.106403
   3 C     6.0000    0    12.011   -2.534049   -1.086130    0.026262
   4 C     6.0000    0    12.011   -2.610524    1.665555   -0.059001
   5 C     6.0000    0    12.011   -6.177250    4.795407   -0.195326
   6 H     1.0000    0     1.008   -7.286945    5.180665   -1.932957
   7 H     1.0000    0     1.008   -4.455834    5.985588   -0.207800
   8 H     1.0000    0     1.008   -7.332927    5.282463    1.485877
   9 C     6.0000    0    12.011   -4.978493   -4.807713    0.109307
  10 N     7.0000    0    14.007   -2.276755   -5.350263    0.156358
  11 C     6.0000    0    12.011   -0.852081   -3.152806    0.108689
  12 O     8.0000    0    15.999   -1.017168    3.360347   -0.090765
  13 O     8.0000    0    15.999   -6.571594   -6.486309    0.140509
  14 C     6.0000    0    12.011   -1.376185   -7.923852    0.247734
  15 H     1.0000    0     1.008   -3.083247   -9.135341    0.260272
  16 H     1.0000    0     1.008   -0.260833   -8.294768    1.985728
  17 H     1.0000    0     1.008   -0.212486   -8.398871   -1.432248
  18 H     1.0000    0     1.008   -8.780645   -0.021836   -0.078845
  19 H     1.0000    0     1.008    1.187060   -3.071196    0.131765

--------------------------------
INTERNAL COORDINATES (ANGSTROEM)
--------------------------------
 C      0   0   0     0.000000000000     0.00000000     0.00000000
 C      1   0   0     1.407011883136     0.00000000     0.00000000
 N      1   2   0     1.390731958408   107.63827358     0.00000000
 C      2   1   3     1.430157444248   108.37121674     0.00000000
 C      3   1   2     1.453699478289   111.68570785     0.03609322
 C      3   1   2     1.444526377671   128.14177856   180.00239375
 H      6   3   1     1.109911713944   111.74179227   298.52691674
 H      6   3   1     1.107480825588   105.96157358   179.91602289
 H      6   3   1     1.109917483059   111.73396216    61.29877748
 C      2   1   3     1.462014191417   142.49351578   180.04483295
 N     10   2   1     1.458453140362   103.06714838   179.92840312
 C     11  10   2     1.386079080711   111.57545544     0.04219527
 O      5   3   1     1.231075047562   121.75159271   180.02168802
 O     10   2   1     1.224748842757   134.80866388   359.95710781
 C     11  10   2     1.443668677108   120.65527049   179.89910792
 H     15  11  10     1.107728539821   106.07908469     0.19650252
 H     15  11  10     1.110290625111   111.71514371   241.49547853
 H     15  11  10     1.110285969034   111.70595217   118.88039068
 H      1   2   3     1.080000781046   128.27374303   180.05988699
 H     12  11  10     1.079999874818   125.22461451   179.93486971

---------------------------
INTERNAL COORDINATES (A.U.)
---------------------------
 C      0   0   0     0.000000000000     0.00000000     0.00000000
 C      1   0   0     2.658867126300     0.00000000     0.00000000
 N      1   2   0     2.628102527084   107.63827358     0.00000000
 C      2   1   3     2.702605898017   108.37121674     0.00000000
 C      3   1   2     2.747093894991   111.68570785     0.03609322
 C      3   1   2     2.729759247023   128.14177856   180.00239375
 H      6   3   1     2.097429172185   111.74179227   298.52691674
 H      6   3   1     2.092835458931   105.96157358   179.91602289
 H      6   3   1     2.097440074234   111.73396216    61.29877748
 C      2   1   3     2.762806425685   142.49351578   180.04483295
 N     10   2   1     2.756077014442   103.06714838   179.92840312
 C     11  10   2     2.619309862502   111.57545544     0.04219527
 O      5   3   1     2.326394690196   121.75159271   180.02168802
 O     10   2   1     2.314439895648   134.80866388   359.95710781
 C     11  10   2     2.728138427854   120.65527049   179.89910792
 H     15  11  10     2.093303570989   106.07908469     0.19650252
 H     15  11  10     2.098145210521   111.71514371   241.49547853
 H     15  11  10     2.098136411810   111.70595217   118.88039068
 H      1   2   3     2.040905700597   128.27374303   180.05988699
 H     12  11  10     2.040903988074   125.22461451   179.93486971

---------------------
BASIS SET INFORMATION
---------------------
There are 4 groups of distinct atoms

 Group   1 Type C   : 7s4p1d contracted to 3s2p1d pattern {511/31/1}
 Group   2 Type N   : 7s4p1d contracted to 3s2p1d pattern {511/31/1}
 Group   3 Type H   : 4s1p contracted to 2s1p pattern {31/1}
 Group   4 Type O   : 7s4p1d contracted to 3s2p1d pattern {511/31/1}

Atom   0C    basis set group =>   1
Atom   1C    basis set group =>   1
Atom   2N    basis set group =>   2
Atom   3C    basis set group =>   1
Atom   4C    basis set group =>   1
Atom   5C    basis set group =>   1
Atom   6H    basis set group =>   3
Atom   7H    basis set group =>   3
Atom   8H    basis set group =>   3
Atom   9C    basis set group =>   1
Atom  10N    basis set group =>   2
Atom  11C    basis set group =>   1
Atom  12O    basis set group =>   4
Atom  13O    basis set group =>   4
Atom  14C    basis set group =>   1
Atom  15H    basis set group =>   3
Atom  16H    basis set group =>   3
Atom  17H    basis set group =>   3
Atom  18H    basis set group =>   3
Atom  19H    basis set group =>   3
---------------------------------
AUXILIARY/J BASIS SET INFORMATION
---------------------------------
There are 4 groups of distinct atoms

 Group   1 Type C   : 12s5p4d2f1g contracted to 6s4p3d1f1g pattern {711111/2111/211/2/1}
 Group   2 Type N   : 12s5p4d2f1g contracted to 6s4p3d1f1g pattern {711111/2111/211/2/1}
 Group   3 Type H   : 5s2p1d contracted to 3s1p1d pattern {311/2/1}
 Group   4 Type O   : 12s5p4d2f1g contracted to 6s4p3d1f1g pattern {711111/2111/211/2/1}

Atom   0C    basis set group =>   1
Atom   1C    basis set group =>   1
Atom   2N    basis set group =>   2
Atom   3C    basis set group =>   1
Atom   4C    basis set group =>   1
Atom   5C    basis set group =>   1
Atom   6H    basis set group =>   3
Atom   7H    basis set group =>   3
Atom   8H    basis set group =>   3
Atom   9C    basis set group =>   1
Atom  10N    basis set group =>   2
Atom  11C    basis set group =>   1
Atom  12O    basis set group =>   4
Atom  13O    basis set group =>   4
Atom  14C    basis set group =>   1
Atom  15H    basis set group =>   3
Atom  16H    basis set group =>   3
Atom  17H    basis set group =>   3
Atom  18H    basis set group =>   3
Atom  19H    basis set group =>   3
------------------------------------------------------------------------------
                           ORCA GTO INTEGRAL CALCULATION
                           -- RI-GTO INTEGRALS CHOSEN --
------------------------------------------------------------------------------

                         BASIS SET STATISTICS AND STARTUP INFO

Gaussian basis set:
 # of primitive gaussian shells          ...  184
 # of primitive gaussian functions       ...  344
 # of contracted shells                  ...   96
 # of contracted basis functions         ...  208
 Highest angular momentum                ...    2
 Maximum contraction depth               ...    5
Auxiliary gaussian basis set:
 # of primitive gaussian shells          ...  352
 # of primitive gaussian functions       ...  968
 # of contracted shells                  ...  220
 # of contracted aux-basis functions     ...  676
 Highest angular momentum                ...    4
 Maximum contraction depth               ...    7
Ratio of auxiliary to basis functions    ...  3.25
Integral package used                  ... LIBINT
 One Electron integrals                  ... done
 Ordering auxiliary basis shells         ... done
 Integral threshhold             Thresh  ...  2.500e-11
 Primitive cut-off               TCut    ...  2.500e-12
 Pre-screening matrix                    ... done
 Shell pair data                         ... 
 Ordering of the shell pairs             ... done (   0.001 sec) 4063 of 4656 pairs
 Determination of significant pairs      ... done (   0.000 sec)
 Creation of shell pair data             ... done (   0.001 sec)
 Storage of shell pair data              ... done (   0.005 sec)
 Shell pair data done in (   0.006 sec)
 Computing two index integrals           ... done
 Cholesky decomposition of the V-matrix  ... done


Timings:
 Total evaluation time                   ...   0.162 sec (  0.003 min)
 One electron matrix time                ...   0.025 sec (  0.000 min) = 15.3%
 Schwartz matrix evaluation time         ...   0.076 sec (  0.001 min) = 47.0%
 Two index repulsion integral time       ...   0.014 sec (  0.000 min) =  8.9%
 Cholesky decomposition of V             ...   0.023 sec (  0.000 min) = 14.2%
 Three index repulsion integral time     ...   0.000 sec (  0.000 min) =  0.0%

-------------------------------------------------------------------------------
                                 ORCA SCF
-------------------------------------------------------------------------------

------------
SCF SETTINGS
------------
Hamiltonian:
 Density Functional     Method          .... DFT(GTOs)
 Exchange Functional    Exchange        .... B88
   X-Alpha parameter    XAlpha          ....  0.666667
   Becke's b parameter  XBeta           ....  0.004200
 Correlation Functional Correlation     .... P86
 LDA part of GGA corr.  LDAOpt          .... PW91-LDA
 Gradients option       PostSCFGGA      .... off
   Density functional embedding theory  .... OFF
 RI-approximation to the Coulomb term is turned on
   Number of auxiliary basis functions  .... 676


General Settings:
 Integral files         IntName         .... Dimethyl_Diketopyrrolopyrrole_Optimize_Monomer
 Hartree-Fock type      HFTyp           .... RHF
 Total Charge           Charge          ....    0
 Multiplicity           Mult            ....    1
 Number of Electrons    NEL             ....   86
 Basis Dimension        Dim             ....  208
 Nuclear Repulsion      ENuc            ....    671.7749358626 Eh

Convergence Acceleration:
 DIIS                   CNVDIIS         .... on
   Start iteration      DIISMaxIt       ....    12
   Startup error        DIISStart       ....  0.200000
   # of expansion vecs  DIISMaxEq       ....     5
   Bias factor          DIISBfac        ....   1.050
   Max. coefficient     DIISMaxC        ....  10.000
 Newton-Raphson         CNVNR           .... off
 SOSCF                  CNVSOSCF        .... on
   Start iteration      SOSCFMaxIt      ....   150
   Startup grad/error   SOSCFStart      ....  0.003300
 Level Shifting         CNVShift        .... on
   Level shift para.    LevelShift      ....    0.2500
   Turn off err/grad.   ShiftErr        ....    0.0010
 Zerner damping         CNVZerner       .... off
 Static damping         CNVDamp         .... on
   Fraction old density DampFac         ....    0.7000
   Max. Damping (<1)    DampMax         ....    0.9800
   Min. Damping (>=0)   DampMin         ....    0.0000
   Turn off err/grad.   DampErr         ....    0.1000
 Fernandez-Rico         CNVRico         .... off

SCF Procedure:
 Maximum # iterations   MaxIter         ....   125
 SCF integral mode      SCFMode         .... Direct
   Integral package                     .... LIBINT
 Reset frequency        DirectResetFreq ....    20
 Integral Threshold     Thresh          ....  2.500e-11 Eh
 Primitive CutOff       TCut            ....  2.500e-12 Eh

Convergence Tolerance:
 Convergence Check Mode ConvCheckMode   .... Total+1el-Energy
 Convergence forced     ConvForced      .... 0
 Energy Change          TolE            ....  1.000e-08 Eh
 1-El. energy change                    ....  1.000e-05 Eh
 Orbital Gradient       TolG            ....  1.000e-05
 Orbital Rotation angle TolX            ....  1.000e-05
 DIIS Error             TolErr          ....  5.000e-07


Diagonalization of the overlap matrix:
Smallest eigenvalue                        ... 6.434e-04
Time for diagonalization                   ...    0.016 sec
Threshold for overlap eigenvalues          ... 1.000e-08
Number of eigenvalues below threshold      ... 0
Time for construction of square roots      ...    0.008 sec
Total time needed                          ...    0.024 sec

-------------------
DFT GRID GENERATION
-------------------

General Integration Accuracy     IntAcc      ...  4.340
Radial Grid Type                 RadialGrid  ... Gauss-Chebyshev
Angular Grid (max. acc.)         AngularGrid ... Lebedev-194
Angular grid pruning method      GridPruning ... 3 (G Style)
Weight generation scheme         WeightScheme... Becke
Basis function cutoff            BFCut       ...    1.0000e-11
Integration weight cutoff        WCut        ...    1.0000e-14
Grids for H and He will be reduced by one unit

# of grid points (after initial pruning)     ...  51816 (   0.0 sec)
# of grid points (after weights+screening)   ...  47394 (   0.1 sec)
nearest neighbour list constructed           ...    0.0 sec
Grid point re-assignment to atoms done       ...    0.0 sec
Grid point division into batches done        ...    0.1 sec
Reduced shell lists constructed in    0.3 sec

Total number of grid points                  ...    47394
Total number of batches                      ...      750
Average number of points per batch           ...       63
Average number of grid points per atom       ...     2370
Average number of shells per batch           ...    57.09 (59.47%)
Average number of basis functions per batch  ...   121.22 (58.28%)
Average number of large shells per batch     ...    41.88 (73.36%)
Average number of large basis fcns per batch ...    88.47 (72.98%)
Maximum spatial batch extension              ...  20.37, 20.21, 19.70 au
Average spatial batch extension              ...   2.94,  2.91,  3.01 au

Time for grid setup =    0.495 sec

------------------------------
INITIAL GUESS: MODEL POTENTIAL
------------------------------
Loading Hartree-Fock densities                     ... done
Calculating cut-offs                               ... done
Setting up the integral package                    ... done
Initializing the effective Hamiltonian             ... done
Starting the Coulomb interaction                   ... done (   0.1 sec)
Reading the grid                                   ... done
Mapping shells                                     ... done
Starting the XC term evaluation                    ... done (   0.4 sec)
  promolecular density results
     # of electrons  =     85.993020321
     EX              =    -73.039223242
     EC              =     -3.171275939
     EX+EC           =    -76.210499181
Transforming the Hamiltonian                       ... done (   0.0 sec)
Diagonalizing the Hamiltonian                      ... done (   0.0 sec)
Back transforming the eigenvectors                 ... done (   0.0 sec)
Now organizing SCF variables                       ... done
                      ------------------
                      INITIAL GUESS DONE (   1.1 sec)
                      ------------------
--------------
SCF ITERATIONS
--------------
ITER       Energy         Delta-E        Max-DP      RMS-DP      [F,P]     Damp
               ***  Starting incremental Fock matrix formation  ***
  0   -568.9559904687   0.000000000000 0.11375726  0.00306876  0.2481455 0.7000
  1   -569.0938186761  -0.137828207394 0.05953218  0.00171680  0.0676924 0.7000
                               ***Turning on DIIS***
  2   -569.1301451193  -0.036326443219 0.06720006  0.00212478  0.0281979 0.0000
  3   -569.2081948401  -0.078049720796 0.04189215  0.00123951  0.0375245 0.0000
  4   -569.2196755940  -0.011480753826 0.01547528  0.00048340  0.0291291 0.0000
  5   -569.2231394944  -0.003463900463 0.00485279  0.00013278  0.0044117 0.0000
                      *** Initiating the SOSCF procedure ***
                           *** Shutting down DIIS ***
                      *** Re-Reading the Fockian *** 
                      *** Removing any level shift *** 
ITER      Energy       Delta-E        Grad      Rot      Max-DP    RMS-DP
  6   -569.22326041  -0.0001209110  0.000565  0.000565  0.001089  0.000054
               *** Restarting incremental Fock matrix formation ***
  7   -569.22328726  -0.0000268512  0.000208  0.000899  0.001408  0.000039
  8   -569.22328143   0.0000058230  0.000715  0.001201  0.001261  0.000023
  9   -569.22328888  -0.0000074455  0.000101  0.001354  0.000635  0.000015
 10   -569.22328749   0.0000013928  0.000448  0.001155  0.000537  0.000011
 11   -569.22328896  -0.0000014708  0.000043  0.000270  0.000334  0.000007
 12   -569.22328869   0.0000002629  0.000095  0.000147  0.000238  0.000004
 13   -569.22328905  -0.0000003529  0.000008  0.000051  0.000047  0.000002
 14   -569.22328903   0.0000000124  0.000013  0.000019  0.000029  0.000001
 15   -569.22328905  -0.0000000133  0.000005  0.000037  0.000024  0.000001
 16   -569.22328905   0.0000000000  0.000008  0.000020  0.000017  0.000001
                  ***Gradient check signals convergence***
              ***Rediagonalizing the Fockian in SOSCF/NRSCF***

               *****************************************************
               *                     SUCCESS                       *
               *           SCF CONVERGED AFTER  17 CYCLES          *
               *****************************************************

Setting up the final grid:

General Integration Accuracy     IntAcc      ...  5.010
Radial Grid Type                 RadialGrid  ... Gauss-Chebyshev
Angular Grid (max. acc.)         AngularGrid ... Lebedev-434
Angular grid pruning method      GridPruning ... 3 (G Style)
Weight generation scheme         WeightScheme... Becke
Basis function cutoff            BFCut       ...    1.0000e-11
Integration weight cutoff        WCut        ...    1.0000e-14
Grids for H and He will be reduced by one unit

# of grid points (after initial pruning)     ... 181984 (   0.1 sec)
# of grid points (after weights+screening)   ... 164769 (   0.4 sec)
nearest neighbour list constructed           ...    0.0 sec
Grid point re-assignment to atoms done       ...    0.0 sec
Grid point division into batches done        ...    1.0 sec
Reduced shell lists constructed in    1.9 sec

Total number of grid points                  ...   164769
Total number of batches                      ...     2585
Average number of points per batch           ...       63
Average number of grid points per atom       ...     8238
Average number of shells per batch           ...    52.57 (54.76%)
Average number of basis functions per batch  ...   110.73 (53.24%)
Average number of large shells per batch     ...    37.88 (72.05%)
Average number of large basis fcns per batch ...    79.52 (71.81%)
Maximum spatial batch extension              ...  19.18, 21.52, 21.95 au
Average spatial batch extension              ...   1.95,  2.00,  2.06 au

Final grid set up in    2.3 sec
Final integration                            ... done (   1.4 sec)
Change in XC energy                          ...    -0.000354274
Integrated number of electrons               ...    85.999996261
Previous integrated no of electrons          ...    85.998399143

----------------
TOTAL SCF ENERGY
----------------

Total Energy       :         -569.22364332 Eh          -15489.36280 eV

Components:
Nuclear Repulsion  :          671.77493586 Eh           18279.92534 eV
Electronic Energy  :        -1240.99857918 Eh          -33769.28814 eV
One Electron Energy:        -2105.42287810 Eh          -57291.46916 eV
Two Electron Energy:          864.42429892 Eh           23522.18102 eV

Virial components:
Potential Energy   :        -1132.32256307 Eh          -30812.06340 eV
Kinetic Energy     :          563.09891975 Eh           15322.70060 eV
Virial Ratio       :            2.01087682


DFT components:
N(Alpha)           :       42.999998130658 electrons
N(Beta)            :       42.999998130658 electrons
N(Total)           :       85.999996261317 electrons
E(X)               :      -74.084958789486 Eh       
E(C)               :       -3.181302734695 Eh       
E(XC)              :      -77.266261524181 Eh       
DFET-embed. en.    :        0.000000000000 Eh       

---------------
SCF CONVERGENCE
---------------

  Last Energy change         ...    7.9797e-10  Tolerance :   1.0000e-08
  Last MAX-Density change    ...    1.0171e-05  Tolerance :   1.0000e-07
  Last RMS-Density change    ...    2.9409e-07  Tolerance :   5.0000e-09
  Last Orbital Gradient      ...    1.5892e-06  Tolerance :   1.0000e-05
  Last Orbital Rotation      ...    1.1578e-05  Tolerance :   1.0000e-05

             **** THE GBW FILE WAS UPDATED (Dimethyl_Diketopyrrolopyrrole_Optimize_Monomer.gbw) ****
             **** DENSITY FILE WAS UPDATED (Dimethyl_Diketopyrrolopyrrole_Optimize_Monomer.scfp) ****
             **** ENERGY FILE WAS UPDATED (Dimethyl_Diketopyrrolopyrrole_Optimize_Monomer.en.tmp) ****
             **** THE GBW FILE WAS UPDATED (Dimethyl_Diketopyrrolopyrrole_Optimize_Monomer.gbw) ****
             **** DENSITY FILE WAS UPDATED (Dimethyl_Diketopyrrolopyrrole_Optimize_Monomer.scfp) ****
----------------
ORBITAL ENERGIES
----------------

  NO   OCC          E(Eh)            E(eV) 
   0   2.0000     -18.762597      -510.5562 
   1   2.0000     -18.760494      -510.4990 
   2   2.0000     -14.073940      -382.9714 
   3   2.0000     -14.072731      -382.9385 
   4   2.0000     -10.016498      -272.5628 
   5   2.0000     -10.014834      -272.5175 
   6   2.0000      -9.983728      -271.6710 
   7   2.0000      -9.983340      -271.6605 
   8   2.0000      -9.961197      -271.0580 
   9   2.0000      -9.959735      -271.0182 
  10   2.0000      -9.920590      -269.9530 
  11   2.0000      -9.920224      -269.9430 
  12   2.0000      -0.950878       -25.8747 
  13   2.0000      -0.945067       -25.7166 
  14   2.0000      -0.886248       -24.1160 
  15   2.0000      -0.877004       -23.8645 
  16   2.0000      -0.757581       -20.6148 
  17   2.0000      -0.693862       -18.8809 
  18   2.0000      -0.656737       -17.8707 
  19   2.0000      -0.627146       -17.0655 
  20   2.0000      -0.612138       -16.6571 
  21   2.0000      -0.534736       -14.5509 
  22   2.0000      -0.532233       -14.4828 
  23   2.0000      -0.483537       -13.1577 
  24   2.0000      -0.458449       -12.4750 
  25   2.0000      -0.449613       -12.2346 
  26   2.0000      -0.442337       -12.0366 
  27   2.0000      -0.436066       -11.8660 
  28   2.0000      -0.423518       -11.5245 
  29   2.0000      -0.392905       -10.6915 
  30   2.0000      -0.382121       -10.3980 
  31   2.0000      -0.375838       -10.2271 
  32   2.0000      -0.374159       -10.1814 
  33   2.0000      -0.356504        -9.7010 
  34   2.0000      -0.355071        -9.6620 
  35   2.0000      -0.352455        -9.5908 
  36   2.0000      -0.342011        -9.3066 
  37   2.0000      -0.300211        -8.1692 
  38   2.0000      -0.298433        -8.1208 
  39   2.0000      -0.233463        -6.3529 
  40   2.0000      -0.224559        -6.1105 
  41   2.0000      -0.222512        -6.0548 
  42   2.0000      -0.184389        -5.0175 
  43   0.0000      -0.116600        -3.1729 
  44   0.0000      -0.044007        -1.1975 
  45   0.0000       0.036483         0.9928 
  46   0.0000       0.046277         1.2593 
  47   0.0000       0.048240         1.3127 
  48   0.0000       0.067271         1.8305 
  49   0.0000       0.078140         2.1263 
  50   0.0000       0.079609         2.1663 
  51   0.0000       0.088455         2.4070 
  52   0.0000       0.102634         2.7928 
  53   0.0000       0.109461         2.9786 
  54   0.0000       0.109637         2.9834 
  55   0.0000       0.110183         2.9982 
  56   0.0000       0.110875         3.0171 
  57   0.0000       0.140410         3.8207 
  58   0.0000       0.163258         4.4425 
  59   0.0000       0.180141         4.9019 
  60   0.0000       0.183547         4.9946 
  61   0.0000       0.221063         6.0154 
  62   0.0000       0.237754         6.4696 
  63   0.0000       0.249174         6.7804 
  64   0.0000       0.271893         7.3986 
  65   0.0000       0.285500         7.7688 
  66   0.0000       0.288654         7.8547 
  67   0.0000       0.351009         9.5515 
  68   0.0000       0.360434         9.8079 
  69   0.0000       0.363619         9.8946 
  70   0.0000       0.371457        10.1079 
  71   0.0000       0.377282        10.2664 
  72   0.0000       0.383072        10.4239 
  73   0.0000       0.406905        11.0725 
  74   0.0000       0.412902        11.2356 
  75   0.0000       0.426658        11.6100 
  76   0.0000       0.444405        12.0929 
  77   0.0000       0.455312        12.3897 
  78   0.0000       0.508200        13.8288 
  79   0.0000       0.508819        13.8457 
  80   0.0000       0.510218        13.8837 
  81   0.0000       0.522027        14.2051 
  82   0.0000       0.540714        14.7136 
  83   0.0000       0.561705        15.2848 
  84   0.0000       0.564068        15.3491 
  85   0.0000       0.580870        15.8063 
  86   0.0000       0.582507        15.8508 
  87   0.0000       0.584599        15.9077 
  88   0.0000       0.585794        15.9403 
  89   0.0000       0.588762        16.0210 
  90   0.0000       0.599308        16.3080 
  91   0.0000       0.606367        16.5001 
  92   0.0000       0.610821        16.6213 
  93   0.0000       0.634088        17.2544 
  94   0.0000       0.646080        17.5807 
  95   0.0000       0.654343        17.8056 
  96   0.0000       0.661979        18.0134 
  97   0.0000       0.690155        18.7801 
  98   0.0000       0.715618        19.4729 
  99   0.0000       0.722749        19.6670 
 100   0.0000       0.726809        19.7775 
 101   0.0000       0.770682        20.9713 
 102   0.0000       0.792080        21.5536 
 103   0.0000       0.805835        21.9279 
 104   0.0000       0.816833        22.2272 
 105   0.0000       0.828047        22.5323 
 106   0.0000       0.844541        22.9811 
 107   0.0000       0.872835        23.7510 
 108   0.0000       0.915104        24.9013 
 109   0.0000       0.975574        26.5467 
 110   0.0000       1.020971        27.7820 
 111   0.0000       1.049087        28.5471 
 112   0.0000       1.062655        28.9163 
 113   0.0000       1.076446        29.2916 
 114   0.0000       1.088093        29.6085 
 115   0.0000       1.106685        30.1144 
 116   0.0000       1.122606        30.5477 
 117   0.0000       1.137260        30.9464 
 118   0.0000       1.140737        31.0410 
 119   0.0000       1.149212        31.2716 
 120   0.0000       1.165552        31.7163 
 121   0.0000       1.211805        32.9749 
 122   0.0000       1.242527        33.8109 
 123   0.0000       1.261604        34.3300 
 124   0.0000       1.275179        34.6994 
 125   0.0000       1.332800        36.2673 
 126   0.0000       1.362058        37.0635 
 127   0.0000       1.377224        37.4762 
 128   0.0000       1.392372        37.8884 
 129   0.0000       1.401299        38.1313 
 130   0.0000       1.417221        38.5646 
 131   0.0000       1.431323        38.9483 
 132   0.0000       1.432753        38.9872 
 133   0.0000       1.505653        40.9709 
 134   0.0000       1.518343        41.3162 
 135   0.0000       1.536521        41.8109 
 136   0.0000       1.552678        42.2505 
 137   0.0000       1.626325        44.2546 
 138   0.0000       1.629333        44.3364 
 139   0.0000       1.639606        44.6160 
 140   0.0000       1.658155        45.1207 
 141   0.0000       1.675103        45.5819 
 142   0.0000       1.680267        45.7224 
 143   0.0000       1.686022        45.8790 
 144   0.0000       1.704528        46.3826 
 145   0.0000       1.716606        46.7112 
 146   0.0000       1.717793        46.7435 
 147   0.0000       1.752334        47.6834 
 148   0.0000       1.760454        47.9044 
 149   0.0000       1.800802        49.0023 
 150   0.0000       1.806635        49.1610 
 151   0.0000       1.807893        49.1953 
 152   0.0000       1.828201        49.7479 
 153   0.0000       1.866957        50.8025 
 154   0.0000       1.869965        50.8843 
 155   0.0000       1.897243        51.6266 
 156   0.0000       1.928967        52.4898 
 157   0.0000       1.940100        52.7928 
 158   0.0000       1.942925        52.8697 
 159   0.0000       1.944518        52.9130 
 160   0.0000       1.981166        53.9103 
 161   0.0000       2.039540        55.4987 
 162   0.0000       2.048314        55.7375 
 163   0.0000       2.052656        55.8556 
 164   0.0000       2.136544        58.1383 
 165   0.0000       2.157548        58.7099 
 166   0.0000       2.180252        59.3277 
 167   0.0000       2.190833        59.6156 
 168   0.0000       2.193825        59.6970 
 169   0.0000       2.255805        61.3836 
 170   0.0000       2.265166        61.6383 
 171   0.0000       2.299865        62.5825 
 172   0.0000       2.305556        62.7374 
 173   0.0000       2.338426        63.6318 
 174   0.0000       2.369351        64.4733 
 175   0.0000       2.387185        64.9586 
 176   0.0000       2.434030        66.2333 
 177   0.0000       2.446715        66.5785 
 178   0.0000       2.459669        66.9310 
 179   0.0000       2.471682        67.2579 
 180   0.0000       2.534644        68.9712 
 181   0.0000       2.537392        69.0459 
 182   0.0000       2.550618        69.4058 
 183   0.0000       2.565135        69.8009 
 184   0.0000       2.601714        70.7962 
 185   0.0000       2.613815        71.1255 
 186   0.0000       2.642295        71.9005 
 187   0.0000       2.654121        72.2223 
 188   0.0000       2.671696        72.7005 
 189   0.0000       2.676192        72.8229 
 190   0.0000       2.690406        73.2097 
 191   0.0000       2.722055        74.0709 
 192   0.0000       2.824482        76.8581 
 193   0.0000       2.826133        76.9030 
 194   0.0000       2.828250        76.9606 
 195   0.0000       2.841233        77.3139 
 196   0.0000       2.914825        79.3164 
 197   0.0000       2.957400        80.4749 
 198   0.0000       2.998731        81.5996 
 199   0.0000       3.064948        83.4015 
 200   0.0000       3.065342        83.4122 
 201   0.0000       3.070408        83.5500 
 202   0.0000       3.197805        87.0167 
 203   0.0000       3.234723        88.0213 
 204   0.0000       3.397184        92.4421 
 205   0.0000       3.445824        93.7656 
 206   0.0000       3.551616        96.6444 
 207   0.0000       3.556248        96.7704 

                    ********************************
                    * MULLIKEN POPULATION ANALYSIS *
                    ********************************

-----------------------
MULLIKEN ATOMIC CHARGES
-----------------------
   0 C :    0.084875
   1 C :   -0.056029
   2 N :   -0.272937
   3 C :   -0.060397
   4 C :    0.156818
   5 C :    0.052087
   6 H :    0.052326
   7 H :    0.071207
   8 H :    0.052294
   9 C :    0.157085
  10 N :   -0.271841
  11 C :    0.089519
  12 O :   -0.177270
  13 O :   -0.168362
  14 C :    0.052560
  15 H :    0.070747
  16 H :    0.052989
  17 H :    0.052948
  18 H :    0.030453
  19 H :    0.030927
Sum of atomic charges:   -0.0000000

--------------------------------
MULLIKEN REDUCED ORBITAL CHARGES
--------------------------------
  0 C s       :     3.209973  s :     3.209973
      pz      :     0.948937  p :     2.659086
      px      :     0.829625
      py      :     0.880524
      dz2     :     0.003430  d :     0.046066
      dxz     :     0.003679
      dyz     :     0.011135
      dx2y2   :     0.013672
      dxy     :     0.014150
  1 C s       :     3.148501  s :     3.148501
      pz      :     1.120273  p :     2.870974
      px      :     0.923593
      py      :     0.827109
      dz2     :     0.003347  d :     0.036554
      dxz     :     0.006170
      dyz     :     0.005072
      dx2y2   :     0.011674
      dxy     :     0.010291
  2 N s       :     3.458147  s :     3.458147
      pz      :     1.541732  p :     3.787874
      px      :     1.145208
      py      :     1.100934
      dz2     :     0.002318  d :     0.026916
      dxz     :     0.003294
      dyz     :     0.004840
      dx2y2   :     0.008381
      dxy     :     0.008083
  3 C s       :     3.149357  s :     3.149357
      pz      :     1.120825  p :     2.874473
      px      :     0.927253
      py      :     0.826395
      dz2     :     0.003348  d :     0.036567
      dxz     :     0.006116
      dyz     :     0.005111
      dx2y2   :     0.011679
      dxy     :     0.010312
  4 C s       :     3.017682  s :     3.017682
      pz      :     0.905062  p :     2.721412
      px      :     0.823276
      py      :     0.993074
      dz2     :     0.005749  d :     0.104087
      dxz     :     0.015250
      dyz     :     0.014719
      dx2y2   :     0.046998
      dxy     :     0.021371
  5 C s       :     3.015506  s :     3.015506
      pz      :     1.025256  p :     2.896182
      px      :     1.034222
      py      :     0.836705
      dz2     :     0.006204  d :     0.036224
      dxz     :     0.006933
      dyz     :     0.007137
      dx2y2   :     0.007822
      dxy     :     0.008129
  6 H s       :     0.926200  s :     0.926200
      pz      :     0.010744  p :     0.021473
      px      :     0.007323
      py      :     0.003406
  7 H s       :     0.905740  s :     0.905740
      pz      :     0.005005  p :     0.023053
      px      :     0.012568
      py      :     0.005480
  8 H s       :     0.926233  s :     0.926233
      pz      :     0.010345  p :     0.021472
      px      :     0.007502
      py      :     0.003625
  9 C s       :     3.018267  s :     3.018267
      pz      :     0.902892  p :     2.720009
      px      :     0.823714
      py      :     0.993404
      dz2     :     0.005748  d :     0.104639
      dxz     :     0.015317
      dyz     :     0.014734
      dx2y2   :     0.047475
      dxy     :     0.021365
 10 N s       :     3.457374  s :     3.457374
      pz      :     1.541419  p :     3.787543
      px      :     1.146433
      py      :     1.099691
      dz2     :     0.002318  d :     0.026924
      dxz     :     0.003258
      dyz     :     0.004876
      dx2y2   :     0.008390
      dxy     :     0.008083
 11 C s       :     3.202645  s :     3.202645
      pz      :     0.946416  p :     2.661655
      px      :     0.834348
      py      :     0.880890
      dz2     :     0.003428  d :     0.046182
      dxz     :     0.003665
      dyz     :     0.011259
      dx2y2   :     0.013721
      dxy     :     0.014109
 12 O s       :     3.725394  s :     3.725394
      pz      :     1.402470  p :     4.435117
      px      :     1.537142
      py      :     1.495505
      dz2     :     0.001890  d :     0.016759
      dxz     :     0.002536
      dyz     :     0.002665
      dx2y2   :     0.003837
      dxy     :     0.005832
 13 O s       :     3.720582  s :     3.720582
      pz      :     1.398815  p :     4.430693
      px      :     1.532763
      py      :     1.499115
      dz2     :     0.001917  d :     0.017087
      dxz     :     0.002615
      dyz     :     0.002702
      dx2y2   :     0.003937
      dxy     :     0.005916
 14 C s       :     3.015886  s :     3.015886
      pz      :     1.026158  p :     2.895277
      px      :     1.030797
      py      :     0.838322
      dz2     :     0.006200  d :     0.036277
      dxz     :     0.007040
      dyz     :     0.007055
      dx2y2   :     0.007661
      dxy     :     0.008321
 15 H s       :     0.906359  s :     0.906359
      pz      :     0.005007  p :     0.022893
      px      :     0.012282
      py      :     0.005605
 16 H s       :     0.925557  s :     0.925557
      pz      :     0.010752  p :     0.021454
      px      :     0.007312
      py      :     0.003391
 17 H s       :     0.925598  s :     0.925598
      pz      :     0.010341  p :     0.021454
      px      :     0.007503
      py      :     0.003610
 18 H s       :     0.946956  s :     0.946956
      pz      :     0.005368  p :     0.022592
      px      :     0.014426
      py      :     0.002797
 19 H s       :     0.946429  s :     0.946429
      pz      :     0.005360  p :     0.022644
      px      :     0.014422
      py      :     0.002863


                     *******************************
                     * LOEWDIN POPULATION ANALYSIS *
                     *******************************

----------------------
LOEWDIN ATOMIC CHARGES
----------------------
   0 C :    0.080986
   1 C :   -0.125025
   2 N :   -0.000727
   3 C :   -0.125194
   4 C :    0.061421
   5 C :    0.008140
   6 H :    0.032918
   7 H :    0.043254
   8 H :    0.032918
   9 C :    0.061654
  10 N :   -0.001114
  11 C :    0.080946
  12 O :   -0.173646
  13 O :   -0.166022
  14 C :    0.008517
  15 H :    0.043307
  16 H :    0.033334
  17 H :    0.033343
  18 H :    0.035249
  19 H :    0.035743

-------------------------------
LOEWDIN REDUCED ORBITAL CHARGES
-------------------------------
  0 C s       :     2.873853  s :     2.873853
      pz      :     0.944790  p :     2.931571
      px      :     1.027647
      py      :     0.959135
      dz2     :     0.007566  d :     0.113590
      dxz     :     0.006094
      dyz     :     0.024023
      dx2y2   :     0.034994
      dxy     :     0.040913
  1 C s       :     2.857941  s :     2.857941
      pz      :     1.093800  p :     3.164448
      px      :     1.038919
      py      :     1.031730
      dz2     :     0.008579  d :     0.102637
      dxz     :     0.013424
      dyz     :     0.010192
      dx2y2   :     0.037192
      dxy     :     0.033251
  2 N s       :     3.100038  s :     3.100038
      pz      :     1.486973  p :     3.836362
      px      :     1.190406
      py      :     1.158982
      dz2     :     0.004998  d :     0.064327
      dxz     :     0.006105
      dyz     :     0.008348
      dx2y2   :     0.023534
      dxy     :     0.021343
  3 C s       :     2.857777  s :     2.857777
      pz      :     1.094390  p :     3.164723
      px      :     1.038207
      py      :     1.032126
      dz2     :     0.008577  d :     0.102694
      dxz     :     0.013289
      dyz     :     0.010303
      dx2y2   :     0.037157
      dxy     :     0.033368
  4 C s       :     2.845920  s :     2.845920
      pz      :     0.897146  p :     2.847191
      px      :     0.922675
      py      :     1.027370
      dz2     :     0.013958  d :     0.245469
      dxz     :     0.030693
      dyz     :     0.028163
      dx2y2   :     0.119780
      dxy     :     0.052874
  5 C s       :     2.843450  s :     2.843450
      pz      :     1.076984  p :     3.055470
      px      :     1.075568
      py      :     0.902917
      dz2     :     0.016052  d :     0.092940
      dxz     :     0.019423
      dyz     :     0.016553
      dx2y2   :     0.018785
      dxy     :     0.022128
  6 H s       :     0.903418  s :     0.903418
      pz      :     0.032376  p :     0.063664
      px      :     0.020284
      py      :     0.011004
  7 H s       :     0.886756  s :     0.886756
      pz      :     0.011998  p :     0.069990
      px      :     0.038912
      py      :     0.019080
  8 H s       :     0.903420  s :     0.903420
      pz      :     0.030973  p :     0.063662
      px      :     0.020967
      py      :     0.011722
  9 C s       :     2.846652  s :     2.846652
      pz      :     0.895142  p :     2.844916
      px      :     0.922414
      py      :     1.027360
      dz2     :     0.014009  d :     0.246778
      dxz     :     0.030796
      dyz     :     0.028163
      dx2y2   :     0.120929
      dxy     :     0.052880
 10 N s       :     3.099599  s :     3.099599
      pz      :     1.486565  p :     3.837077
      px      :     1.190989
      py      :     1.159523
      dz2     :     0.005011  d :     0.064438
      dxz     :     0.006024
      dyz     :     0.008437
      dx2y2   :     0.023579
      dxy     :     0.021387
 11 C s       :     2.872933  s :     2.872933
      pz      :     0.942360  p :     2.932184
      px      :     1.029740
      py      :     0.960084
      dz2     :     0.007592  d :     0.113937
      dxz     :     0.006078
      dyz     :     0.024287
      dx2y2   :     0.035079
      dxy     :     0.040902
 12 O s       :     3.560024  s :     3.560024
      pz      :     1.404973  p :     4.584202
      px      :     1.604699
      py      :     1.574530
      dz2     :     0.004113  d :     0.029420
      dxz     :     0.003335
      dyz     :     0.003564
      dx2y2   :     0.005807
      dxy     :     0.012600
 13 O s       :     3.555686  s :     3.555686
      pz      :     1.400774  p :     4.580359
      px      :     1.601884
      py      :     1.577701
      dz2     :     0.004173  d :     0.029978
      dxz     :     0.003444
      dyz     :     0.003619
      dx2y2   :     0.005969
      dxy     :     0.012773
 14 C s       :     2.843424  s :     2.843424
      pz      :     1.077350  p :     3.054968
      px      :     1.073219
      py      :     0.904399
      dz2     :     0.016044  d :     0.093092
      dxz     :     0.019733
      dyz     :     0.016303
      dx2y2   :     0.018348
      dxy     :     0.022665
 15 H s       :     0.887311  s :     0.887311
      pz      :     0.011997  p :     0.069382
      px      :     0.037916
      py      :     0.019469
 16 H s       :     0.903075  s :     0.903075
      pz      :     0.032389  p :     0.063591
      px      :     0.020287
      py      :     0.010916
 17 H s       :     0.903068  s :     0.903068
      pz      :     0.030946  p :     0.063589
      px      :     0.021011
      py      :     0.011632
 18 H s       :     0.892159  s :     0.892159
      pz      :     0.015039  p :     0.072591
      px      :     0.047029
      py      :     0.010524
 19 H s       :     0.891505  s :     0.891505
      pz      :     0.015007  p :     0.072752
      px      :     0.047011
      py      :     0.010734


                      *****************************
                      * MAYER POPULATION ANALYSIS *
                      *****************************

  NA   - Mulliken gross atomic population
  ZA   - Total nuclear charge
  QA   - Mulliken gross atomic charge
  VA   - Mayer's total valence
  BVA  - Mayer's bonded valence
  FA   - Mayer's free valence

  ATOM       NA         ZA         QA         VA         BVA        FA
  0 C      5.9151     6.0000     0.0849     3.7707     3.7707     0.0000
  1 C      6.0560     6.0000    -0.0560     3.7817     3.7817    -0.0000
  2 N      7.2729     7.0000    -0.2729     3.3407     3.3407     0.0000
  3 C      6.0604     6.0000    -0.0604     3.7901     3.7901     0.0000
  4 C      5.8432     6.0000     0.1568     4.1332     4.1332    -0.0000
  5 C      5.9479     6.0000     0.0521     3.9018     3.9018    -0.0000
  6 H      0.9477     1.0000     0.0523     0.9872     0.9872     0.0000
  7 H      0.9288     1.0000     0.0712     1.0367     1.0367    -0.0000
  8 H      0.9477     1.0000     0.0523     0.9872     0.9872    -0.0000
  9 C      5.8429     6.0000     0.1571     4.1355     4.1355    -0.0000
 10 N      7.2718     7.0000    -0.2718     3.3387     3.3387     0.0000
 11 C      5.9105     6.0000     0.0895     3.7738     3.7738    -0.0000
 12 O      8.1773     8.0000    -0.1773     2.3827     2.3827     0.0000
 13 O      8.1684     8.0000    -0.1684     2.3913     2.3913    -0.0000
 14 C      5.9474     6.0000     0.0526     3.9032     3.9032     0.0000
 15 H      0.9293     1.0000     0.0707     1.0345     1.0345     0.0000
 16 H      0.9470     1.0000     0.0530     0.9871     0.9871    -0.0000
 17 H      0.9471     1.0000     0.0529     0.9871     0.9871     0.0000
 18 H      0.9695     1.0000     0.0305     0.9967     0.9967     0.0000
 19 H      0.9691     1.0000     0.0309     0.9966     0.9966     0.0000

  Mayer bond orders larger than 0.100000
B(  0-C ,  1-C ) :   1.4059 B(  0-C ,  2-N ) :   1.2021 B(  0-C , 11-C ) :   0.1038 
B(  0-C , 18-H ) :   0.9774 B(  1-C ,  3-C ) :   1.2554 B(  1-C ,  9-C ) :   1.0049 
B(  2-N ,  4-C ) :   0.9652 B(  2-N ,  5-C ) :   0.9798 B(  3-C ,  4-C ) :   1.0097 
B(  3-C , 11-C ) :   1.4065 B(  4-C , 12-O ) :   2.0862 B(  5-C ,  6-H ) :   0.9668 
B(  5-C ,  7-H ) :   0.9431 B(  5-C ,  8-H ) :   0.9668 B(  9-C , 10-N ) :   0.9578 
B(  9-C , 13-O ) :   2.0991 B( 10-N , 11-C ) :   1.2071 B( 10-N , 14-C ) :   0.9799 
B( 11-C , 19-H ) :   0.9753 B( 14-C , 15-H ) :   0.9445 B( 14-C , 16-H ) :   0.9666 
B( 14-C , 17-H ) :   0.9666 

-------
TIMINGS
-------

Total SCF time: 0 days 0 hours 0 min 19 sec 

Total time                  ....      19.737 sec
Sum of individual times     ....      19.458 sec  ( 98.6%)

Fock matrix formation       ....      15.876 sec  ( 80.4%)
  Split-RI-J                ....       6.865 sec  ( 43.2% of F)
  XC integration            ....       8.669 sec  ( 54.6% of F)
    Basis function eval.    ....       3.374 sec  ( 38.9% of XC)
    Density eval.           ....       1.655 sec  ( 19.1% of XC)
    XC-Functional eval.     ....       0.860 sec  (  9.9% of XC)
    XC-Potential eval.      ....       2.193 sec  ( 25.3% of XC)
Diagonalization             ....       0.031 sec  (  0.2%)
Density matrix formation    ....       0.010 sec  (  0.1%)
Population analysis         ....       0.022 sec  (  0.1%)
Initial guess               ....       0.621 sec  (  3.1%)
Orbital Transformation      ....       0.000 sec  (  0.0%)
Orbital Orthonormalization  ....       0.000 sec  (  0.0%)
DIIS solution               ....       0.037 sec  (  0.2%)
SOSCF solution              ....       0.034 sec  (  0.2%)
Grid generation             ....       2.828 sec  ( 14.3%)


-------------------------------------------------------------------------------
                          DFT DISPERSION CORRECTION                            
                                                                               
                              DFTD3 V3.1  Rev 1                                
                          USING Becke-Johnson damping                          
-------------------------------------------------------------------------------
The BP86 functional is recognized
Active option DFTDOPT                   ...         4   

molecular C6(AA) [au] = 4497.576254 


            DFT-D V3
 parameters
 s6 scaling factor         :     1.0000 
 a1 scaling factor         :     0.3946 
 s8 scaling factor         :     3.2822 
 a2 scaling factor         :     4.8516 
 ad hoc parameters k1-k3   :    16.0000     1.3333    -4.0000 

 Edisp/kcal,au: -21.053613885538  -0.033551065777 
 E6   /kcal   :  -7.895182130 
 E8   /kcal   : -13.158431755 
 % E8         :  62.499634632 

-------------------------   ----------------
Dispersion correction           -0.033551066
-------------------------   ----------------


-------------------------   --------------------
FINAL SINGLE POINT ENERGY      -569.257194386718
-------------------------   --------------------

------------------------------------------------------------------------------
                         ORCA SCF GRADIENT CALCULATION
------------------------------------------------------------------------------

Gradient of the Kohn-Sham DFT energy:
Kohn-Sham wavefunction type      ... RKS
Hartree-Fock exchange scaling    ...    0.000
Number of operators              ...    1
Number of atoms                  ...   20
Basis set dimensions             ...  208
Integral neglect threshold       ... 2.5e-11
Integral primitive cutoff        ... 2.5e-12

Nuclear repulsion gradient       ... done
One Electron Gradient            ... done
Pre-screening matrix             ... done
RI-J gradient                    ... done
Exchange-correlation gradient    ... done
Dispersion correction            ... done

------------------
CARTESIAN GRADIENT
------------------

   1   C   :   -0.034375543    0.007745217   -0.000705084
   2   C   :    0.016768912   -0.008367249    0.000523952
   3   N   :    0.011649805    0.008150537   -0.000037781
   4   C   :   -0.018483244    0.013232704   -0.000619581
   5   C   :   -0.005707015   -0.007221705   -0.000013769
   6   C   :    0.002595719   -0.001492660    0.000062449
   7   H   :    0.000253569    0.000121120   -0.000292195
   8   H   :    0.000226960   -0.000422490    0.000023118
   9   H   :    0.000242492    0.000143801    0.000297133
  10   C   :    0.001235964   -0.000486029    0.000095153
  11   N   :   -0.010239376   -0.007870802   -0.000003094
  12   C   :    0.034598918   -0.014047156    0.000897295
  13   O   :    0.002204383    0.007483406   -0.000149228
  14   O   :    0.001614265   -0.001065519    0.000031080
  15   C   :   -0.001946224    0.002237672   -0.000047787
  16   H   :   -0.000370296    0.000443311   -0.000041510
  17   H   :    0.000013549   -0.000092914    0.000410507
  18   H   :    0.000011388   -0.000134856   -0.000409498
  19   H   :    0.012205495   -0.004086344    0.000282122
  20   H   :   -0.012499723    0.005729955   -0.000303283

Difference to translation invariance:
           :   -0.0000000000    0.0000000000    0.0000000000

Norm of the cartesian gradient     ...    0.0663324256
RMS gradient                       ...    0.0085634793
MAX gradient                       ...    0.0345989182

-------
TIMINGS
-------

Total SCF gradient time            ...        8.127 sec

One electron gradient       ....       0.153 sec  (  1.9%)
Prescreening matrices       ....       0.102 sec  (  1.3%)
RI-J Coulomb gradient       ....       1.628 sec  ( 20.0%)
XC gradient                 ....       6.119 sec  ( 75.3%)
------------------------------------------------------------------------------
                         ORCA GEOMETRY RELAXATION STEP
------------------------------------------------------------------------------

Reading the OPT-File                    .... done
Getting information on internals        .... done
Copying old internal coords+grads       .... done
Making the new internal coordinates     .... (new redundants).... done
Validating the new internal coordinates .... (new redundants).... done
Calculating the B-matrix                .... done
Calculating the G,G- and P matrices     .... done
Transforming gradient to internals      .... done
Projecting the internal gradient        .... done
Number of atoms                         ....  20
Number of internal coordinates          .... 105
Current Energy                          ....  -569.257194387 Eh
Current gradient norm                   ....     0.066332426 Eh/bohr
Maximum allowed component of the step   ....  0.300
Current trust radius                    ....  0.300
Evaluating the initial hessian          ....  (Almloef) done
Projecting the Hessian                  .... done
Forming the augmented Hessian           .... done
Diagonalizing the augmented Hessian     .... done
Last element of RFO vector              ....  0.998422273
Lowest eigenvalues of augmented Hessian:
 -0.001147803  0.017904967  0.018020122  0.024249182  0.024376064
Length of the computed step             ....  0.056240006
The final length of the internal step   ....  0.056240006
Converting the step to cartesian space:
 Initial RMS(Int)=    0.0054884626
Transforming coordinates:
 Iter   0:  RMS(Cart)=    0.0084814181 RMS(Int)=    0.0054896410
 Iter   1:  RMS(Cart)=    0.0000985655 RMS(Int)=    0.0000587239
 Iter   2:  RMS(Cart)=    0.0000015678 RMS(Int)=    0.0000011516
 Iter   3:  RMS(Cart)=    0.0000000192 RMS(Int)=    0.0000000116
Imposing constraints:
 Iter   0:  RMS(Cart)=    0.0000007369 RMS(Int)=    0.0000001389
 Iter   1:  RMS(Cart)=    0.0000001127 RMS(Int)=    0.0000000552
 Iter   2:  RMS(Cart)=    0.0000000371 RMS(Int)=    0.0000000294
CONVERGED
done
Storing new coordinates                 .... done

                                .--------------------.
          ----------------------|Geometry convergence|-------------------------
          Item                value                   Tolerance       Converged
          ---------------------------------------------------------------------
          RMS gradient        0.0019996477            0.0001000000      NO
          MAX gradient        0.0122631831            0.0003000000      NO
          RMS step            0.0054884626            0.0020000000      NO
          MAX step            0.0327260215            0.0040000000      NO
          ........................................................
          Max(Bonds)      0.0173      Max(Angles)    1.04
          Max(Dihed)        0.14      Max(Improp)    0.00
          ---------------------------------------------------------------------

The optimization has not yet converged - more geometry cycles are needed


    ---------------------------------------------------------------------------
                         Redundant Internal Coordinates
                            (Angstroem and degrees)

        Definition                    Value    dE/dq     Step     New-Value
    ----------------------------------------------------------------------------
     1. B(C   1,C   0)                1.4070  0.015796  0.0000    1.4070 C 
     2. B(N   2,C   0)                1.3907  0.011092  0.0000    1.3907 C 
     3. B(C   3,C   1)                1.4302 -0.003944 -0.0000    1.4302 C 
     4. B(C   4,N   2)                1.4537 -0.004967 -0.0000    1.4537 C 
     5. B(C   4,C   3)                1.4574 -0.000027 -0.0000    1.4574 C 
     6. B(C   5,N   2)                1.4445 -0.002629 -0.0000    1.4445 C 
     7. B(H   6,C   5)                1.1099  0.000130 -0.0002    1.1097   
     8. B(H   7,C   5)                1.1075 -0.000054  0.0001    1.1076   
     9. B(H   8,C   5)                1.1099  0.000138 -0.0002    1.1097   
    10. B(C   9,C   1)                1.4620  0.002083 -0.0000    1.4620 C 
    11. B(N  10,C   9)                1.4585 -0.002992  0.0000    1.4585 C 
    12. B(C  11,C   3)                1.4107  0.018277 -0.0000    1.4107 C 
    13. B(C  11,N  10)                1.3861  0.009188  0.0000    1.3861 C 
    14. B(O  12,C   4)                1.2311  0.006963  0.0000    1.2311 C 
    15. B(O  13,C   9)                1.2247 -0.000338  0.0000    1.2247 C 
    16. B(C  14,N  10)                1.4437 -0.003074  0.0000    1.4437 C 
    17. B(H  15,C  14)                1.1077  0.000045 -0.0001    1.1077   
    18. B(H  16,C  14)                1.1103  0.000364 -0.0006    1.1097   
    19. B(H  17,C  14)                1.1103  0.000365 -0.0006    1.1097   
    20. B(H  18,C   0)                1.0800 -0.012139  0.0171    1.0971   
    21. B(H  19,C  11)                1.0800 -0.012263  0.0173    1.0973   
    22. A(N   2,C   0,H  18)          124.09  0.007733   -0.72    123.37   
    23. A(C   1,C   0,N   2)          107.64 -0.006713    0.00    107.64 C 
    24. A(C   1,C   0,H  18)          128.27 -0.001020    0.72    128.99   
    25. A(C   0,C   1,C   9)          142.49 -0.001888    0.00    142.49 C 
    26. A(C   0,C   1,C   3)          108.37  0.000098    0.00    108.37 C 
    27. A(C   3,C   1,C   9)          109.14  0.001789    0.00    109.14 C 
    28. A(C   0,N   2,C   5)          128.14  0.003634    0.00    128.14 C 
    29. A(C   0,N   2,C   4)          111.69  0.001381    0.00    111.69 C 
    30. A(C   4,N   2,C   5)          120.17 -0.005015    0.00    120.17 C 
    31. A(C   1,C   3,C   4)          109.23  0.002322    0.00    109.23 C 
    32. A(C   4,C   3,C  11)          142.47 -0.002120    0.00    142.47 C 
    33. A(C   1,C   3,C  11)          108.30 -0.000202   -0.00    108.30 C 
    34. A(C   3,C   4,O  12)          135.18  0.002638    0.00    135.18 C 
    35. A(N   2,C   4,C   3)          103.07  0.002912   -0.00    103.07 C 
    36. A(N   2,C   4,O  12)          121.75 -0.005551    0.00    121.75 C 
    37. A(N   2,C   5,H   6)          111.74  0.000188   -0.05    111.69   
    38. A(N   2,C   5,H   7)          105.96 -0.000892    0.20    106.16   
    39. A(H   6,C   5,H   7)          109.01  0.000109    0.03    109.04   
    40. A(N   2,C   5,H   8)          111.73  0.000192   -0.05    111.68   
    41. A(H   6,C   5,H   8)          109.26  0.000270   -0.14    109.12   
    42. A(H   7,C   5,H   8)          109.02  0.000101    0.03    109.05   
    43. A(C   1,C   9,N  10)          103.07  0.003237   -0.00    103.07 C 
    44. A(C   1,C   9,O  13)          134.81  0.000586    0.00    134.81 C 
    45. A(N  10,C   9,O  13)          122.12 -0.003823    0.00    122.12 C 
    46. A(C   9,N  10,C  11)          111.58  0.000878    0.00    111.58 C 
    47. A(C   9,N  10,C  14)          120.66 -0.003011    0.00    120.66 C 
    48. A(C  11,N  10,C  14)          127.77  0.002133    0.00    127.77 C 
    49. A(C   3,C  11,H  19)          126.85 -0.003504    1.04    127.89   
    50. A(N  10,C  11,H  19)          125.22  0.009206   -1.04    124.19   
    51. A(C   3,C  11,N  10)          107.93 -0.005702   -0.00    107.93 C 
    52. A(H  15,C  14,H  17)          109.03  0.000214   -0.00    109.03   
    53. A(H  16,C  14,H  17)          109.17  0.000188   -0.10    109.07   
    54. A(N  10,C  14,H  15)          106.08 -0.000976    0.20    106.28   
    55. A(N  10,C  14,H  16)          111.72  0.000150   -0.04    111.67   
    56. A(H  15,C  14,H  16)          109.04  0.000243   -0.01    109.03   
    57. A(N  10,C  14,H  17)          111.71  0.000162   -0.04    111.66   
    58. D(C   3,C   1,C   0,N   2)     -0.02 -0.000011    0.00     -0.02 C 
    59. D(C   9,C   1,C   0,N   2)   -179.96 -0.000001    0.00   -179.96 C 
    60. D(C   9,C   1,C   0,H  18)      0.10  0.000018   -0.02      0.09   
    61. D(C   3,C   1,C   0,H  18)   -179.96  0.000009   -0.02   -179.98   
    62. D(C   4,N   2,C   0,C   1)      0.04  0.000025    0.00      0.04 C 
    63. D(C   4,N   2,C   0,H  18)    179.98  0.000001    0.02    180.00   
    64. D(C   5,N   2,C   0,C   1)   -180.00  0.000015   -0.00   -180.00 C 
    65. D(C   5,N   2,C   0,H  18)     -0.05 -0.000009    0.02     -0.04   
    66. D(C   4,C   3,C   1,C   0)     -0.01 -0.000006    0.00     -0.01 C 
    67. D(C   4,C   3,C   1,C   9)    179.95 -0.000014   -0.00    179.95 C 
    68. D(C  11,C   3,C   1,C   0)   -179.99 -0.000012    0.00   -179.99 C 
    69. D(C  11,C   3,C   1,C   9)     -0.03 -0.000020    0.00     -0.03 C 
    70. D(O  12,C   4,N   2,C   0)   -179.98  0.000011   -0.00   -179.98 C 
    71. D(C   3,C   4,N   2,C   0)     -0.04 -0.000030    0.00     -0.04 C 
    72. D(C   3,C   4,N   2,C   5)    179.99 -0.000024    0.00    179.99 C 
    73. D(O  12,C   4,N   2,C   5)      0.05  0.000017   -0.00      0.05 C 
    74. D(N   2,C   4,C   3,C   1)      0.03  0.000022    0.00      0.03 C 
    75. D(N   2,C   4,C   3,C  11)    180.00  0.000033    0.00    180.00 C 
    76. D(O  12,C   4,C   3,C   1)    179.95 -0.000035   -0.00    179.95 C 
    77. D(O  12,C   4,C   3,C  11)     -0.08 -0.000024   -0.00     -0.08 C 
    78. D(H   6,C   5,N   2,C   0)    -61.47 -0.000312    0.14    -61.34   
    79. D(H   6,C   5,N   2,C   4)    118.49 -0.000320    0.14    118.63   
    80. D(H   7,C   5,N   2,C   0)    179.92 -0.000001    0.01    179.92   
    81. D(H   7,C   5,N   2,C   4)     -0.12 -0.000009    0.01     -0.11   
    82. D(H   8,C   5,N   2,C   0)     61.30  0.000317   -0.12     61.18   
    83. D(H   8,C   5,N   2,C   4)   -118.74  0.000309   -0.12   -118.86   
    84. D(N  10,C   9,C   1,C   0)    179.93 -0.000010   -0.00    179.93 C 
    85. D(N  10,C   9,C   1,C   3)     -0.01  0.000000    0.00     -0.01 C 
    86. D(O  13,C   9,C   1,C   0)     -0.04  0.000011    0.00     -0.04 C 
    87. D(O  13,C   9,C   1,C   3)   -179.98  0.000021   -0.00   -179.98 C 
    88. D(C  11,N  10,C   9,C   1)      0.04  0.000022   -0.00      0.04 C 
    89. D(C  11,N  10,C   9,O  13)   -179.98  0.000006   -0.00   -179.98 C 
    90. D(C  14,N  10,C   9,C   1)    179.90  0.000007    0.00    179.90 C 
    91. D(C  14,N  10,C   9,O  13)     -0.12 -0.000009   -0.00     -0.12 C 
    92. D(N  10,C  11,C   3,C   1)      0.05  0.000030   -0.00      0.05 C 
    93. D(N  10,C  11,C   3,C   4)   -179.92  0.000018   -0.00   -179.92 C 
    94. D(H  19,C  11,C   3,C   1)   -179.94  0.000019   -0.02   -179.97   
    95. D(H  19,C  11,C   3,C   4)      0.09  0.000007   -0.02      0.06   
    96. D(C   3,C  11,N  10,C   9)     -0.06 -0.000030   -0.00     -0.06 C 
    97. D(C   3,C  11,N  10,C  14)   -179.90 -0.000005    0.00   -179.90 C 
    98. D(H  19,C  11,N  10,C   9)    179.93 -0.000020    0.02    179.96   
    99. D(H  19,C  11,N  10,C  14)      0.09  0.000005    0.02      0.11   
   100. D(H  15,C  14,N  10,C   9)      0.20  0.000022   -0.01      0.19   
   101. D(H  15,C  14,N  10,C  11)   -179.97  0.000001   -0.01   -179.98   
   102. D(H  16,C  14,N  10,C   9)   -118.50  0.000244   -0.10   -118.60   
   103. D(H  16,C  14,N  10,C  11)     61.33  0.000223   -0.10     61.23   
   104. D(H  17,C  14,N  10,C   9)    118.88 -0.000228    0.09    118.97   
   105. D(H  17,C  14,N  10,C  11)    -61.29 -0.000249    0.09    -61.20   
    ----------------------------------------------------------------------------

         *************************************************************
         *                GEOMETRY OPTIMIZATION CYCLE   2            *
         *************************************************************
---------------------------------
CARTESIAN COORDINATES (ANGSTROEM)
---------------------------------
  C     -3.566748    0.006399   -0.030144
  C     -2.677559   -1.083145    0.013666
  N     -2.806048    1.170352   -0.056283
[...]
 189   0.0000       2.680456        72.9389 
 190   0.0000       2.688716        73.1637 
 191   0.0000       2.721395        74.0529 
 192   0.0000       2.824186        76.8500 
 193   0.0000       2.825105        76.8750 
 194   0.0000       2.825854        76.8954 
 195   0.0000       2.838686        77.2446 
 196   0.0000       2.916706        79.3676 
 197   0.0000       2.961601        80.5893 
 198   0.0000       3.004567        81.7584 
 199   0.0000       3.058717        83.2319 
 200   0.0000       3.065467        83.4156 
 201   0.0000       3.070677        83.5574 
 202   0.0000       3.175593        86.4123 
 203   0.0000       3.231225        87.9261 
 204   0.0000       3.393811        92.3503 
 205   0.0000       3.449303        93.8603 
 206   0.0000       3.551621        96.6445 
 207   0.0000       3.555868        96.7601 

                    ********************************
                    * MULLIKEN POPULATION ANALYSIS *
                    ********************************

-----------------------
MULLIKEN ATOMIC CHARGES
-----------------------
   0 C :    0.070308
   1 C :   -0.048244
   2 N :   -0.273673
   3 C :   -0.048665
   4 C :    0.155782
   5 C :    0.051906
   6 H :    0.051877
   7 H :    0.071984
   8 H :    0.051878
   9 C :    0.156243
  10 N :   -0.273148
  11 C :    0.072329
  12 O :   -0.177091
  13 O :   -0.168310
  14 C :    0.052223
  15 H :    0.071342
  16 H :    0.052537
  17 H :    0.052525
  18 H :    0.038985
  19 H :    0.039211
Sum of atomic charges:   -0.0000000

--------------------------------
MULLIKEN REDUCED ORBITAL CHARGES
--------------------------------
  0 C s       :     3.225220  s :     3.225220
      pz      :     0.948970  p :     2.658424
      px      :     0.828736
      py      :     0.880718
      dz2     :     0.003450  d :     0.046047
      dxz     :     0.003715
      dyz     :     0.011143
      dx2y2   :     0.013431
      dxy     :     0.014308
  1 C s       :     3.148818  s :     3.148818
      pz      :     1.122190  p :     2.862838
      px      :     0.913911
      py      :     0.826738
      dz2     :     0.003354  d :     0.036588
      dxz     :     0.006198
      dyz     :     0.005096
      dx2y2   :     0.011611
      dxy     :     0.010328
  2 N s       :     3.458891  s :     3.458891
      pz      :     1.540725  p :     3.787899
      px      :     1.145971
      py      :     1.101204
      dz2     :     0.002317  d :     0.026883
      dxz     :     0.003297
      dyz     :     0.004843
      dx2y2   :     0.008381
      dxy     :     0.008046
  3 C s       :     3.149266  s :     3.149266
      pz      :     1.123122  p :     2.862801
      px      :     0.914700
      py      :     0.824979
      dz2     :     0.003356  d :     0.036598
      dxz     :     0.006141
      dyz     :     0.005139
      dx2y2   :     0.011593
      dxy     :     0.010369
  4 C s       :     3.017572  s :     3.017572
      pz      :     0.905157  p :     2.722576
      px      :     0.823885
      py      :     0.993534
      dz2     :     0.005747  d :     0.104071
      dxz     :     0.015221
      dyz     :     0.014742
      dx2y2   :     0.047030
      dxy     :     0.021330
  5 C s       :     3.015549  s :     3.015549
      pz      :     1.025794  p :     2.896325
      px      :     1.032897
      py      :     0.837634
      dz2     :     0.006154  d :     0.036221
      dxz     :     0.007020
      dyz     :     0.007094
      dx2y2   :     0.007805
      dxy     :     0.008150
  6 H s       :     0.926634  s :     0.926634
      pz      :     0.010743  p :     0.021489
      px      :     0.007345
      py      :     0.003401
  7 H s       :     0.904994  s :     0.904994
      pz      :     0.005007  p :     0.023022
      px      :     0.012477
      py      :     0.005538
  8 H s       :     0.926634  s :     0.926634
      pz      :     0.010354  p :     0.021488
      px      :     0.007515
      py      :     0.003618
  9 C s       :     3.018036  s :     3.018036
      pz      :     0.902933  p :     2.721106
      px      :     0.824444
      py      :     0.993729
      dz2     :     0.005744  d :     0.104615
      dxz     :     0.015283
      dyz     :     0.014749
      dx2y2   :     0.047498
      dxy     :     0.021341
 10 N s       :     3.458498  s :     3.458498
      pz      :     1.539975  p :     3.787767
      px      :     1.147628
      py      :     1.100164
      dz2     :     0.002316  d :     0.026883
      dxz     :     0.003258
      dyz     :     0.004873
      dx2y2   :     0.008393
      dxy     :     0.008042
 11 C s       :     3.222867  s :     3.222867
      pz      :     0.946253  p :     2.658590
      px      :     0.830527
      py      :     0.881810
      dz2     :     0.003455  d :     0.046214
      dxz     :     0.003701
      dyz     :     0.011266
      dx2y2   :     0.013505
      dxy     :     0.014287
 12 O s       :     3.725311  s :     3.725311
      pz      :     1.401958  p :     4.435022
      px      :     1.537952
      py      :     1.495112
      dz2     :     0.001889  d :     0.016757
      dxz     :     0.002531
      dyz     :     0.002670
      dx2y2   :     0.003837
      dxy     :     0.005830
 13 O s       :     3.720397  s :     3.720397
      pz      :     1.398181  p :     4.430829
      px      :     1.533864
      py      :     1.498784
      dz2     :     0.001916  d :     0.017083
      dxz     :     0.002609
      dyz     :     0.002708
      dx2y2   :     0.003935
      dxy     :     0.005915
 14 C s       :     3.015492  s :     3.015492
      pz      :     1.026451  p :     2.896000
      px      :     1.030132
      py      :     0.839417
      dz2     :     0.006166  d :     0.036284
      dxz     :     0.007112
      dyz     :     0.007025
      dx2y2   :     0.007641
      dxy     :     0.008340
 15 H s       :     0.905780  s :     0.905780
      pz      :     0.005018  p :     0.022878
      px      :     0.012196
      py      :     0.005665
 16 H s       :     0.925970  s :     0.925970
      pz      :     0.010761  p :     0.021493
      px      :     0.007336
      py      :     0.003396
 17 H s       :     0.925984  s :     0.925984
      pz      :     0.010356  p :     0.021491
      px      :     0.007522
      py      :     0.003613
 18 H s       :     0.939251  s :     0.939251
      pz      :     0.005076  p :     0.021764
      px      :     0.014132
      py      :     0.002556
 19 H s       :     0.939059  s :     0.939059
      pz      :     0.005049  p :     0.021730
      px      :     0.014131
      py      :     0.002549


                     *******************************
                     * LOEWDIN POPULATION ANALYSIS *
                     *******************************

----------------------
LOEWDIN ATOMIC CHARGES
----------------------
   0 C :    0.078043
   1 C :   -0.125290
   2 N :   -0.001250
   3 C :   -0.125533
   4 C :    0.061251
   5 C :    0.008267
   6 H :    0.032842
   7 H :    0.043521
   8 H :    0.032840
   9 C :    0.061312
  10 N :   -0.001700
  11 C :    0.078483
  12 O :   -0.173706
  13 O :   -0.166213
  14 C :    0.008594
  15 H :    0.043620
  16 H :    0.033218
  17 H :    0.033221
  18 H :    0.039210
  19 H :    0.039268

-------------------------------
LOEWDIN REDUCED ORBITAL CHARGES
-------------------------------
  0 C s       :     2.880099  s :     2.880099
      pz      :     0.945692  p :     2.928688
      px      :     1.023258
      py      :     0.959738
      dz2     :     0.007531  d :     0.113169
      dxz     :     0.006076
      dyz     :     0.024043
      dx2y2   :     0.034553
      dxy     :     0.040966
  1 C s       :     2.857839  s :     2.857839
      pz      :     1.095521  p :     3.164692
      px      :     1.037051
      py      :     1.032120
      dz2     :     0.008598  d :     0.102759
      dxz     :     0.013468
      dyz     :     0.010223
      dx2y2   :     0.037071
      dxy     :     0.033399
  2 N s       :     3.100458  s :     3.100458
      pz      :     1.485983  p :     3.836559
      px      :     1.191288
      py      :     1.159289
      dz2     :     0.004997  d :     0.064233
      dxz     :     0.006110
      dyz     :     0.008364
      dx2y2   :     0.023474
      dxy     :     0.021288
  3 C s       :     2.857564  s :     2.857564
      pz      :     1.096505  p :     3.165117
      px      :     1.036180
      py      :     1.032431
      dz2     :     0.008601  d :     0.102853
      dxz     :     0.013322
      dyz     :     0.010337
      dx2y2   :     0.037017
      dxy     :     0.033575
  4 C s       :     2.845862  s :     2.845862
      pz      :     0.897316  p :     2.847430
      px      :     0.922857
      py      :     1.027257
      dz2     :     0.013959  d :     0.245457
      dxz     :     0.030638
      dyz     :     0.028211
      dx2y2   :     0.119896
      dxy     :     0.052753
  5 C s       :     2.843288  s :     2.843288
      pz      :     1.077406  p :     3.055503
      px      :     1.074662
      py      :     0.903434
      dz2     :     0.015942  d :     0.092942
      dxz     :     0.019636
      dyz     :     0.016412
      dx2y2   :     0.018742
      dxy     :     0.022211
  6 H s       :     0.903494  s :     0.903494
      pz      :     0.032284  p :     0.063664
      px      :     0.020411
      py      :     0.010969
  7 H s       :     0.886568  s :     0.886568
      pz      :     0.012023  p :     0.069911
      px      :     0.038564
      py      :     0.019324
  8 H s       :     0.903495  s :     0.903495
      pz      :     0.030921  p :     0.063664
      px      :     0.021063
      py      :     0.011679
  9 C s       :     2.846620  s :     2.846620
      pz      :     0.895247  p :     2.845302
      px      :     0.922821
      py      :     1.027234
      dz2     :     0.014007  d :     0.246765
      dxz     :     0.030731
      dyz     :     0.028198
      dx2y2   :     0.121022
      dxy     :     0.052806
 10 N s       :     3.100179  s :     3.100179
      pz      :     1.485133  p :     3.837216
      px      :     1.192159
      py      :     1.159923
      dz2     :     0.005009  d :     0.064305
      dxz     :     0.006027
      dyz     :     0.008447
      dx2y2   :     0.023499
      dxy     :     0.021323
 11 C s       :     2.879900  s :     2.879900
      pz      :     0.943086  p :     2.927975
      px      :     1.023937
      py      :     0.960952
      dz2     :     0.007557  d :     0.113642
      dxz     :     0.006059
      dyz     :     0.024309
      dx2y2   :     0.034758
      dxy     :     0.040959
 12 O s       :     3.560045  s :     3.560045
      pz      :     1.404505  p :     4.584240
      px      :     1.605431
      py      :     1.574305
      dz2     :     0.004114  d :     0.029421
      dxz     :     0.003329
      dyz     :     0.003571
      dx2y2   :     0.005810
      dxy     :     0.012598
 13 O s       :     3.555692  s :     3.555692
      pz      :     1.400187  p :     4.580543
      px      :     1.602843
      py      :     1.577513
      dz2     :     0.004173  d :     0.029978
      dxz     :     0.003436
      dyz     :     0.003626
      dx2y2   :     0.005972
      dxy     :     0.012770
 14 C s       :     2.842972  s :     2.842972
      pz      :     1.077666  p :     3.055307
      px      :     1.072731
      py      :     0.904910
      dz2     :     0.015978  d :     0.093127
      dxz     :     0.019905
      dyz     :     0.016198
      dx2y2   :     0.018297
      dxy     :     0.022748
 15 H s       :     0.887059  s :     0.887059
      pz      :     0.012035  p :     0.069321
      px      :     0.037563
      py      :     0.019723
 16 H s       :     0.903123  s :     0.903123
      pz      :     0.032347  p :     0.063660
      px      :     0.020399
      py      :     0.010913
 17 H s       :     0.903121  s :     0.903121
      pz      :     0.030926  p :     0.063658
      px      :     0.021109
      py      :     0.011623
 18 H s       :     0.891318  s :     0.891318
      pz      :     0.014004  p :     0.069472
      px      :     0.045960
      py      :     0.009507
 19 H s       :     0.891313  s :     0.891313
      pz      :     0.013932  p :     0.069419
      px      :     0.045964
      py      :     0.009523


                      *****************************
                      * MAYER POPULATION ANALYSIS *
                      *****************************

  NA   - Mulliken gross atomic population
  ZA   - Total nuclear charge
  QA   - Mulliken gross atomic charge
  VA   - Mayer's total valence
  BVA  - Mayer's bonded valence
  FA   - Mayer's free valence

  ATOM       NA         ZA         QA         VA         BVA        FA
  0 C      5.9297     6.0000     0.0703     3.7607     3.7607    -0.0000
  1 C      6.0482     6.0000    -0.0482     3.7664     3.7664    -0.0000
  2 N      7.2737     7.0000    -0.2737     3.3437     3.3437     0.0000
  3 C      6.0487     6.0000    -0.0487     3.7671     3.7671    -0.0000
  4 C      5.8442     6.0000     0.1558     4.1345     4.1345     0.0000
  5 C      5.9481     6.0000     0.0519     3.9034     3.9034     0.0000
  6 H      0.9481     1.0000     0.0519     0.9872     0.9872     0.0000
  7 H      0.9280     1.0000     0.0720     1.0362     1.0362    -0.0000
  8 H      0.9481     1.0000     0.0519     0.9872     0.9872    -0.0000
  9 C      5.8438     6.0000     0.1562     4.1370     4.1370    -0.0000
 10 N      7.2731     7.0000    -0.2731     3.3435     3.3435     0.0000
 11 C      5.9277     6.0000     0.0723     3.7607     3.7607     0.0000
 12 O      8.1771     8.0000    -0.1771     2.3828     2.3828    -0.0000
 13 O      8.1683     8.0000    -0.1683     2.3910     2.3910    -0.0000
 14 C      5.9478     6.0000     0.0522     3.9054     3.9054     0.0000
 15 H      0.9287     1.0000     0.0713     1.0340     1.0340    -0.0000
 16 H      0.9475     1.0000     0.0525     0.9871     0.9871     0.0000
 17 H      0.9475     1.0000     0.0525     0.9871     0.9871    -0.0000
 18 H      0.9610     1.0000     0.0390     0.9954     0.9954     0.0000
 19 H      0.9608     1.0000     0.0392     0.9954     0.9954     0.0000

  Mayer bond orders larger than 0.100000
B(  0-C ,  1-C ) :   1.3942 B(  0-C ,  2-N ) :   1.2045 B(  0-C , 11-C ) :   0.1048 
B(  0-C , 18-H ) :   0.9766 B(  1-C ,  3-C ) :   1.2556 B(  1-C ,  9-C ) :   1.0043 
B(  2-N ,  4-C ) :   0.9650 B(  2-N ,  5-C ) :   0.9798 B(  3-C ,  4-C ) :   1.0094 
B(  3-C , 11-C ) :   1.3891 B(  4-C , 12-O ) :   2.0877 B(  5-C ,  6-H ) :   0.9667 
B(  5-C ,  7-H ) :   0.9435 B(  5-C ,  8-H ) :   0.9667 B(  9-C , 10-N ) :   0.9579 
B(  9-C , 13-O ) :   2.1002 B( 10-N , 11-C ) :   1.2106 B( 10-N , 14-C ) :   0.9799 
B( 11-C , 19-H ) :   0.9760 B( 14-C , 15-H ) :   0.9449 B( 14-C , 16-H ) :   0.9666 
B( 14-C , 17-H ) :   0.9666 

-------
TIMINGS
-------

Total SCF time: 0 days 0 hours 0 min 10 sec 

Total time                  ....      10.689 sec
Sum of individual times     ....      10.485 sec  ( 98.1%)

Fock matrix formation       ....       7.608 sec  ( 71.2%)
  Split-RI-J                ....       2.882 sec  ( 37.9% of F)
  XC integration            ....       4.571 sec  ( 60.1% of F)
    Basis function eval.    ....       1.762 sec  ( 38.6% of XC)
    Density eval.           ....       0.857 sec  ( 18.7% of XC)
    XC-Functional eval.     ....       0.451 sec  (  9.9% of XC)
    XC-Potential eval.      ....       1.003 sec  ( 22.0% of XC)
Diagonalization             ....       0.005 sec  (  0.0%)
Density matrix formation    ....       0.004 sec  (  0.0%)
Population analysis         ....       0.019 sec  (  0.2%)
Initial guess               ....       0.006 sec  (  0.1%)
Orbital Transformation      ....       0.000 sec  (  0.0%)
Orbital Orthonormalization  ....       0.002 sec  (  0.0%)
DIIS solution               ....       0.001 sec  (  0.0%)
SOSCF solution              ....       0.022 sec  (  0.2%)
Grid generation             ....       2.819 sec  ( 26.4%)


-------------------------------------------------------------------------------
                          DFT DISPERSION CORRECTION                            
                                                                               
                              DFTD3 V3.1  Rev 1                                
                          USING Becke-Johnson damping                          
-------------------------------------------------------------------------------
The BP86 functional is recognized
Active option DFTDOPT                   ...         4   

molecular C6(AA) [au] = 4498.268081 


            DFT-D V3
 parameters
 s6 scaling factor         :     1.0000 
 a1 scaling factor         :     0.3946 
 s8 scaling factor         :     3.2822 
 a2 scaling factor         :     4.8516 
 ad hoc parameters k1-k3   :    16.0000     1.3333    -4.0000 

 Edisp/kcal,au: -21.040235767012  -0.033529746390 
 E6   /kcal   :  -7.890235863 
 E8   /kcal   : -13.149999904 
 % E8         :  62.499299199 

-------------------------   ----------------
Dispersion correction           -0.033529746
-------------------------   ----------------


-------------------------   --------------------
FINAL SINGLE POINT ENERGY      -569.258193391094
-------------------------   --------------------

                                *** OPTIMIZATION RUN DONE ***

                            ***************************************
                            *     ORCA property calculations      *
                            ***************************************

                                    ---------------------
                                    Active property flags
                                    ---------------------
   (+) Dipole Moment


------------------------------------------------------------------------------
                       ORCA ELECTRIC PROPERTIES CALCULATION
------------------------------------------------------------------------------

Dipole Moment Calculation                       ... on
Quadrupole Moment Calculation                   ... off
Polarizability Calculation                      ... off
GBWName                                         ... Dimethyl_Diketopyrrolopyrrole_Optimize_Monomer.gbw
Electron density file                           ... Dimethyl_Diketopyrrolopyrrole_Optimize_Monomer.scfp
The origin for moment calculation is the CENTER OF MASS  = (-3.790686, -1.565007  0.025568)

-------------
DIPOLE MOMENT
-------------
                                X             Y             Z
Electronic contribution:     -0.05051      -0.05059      -0.00159
Nuclear contribution   :      0.04834       0.01011       0.00327
                        -----------------------------------------
Total Dipole Moment    :     -0.00216      -0.04049       0.00169
                        -----------------------------------------
Magnitude (a.u.)       :      0.04058
Magnitude (Debye)      :      0.10315



--------------------
Rotational spectrum 
--------------------
 
Rotational constants in cm-1:     0.073476     0.021421     0.016694 
Rotational constants in MHz :  2202.765597   642.181374   500.462327 

 Dipole components along the rotational axes: 
x,y,z [a.u.] :    -0.040025    -0.006672     0.000490 
x,y,z [Debye]:    -0.101735    -0.016958     0.001245 

 

Timings for individual modules:

Sum of individual times         ...      131.662 sec (=   2.194 min)
GTO integral calculation        ...        1.237 sec (=   0.021 min)   0.9 %
SCF iterations                  ...       88.980 sec (=   1.483 min)  67.6 %
SCF Gradient evaluation         ...       40.887 sec (=   0.681 min)  31.1 %
Geometry relaxation             ...        0.559 sec (=   0.009 min)   0.4 %
                             ****ORCA TERMINATED NORMALLY****
TOTAL RUN TIME: 0 days 0 hours 2 minutes 12 seconds 978 msec
