
                                 *****************
                                 * O   R   C   A *
                                 *****************

           --- An Ab Initio, DFT and Semiempirical electronic structure package ---

                  #######################################################
                  #                        -***-                        #
                  #          Department of theory and spectroscopy      #
                  #               Directorship: Frank Neese             #
                  #        Max Planck Institute fuer Kohlenforschung    #
                  #                Kaiser Wilhelm Platz 1               #
                  #                 D-45470 Muelheim/Ruhr               #
                  #                      Germany                        #
                  #                                                     #
                  #                  All rights reserved                #
                  #                        -***-                        #
                  #######################################################


                         Program Version 4.2.0 -  RELEASE  -


 With contributions from (in alphabetic order):
   Daniel Aravena         : Magnetic Suceptibility
   Michael Atanasov       : Ab Initio Ligand Field Theory (pilot matlab implementation)
   Alexander A. Auer      : GIAO ZORA, VPT2
   Ute Becker             : Parallelization
   Giovanni Bistoni       : ED, misc. LED, open-shell LED, HFLED
   Martin Brehm           : Molecular dynamics
   Dmytro Bykov           : SCF Hessian
   Vijay G. Chilkuri      : MRCI spin determinant printing, contributions to CSF-ICE
   Dipayan Datta          : RHF DLPNO-CCSD density
   Achintya Kumar Dutta   : EOM-CC, STEOM-CC
   Dmitry Ganyushin       : Spin-Orbit,Spin-Spin,Magnetic field MRCI
   Miquel Garcia          : C-PCM Hessian, Gaussian charge scheme
   Yang Guo               : DLPNO-NEVPT2, CIM, IAO-localization
   Andreas Hansen         : Spin unrestricted coupled pair/coupled cluster methods
   Benjamin Helmich-Paris : CASSCF linear response (MC-RPA)
   Lee Huntington         : MR-EOM, pCC
   Robert Izsak           : Overlap fitted RIJCOSX, COSX-SCS-MP3, EOM
   Christian Kollmar      : KDIIS, OOCD, Brueckner-CCSD(T), CCSD density
   Simone Kossmann        : Meta GGA functionals, TD-DFT gradient, OOMP2, MP2 Hessian
   Martin Krupicka        : AUTO-CI
   Lucas Lang             : DCDCAS
   Dagmar Lenk            : GEPOL surface, SMD
   Dimitrios Liakos       : Extrapolation schemes; Compound Job, initial MDCI parallelization
   Dimitrios Manganas     : Further ROCIS development; embedding schemes
   Dimitrios Pantazis     : SARC Basis sets
   Taras Petrenko         : DFT Hessian,TD-DFT gradient, ASA, ECA, R-Raman, ABS, FL, XAS/XES, NRVS
   Peter Pinski           : DLPNO-MP2, DLPNO-MP2 Gradient
   Christoph Reimann      : Effective Core Potentials
   Marius Retegan         : Local ZFS, SOC
   Christoph Riplinger    : Optimizer, TS searches, QM/MM, DLPNO-CCSD(T), (RO)-DLPNO pert. Triples
   Tobias Risthaus        : Range-separated hybrids, TD-DFT gradient, RPA, STAB
   Michael Roemelt        : Original ROCIS implementation
   Masaaki Saitow         : Open-shell DLPNO-CCSD energy and density
   Barbara Sandhoefer     : DKH picture change effects
   Avijit Sen             : IP-ROCIS
   Kantharuban Sivalingam : CASSCF convergence, NEVPT2, FIC-MRCI
   Bernardo de Souza      : ESD, SOC TD-DFT
   Georgi Stoychev        : AutoAux, RI-MP2 NMR
   Willem Van den Heuvel  : Paramagnetic NMR
   Boris Wezisla          : Elementary symmetry handling
   Frank Wennmohs         : Technical directorship


 We gratefully acknowledge several colleagues who have allowed us to
 interface, adapt or use parts of their codes:
   Stefan Grimme, W. Hujo, H. Kruse,             : VdW corrections, initial TS optimization,
                  C. Bannwarth                     DFT functionals, gCP, sTDA/sTD-DF
   Ed Valeev, F. Pavosevic, A. Kumar             : LibInt (2-el integral package), F12 methods
   Garnet Chan, S. Sharma, J. Yang, R. Olivares  : DMRG
   Ulf Ekstrom                                   : XCFun DFT Library
   Mihaly Kallay                                 : mrcc  (arbitrary order and MRCC methods)
   Andreas Klamt, Michael Diedenhofen            : otool_cosmo (COSMO solvation model)
   Jiri Pittner, Ondrej Demel                    : Mk-CCSD
   Frank Weinhold                                : gennbo (NPA and NBO analysis)
   Christopher J. Cramer and Donald G. Truhlar   : smd solvation model
   Lars Goerigk                                  : TD-DFT with DH, B97 family of functionals
   V. Asgeirsson, H. Jonsson                     : NEB implementation
   FAccTs GmbH                                   : IRC, NEB, NEB-TS, Multilevel, MM, QM/MM, CI optimization
   S Lehtola, MJT Oliveira, MAL Marques          : LibXC Library


 Your calculation uses the libint2 library for the computation of 2-el integrals
 For citations please refer to: http://libint.valeyev.net

 Your ORCA version has been built with support for libXC version: 4.2.3
 For citations please refer to: https://tddft.org/programs/libxc/

 This ORCA versions uses:
   CBLAS   interface :  Fast vector & matrix operations
   LAPACKE interface :  Fast linear algebra routines
   SCALAPACK package :  Parallel linear algebra routines


Your calculation utilizes the atom-pairwise dispersion correction
with the Becke-Johnson damping scheme (D3BJ)
Cite in your paper:
S.Grimme, S.Ehrlich, L.Goerigk, J Comput Chem, (2011), 32, 1456–1465 
S.Grimme, J.Antony, S.Ehrlich and H.Krieg, J.Chem.Phys., 132, (2010), 154104 
   

----- Orbital basis set information -----
Your calculation utilizes the basis: def2-SVP
   F. Weigend and R. Ahlrichs, Phys. Chem. Chem. Phys. 7, 3297 (2005).

----- AuxJ basis set information -----
Your calculation utilizes the auxiliary basis: def2/J
   F. Weigend, Phys. Chem. Chem. Phys. 8, 1057 (2006).

================================================================================
                                        WARNINGS
                       Please study these warnings very carefully!
================================================================================


WARNING: Geometry Optimization
  ===> : Switching off AutoStart
         For restart on a previous wavefunction, please use MOREAD

INFO   : the flag for use of LIBINT has been found!

================================================================================
                                       INPUT FILE
================================================================================
NAME = Dimethyl_Dithienosilole_Optimize_Monomer.inp
|  1> ! RI BP86 def2-SVP def2/J D3BJ TIGHTSCF  Opt Grid3 FinalGrid5
|  2> %maxcore 3000
|  3> %geom
|  4> optimizehydrogens true
|  5> end
|  6> 
|  7> 
|  8> *xyz 0 1
|  9> C	-4.181513	-0.281585	-0.123829
| 10> C	-3.712870	1.045457	-0.148502
| 11> C	-2.307455	1.156930	-0.123859
| 12> H	-4.404842	1.900307	-0.184564
| 13> C	-1.694950	-0.118721	-0.079050
| 14> S	-2.835196	-1.429261	-0.067443
| 15> Si	-0.932238	2.463817	-0.128105
| 16> C	0.400521	1.115055	-0.069144
| 17> C	-0.251348	-0.141461	-0.049790
| 18> S	0.846679	-1.487063	0.008286
| 19> C	2.229131	-0.380128	0.007517
| 20> C	1.801341	0.961656	-0.036016
| 21> H	2.520244	1.794622	-0.043213
| 22> C	-0.946560	3.553842	1.410661
| 23> H	-0.974276	2.929633	2.325814
| 24> H	-1.834428	4.219315	1.415734
| 25> H	-0.039700	4.191886	1.451516
| 26> C	-0.884162	3.481859	-1.714652
| 27> H	-0.878851	2.818010	-2.601823
| 28> H	0.025777	4.115964	-1.748716
| 29> H	-1.768627	4.148359	-1.783181
| 30> H	-5.210314	-0.609944	-0.136100
| 31> H	3.248916	-0.734429	0.037668
| 32> **                         ****END OF INPUT****
================================================================================

                       *****************************
                       * Geometry Optimization Run *
                       *****************************

Geometry optimization settings:
Update method            Update   .... BFGS
Choice of coordinates    CoordSys .... Z-matrix Internals
Initial Hessian          InHess   .... Almoef's Model

Convergence Tolerances:
Energy Change            TolE     ....  5.0000e-06 Eh
Max. Gradient            TolMAXG  ....  3.0000e-04 Eh/bohr
RMS Gradient             TolRMSG  ....  1.0000e-04 Eh/bohr
Max. Displacement        TolMAXD  ....  4.0000e-03 bohr
RMS Displacement         TolRMSD  ....  2.0000e-03 bohr
Strict Convergence                ....  False
------------------------------------------------------------------------------
                        ORCA OPTIMIZATION COORDINATE SETUP
------------------------------------------------------------------------------

The optimization will be done in new redundant internal coordinates
Making redundant internal coordinates   ...  (new redundants) done
Evaluating the initial hessian          ...  (Almloef) done
Evaluating the coordinates              ...  done
Calculating the B-matrix                .... done
Calculating the G-matrix                .... done
Diagonalizing the G-matrix              .... done
Imposing constraints:
 Iter   0:  RMS(Cart)=    0.0000000000 RMS(Int)=    0.0000000000
CONVERGED
The first mode is                       ....   72
The number of degrees of freedom        ....   63
Storing new coordinates                 .... done

    -----------------------------------------------------------------
                    Redundant Internal Coordinates


    -----------------------------------------------------------------
         Definition                    Initial Value    Approx d2E/dq
    -----------------------------------------------------------------
      1. B(C   1,C   0)                  1.4076         0.585726 C 
      2. B(C   2,C   1)                  1.4100         0.580443 C 
      3. B(H   3,C   1)                  1.1004         0.346593   
      4. B(C   4,C   2)                  1.4158         0.568323 C 
      5. B(S   5,C   0)                  1.7700         0.417096 C 
      6. B(S   5,C   4)                  1.7372         0.470539 C 
      7. B(Si  6,C   2)                  1.8972         0.421484 C 
      8. B(C   7,Si  6)                  1.8971         0.421611 C 
      9. B(C   8,C   4)                  1.4441         0.512226 C 
     10. B(C   8,C   7)                  1.4157         0.568556 C 
     11. B(S   9,C   8)                  1.7377         0.469609 C 
     12. B(C  10,S   9)                  1.7710         0.415554 C 
     13. B(C  11,C   7)                  1.4096         0.581426 C 
     14. B(C  11,C  10)                  1.4090         0.582671 C 
     15. B(H  12,C  11)                  1.1003         0.346703   
     16. B(C  13,Si  6)                  1.8858         0.439471 C 
     17. B(H  14,C  13)                  1.1081         0.336921   
     18. B(H  15,C  13)                  1.1096         0.335096   
     19. B(H  16,C  13)                  1.1096         0.335110   
     20. B(C  17,Si  6)                  1.8857         0.439603 C 
     21. B(H  18,C  17)                  1.1081         0.336985   
     22. B(H  19,C  17)                  1.1096         0.335069   
     23. B(H  20,C  17)                  1.1096         0.335092   
     24. B(H  21,C   0)                  1.0800         0.373574   
     25. B(H  22,C  10)                  1.0800         0.373575   
     26. A(C   1,C   0,H  21)          127.1282         0.351709   
     27. A(C   1,C   0,S   5)          111.0153         0.422283 C 
     28. A(S   5,C   0,H  21)          121.8566         0.349355   
     29. A(C   2,C   1,H   3)          124.4667         0.346760   
     30. A(C   0,C   1,H   3)          121.5747         0.347289   
     31. A(C   0,C   1,C   2)          113.9586         0.424607 C 
     32. A(C   1,C   2,C   4)          111.1325         0.422324 C 
     33. A(C   4,C   2,Si  6)          107.8876         0.430609 C 
     34. A(C   1,C   2,Si  6)          140.9798         0.432244 C 
     35. A(C   2,C   4,C   8)          116.5714         0.413024 C 
     36. A(S   5,C   4,C   8)          130.1016         0.421264 C 
     37. A(C   2,C   4,S   5)          113.3271         0.429173 C 
     38. A(C   0,S   5,C   4)           90.5665         0.428434 C 
     39. A(C   2,Si  6,C  13)          113.0074         0.444118 C 
     40. A(C   7,Si  6,C  13)          113.0125         0.444142 C 
     41. A(C  13,Si  6,C  17)          112.0038         0.447517 C 
     42. A(C   2,Si  6,C   7)           91.1129         0.440799 C 
     43. A(C   7,Si  6,C  17)          113.0836         0.444167 C 
     44. A(C   2,Si  6,C  17)          113.0956         0.444142 C 
     45. A(Si  6,C   7,C  11)          140.9203         0.432399 C 
     46. A(C   8,C   7,C  11)          111.1426         0.422483 C 
     47. A(Si  6,C   7,C   8)          107.9370         0.430664 C 
     48. A(C   7,C   8,S   9)          113.3777         0.429052 C 
     49. A(C   4,C   8,C   7)          116.4911         0.413054 C 
     50. A(C   4,C   8,S   9)          130.1312         0.421116 C 
     51. A(C   8,S   9,C  10)           90.5293         0.427998 C 
     52. A(S   9,C  10,C  11)          110.9913         0.421610 C 
     53. A(S   9,C  10,H  22)          122.1421         0.349137   
     54. A(C  11,C  10,H  22)          126.8666         0.351398   
     55. A(C   7,C  11,H  12)          124.5245         0.346877   
     56. A(C  10,C  11,H  12)          121.5163         0.347002   
     57. A(C   7,C  11,C  10)          113.9591         0.424339 C 
     58. A(Si  6,C  13,H  14)          110.3943         0.353974   
     59. A(Si  6,C  13,H  15)          110.8839         0.353648   
     60. A(H  14,C  13,H  15)          108.3037         0.284610   
     61. A(Si  6,C  13,H  16)          110.8683         0.353651   
     62. A(H  14,C  13,H  16)          108.2977         0.284612   
     63. A(H  15,C  13,H  16)          107.9955         0.284372   
     64. A(Si  6,C  17,H  18)          110.5065         0.354003   
     65. A(Si  6,C  17,H  19)          110.8092         0.353662   
     66. A(H  18,C  17,H  19)          108.2920         0.284615   
     67. A(Si  6,C  17,H  20)          110.8503         0.353666   
     68. A(H  18,C  17,H  20)          108.3149         0.284618   
     69. A(H  19,C  17,H  20)          107.9695         0.284366   
     70. D(H   3,C   1,C   0,S   5)    179.9828         0.023592   
     71. D(C   2,C   1,C   0,S   5)      0.0274         0.023592 C 
     72. D(C   2,C   1,C   0,H  21)   -179.9652         0.023592   
     73. D(H   3,C   1,C   0,H  21)     -0.0098         0.023592   
     74. D(C   4,C   2,C   1,C   0)     -0.0131         0.023149 C 
     75. D(C   4,C   2,C   1,H   3)   -179.9670         0.023149   
     76. D(Si  6,C   2,C   1,C   0)   -179.8953         0.023149 C 
     77. D(Si  6,C   2,C   1,H   3)      0.1509         0.023149   
     78. D(S   5,C   4,C   2,C   1)     -0.0076         0.022151 C 
     79. D(S   5,C   4,C   2,Si  6)    179.9145         0.022151 C 
     80. D(C   8,C   4,C   2,C   1)   -179.9815         0.022151 C 
     81. D(C   8,C   4,C   2,Si  6)     -0.0595         0.022151 C 
     82. D(C   4,S   5,C   0,H  21)    179.9668         0.004037   
     83. D(C   0,S   5,C   4,C   2)      0.0194         0.004763 C 
     84. D(C   4,S   5,C   0,C   1)     -0.0262         0.004037 C 
     85. D(C   0,S   5,C   4,C   8)    179.9890         0.004763 C 
     86. D(C   7,Si  6,C   2,C   1)    179.9651         0.003292 C 
     87. D(C   7,Si  6,C   2,C   4)      0.0806         0.003292 C 
     88. D(C  13,Si  6,C   2,C   1)     64.3041         0.003292 C 
     89. D(C  13,Si  6,C   2,C   4)   -115.5805         0.003292 C 
     90. D(C  17,Si  6,C   2,C   1)    -64.2750         0.003292 C 
     91. D(C  17,Si  6,C   2,C   4)    115.8405         0.003292 C 
     92. D(C   8,C   7,Si  6,C   2)     -0.0841         0.003293 C 
     93. D(C   8,C   7,Si  6,C  13)    115.5724         0.003293 C 
     94. D(C   8,C   7,Si  6,C  17)   -115.8546         0.003293 C 
     95. D(C  11,C   7,Si  6,C   2)   -179.8939         0.003293 C 
     96. D(C  11,C   7,Si  6,C  13)    -64.2374         0.003293 C 
     97. D(C  11,C   7,Si  6,C  17)     64.3356         0.003293 C 
     98. D(C   7,C   8,C   4,C   2)     -0.0069         0.017883 C 
     99. D(C   7,C   8,C   4,S   5)   -179.9756         0.017883 C 
    100. D(S   9,C   8,C   4,C   2)    179.9210         0.017883 C 
    101. D(S   9,C   8,C   4,S   5)     -0.0477         0.017883 C 
    102. D(C   4,C   8,C   7,Si  6)      0.0694         0.022170 C 
    103. D(C   4,C   8,C   7,C  11)    179.9408         0.022170 C 
    104. D(S   9,C   8,C   7,Si  6)   -179.8706         0.022170 C 
    105. D(S   9,C   8,C   7,C  11)      0.0008         0.022170 C 
    106. D(C  10,S   9,C   8,C   4)   -179.9467         0.004749 C 
    107. D(C  10,S   9,C   8,C   7)     -0.0170         0.004749 C 
    108. D(C  11,C  10,S   9,C   8)      0.0287         0.004017 C 
    109. D(H  22,C  10,S   9,C   8)   -179.9895         0.004017   
    110. D(C  10,C  11,C   7,Si  6)    179.8278         0.023231 C 
    111. D(H  12,C  11,C  10,S   9)   -179.9933         0.023335   
    112. D(H  12,C  11,C   7,Si  6)     -0.2147         0.023231   
    113. D(H  12,C  11,C   7,C   8)    179.9794         0.023231   
    114. D(C   7,C  11,C  10,S   9)     -0.0343         0.023335 C 
    115. D(C  10,C  11,C   7,C   8)      0.0218         0.023231 C 
    116. D(C   7,C  11,C  10,H  22)    179.9850         0.023335   
    117. D(H  12,C  11,C  10,H  22)      0.0260         0.023335   
    118. D(H  14,C  13,Si  6,C   2)     50.8908         0.003605   
    119. D(H  14,C  13,Si  6,C   7)    -50.8379         0.003605   
    120. D(H  14,C  13,Si  6,C  17)   -179.9674         0.003605   
    121. D(H  15,C  13,Si  6,C   2)    -69.1400         0.003605   
    122. D(H  15,C  13,Si  6,C   7)   -170.8688         0.003605   
    123. D(H  15,C  13,Si  6,C  17)     60.0017         0.003605   
    124. D(H  16,C  13,Si  6,C   2)    170.9040         0.003605   
    125. D(H  16,C  13,Si  6,C   7)     69.1753         0.003605   
    126. D(H  16,C  13,Si  6,C  17)    -59.9542         0.003605   
    127. D(H  19,C  17,Si  6,C  13)     60.0911         0.003607   
    128. D(H  18,C  17,Si  6,C   7)     51.0399         0.003607   
    129. D(H  18,C  17,Si  6,C  13)   -179.8678         0.003607   
    130. D(H  19,C  17,Si  6,C   2)   -170.8134         0.003607   
    131. D(H  18,C  17,Si  6,C   2)    -50.7722         0.003607   
    132. D(H  19,C  17,Si  6,C   7)    -69.0012         0.003607   
    133. D(H  20,C  17,Si  6,C   2)     69.3244         0.003607   
    134. D(H  20,C  17,Si  6,C   7)    171.1366         0.003607   
    135. D(H  20,C  17,Si  6,C  13)    -59.7711         0.003607   
    -----------------------------------------------------------------

Number of atoms                         .... 23
Number of degrees of freedom            .... 135

         *************************************************************
         *                GEOMETRY OPTIMIZATION CYCLE   1            *
         *************************************************************
---------------------------------
CARTESIAN COORDINATES (ANGSTROEM)
---------------------------------
  C     -4.181513   -0.281585   -0.123829
  C     -3.712870    1.045457   -0.148502
  C     -2.307455    1.156930   -0.123859
  H     -4.404842    1.900307   -0.184564
  C     -1.694950   -0.118721   -0.079050
  S     -2.835196   -1.429261   -0.067443
  Si    -0.932238    2.463817   -0.128105
  C      0.400521    1.115055   -0.069144
  C     -0.251348   -0.141461   -0.049790
  S      0.846679   -1.487063    0.008286
  C      2.229131   -0.380128    0.007517
  C      1.801341    0.961656   -0.036016
  H      2.520244    1.794622   -0.043213
  C     -0.946560    3.553842    1.410661
  H     -0.974276    2.929633    2.325814
  H     -1.834428    4.219315    1.415734
  H     -0.039700    4.191886    1.451516
  C     -0.884162    3.481859   -1.714652
  H     -0.878851    2.818010   -2.601823
  H      0.025777    4.115964   -1.748716
  H     -1.768627    4.148359   -1.783181
  H     -5.210314   -0.609944   -0.136100
  H      3.248916   -0.734429    0.037668

----------------------------
CARTESIAN COORDINATES (A.U.)
----------------------------
  NO LB      ZA    FRAG     MASS         X           Y           Z
   0 C     6.0000    0    12.011   -7.901914   -0.532119   -0.234003
   1 C     6.0000    0    12.011   -7.016307    1.975627   -0.280628
   2 C     6.0000    0    12.011   -4.360458    2.186281   -0.234060
   3 H     1.0000    0     1.008   -8.323945    3.591060   -0.348775
   4 C     6.0000    0    12.011   -3.202991   -0.224350   -0.149383
   5 S    16.0000    0    32.060   -5.357744   -2.700912   -0.127449
   6 Si   14.0000    0    28.086   -1.761675    4.655939   -0.242083
   7 C     6.0000    0    12.011    0.756875    2.107149   -0.130663
   8 C     6.0000    0    12.011   -0.474979   -0.267323   -0.094089
   9 S    16.0000    0    32.060    1.599991   -2.810142    0.015658
  10 C     6.0000    0    12.011    4.212447   -0.718338    0.014205
  11 C     6.0000    0    12.011    3.404041    1.817266   -0.068060
  12 H     1.0000    0     1.008    4.762571    3.391344   -0.081661
  13 C     6.0000    0    12.011   -1.788739    6.715788    2.665763
  14 H     1.0000    0     1.008   -1.841115    5.536204    4.395151
  15 H     1.0000    0     1.008   -3.466567    7.973350    2.675350
  16 H     1.0000    0     1.008   -0.075022    7.921517    2.742968
  17 C     6.0000    0    12.011   -1.670824    6.579760   -3.240223
  18 H     1.0000    0     1.008   -1.660788    5.325267   -4.916733
  19 H     1.0000    0     1.008    0.048711    7.778045   -3.304594
  20 H     1.0000    0     1.008   -3.342221    7.839262   -3.369724
  21 H     1.0000    0     1.008   -9.846067   -1.152627   -0.257192
  22 H     1.0000    0     1.008    6.139561   -1.387870    0.071182

--------------------------------
INTERNAL COORDINATES (ANGSTROEM)
--------------------------------
 C      0   0   0     0.000000000000     0.00000000     0.00000000
 C      1   0   0     1.407577879956     0.00000000     0.00000000
 C      2   1   0     1.410044265051   113.95860615     0.00000000
 H      2   1   3     1.100406397259   121.57472551   179.95531945
 C      3   2   1     1.415788012136   111.13252381     0.00000000
 S      5   3   2     1.737184720911   113.32706741     0.00000000
 Si     3   2   1     1.897154041288   140.97984999   180.10467974
 C      7   3   2     1.897071923846    91.11290764   179.96510545
 C      8   7   3     1.415676597508   107.93696350   359.91592730
 S      9   8   7     1.737722894166   113.37765867   180.12941531
 C     10   9   8     1.771010789885    90.52932133     0.00000000
 C     11  10   9     1.409000961265   110.99130433     0.02867728
 H     12  11  10     1.100320715689   121.51634439   180.00668998
 C      7   3   2     1.885778466062   113.00740446    64.30407418
 H     14   7   3     1.108111034936   110.39431333    50.89082444
 H     14   7   3     1.109589849666   110.88391870   290.86001288
 H     14   7   3     1.109578449935   110.86825144   170.90403299
 C      7   3   2     1.885696740929   113.09561275   295.72500122
 H     18   7   3     1.108059603434   110.50649358   309.22779442
 H     18   7   3     1.109611864952   110.80917175   189.18664846
 H     18   7   3     1.109593083101   110.85032495    69.32443317
 H      1   2   3     1.080000790705   127.12816647   180.03483137
 H     11  10   9     1.079999873901   122.14212327   180.01045232

---------------------------
INTERNAL COORDINATES (A.U.)
---------------------------
 C      0   0   0     0.000000000000     0.00000000     0.00000000
 C      1   0   0     2.659936705283     0.00000000     0.00000000
 C      2   1   0     2.664597497653   113.95860615     0.00000000
 H      2   1   3     2.079466726834   121.57472551   179.95531945
 C      3   2   1     2.675451606625   111.13252381     0.00000000
 S      5   3   2     3.282803366553   113.32706741     0.00000000
 Si     3   2   1     3.585101571896   140.97984999   180.10467974
 C      7   3   2     3.584946392421    91.11290764   179.96510545
 C      8   7   3     2.675241063492   107.93696350   359.91592730
 S      9   8   7     3.283820366619   113.37765867   180.12941531
 C     10   9   8     3.346725373103    90.52932133     0.00000000
 C     11  10   9     2.662625939222   110.99130433     0.02867728
 H     12  11  10     2.079304812132   121.51634439   180.00668998
 C      7   3   2     3.563604850104   113.00740446    64.30407418
 H     14   7   3     2.094026382004   110.39431333    50.89082444
 H     14   7   3     2.096820936848   110.88391870   290.86001288
 H     14   7   3     2.096799394479   110.86825144   170.90403299
 C      7   3   2     3.563450411983   113.09561275   295.72500122
 H     18   7   3     2.093929190552   110.50649358   309.22779442
 H     18   7   3     2.096862539709   110.80917175   189.18664846
 H     18   7   3     2.096827047155   110.85032495    69.32443317
 H      1   2   3     2.040905718850   127.12816647   180.03483137
 H     11  10   9     2.040903986343   122.14212327   180.01045232

---------------------
BASIS SET INFORMATION
---------------------
There are 4 groups of distinct atoms

 Group   1 Type C   : 7s4p1d contracted to 3s2p1d pattern {511/31/1}
 Group   2 Type H   : 4s1p contracted to 2s1p pattern {31/1}
 Group   3 Type S   : 10s7p1d contracted to 4s3p1d pattern {5311/511/1}
 Group   4 Type Si  : 10s7p1d contracted to 4s3p1d pattern {5311/511/1}

Atom   0C    basis set group =>   1
Atom   1C    basis set group =>   1
Atom   2C    basis set group =>   1
Atom   3H    basis set group =>   2
Atom   4C    basis set group =>   1
Atom   5S    basis set group =>   3
Atom   6Si   basis set group =>   4
Atom   7C    basis set group =>   1
Atom   8C    basis set group =>   1
Atom   9S    basis set group =>   3
Atom  10C    basis set group =>   1
Atom  11C    basis set group =>   1
Atom  12H    basis set group =>   2
Atom  13C    basis set group =>   1
Atom  14H    basis set group =>   2
Atom  15H    basis set group =>   2
Atom  16H    basis set group =>   2
Atom  17C    basis set group =>   1
Atom  18H    basis set group =>   2
Atom  19H    basis set group =>   2
Atom  20H    basis set group =>   2
Atom  21H    basis set group =>   2
Atom  22H    basis set group =>   2
---------------------------------
AUXILIARY/J BASIS SET INFORMATION
---------------------------------
There are 4 groups of distinct atoms

 Group   1 Type C   : 12s5p4d2f1g contracted to 6s4p3d1f1g pattern {711111/2111/211/2/1}
 Group   2 Type H   : 5s2p1d contracted to 3s1p1d pattern {311/2/1}
 Group   3 Type S   : 14s5p5d2f1g contracted to 8s4p3d1f1g pattern {71111111/2111/311/2/1}
 Group   4 Type Si  : 14s5p5d2f1g contracted to 8s4p3d1f1g pattern {71111111/2111/311/2/1}

Atom   0C    basis set group =>   1
Atom   1C    basis set group =>   1
Atom   2C    basis set group =>   1
Atom   3H    basis set group =>   2
Atom   4C    basis set group =>   1
Atom   5S    basis set group =>   3
Atom   6Si   basis set group =>   4
Atom   7C    basis set group =>   1
Atom   8C    basis set group =>   1
Atom   9S    basis set group =>   3
Atom  10C    basis set group =>   1
Atom  11C    basis set group =>   1
Atom  12H    basis set group =>   2
Atom  13C    basis set group =>   1
Atom  14H    basis set group =>   2
Atom  15H    basis set group =>   2
Atom  16H    basis set group =>   2
Atom  17C    basis set group =>   1
Atom  18H    basis set group =>   2
Atom  19H    basis set group =>   2
Atom  20H    basis set group =>   2
Atom  21H    basis set group =>   2
Atom  22H    basis set group =>   2
------------------------------------------------------------------------------
                           ORCA GTO INTEGRAL CALCULATION
                           -- RI-GTO INTEGRALS CHOSEN --
------------------------------------------------------------------------------

                         BASIS SET STATISTICS AND STARTUP INFO

Gaussian basis set:
 # of primitive gaussian shells          ...  224
 # of primitive gaussian functions       ...  418
 # of contracted shells                  ...  114
 # of contracted basis functions         ...  244
 Highest angular momentum                ...    2
 Maximum contraction depth               ...    5
Auxiliary gaussian basis set:
 # of primitive gaussian shells          ...  401
 # of primitive gaussian functions       ... 1091
 # of contracted shells                  ...  251
 # of contracted aux-basis functions     ...  753
 Highest angular momentum                ...    4
 Maximum contraction depth               ...    7
Ratio of auxiliary to basis functions    ...  3.09
Integral package used                  ... LIBINT
 One Electron integrals                  ... done
 Ordering auxiliary basis shells         ... done
 Integral threshhold             Thresh  ...  2.500e-11
 Primitive cut-off               TCut    ...  2.500e-12
 Pre-screening matrix                    ... done
 Shell pair data                         ... 
 Ordering of the shell pairs             ... done (   0.001 sec) 5659 of 6555 pairs
 Determination of significant pairs      ... done (   0.000 sec)
 Creation of shell pair data             ... done (   0.001 sec)
 Storage of shell pair data              ... done (   0.006 sec)
 Shell pair data done in (   0.008 sec)
 Computing two index integrals           ... done
 Cholesky decomposition of the V-matrix  ... done


Timings:
 Total evaluation time                   ...   0.414 sec (  0.007 min)
 One electron matrix time                ...   0.051 sec (  0.001 min) = 12.4%
 Schwartz matrix evaluation time         ...   0.135 sec (  0.002 min) = 32.6%
 Two index repulsion integral time       ...   0.025 sec (  0.000 min) =  5.9%
 Cholesky decomposition of V             ...   0.169 sec (  0.003 min) = 40.8%
 Three index repulsion integral time     ...   0.000 sec (  0.000 min) =  0.0%

-------------------------------------------------------------------------------
                                 ORCA SCF
-------------------------------------------------------------------------------

------------
SCF SETTINGS
------------
Hamiltonian:
 Density Functional     Method          .... DFT(GTOs)
 Exchange Functional    Exchange        .... B88
   X-Alpha parameter    XAlpha          ....  0.666667
   Becke's b parameter  XBeta           ....  0.004200
 Correlation Functional Correlation     .... P86
 LDA part of GGA corr.  LDAOpt          .... PW91-LDA
 Gradients option       PostSCFGGA      .... off
   Density functional embedding theory  .... OFF
 RI-approximation to the Coulomb term is turned on
   Number of auxiliary basis functions  .... 753


General Settings:
 Integral files         IntName         .... Dimethyl_Dithienosilole_Optimize_Monomer
 Hartree-Fock type      HFTyp           .... RHF
 Total Charge           Charge          ....    0
 Multiplicity           Mult            ....    1
 Number of Electrons    NEL             ....  116
 Basis Dimension        Dim             ....  244
 Nuclear Repulsion      ENuc            ....   1055.5565974790 Eh

Convergence Acceleration:
 DIIS                   CNVDIIS         .... on
   Start iteration      DIISMaxIt       ....    12
   Startup error        DIISStart       ....  0.200000
   # of expansion vecs  DIISMaxEq       ....     5
   Bias factor          DIISBfac        ....   1.050
   Max. coefficient     DIISMaxC        ....  10.000
 Newton-Raphson         CNVNR           .... off
 SOSCF                  CNVSOSCF        .... on
   Start iteration      SOSCFMaxIt      ....   150
   Startup grad/error   SOSCFStart      ....  0.003300
 Level Shifting         CNVShift        .... on
   Level shift para.    LevelShift      ....    0.2500
   Turn off err/grad.   ShiftErr        ....    0.0010
 Zerner damping         CNVZerner       .... off
 Static damping         CNVDamp         .... on
   Fraction old density DampFac         ....    0.7000
   Max. Damping (<1)    DampMax         ....    0.9800
   Min. Damping (>=0)   DampMin         ....    0.0000
   Turn off err/grad.   DampErr         ....    0.1000
 Fernandez-Rico         CNVRico         .... off

SCF Procedure:
 Maximum # iterations   MaxIter         ....   125
 SCF integral mode      SCFMode         .... Direct
   Integral package                     .... LIBINT
 Reset frequency        DirectResetFreq ....    20
 Integral Threshold     Thresh          ....  2.500e-11 Eh
 Primitive CutOff       TCut            ....  2.500e-12 Eh

Convergence Tolerance:
 Convergence Check Mode ConvCheckMode   .... Total+1el-Energy
 Convergence forced     ConvForced      .... 0
 Energy Change          TolE            ....  1.000e-08 Eh
 1-El. energy change                    ....  1.000e-05 Eh
 Orbital Gradient       TolG            ....  1.000e-05
 Orbital Rotation angle TolX            ....  1.000e-05
 DIIS Error             TolErr          ....  5.000e-07


Diagonalization of the overlap matrix:
Smallest eigenvalue                        ... 5.372e-04
Time for diagonalization                   ...    0.021 sec
Threshold for overlap eigenvalues          ... 1.000e-08
Number of eigenvalues below threshold      ... 0
Time for construction of square roots      ...    0.015 sec
Total time needed                          ...    0.037 sec

-------------------
DFT GRID GENERATION
-------------------

General Integration Accuracy     IntAcc      ...  4.340
Radial Grid Type                 RadialGrid  ... Gauss-Chebyshev
Angular Grid (max. acc.)         AngularGrid ... Lebedev-194
Angular grid pruning method      GridPruning ... 3 (G Style)
Weight generation scheme         WeightScheme... Becke
Basis function cutoff            BFCut       ...    1.0000e-11
Integration weight cutoff        WCut        ...    1.0000e-14
Grids for H and He will be reduced by one unit

# of grid points (after initial pruning)     ...  58912 (   0.0 sec)
# of grid points (after weights+screening)   ...  53465 (   0.2 sec)
nearest neighbour list constructed           ...    0.0 sec
Grid point re-assignment to atoms done       ...    0.0 sec
Grid point division into batches done        ...    0.1 sec
Reduced shell lists constructed in    0.6 sec

Total number of grid points                  ...    53465
Total number of batches                      ...      847
Average number of points per batch           ...       63
Average number of grid points per atom       ...     2325
Average number of shells per batch           ...    64.81 (56.85%)
Average number of basis functions per batch  ...   134.22 (55.01%)
Average number of large shells per batch     ...    45.58 (70.33%)
Average number of large basis fcns per batch ...    94.86 (70.68%)
Maximum spatial batch extension              ...  17.57, 24.64, 29.15 au
Average spatial batch extension              ...   2.83,  2.97,  3.15 au

Time for grid setup =    0.954 sec

------------------------------
INITIAL GUESS: MODEL POTENTIAL
------------------------------
Loading Hartree-Fock densities                     ... done
Calculating cut-offs                               ... done
Setting up the integral package                    ... done
Initializing the effective Hamiltonian             ... done
Starting the Coulomb interaction                   ... done (   0.3 sec)
Reading the grid                                   ... done
Mapping shells                                     ... done
Starting the XC term evaluation                    ... done (   0.6 sec)
  promolecular density results
     # of electrons  =    115.996546656
     EX              =   -124.750303756
     EC              =     -4.539594853
     EX+EC           =   -129.289898610
Transforming the Hamiltonian                       ... done (   0.0 sec)
Diagonalizing the Hamiltonian                      ... done (   0.0 sec)
Back transforming the eigenvectors                 ... done (   0.0 sec)
Now organizing SCF variables                       ... done
                      ------------------
                      INITIAL GUESS DONE (   1.9 sec)
                      ------------------
--------------
SCF ITERATIONS
--------------
ITER       Energy         Delta-E        Max-DP      RMS-DP      [F,P]     Damp
               ***  Starting incremental Fock matrix formation  ***
  0  -1472.0670030951   0.000000000000 0.09230552  0.00269294  0.1901109 0.7000
  1  -1472.2876772357  -0.220674140652 0.05541695  0.00168568  0.0880370 0.7000
                               ***Turning on DIIS***
  2  -1472.3431432887  -0.055466053013 0.10720531  0.00213038  0.0221820 0.0000
  3  -1472.4338549230  -0.090711634268 0.04224538  0.00146596  0.0580587 0.0000
  4  -1472.4686196047  -0.034764681667 0.02738422  0.00048941  0.0188381 0.0000
                      *** Initiating the SOSCF procedure ***
                           *** Shutting down DIIS ***
                      *** Re-Reading the Fockian *** 
                      *** Removing any level shift *** 
ITER      Energy       Delta-E        Grad      Rot      Max-DP    RMS-DP
  5  -1472.47227214  -0.0036525342  0.001879  0.001879  0.010052  0.000193
               *** Restarting incremental Fock matrix formation ***
  6  -1472.47249883  -0.0002266897  0.001177  0.007958  0.005127  0.000128
  7  -1472.47243640   0.0000624326  0.002393  0.004265  0.003616  0.000080
  8  -1472.47252941  -0.0000930163  0.000656  0.003852  0.002996  0.000067
  9  -1472.47250075   0.0000286624  0.000996  0.001852  0.001859  0.000045
 10  -1472.47253918  -0.0000384311  0.000097  0.000407  0.000897  0.000020
 11  -1472.47253778   0.0000013982  0.000201  0.000360  0.000379  0.000011
 12  -1472.47253964  -0.0000018527  0.000066  0.000413  0.000323  0.000008
 13  -1472.47253936   0.0000002764  0.000104  0.000201  0.000157  0.000005
 14  -1472.47253973  -0.0000003753  0.000005  0.000044  0.000075  0.000001
 15  -1472.47253974  -0.0000000048  0.000009  0.000018  0.000030  0.000001
 16  -1472.47253973   0.0000000128  0.000003  0.000026  0.000030  0.000001
 17  -1472.47253972   0.0000000105  0.000007  0.000024  0.000018  0.000000
 18  -1472.47253972  -0.0000000085  0.000003  0.000011  0.000018  0.000000
                  ***Gradient check signals convergence***
              ***Rediagonalizing the Fockian in SOSCF/NRSCF***

               *****************************************************
               *                     SUCCESS                       *
               *           SCF CONVERGED AFTER  19 CYCLES          *
               *****************************************************

Setting up the final grid:

General Integration Accuracy     IntAcc      ...  5.010
Radial Grid Type                 RadialGrid  ... Gauss-Chebyshev
Angular Grid (max. acc.)         AngularGrid ... Lebedev-434
Angular grid pruning method      GridPruning ... 3 (G Style)
Weight generation scheme         WeightScheme... Becke
Basis function cutoff            BFCut       ...    1.0000e-11
Integration weight cutoff        WCut        ...    1.0000e-14
Grids for H and He will be reduced by one unit

# of grid points (after initial pruning)     ... 209012 (   0.1 sec)
# of grid points (after weights+screening)   ... 187844 (   0.6 sec)
nearest neighbour list constructed           ...    0.0 sec
Grid point re-assignment to atoms done       ...    0.0 sec
Grid point division into batches done        ...    1.2 sec
Reduced shell lists constructed in    2.7 sec

Total number of grid points                  ...   187844
Total number of batches                      ...     2947
Average number of points per batch           ...       63
Average number of grid points per atom       ...     8167
Average number of shells per batch           ...    59.84 (52.49%)
Average number of basis functions per batch  ...   122.62 (50.25%)
Average number of large shells per batch     ...    41.28 (68.99%)
Average number of large basis fcns per batch ...    85.19 (69.47%)
Maximum spatial batch extension              ...  19.93, 19.09, 19.82 au
Average spatial batch extension              ...   1.93,  1.99,  2.04 au

Final grid set up in    3.3 sec
Final integration                            ... done (   2.3 sec)
Change in XC energy                          ...    -0.000576239
Integrated number of electrons               ...   116.000028422
Previous integrated no of electrons          ...   116.000316083

----------------
TOTAL SCF ENERGY
----------------

Total Energy       :        -1472.47311598 Eh          -40068.03050 eV

Components:
Nuclear Repulsion  :         1055.55659748 Eh           28723.15527 eV
Electronic Energy  :        -2528.02971345 Eh          -68791.18578 eV
One Electron Energy:        -4122.04977548 Eh         -112166.67683 eV
Two Electron Energy:         1594.02006203 Eh           43375.49106 eV

Virial components:
Potential Energy   :        -2936.81814612 Eh          -79914.88455 eV
Kinetic Energy     :         1464.34503014 Eh           39846.85405 eV
Virial Ratio       :            2.00555066


DFT components:
N(Alpha)           :       58.000014210889 electrons
N(Beta)            :       58.000014210889 electrons
N(Total)           :      116.000028421779 electrons
E(X)               :     -125.720804561807 Eh       
E(C)               :       -4.550223947742 Eh       
E(XC)              :     -130.271028509549 Eh       
DFET-embed. en.    :        0.000000000000 Eh       

---------------
SCF CONVERGENCE
---------------

  Last Energy change         ...   -1.2036e-08  Tolerance :   1.0000e-08
  Last MAX-Density change    ...    1.2630e-05  Tolerance :   1.0000e-07
  Last RMS-Density change    ...    2.2718e-07  Tolerance :   5.0000e-09
  Last Orbital Gradient      ...    2.2657e-06  Tolerance :   1.0000e-05
  Last Orbital Rotation      ...    4.5138e-06  Tolerance :   1.0000e-05

             **** THE GBW FILE WAS UPDATED (Dimethyl_Dithienosilole_Optimize_Monomer.gbw) ****
             **** DENSITY FILE WAS UPDATED (Dimethyl_Dithienosilole_Optimize_Monomer.scfp) ****
             **** ENERGY FILE WAS UPDATED (Dimethyl_Dithienosilole_Optimize_Monomer.en.tmp) ****
             **** THE GBW FILE WAS UPDATED (Dimethyl_Dithienosilole_Optimize_Monomer.gbw) ****
             **** DENSITY FILE WAS UPDATED (Dimethyl_Dithienosilole_Optimize_Monomer.scfp) ****
----------------
ORBITAL ENERGIES
----------------

  NO   OCC          E(Eh)            E(eV) 
   0   2.0000     -88.121744     -2397.9146 
   1   2.0000     -88.121524     -2397.9086 
   2   2.0000     -65.451958     -1781.0383 
   3   2.0000      -9.949332      -270.7351 
   4   2.0000      -9.949272      -270.7334 
   5   2.0000      -9.939159      -270.4583 
   6   2.0000      -9.939042      -270.4551 
   7   2.0000      -9.923660      -270.0365 
   8   2.0000      -9.923624      -270.0355 
   9   2.0000      -9.904313      -269.5100 
  10   2.0000      -9.904283      -269.5092 
  11   2.0000      -9.902940      -269.4727 
  12   2.0000      -9.902836      -269.4699 
  13   2.0000      -7.717332      -209.9993 
  14   2.0000      -7.717154      -209.9944 
  15   2.0000      -5.744227      -156.3084 
  16   2.0000      -5.744051      -156.3036 
  17   2.0000      -5.740029      -156.1941 
  18   2.0000      -5.739857      -156.1894 
  19   2.0000      -5.736866      -156.1081 
  20   2.0000      -5.736699      -156.1035 
  21   2.0000      -5.060404      -137.7006 
  22   2.0000      -3.476018       -94.5873 
  23   2.0000      -3.474832       -94.5550 
  24   2.0000      -3.473799       -94.5269 
  25   2.0000      -0.809824       -22.0364 
  26   2.0000      -0.784314       -21.3423 
  27   2.0000      -0.692345       -18.8397 
  28   2.0000      -0.672470       -18.2988 
  29   2.0000      -0.657082       -17.8801 
  30   2.0000      -0.633241       -17.2314 
  31   2.0000      -0.611568       -16.6416 
  32   2.0000      -0.609815       -16.5939 
  33   2.0000      -0.534286       -14.5387 
  34   2.0000      -0.517749       -14.0887 
  35   2.0000      -0.482907       -13.1406 
  36   2.0000      -0.464036       -12.6271 
  37   2.0000      -0.444827       -12.1044 
  38   2.0000      -0.415813       -11.3148 
  39   2.0000      -0.394416       -10.7326 
  40   2.0000      -0.376418       -10.2429 
  41   2.0000      -0.368268       -10.0211 
  42   2.0000      -0.367975       -10.0131 
  43   2.0000      -0.367769       -10.0075 
  44   2.0000      -0.354019        -9.6333 
  45   2.0000      -0.349287        -9.5046 
  46   2.0000      -0.348421        -9.4810 
  47   2.0000      -0.330105        -8.9826 
  48   2.0000      -0.325312        -8.8522 
  49   2.0000      -0.323004        -8.7894 
  50   2.0000      -0.315805        -8.5935 
  51   2.0000      -0.283691        -7.7196 
  52   2.0000      -0.274568        -7.4714 
  53   2.0000      -0.270360        -7.3569 
  54   2.0000      -0.244646        -6.6571 
  55   2.0000      -0.230769        -6.2795 
  56   2.0000      -0.227677        -6.1954 
  57   2.0000      -0.175080        -4.7642 
  58   0.0000      -0.082981        -2.2580 
  59   0.0000      -0.019115        -0.5202 
  60   0.0000      -0.015106        -0.4111 
  61   0.0000      -0.012444        -0.3386 
  62   0.0000       0.017724         0.4823 
  63   0.0000       0.026240         0.7140 
  64   0.0000       0.041277         1.1232 
  65   0.0000       0.041465         1.1283 
  66   0.0000       0.049625         1.3504 
  67   0.0000       0.067067         1.8250 
  68   0.0000       0.069435         1.8894 
  69   0.0000       0.081820         2.2264 
  70   0.0000       0.086647         2.3578 
  71   0.0000       0.088619         2.4114 
  72   0.0000       0.093820         2.5530 
  73   0.0000       0.110538         3.0079 
  74   0.0000       0.118781         3.2322 
  75   0.0000       0.121776         3.3137 
  76   0.0000       0.128649         3.5007 
  77   0.0000       0.132092         3.5944 
  78   0.0000       0.157633         4.2894 
  79   0.0000       0.171399         4.6640 
  80   0.0000       0.183152         4.9838 
  81   0.0000       0.226508         6.1636 
  82   0.0000       0.240522         6.5449 
  83   0.0000       0.243170         6.6170 
  84   0.0000       0.256334         6.9752 
  85   0.0000       0.298180         8.1139 
  86   0.0000       0.306084         8.3290 
  87   0.0000       0.325007         8.8439 
  88   0.0000       0.330348         8.9892 
  89   0.0000       0.339315         9.2332 
  90   0.0000       0.348990         9.4965 
  91   0.0000       0.351048         9.5525 
  92   0.0000       0.367076         9.9887 
  93   0.0000       0.376837        10.2542 
  94   0.0000       0.392793        10.6884 
  95   0.0000       0.405566        11.0360 
  96   0.0000       0.417633        11.3644 
  97   0.0000       0.422289        11.4911 
  98   0.0000       0.440274        11.9805 
  99   0.0000       0.443584        12.0705 
 100   0.0000       0.452739        12.3197 
 101   0.0000       0.453987        12.3536 
 102   0.0000       0.465830        12.6759 
 103   0.0000       0.491627        13.3778 
 104   0.0000       0.495830        13.4922 
 105   0.0000       0.503075        13.6894 
 106   0.0000       0.503887        13.7115 
 107   0.0000       0.505014        13.7421 
 108   0.0000       0.508434        13.8352 
 109   0.0000       0.526357        14.3229 
 110   0.0000       0.536946        14.6111 
 111   0.0000       0.543017        14.7763 
 112   0.0000       0.546947        14.8832 
 113   0.0000       0.568721        15.4757 
 114   0.0000       0.572981        15.5916 
 115   0.0000       0.588815        16.0225 
 116   0.0000       0.595206        16.1964 
 117   0.0000       0.597604        16.2616 
 118   0.0000       0.598219        16.2784 
 119   0.0000       0.606689        16.5088 
 120   0.0000       0.608224        16.5506 
 121   0.0000       0.611219        16.6321 
 122   0.0000       0.614155        16.7120 
 123   0.0000       0.622864        16.9490 
 124   0.0000       0.628764        17.1095 
 125   0.0000       0.634770        17.2730 
 126   0.0000       0.639255        17.3950 
 127   0.0000       0.641716        17.4620 
 128   0.0000       0.652813        17.7639 
 129   0.0000       0.658162        17.9095 
 130   0.0000       0.664085        18.0707 
 131   0.0000       0.665532        18.1100 
 132   0.0000       0.665595        18.1118 
 133   0.0000       0.674102        18.3432 
 134   0.0000       0.713841        19.4246 
 135   0.0000       0.715578        19.4719 
 136   0.0000       0.726685        19.7741 
 137   0.0000       0.731982        19.9182 
 138   0.0000       0.749820        20.4036 
 139   0.0000       0.752944        20.4886 
 140   0.0000       0.754831        20.5400 
 141   0.0000       0.778776        21.1916 
 142   0.0000       0.781843        21.2750 
 143   0.0000       0.805158        21.9095 
 144   0.0000       0.817589        22.2477 
 145   0.0000       0.836521        22.7629 
 146   0.0000       0.836715        22.7682 
 147   0.0000       0.858429        23.3590 
 148   0.0000       0.869579        23.6625 
 149   0.0000       0.894334        24.3361 
 150   0.0000       0.908715        24.7274 
 151   0.0000       0.919736        25.0273 
 152   0.0000       0.952585        25.9212 
 153   0.0000       1.013928        27.5904 
 154   0.0000       1.018745        27.7215 
 155   0.0000       1.063999        28.9529 
 156   0.0000       1.094074        29.7713 
 157   0.0000       1.099303        29.9136 
 158   0.0000       1.139783        31.0151 
 159   0.0000       1.145388        31.1676 
 160   0.0000       1.147606        31.2279 
 161   0.0000       1.168343        31.7922 
 162   0.0000       1.185570        32.2610 
 163   0.0000       1.191497        32.4223 
 164   0.0000       1.207556        32.8593 
 165   0.0000       1.219638        33.1880 
 166   0.0000       1.238948        33.7135 
 167   0.0000       1.275374        34.7047 
 168   0.0000       1.302312        35.4377 
 169   0.0000       1.303718        35.4760 
 170   0.0000       1.346199        36.6319 
 171   0.0000       1.369429        37.2641 
 172   0.0000       1.435452        39.0606 
 173   0.0000       1.454380        39.5757 
 174   0.0000       1.459050        39.7028 
 175   0.0000       1.472235        40.0615 
 176   0.0000       1.514767        41.2189 
 177   0.0000       1.536130        41.8002 
 178   0.0000       1.575184        42.8629 
 179   0.0000       1.601218        43.5714 
 180   0.0000       1.626846        44.2687 
 181   0.0000       1.633088        44.4386 
 182   0.0000       1.648923        44.8695 
 183   0.0000       1.668250        45.3954 
 184   0.0000       1.677786        45.6549 
 185   0.0000       1.702891        46.3380 
 186   0.0000       1.705355        46.4051 
 187   0.0000       1.705536        46.4100 
 188   0.0000       1.763270        47.9810 
 189   0.0000       1.779160        48.4134 
 190   0.0000       1.782952        48.5166 
 191   0.0000       1.788149        48.6580 
 192   0.0000       1.807549        49.1859 
 193   0.0000       1.809057        49.2269 
 194   0.0000       1.831811        49.8461 
 195   0.0000       1.834343        49.9150 
 196   0.0000       1.855591        50.4932 
 197   0.0000       1.862400        50.6785 
 198   0.0000       1.865264        50.7564 
 199   0.0000       1.895455        51.5780 
 200   0.0000       1.897098        51.6227 
 201   0.0000       1.905788        51.8591 
 202   0.0000       1.942742        52.8647 
 203   0.0000       1.944126        52.9024 
 204   0.0000       1.971272        53.6410 
 205   0.0000       1.995197        54.2921 
 206   0.0000       2.021238        55.0007 
 207   0.0000       2.066741        56.2389 
 208   0.0000       2.069132        56.3039 
 209   0.0000       2.073277        56.4167 
 210   0.0000       2.094358        56.9904 
 211   0.0000       2.099968        57.1430 
 212   0.0000       2.136951        58.1494 
 213   0.0000       2.163799        58.8800 
 214   0.0000       2.243698        61.0541 
 215   0.0000       2.248922        61.1963 
 216   0.0000       2.266655        61.6788 
 217   0.0000       2.275130        61.9094 
 218   0.0000       2.324969        63.2656 
 219   0.0000       2.335117        63.5418 
 220   0.0000       2.341825        63.7243 
 221   0.0000       2.352025        64.0018 
 222   0.0000       2.362427        64.2849 
 223   0.0000       2.363661        64.3185 
 224   0.0000       2.382079        64.8197 
 225   0.0000       2.394072        65.1460 
 226   0.0000       2.402407        65.3728 
 227   0.0000       2.523444        68.6664 
 228   0.0000       2.545284        69.2607 
 229   0.0000       2.579637        70.1955 
 230   0.0000       2.591116        70.5079 
 231   0.0000       2.606429        70.9245 
 232   0.0000       2.619394        71.2773 
 233   0.0000       2.690134        73.2023 
 234   0.0000       2.714648        73.8693 
 235   0.0000       2.812721        76.5380 
 236   0.0000       2.814410        76.5840 
 237   0.0000       2.824663        76.8630 
 238   0.0000       2.833422        77.1013 
 239   0.0000       2.835665        77.1624 
 240   0.0000       2.881063        78.3977 
 241   0.0000       2.943398        80.0939 
 242   0.0000       3.118858        84.8684 
 243   0.0000       3.172275        86.3220 

                    ********************************
                    * MULLIKEN POPULATION ANALYSIS *
                    ********************************

-----------------------
MULLIKEN ATOMIC CHARGES
-----------------------
   0 C :   -0.111120
   1 C :   -0.011339
   2 C :   -0.121369
   3 H :    0.005952
   4 C :   -0.116147
   5 S :    0.126843
   6 Si:    0.472274
   7 C :   -0.121164
   8 C :   -0.115441
   9 S :    0.127365
  10 C :   -0.111047
  11 C :   -0.012106
  12 H :    0.006028
  13 C :   -0.247000
  14 H :    0.076176
  15 H :    0.061974
  16 H :    0.061819
  17 C :   -0.246889
  18 H :    0.076103
  19 H :    0.061755
  20 H :    0.061712
  21 H :    0.037875
  22 H :    0.037743
Sum of atomic charges:   -0.0000000

--------------------------------
MULLIKEN REDUCED ORBITAL CHARGES
--------------------------------
  0 C s       :     3.197689  s :     3.197689
      pz      :     1.133586  p :     2.882978
      px      :     0.848196
      py      :     0.901196
      dz2     :     0.002786  d :     0.030453
      dxz     :     0.002464
      dyz     :     0.005673
      dx2y2   :     0.007457
      dxy     :     0.012074
  1 C s       :     3.208433  s :     3.208433
      pz      :     1.003629  p :     2.769526
      px      :     0.947522
      py      :     0.818374
      dz2     :     0.002416  d :     0.033380
      dxz     :     0.005584
      dyz     :     0.004263
      dx2y2   :     0.009580
      dxy     :     0.011537
  2 C s       :     3.170845  s :     3.170845
      pz      :     1.021372  p :     2.920534
      px      :     0.912436
      py      :     0.986725
      dz2     :     0.002638  d :     0.029991
      dxz     :     0.005656
      dyz     :     0.003704
      dx2y2   :     0.008788
      dxy     :     0.009204
  3 H s       :     0.971855  s :     0.971855
      pz      :     0.005287  p :     0.022192
      px      :     0.007464
      py      :     0.009441
  4 C s       :     3.052181  s :     3.052181
      pz      :     1.083182  p :     3.020242
      px      :     1.017559
      py      :     0.919500
      dz2     :     0.003304  d :     0.043723
      dxz     :     0.007511
      dyz     :     0.006867
      dx2y2   :     0.011894
      dxy     :     0.014148
  5 S s       :     5.860047  s :     5.860047
      pz      :     3.633108  p :     9.909626
      px      :     2.995485
      py      :     3.281034
      dz2     :     0.011242  d :     0.103484
      dxz     :     0.022135
      dyz     :     0.010671
      dx2y2   :     0.016093
      dxy     :     0.043342
  6 Sis       :     5.144939  s :     5.144939
      pz      :     2.728549  p :     8.085055
      px      :     2.683507
      py      :     2.672999
      dz2     :     0.065403  d :     0.297732
      dxz     :     0.036328
      dyz     :     0.079312
      dx2y2   :     0.029026
      dxy     :     0.087663
  7 C s       :     3.170580  s :     3.170580
      pz      :     1.021166  p :     2.920577
      px      :     0.912978
      py      :     0.986433
      dz2     :     0.002633  d :     0.030007
      dxz     :     0.005746
      dyz     :     0.003625
      dx2y2   :     0.008530
      dxy     :     0.009473
  8 C s       :     3.051627  s :     3.051627
      pz      :     1.083032  p :     3.020116
      px      :     1.020524
      py      :     0.916560
      dz2     :     0.003300  d :     0.043698
      dxz     :     0.007486
      dyz     :     0.006888
      dx2y2   :     0.012139
      dxy     :     0.013885
  9 S s       :     5.860117  s :     5.860117
      pz      :     3.633236  p :     9.909229
      px      :     2.998203
      py      :     3.277790
      dz2     :     0.011234  d :     0.103289
      dxz     :     0.022014
      dyz     :     0.010716
      dx2y2   :     0.016647
      dxy     :     0.042677
 10 C s       :     3.197807  s :     3.197807
      pz      :     1.133754  p :     2.882883
      px      :     0.844855
      py      :     0.904275
      dz2     :     0.002780  d :     0.030356
      dxz     :     0.002488
      dyz     :     0.005613
      dx2y2   :     0.007359
      dxy     :     0.012117
 11 C s       :     3.208619  s :     3.208619
      pz      :     1.003687  p :     2.770142
      px      :     0.944841
      py      :     0.821615
      dz2     :     0.002430  d :     0.033344
      dxz     :     0.005441
      dyz     :     0.004371
      dx2y2   :     0.009636
      dxy     :     0.011466
 12 H s       :     0.971779  s :     0.971779
      pz      :     0.005279  p :     0.022193
      px      :     0.007775
      py      :     0.009139
 13 C s       :     3.121420  s :     3.121420
      pz      :     1.079338  p :     3.110644
      px      :     1.001415
      py      :     1.029891
      dz2     :     0.003810  d :     0.014937
      dxz     :     0.000314
      dyz     :     0.003566
      dx2y2   :     0.001235
      dxy     :     0.006013
 14 H s       :     0.900183  s :     0.900183
      pz      :     0.010478  p :     0.023641
      px      :     0.005058
      py      :     0.008105
 15 H s       :     0.914147  s :     0.914147
      pz      :     0.005872  p :     0.023880
      px      :     0.009921
      py      :     0.008086
 16 H s       :     0.914302  s :     0.914302
      pz      :     0.005873  p :     0.023879
      px      :     0.010124
      py      :     0.007883
 17 C s       :     3.121460  s :     3.121460
      pz      :     1.082491  p :     3.110495
      px      :     1.001416
      py      :     1.026588
      dz2     :     0.003617  d :     0.014934
      dxz     :     0.000334
      dyz     :     0.003691
      dx2y2   :     0.001303
      dxy     :     0.005989
 18 H s       :     0.900253  s :     0.900253
      pz      :     0.010197  p :     0.023643
      px      :     0.005056
      py      :     0.008391
 19 H s       :     0.914358  s :     0.914358
      pz      :     0.005921  p :     0.023888
      px      :     0.010151
      py      :     0.007816
 20 H s       :     0.914398  s :     0.914398
      pz      :     0.005928  p :     0.023890
      px      :     0.009901
      py      :     0.008061
 21 H s       :     0.938705  s :     0.938705
      pz      :     0.006289  p :     0.023420
      px      :     0.012852
      py      :     0.004278
 22 H s       :     0.938829  s :     0.938829
      pz      :     0.006303  p :     0.023428
      px      :     0.012669
      py      :     0.004457


                     *******************************
                     * LOEWDIN POPULATION ANALYSIS *
                     *******************************

----------------------
LOEWDIN ATOMIC CHARGES
----------------------
   0 C :   -0.195955
   1 C :   -0.067365
   2 C :   -0.212333
   3 H :    0.034150
   4 C :   -0.198097
   5 S :    0.417387
   6 Si:    0.639509
   7 C :   -0.212276
   8 C :   -0.197949
   9 S :    0.417146
  10 C :   -0.195952
  11 C :   -0.067275
  12 H :    0.034099
  13 C :   -0.254123
  14 H :    0.047893
  15 H :    0.041865
  16 H :    0.041829
  17 C :   -0.254137
  18 H :    0.047838
  19 H :    0.041861
  20 H :    0.041837
  21 H :    0.025001
  22 H :    0.025046

-------------------------------
LOEWDIN REDUCED ORBITAL CHARGES
-------------------------------
  0 C s       :     2.953351  s :     2.953351
      pz      :     1.122409  p :     3.168315
      px      :     1.013862
      py      :     1.032044
      dz2     :     0.005659  d :     0.074289
      dxz     :     0.004162
      dyz     :     0.011960
      dx2y2   :     0.021120
      dxy     :     0.031387
  1 C s       :     2.880415  s :     2.880415
      pz      :     0.996926  p :     3.096464
      px      :     1.053480
      py      :     1.046058
      dz2     :     0.006073  d :     0.090487
      dxz     :     0.011662
      dyz     :     0.008765
      dx2y2   :     0.031302
      dxy     :     0.032684
  2 C s       :     2.927088  s :     2.927088
      pz      :     1.023632  p :     3.205448
      px      :     1.074989
      py      :     1.106827
      dz2     :     0.006754  d :     0.079796
      dxz     :     0.011856
      dyz     :     0.006902
      dx2y2   :     0.027388
      dxy     :     0.026897
  3 H s       :     0.899603  s :     0.899603
      pz      :     0.014470  p :     0.066247
      px      :     0.022639
      py      :     0.029138
  4 C s       :     2.918955  s :     2.918955
      pz      :     1.074194  p :     3.171765
      px      :     1.047124
      py      :     1.050447
      dz2     :     0.007678  d :     0.107377
      dxz     :     0.014889
      dyz     :     0.013812
      dx2y2   :     0.033997
      dxy     :     0.037000
  5 S s       :     5.525559  s :     5.525559
      pz      :     3.590996  p :     9.928144
      px      :     2.993215
      py      :     3.343934
      dz2     :     0.014839  d :     0.128910
      dxz     :     0.026903
      dyz     :     0.009982
      dx2y2   :     0.018474
      dxy     :     0.058711
  6 Sis       :     4.819864  s :     4.819864
      pz      :     2.725898  p :     8.107912
      px      :     2.685387
      py      :     2.696628
      dz2     :     0.095722  d :     0.432714
      dxz     :     0.046926
      dyz     :     0.119383
      dx2y2   :     0.037640
      dxy     :     0.133042
  7 C s       :     2.926926  s :     2.926926
      pz      :     1.023489  p :     3.205488
      px      :     1.072277
      py      :     1.109721
      dz2     :     0.006748  d :     0.079863
      dxz     :     0.012098
      dyz     :     0.006680
      dx2y2   :     0.026457
      dxy     :     0.027880
  8 C s       :     2.918985  s :     2.918985
      pz      :     1.074107  p :     3.171652
      px      :     1.049460
      py      :     1.048085
      dz2     :     0.007673  d :     0.107312
      dxz     :     0.014862
      dyz     :     0.013827
      dx2y2   :     0.034262
      dxy     :     0.036688
  9 S s       :     5.526237  s :     5.526237
      pz      :     3.591188  p :     9.927958
      px      :     2.995494
      py      :     3.341276
      dz2     :     0.014821  d :     0.128659
      dxz     :     0.026732
      dyz     :     0.010070
      dx2y2   :     0.019418
      dxy     :     0.057618
 10 C s       :     2.953934  s :     2.953934
      pz      :     1.122653  p :     3.168007
      px      :     1.010770
      py      :     1.034584
      dz2     :     0.005636  d :     0.074010
      dxz     :     0.004242
      dyz     :     0.011808
      dx2y2   :     0.021046
      dxy     :     0.031278
 11 C s       :     2.880650  s :     2.880650
      pz      :     0.996873  p :     3.096253
      px      :     1.053247
      py      :     1.046132
      dz2     :     0.006097  d :     0.090372
      dxz     :     0.011306
      dyz     :     0.009055
      dx2y2   :     0.031554
      dxy     :     0.032359
 12 H s       :     0.899627  s :     0.899627
      pz      :     0.014444  p :     0.066274
      px      :     0.023610
      py      :     0.028219
 13 C s       :     2.901144  s :     2.901144
      pz      :     1.141907  p :     3.310415
      px      :     1.067303
      py      :     1.101205
      dz2     :     0.010733  d :     0.042565
      dxz     :     0.000597
      dyz     :     0.011219
      dx2y2   :     0.003611
      dxy     :     0.016404
 14 H s       :     0.883967  s :     0.883967
      pz      :     0.034108  p :     0.068140
      px      :     0.011715
      py      :     0.022317
 15 H s       :     0.890401  s :     0.890401
      pz      :     0.015285  p :     0.067734
      px      :     0.029213
      py      :     0.023236
 16 H s       :     0.890433  s :     0.890433
      pz      :     0.015329  p :     0.067738
      px      :     0.029958
      py      :     0.022452
 17 C s       :     2.901151  s :     2.901151
      pz      :     1.145679  p :     3.310420
      px      :     1.067322
      py      :     1.097419
      dz2     :     0.010366  d :     0.042566
      dxz     :     0.000639
      dyz     :     0.011440
      dx2y2   :     0.003774
      dxy     :     0.016347
 18 H s       :     0.884031  s :     0.884031
      pz      :     0.033134  p :     0.068131
      px      :     0.011704
      py      :     0.023293
 19 H s       :     0.890398  s :     0.890398
      pz      :     0.015514  p :     0.067740
      px      :     0.030085
      py      :     0.022141
 20 H s       :     0.890429  s :     0.890429
      pz      :     0.015588  p :     0.067734
      px      :     0.029077
      py      :     0.023069
 21 H s       :     0.898763  s :     0.898763
      pz      :     0.019440  p :     0.076236
      px      :     0.043294
      py      :     0.013502
 22 H s       :     0.898695  s :     0.898695
      pz      :     0.019473  p :     0.076259
      px      :     0.042804
      py      :     0.013982


                      *****************************
                      * MAYER POPULATION ANALYSIS *
                      *****************************

  NA   - Mulliken gross atomic population
  ZA   - Total nuclear charge
  QA   - Mulliken gross atomic charge
  VA   - Mayer's total valence
  BVA  - Mayer's bonded valence
  FA   - Mayer's free valence

  ATOM       NA         ZA         QA         VA         BVA        FA
  0 C      6.1111     6.0000    -0.1111     3.7880     3.7880    -0.0000
  1 C      6.0113     6.0000    -0.0113     3.9082     3.9082     0.0000
  2 C      6.1214     6.0000    -0.1214     3.8163     3.8163    -0.0000
  3 H      0.9940     1.0000     0.0060     0.9854     0.9854    -0.0000
  4 C      6.1161     6.0000    -0.1161     4.0009     4.0009     0.0000
  5 S     15.8732    16.0000     0.1268     2.5168     2.5168    -0.0000
  6 Si    13.5277    14.0000     0.4723     4.1570     4.1570    -0.0000
  7 C      6.1212     6.0000    -0.1212     3.8168     3.8168     0.0000
  8 C      6.1154     6.0000    -0.1154     4.0004     4.0004     0.0000
  9 S     15.8726    16.0000     0.1274     2.5161     2.5161     0.0000
 10 C      6.1110     6.0000    -0.1110     3.7883     3.7883     0.0000
 11 C      6.0121     6.0000    -0.0121     3.9090     3.9090    -0.0000
 12 H      0.9940     1.0000     0.0060     0.9854     0.9854    -0.0000
 13 C      6.2470     6.0000    -0.2470     3.9137     3.9137    -0.0000
 14 H      0.9238     1.0000     0.0762     0.9847     0.9847    -0.0000
 15 H      0.9380     1.0000     0.0620     0.9816     0.9816     0.0000
 16 H      0.9382     1.0000     0.0618     0.9815     0.9815    -0.0000
 17 C      6.2469     6.0000    -0.2469     3.9136     3.9136     0.0000
 18 H      0.9239     1.0000     0.0761     0.9848     0.9848     0.0000
 19 H      0.9382     1.0000     0.0618     0.9815     0.9815     0.0000
 20 H      0.9383     1.0000     0.0617     0.9816     0.9816    -0.0000
 21 H      0.9621     1.0000     0.0379     0.9953     0.9953     0.0000
 22 H      0.9623     1.0000     0.0377     0.9954     0.9954     0.0000

  Mayer bond orders larger than 0.100000
B(  0-C ,  1-C ) :   1.5047 B(  0-C ,  4-C ) :   0.1039 B(  0-C ,  5-S ) :   1.1375 
B(  0-C , 21-H ) :   0.9642 B(  1-C ,  2-C ) :   1.2865 B(  1-C ,  3-H ) :   0.9777 
B(  2-C ,  4-C ) :   1.4596 B(  2-C ,  6-Si) :   0.8808 B(  4-C ,  5-S ) :   1.1314 
B(  4-C ,  8-C ) :   1.1874 B(  6-Si,  7-C ) :   0.8807 B(  6-Si, 13-C ) :   1.0456 
B(  6-Si, 17-C ) :   1.0454 B(  7-C ,  8-C ) :   1.4595 B(  7-C , 11-C ) :   1.2872 
B(  8-C ,  9-S ) :   1.1311 B(  8-C , 10-C ) :   0.1041 B(  9-S , 10-C ) :   1.1372 
B( 10-C , 11-C ) :   1.5046 B( 10-C , 22-H ) :   0.9641 B( 11-C , 12-H ) :   0.9775 
B( 13-C , 14-H ) :   0.9459 B( 13-C , 15-H ) :   0.9483 B( 13-C , 16-H ) :   0.9483 
B( 17-C , 18-H ) :   0.9462 B( 17-C , 19-H ) :   0.9482 B( 17-C , 20-H ) :   0.9484 


-------
TIMINGS
-------

Total SCF time: 0 days 0 hours 0 min 34 sec 

Total time                  ....      34.014 sec
Sum of individual times     ....      33.600 sec  ( 98.8%)

Fock matrix formation       ....      27.851 sec  ( 81.9%)
  Split-RI-J                ....      12.118 sec  ( 43.5% of F)
  XC integration            ....      14.991 sec  ( 53.8% of F)
    Basis function eval.    ....       5.762 sec  ( 38.4% of XC)
    Density eval.           ....       3.033 sec  ( 20.2% of XC)
    XC-Functional eval.     ....       1.315 sec  (  8.8% of XC)
    XC-Potential eval.      ....       3.833 sec  ( 25.6% of XC)
Diagonalization             ....       0.071 sec  (  0.2%)
Density matrix formation    ....       0.022 sec  (  0.1%)
Population analysis         ....       0.031 sec  (  0.1%)
Initial guess               ....       0.969 sec  (  2.8%)
Orbital Transformation      ....       0.000 sec  (  0.0%)
Orbital Orthonormalization  ....       0.000 sec  (  0.0%)
DIIS solution               ....       0.263 sec  (  0.8%)
SOSCF solution              ....       0.091 sec  (  0.3%)
Grid generation             ....       4.301 sec  ( 12.6%)


-------------------------------------------------------------------------------
                          DFT DISPERSION CORRECTION                            
                                                                               
                              DFTD3 V3.1  Rev 1                                
                          USING Becke-Johnson damping                          
-------------------------------------------------------------------------------
The BP86 functional is recognized
Active option DFTDOPT                   ...         4   

molecular C6(AA) [au] = 10014.504050 


            DFT-D V3
 parameters
 s6 scaling factor         :     1.0000 
 a1 scaling factor         :     0.3946 
 s8 scaling factor         :     3.2822 
 a2 scaling factor         :     4.8516 
 ad hoc parameters k1-k3   :    16.0000     1.3333    -4.0000 

 Edisp/kcal,au: -35.822233125994  -0.057086356120 
 E6   /kcal   : -11.892742977 
 E8   /kcal   : -23.929490149 
 % E8         :  66.800665567 

-------------------------   ----------------
Dispersion correction           -0.057086356
-------------------------   ----------------


-------------------------   --------------------
FINAL SINGLE POINT ENERGY     -1472.530202331485
-------------------------   --------------------

------------------------------------------------------------------------------
                         ORCA SCF GRADIENT CALCULATION
------------------------------------------------------------------------------

Gradient of the Kohn-Sham DFT energy:
Kohn-Sham wavefunction type      ... RKS
Hartree-Fock exchange scaling    ...    0.000
Number of operators              ...    1
Number of atoms                  ...   23
Basis set dimensions             ...  244
Integral neglect threshold       ... 2.5e-11
Integral primitive cutoff        ... 2.5e-12

Nuclear repulsion gradient       ... done
One Electron Gradient            ... done
Pre-screening matrix             ... done
RI-J gradient                    ... done
Exchange-correlation gradient    ... done
Dispersion correction            ... done

------------------
CARTESIAN GRADIENT
------------------

   1   C   :   -0.023255002   -0.015069985   -0.000099779
   2   C   :    0.015990172    0.014622799   -0.000005424
   3   C   :   -0.009058397    0.006183723   -0.000365569
   4   H   :    0.000311407    0.000383549   -0.000016737
   5   C   :    0.003799917   -0.004981671    0.000184210
   6   S   :    0.010228824   -0.009445317    0.000482471
   7   Si  :    0.000176652    0.004728189   -0.000051446
   8   C   :    0.009223778    0.005840365   -0.000015781
   9   C   :   -0.003829775   -0.004911114    0.000007839
  10   S   :   -0.010839451   -0.009708821    0.000075165
  11   C   :    0.023295209   -0.016888822    0.000875214
  12   C   :   -0.015989706    0.016285391   -0.000688100
  13   H   :   -0.000302074    0.000324936   -0.000028556
  14   C   :   -0.000041413   -0.000572084   -0.000138840
  15   H   :    0.000007001    0.000090612    0.000118140
  16   H   :    0.000039459   -0.000074084   -0.000059697
  17   H   :   -0.000039504   -0.000083163   -0.000071073
  18   C   :   -0.000058311   -0.000657569    0.000110799
  19   H   :    0.000014415    0.000135571   -0.000148107
  20   H   :   -0.000028803   -0.000088071    0.000102911
  21   H   :    0.000038164   -0.000060996    0.000091144
  22   H   :    0.010094554    0.006647301    0.000022338
  23   H   :   -0.009777117    0.007299259   -0.000381122

Difference to translation invariance:
           :    0.0000000000   -0.0000000000    0.0000000000

Norm of the cartesian gradient     ...    0.0602480154
RMS gradient                       ...    0.0072530087
MAX gradient                       ...    0.0232952088

-------
TIMINGS
-------

Total SCF gradient time            ...       14.780 sec

One electron gradient       ....       0.294 sec  (  2.0%)
Prescreening matrices       ....       0.155 sec  (  1.0%)
RI-J Coulomb gradient       ....       2.740 sec  ( 18.5%)
XC gradient                 ....      11.440 sec  ( 77.4%)
------------------------------------------------------------------------------
                         ORCA GEOMETRY RELAXATION STEP
------------------------------------------------------------------------------

Reading the OPT-File                    .... done
Getting information on internals        .... done
Copying old internal coords+grads       .... done
Making the new internal coordinates     .... (new redundants).... done
Validating the new internal coordinates .... (new redundants).... done
Calculating the B-matrix                .... done
Calculating the G,G- and P matrices     .... done
Transforming gradient to internals      .... done
Projecting the internal gradient        .... done
Number of atoms                         ....  23
Number of internal coordinates          .... 135
Current Energy                          .... -1472.530202331 Eh
Current gradient norm                   ....     0.060248015 Eh/bohr
Maximum allowed component of the step   ....  0.300
Current trust radius                    ....  0.300
Evaluating the initial hessian          ....  (Almloef) done
Projecting the Hessian                  .... done
Forming the augmented Hessian           .... done
Diagonalizing the augmented Hessian     .... done
Last element of RFO vector              ....  0.998822335
Lowest eigenvalues of augmented Hessian:
 -0.000871113  0.003605489  0.003606795  0.016825612  0.017042233
Length of the computed step             ....  0.048574654
The final length of the internal step   ....  0.048574654
Converting the step to cartesian space:
 Initial RMS(Int)=    0.0041806405
Transforming coordinates:
 Iter   0:  RMS(Cart)=    0.0061802414 RMS(Int)=    0.7647434113
 Iter   1:  RMS(Cart)=    0.0000540989 RMS(Int)=    0.0000286262
 Iter   2:  RMS(Cart)=    0.0000008100 RMS(Int)=    0.0000004861
 Iter   3:  RMS(Cart)=    0.0000000075 RMS(Int)=    0.0000000049
Imposing constraints:
 Iter   0:  RMS(Cart)=    0.0000000732 RMS(Int)=    0.0000000103
CONVERGED
done
Storing new coordinates                 .... done

                                .--------------------.
          ----------------------|Geometry convergence|-------------------------
          Item                value                   Tolerance       Converged
          ---------------------------------------------------------------------
          RMS gradient        0.0015460230            0.0001000000      NO
          MAX gradient        0.0116373025            0.0003000000      NO
          RMS step            0.0041806405            0.0020000000      NO
          MAX step            0.0310788238            0.0040000000      NO
          ........................................................
          Max(Bonds)      0.0164      Max(Angles)    0.61
          Max(Dihed)        0.06      Max(Improp)    0.00
          ---------------------------------------------------------------------

The optimization has not yet converged - more geometry cycles are needed


    ---------------------------------------------------------------------------
                         Redundant Internal Coordinates
                            (Angstroem and degrees)

        Definition                    Value    dE/dq     Step     New-Value
    ----------------------------------------------------------------------------
     1. B(C   1,C   0)                1.4076  0.015426  0.0000    1.4076 C 
     2. B(C   2,C   1)                1.4100 -0.011147 -0.0000    1.4100 C 
     3. B(H   3,C   1)                1.1004  0.000103 -0.0002    1.1003   
     4. B(C   4,C   2)                1.4158  0.007693 -0.0000    1.4158 C 
     5. B(S   5,C   0)                1.7700  0.010060  0.0000    1.7700 C 
     6. B(S   5,C   4)                1.7372  0.001053 -0.0000    1.7372 C 
     7. B(Si  6,C   2)                1.8972 -0.000601 -0.0000    1.8972 C 
     8. B(C   7,Si  6)                1.8971 -0.000575  0.0000    1.8971 C 
     9. B(C   8,C   4)                1.4441 -0.005665  0.0000    1.4441 C 
    10. B(C   8,C   7)                1.4157  0.007723  0.0000    1.4157 C 
    11. B(S   9,C   8)                1.7377  0.001411  0.0000    1.7377 C 
    12. B(C  10,S   9)                1.7710  0.010528 -0.0000    1.7710 C 
    13. B(C  11,C   7)                1.4096 -0.011431  0.0000    1.4096 C 
    14. B(C  11,C  10)                1.4090  0.016423 -0.0000    1.4090 C 
    15. B(H  12,C  11)                1.1003  0.000049 -0.0001    1.1002   
    16. B(C  13,Si  6)                1.8858 -0.000492  0.0000    1.8858 C 
    17. B(H  14,C  13)                1.1081  0.000047 -0.0001    1.1080   
    18. B(H  15,C  13)                1.1096 -0.000076  0.0001    1.1097   
    19. B(H  16,C  13)                1.1096 -0.000083  0.0001    1.1097   
    20. B(C  17,Si  6)                1.8857 -0.000495  0.0000    1.8857 C 
    21. B(H  18,C  17)                1.1081  0.000037 -0.0001    1.1080   
    22. B(H  19,C  17)                1.1096 -0.000077  0.0001    1.1097   
    23. B(H  20,C  17)                1.1096 -0.000072  0.0001    1.1097   
    24. B(H  21,C   0)                1.0800 -0.011637  0.0164    1.0964   
    25. B(H  22,C  10)                1.0800 -0.011637  0.0164    1.0964   
[...]
  0 C s       :     3.207261  s :     3.207261
      pz      :     1.133646  p :     2.883802
      px      :     0.851258
      py      :     0.898898
      dz2     :     0.002788  d :     0.030429
      dxz     :     0.002486
      dyz     :     0.005674
      dx2y2   :     0.007089
      dxy     :     0.012391
  1 C s       :     3.210667  s :     3.210667
      pz      :     1.004464  p :     2.765157
      px      :     0.943031
      py      :     0.817661
      dz2     :     0.002418  d :     0.033372
      dxz     :     0.005592
      dyz     :     0.004280
      dx2y2   :     0.009545
      dxy     :     0.011536
  2 C s       :     3.170560  s :     3.170560
      pz      :     1.022161  p :     2.920887
      px      :     0.911162
      py      :     0.987563
      dz2     :     0.002641  d :     0.029990
      dxz     :     0.005668
      dyz     :     0.003702
      dx2y2   :     0.008800
      dxy     :     0.009180
  3 H s       :     0.971175  s :     0.971175
      pz      :     0.005298  p :     0.022218
      px      :     0.007515
      py      :     0.009404
  4 C s       :     3.052121  s :     3.052121
      pz      :     1.082672  p :     3.019602
      px      :     1.017556
      py      :     0.919374
      dz2     :     0.003301  d :     0.043736
      dxz     :     0.007505
      dyz     :     0.006867
      dx2y2   :     0.011924
      dxy     :     0.014139
  5 S s       :     5.860689  s :     5.860689
      pz      :     3.632079  p :     9.911118
      px      :     2.997136
      py      :     3.281902
      dz2     :     0.011241  d :     0.103437
      dxz     :     0.022112
      dyz     :     0.010649
      dx2y2   :     0.016145
      dxy     :     0.043291
  6 Sis       :     5.144887  s :     5.144887
      pz      :     2.728832  p :     8.084501
      px      :     2.682682
      py      :     2.672986
      dz2     :     0.065478  d :     0.297815
      dxz     :     0.036331
      dyz     :     0.079390
      dx2y2   :     0.029006
      dxy     :     0.087610
  7 C s       :     3.170331  s :     3.170331
      pz      :     1.021942  p :     2.921013
      px      :     0.911660
      py      :     0.987410
      dz2     :     0.002636  d :     0.030007
      dxz     :     0.005758
      dyz     :     0.003624
      dx2y2   :     0.008545
      dxy     :     0.009444
  8 C s       :     3.051566  s :     3.051566
      pz      :     1.082518  p :     3.019465
      px      :     1.020421
      py      :     0.916526
      dz2     :     0.003298  d :     0.043713
      dxz     :     0.007479
      dyz     :     0.006887
      dx2y2   :     0.012170
      dxy     :     0.013879
  9 S s       :     5.860814  s :     5.860814
      pz      :     3.632095  p :     9.911009
      px      :     3.000198
      py      :     3.278717
      dz2     :     0.011231  d :     0.103229
      dxz     :     0.021991
      dyz     :     0.010690
      dx2y2   :     0.016685
      dxy     :     0.042631
 10 C s       :     3.207999  s :     3.207999
      pz      :     1.133887  p :     2.883436
      px      :     0.848179
      py      :     0.901370
      dz2     :     0.002784  d :     0.030340
      dxz     :     0.002509
      dyz     :     0.005615
      dx2y2   :     0.006965
      dxy     :     0.012467
 11 C s       :     3.210930  s :     3.210930
      pz      :     1.004576  p :     2.765199
      px      :     0.940335
      py      :     0.820288
      dz2     :     0.002432  d :     0.033334
      dxz     :     0.005450
      dyz     :     0.004390
      dx2y2   :     0.009613
      dxy     :     0.011449
 12 H s       :     0.971012  s :     0.971012
      pz      :     0.005289  p :     0.022215
      px      :     0.007821
      py      :     0.009105
 13 C s       :     3.121500  s :     3.121500
      pz      :     1.079856  p :     3.110590
      px      :     1.001540
      py      :     1.029194
      dz2     :     0.003785  d :     0.014933
      dxz     :     0.000314
      dyz     :     0.003587
      dx2y2   :     0.001245
      dxy     :     0.006002
 14 H s       :     0.900220  s :     0.900220
      pz      :     0.010470  p :     0.023655
      px      :     0.005060
      py      :     0.008125
 15 H s       :     0.914127  s :     0.914127
      pz      :     0.005871  p :     0.023870
      px      :     0.009916
      py      :     0.008084
 16 H s       :     0.914251  s :     0.914251
      pz      :     0.005870  p :     0.023867
      px      :     0.010128
      py      :     0.007869
 17 C s       :     3.121551  s :     3.121551
      pz      :     1.083246  p :     3.110482
      px      :     1.001571
      py      :     1.025664
      dz2     :     0.003580  d :     0.014929
      dxz     :     0.000335
      dyz     :     0.003721
      dx2y2   :     0.001320
      dxy     :     0.005973
 18 H s       :     0.900256  s :     0.900256
      pz      :     0.010184  p :     0.023662
      px      :     0.005058
      py      :     0.008420
 19 H s       :     0.914303  s :     0.914303
      pz      :     0.005916  p :     0.023872
      px      :     0.010136
      py      :     0.007820
 20 H s       :     0.914332  s :     0.914332
      pz      :     0.005930  p :     0.023879
      px      :     0.009917
      py      :     0.008032
 21 H s       :     0.930720  s :     0.930720
      pz      :     0.006005  p :     0.022642
      px      :     0.012372
      py      :     0.004265
 22 H s       :     0.930682  s :     0.930682
      pz      :     0.006018  p :     0.022645
      px      :     0.012149
      py      :     0.004478


                     *******************************
                     * LOEWDIN POPULATION ANALYSIS *
                     *******************************

----------------------
LOEWDIN ATOMIC CHARGES
----------------------
   0 C :   -0.198598
   1 C :   -0.068044
   2 C :   -0.212412
   3 H :    0.034375
   4 C :   -0.198112
   5 S :    0.416443
   6 Si:    0.639799
   7 C :   -0.212341
   8 C :   -0.197982
   9 S :    0.416069
  10 C :   -0.198430
  11 C :   -0.067938
  12 H :    0.034371
  13 C :   -0.254213
  14 H :    0.047858
  15 H :    0.041903
  16 H :    0.041875
  17 C :   -0.254227
  18 H :    0.047835
  19 H :    0.041896
  20 H :    0.041891
  21 H :    0.029016
  22 H :    0.028965

-------------------------------
LOEWDIN REDUCED ORBITAL CHARGES
-------------------------------
  0 C s       :     2.959192  s :     2.959192
      pz      :     1.123360  p :     3.165476
      px      :     1.010010
      py      :     1.032105
      dz2     :     0.005608  d :     0.073930
      dxz     :     0.004148
      dyz     :     0.011975
      dx2y2   :     0.020113
      dxy     :     0.032086
  1 C s       :     2.880360  s :     2.880360
      pz      :     0.997784  p :     3.097102
      px      :     1.053192
      py      :     1.046127
      dz2     :     0.006087  d :     0.090581
      dxz     :     0.011675
      dyz     :     0.008782
      dx2y2   :     0.031248
      dxy     :     0.032790
  2 C s       :     2.927007  s :     2.927007
      pz      :     1.024268  p :     3.205635
      px      :     1.074285
      py      :     1.107083
      dz2     :     0.006758  d :     0.079769
      dxz     :     0.011876
      dyz     :     0.006897
      dx2y2   :     0.027405
      dxy     :     0.026834
  3 H s       :     0.899352  s :     0.899352
      pz      :     0.014495  p :     0.066273
      px      :     0.022787
      py      :     0.028991
  4 C s       :     2.918960  s :     2.918960
      pz      :     1.073783  p :     3.171715
      px      :     1.047447
      py      :     1.050485
      dz2     :     0.007676  d :     0.107437
      dxz     :     0.014879
      dyz     :     0.013811
      dx2y2   :     0.034081
      dxy     :     0.036990
  5 S s       :     5.525892  s :     5.525892
      pz      :     3.589980  p :     9.928866
      px      :     2.994535
      py      :     3.344350
      dz2     :     0.014839  d :     0.128800
      dxz     :     0.026879
      dyz     :     0.009961
      dx2y2   :     0.018487
      dxy     :     0.058634
  6 Sis       :     4.819836  s :     4.819836
      pz      :     2.725888  p :     8.107517
      px      :     2.684939
      py      :     2.696690
      dz2     :     0.095767  d :     0.432847
      dxz     :     0.046930
      dyz     :     0.119526
      dx2y2   :     0.037616
      dxy     :     0.133008
  7 C s       :     2.926859  s :     2.926859
      pz      :     1.024113  p :     3.205649
      px      :     1.071540
      py      :     1.109996
      dz2     :     0.006753  d :     0.079832
      dxz     :     0.012118
      dyz     :     0.006677
      dx2y2   :     0.026484
      dxy     :     0.027801
  8 C s       :     2.918983  s :     2.918983
      pz      :     1.073697  p :     3.171618
      px      :     1.049741
      py      :     1.048180
      dz2     :     0.007670  d :     0.107381
      dxz     :     0.014851
      dyz     :     0.013825
      dx2y2   :     0.034352
      dxy     :     0.036683
  9 S s       :     5.526591  s :     5.526591
      pz      :     3.590063  p :     9.928819
      px      :     2.997048
      py      :     3.341707
      dz2     :     0.014818  d :     0.128521
      dxz     :     0.026708
      dyz     :     0.010046
      dx2y2   :     0.019409
      dxy     :     0.057540
 10 C s       :     2.959841  s :     2.959841
      pz      :     1.123665  p :     3.164915
      px      :     1.006734
      py      :     1.034517
      dz2     :     0.005584  d :     0.073674
      dxz     :     0.004227
      dyz     :     0.011826
      dx2y2   :     0.019949
      dxy     :     0.032087
 11 C s       :     2.880587  s :     2.880587
      pz      :     0.997805  p :     3.096883
      px      :     1.052993
      py      :     1.046085
      dz2     :     0.006111  d :     0.090468
      dxz     :     0.011320
      dyz     :     0.009073
      dx2y2   :     0.031528
      dxy     :     0.032436
 12 H s       :     0.899345  s :     0.899345
      pz      :     0.014465  p :     0.066284
      px      :     0.023739
      py      :     0.028080
 13 C s       :     2.901213  s :     2.901213
      pz      :     1.142333  p :     3.310447
      px      :     1.067394
      py      :     1.100719
      dz2     :     0.010673  d :     0.042553
      dxz     :     0.000597
      dyz     :     0.011264
      dx2y2   :     0.003632
      dxy     :     0.016388
 14 H s       :     0.883975  s :     0.883975
      pz      :     0.034063  p :     0.068167
      px      :     0.011721
      py      :     0.022383
 15 H s       :     0.890390  s :     0.890390
      pz      :     0.015291  p :     0.067707
      px      :     0.029192
      py      :     0.023224
 16 H s       :     0.890416  s :     0.890416
      pz      :     0.015336  p :     0.067709
      px      :     0.029972
      py      :     0.022401
 17 C s       :     2.901212  s :     2.901212
      pz      :     1.146245  p :     3.310461
      px      :     1.067454
      py      :     1.096762
      dz2     :     0.010278  d :     0.042553
      dxz     :     0.000643
      dyz     :     0.011499
      dx2y2   :     0.003809
      dxy     :     0.016323
 18 H s       :     0.884004  s :     0.884004
      pz      :     0.033061  p :     0.068162
      px      :     0.011709
      py      :     0.023392
 19 H s       :     0.890394  s :     0.890394
      pz      :     0.015522  p :     0.067710
      px      :     0.030028
      py      :     0.022160
 20 H s       :     0.890401  s :     0.890401
      pz      :     0.015613  p :     0.067708
      px      :     0.029141
      py      :     0.022955
 21 H s       :     0.897690  s :     0.897690
      pz      :     0.018268  p :     0.073294
      px      :     0.041667
      py      :     0.013359
 22 H s       :     0.897715  s :     0.897715
      pz      :     0.018303  p :     0.073320
      px      :     0.041034
      py      :     0.013984


                      *****************************
                      * MAYER POPULATION ANALYSIS *
                      *****************************

  NA   - Mulliken gross atomic population
  ZA   - Total nuclear charge
  QA   - Mulliken gross atomic charge
  VA   - Mayer's total valence
  BVA  - Mayer's bonded valence
  FA   - Mayer's free valence

  ATOM       NA         ZA         QA         VA         BVA        FA
  0 C      6.1215     6.0000    -0.1215     3.7824     3.7824     0.0000
  1 C      6.0092     6.0000    -0.0092     3.9020     3.9020     0.0000
  2 C      6.1214     6.0000    -0.1214     3.8135     3.8135     0.0000
  3 H      0.9934     1.0000     0.0066     0.9858     0.9858    -0.0000
  4 C      6.1155     6.0000    -0.1155     4.0015     4.0015    -0.0000
  5 S     15.8752    16.0000     0.1248     2.5201     2.5201    -0.0000
  6 Si    13.5272    14.0000     0.4728     4.1568     4.1568    -0.0000
  7 C      6.1214     6.0000    -0.1214     3.8140     3.8140     0.0000
  8 C      6.1147     6.0000    -0.1147     4.0011     4.0011    -0.0000
  9 S     15.8751    16.0000     0.1249     2.5198     2.5198    -0.0000
 10 C      6.1218     6.0000    -0.1218     3.7822     3.7822    -0.0000
 11 C      6.0095     6.0000    -0.0095     3.9017     3.9017    -0.0000
 12 H      0.9932     1.0000     0.0068     0.9858     0.9858    -0.0000
 13 C      6.2470     6.0000    -0.2470     3.9137     3.9137    -0.0000
 14 H      0.9239     1.0000     0.0761     0.9847     0.9847    -0.0000
 15 H      0.9380     1.0000     0.0620     0.9816     0.9816     0.0000
 16 H      0.9381     1.0000     0.0619     0.9815     0.9815     0.0000
 17 C      6.2470     6.0000    -0.2470     3.9136     3.9136    -0.0000
 18 H      0.9239     1.0000     0.0761     0.9847     0.9847     0.0000
 19 H      0.9382     1.0000     0.0618     0.9816     0.9816     0.0000
 20 H      0.9382     1.0000     0.0618     0.9816     0.9816     0.0000
 21 H      0.9534     1.0000     0.0466     0.9931     0.9931    -0.0000
 22 H      0.9533     1.0000     0.0467     0.9931     0.9931    -0.0000

  Mayer bond orders larger than 0.100000
B(  0-C ,  1-C ) :   1.5000 B(  0-C ,  4-C ) :   0.1042 B(  0-C ,  5-S ) :   1.1393 
B(  0-C , 21-H ) :   0.9618 B(  1-C ,  2-C ) :   1.2849 B(  1-C ,  3-H ) :   0.9790 
B(  2-C ,  4-C ) :   1.4594 B(  2-C ,  6-Si) :   0.8805 B(  4-C ,  5-S ) :   1.1326 
B(  4-C ,  8-C ) :   1.1874 B(  6-Si,  7-C ) :   0.8803 B(  6-Si, 13-C ) :   1.0457 
B(  6-Si, 17-C ) :   1.0455 B(  7-C ,  8-C ) :   1.4593 B(  7-C , 11-C ) :   1.2856 
B(  8-C ,  9-S ) :   1.1325 B(  8-C , 10-C ) :   0.1045 B(  9-S , 10-C ) :   1.1393 
B( 10-C , 11-C ) :   1.4990 B( 10-C , 22-H ) :   0.9618 B( 11-C , 12-H ) :   0.9789 
B( 13-C , 14-H ) :   0.9458 B( 13-C , 15-H ) :   0.9484 B( 13-C , 16-H ) :   0.9484 
B( 17-C , 18-H ) :   0.9460 B( 17-C , 19-H ) :   0.9483 B( 17-C , 20-H ) :   0.9484 


-------
TIMINGS
-------

Total SCF time: 0 days 0 hours 0 min 14 sec 

Total time                  ....      14.225 sec
Sum of individual times     ....      13.937 sec  ( 98.0%)

Fock matrix formation       ....       9.636 sec  ( 67.7%)
  Split-RI-J                ....       3.417 sec  ( 35.5% of F)
  XC integration            ....       6.061 sec  ( 62.9% of F)
    Basis function eval.    ....       2.336 sec  ( 38.5% of XC)
    Density eval.           ....       1.257 sec  ( 20.7% of XC)
    XC-Functional eval.     ....       0.465 sec  (  7.7% of XC)
    XC-Potential eval.      ....       1.465 sec  ( 24.2% of XC)
Diagonalization             ....       0.009 sec  (  0.1%)
Density matrix formation    ....       0.007 sec  (  0.1%)
Population analysis         ....       0.026 sec  (  0.2%)
Initial guess               ....       0.010 sec  (  0.1%)
Orbital Transformation      ....       0.000 sec  (  0.0%)
Orbital Orthonormalization  ....       0.006 sec  (  0.0%)
DIIS solution               ....       0.002 sec  (  0.0%)
SOSCF solution              ....       0.033 sec  (  0.2%)
Grid generation             ....       4.213 sec  ( 29.6%)


-------------------------------------------------------------------------------
                          DFT DISPERSION CORRECTION                            
                                                                               
                              DFTD3 V3.1  Rev 1                                
                          USING Becke-Johnson damping                          
-------------------------------------------------------------------------------
The BP86 functional is recognized
Active option DFTDOPT                   ...         4   

molecular C6(AA) [au] = 10015.053245 


            DFT-D V3
 parameters
 s6 scaling factor         :     1.0000 
 a1 scaling factor         :     0.3946 
 s8 scaling factor         :     3.2822 
 a2 scaling factor         :     4.8516 
 ad hoc parameters k1-k3   :    16.0000     1.3333    -4.0000 

 Edisp/kcal,au: -35.811831560835  -0.057069780172 
 E6   /kcal   : -11.888275145 
 E8   /kcal   : -23.923556415 
 % E8         :  66.803498656 

-------------------------   ----------------
Dispersion correction           -0.057069780
-------------------------   ----------------


-------------------------   --------------------
FINAL SINGLE POINT ENERGY     -1472.530839103989
-------------------------   --------------------

                                *** OPTIMIZATION RUN DONE ***

                            ***************************************
                            *     ORCA property calculations      *
                            ***************************************

                                    ---------------------
                                    Active property flags
                                    ---------------------
   (+) Dipole Moment


------------------------------------------------------------------------------
                       ORCA ELECTRIC PROPERTIES CALCULATION
------------------------------------------------------------------------------

Dipole Moment Calculation                       ... on
Quadrupole Moment Calculation                   ... off
Polarizability Calculation                      ... off
GBWName                                         ... Dimethyl_Dithienosilole_Optimize_Monomer.gbw
Electron density file                           ... Dimethyl_Dithienosilole_Optimize_Monomer.scfp
The origin for moment calculation is the CENTER OF MASS  = (-1.817919,  1.074027 -0.152422)

-------------
DIPOLE MOMENT
-------------
                                X             Y             Z
Electronic contribution:     -0.27226     -17.24071       0.41539
Nuclear contribution   :      0.28194      17.86396      -0.43014
                        -----------------------------------------
Total Dipole Moment    :      0.00968       0.62325      -0.01475
                        -----------------------------------------
Magnitude (a.u.)       :      0.62350
Magnitude (Debye)      :      1.58481



--------------------
Rotational spectrum 
--------------------
 
Rotational constants in cm-1:     0.021947     0.019864     0.011593 
Rotational constants in MHz :   657.962597   595.522501   347.547980 

 Dipole components along the rotational axes: 
x,y,z [a.u.] :    -0.000803     0.623499     0.000816 
x,y,z [Debye]:    -0.002041     1.584808     0.002073 

 

Timings for individual modules:

Sum of individual times         ...      198.508 sec (=   3.308 min)
GTO integral calculation        ...        1.910 sec (=   0.032 min)   1.0 %
SCF iterations                  ...      122.065 sec (=   2.034 min)  61.5 %
SCF Gradient evaluation         ...       73.462 sec (=   1.224 min)  37.0 %
Geometry relaxation             ...        1.070 sec (=   0.018 min)   0.5 %
                             ****ORCA TERMINATED NORMALLY****
TOTAL RUN TIME: 0 days 0 hours 3 minutes 20 seconds 134 msec
