
                                 *****************
                                 * O   R   C   A *
                                 *****************

           --- An Ab Initio, DFT and Semiempirical electronic structure package ---

                  #######################################################
                  #                        -***-                        #
                  #          Department of theory and spectroscopy      #
                  #               Directorship: Frank Neese             #
                  #        Max Planck Institute fuer Kohlenforschung    #
                  #                Kaiser Wilhelm Platz 1               #
                  #                 D-45470 Muelheim/Ruhr               #
                  #                      Germany                        #
                  #                                                     #
                  #                  All rights reserved                #
                  #                        -***-                        #
                  #######################################################


                         Program Version 4.2.0 -  RELEASE  -


 With contributions from (in alphabetic order):
   Daniel Aravena         : Magnetic Suceptibility
   Michael Atanasov       : Ab Initio Ligand Field Theory (pilot matlab implementation)
   Alexander A. Auer      : GIAO ZORA, VPT2
   Ute Becker             : Parallelization
   Giovanni Bistoni       : ED, misc. LED, open-shell LED, HFLED
   Martin Brehm           : Molecular dynamics
   Dmytro Bykov           : SCF Hessian
   Vijay G. Chilkuri      : MRCI spin determinant printing, contributions to CSF-ICE
   Dipayan Datta          : RHF DLPNO-CCSD density
   Achintya Kumar Dutta   : EOM-CC, STEOM-CC
   Dmitry Ganyushin       : Spin-Orbit,Spin-Spin,Magnetic field MRCI
   Miquel Garcia          : C-PCM Hessian, Gaussian charge scheme
   Yang Guo               : DLPNO-NEVPT2, CIM, IAO-localization
   Andreas Hansen         : Spin unrestricted coupled pair/coupled cluster methods
   Benjamin Helmich-Paris : CASSCF linear response (MC-RPA)
   Lee Huntington         : MR-EOM, pCC
   Robert Izsak           : Overlap fitted RIJCOSX, COSX-SCS-MP3, EOM
   Christian Kollmar      : KDIIS, OOCD, Brueckner-CCSD(T), CCSD density
   Simone Kossmann        : Meta GGA functionals, TD-DFT gradient, OOMP2, MP2 Hessian
   Martin Krupicka        : AUTO-CI
   Lucas Lang             : DCDCAS
   Dagmar Lenk            : GEPOL surface, SMD
   Dimitrios Liakos       : Extrapolation schemes; Compound Job, initial MDCI parallelization
   Dimitrios Manganas     : Further ROCIS development; embedding schemes
   Dimitrios Pantazis     : SARC Basis sets
   Taras Petrenko         : DFT Hessian,TD-DFT gradient, ASA, ECA, R-Raman, ABS, FL, XAS/XES, NRVS
   Peter Pinski           : DLPNO-MP2, DLPNO-MP2 Gradient
   Christoph Reimann      : Effective Core Potentials
   Marius Retegan         : Local ZFS, SOC
   Christoph Riplinger    : Optimizer, TS searches, QM/MM, DLPNO-CCSD(T), (RO)-DLPNO pert. Triples
   Tobias Risthaus        : Range-separated hybrids, TD-DFT gradient, RPA, STAB
   Michael Roemelt        : Original ROCIS implementation
   Masaaki Saitow         : Open-shell DLPNO-CCSD energy and density
   Barbara Sandhoefer     : DKH picture change effects
   Avijit Sen             : IP-ROCIS
   Kantharuban Sivalingam : CASSCF convergence, NEVPT2, FIC-MRCI
   Bernardo de Souza      : ESD, SOC TD-DFT
   Georgi Stoychev        : AutoAux, RI-MP2 NMR
   Willem Van den Heuvel  : Paramagnetic NMR
   Boris Wezisla          : Elementary symmetry handling
   Frank Wennmohs         : Technical directorship


 We gratefully acknowledge several colleagues who have allowed us to
 interface, adapt or use parts of their codes:
   Stefan Grimme, W. Hujo, H. Kruse,             : VdW corrections, initial TS optimization,
                  C. Bannwarth                     DFT functionals, gCP, sTDA/sTD-DF
   Ed Valeev, F. Pavosevic, A. Kumar             : LibInt (2-el integral package), F12 methods
   Garnet Chan, S. Sharma, J. Yang, R. Olivares  : DMRG
   Ulf Ekstrom                                   : XCFun DFT Library
   Mihaly Kallay                                 : mrcc  (arbitrary order and MRCC methods)
   Andreas Klamt, Michael Diedenhofen            : otool_cosmo (COSMO solvation model)
   Jiri Pittner, Ondrej Demel                    : Mk-CCSD
   Frank Weinhold                                : gennbo (NPA and NBO analysis)
   Christopher J. Cramer and Donald G. Truhlar   : smd solvation model
   Lars Goerigk                                  : TD-DFT with DH, B97 family of functionals
   V. Asgeirsson, H. Jonsson                     : NEB implementation
   FAccTs GmbH                                   : IRC, NEB, NEB-TS, Multilevel, MM, QM/MM, CI optimization
   S Lehtola, MJT Oliveira, MAL Marques          : LibXC Library


 Your calculation uses the libint2 library for the computation of 2-el integrals
 For citations please refer to: http://libint.valeyev.net

 Your ORCA version has been built with support for libXC version: 4.2.3
 For citations please refer to: https://tddft.org/programs/libxc/

 This ORCA versions uses:
   CBLAS   interface :  Fast vector & matrix operations
   LAPACKE interface :  Fast linear algebra routines
   SCALAPACK package :  Parallel linear algebra routines


Your calculation utilizes the atom-pairwise dispersion correction
with the Becke-Johnson damping scheme (D3BJ)
Cite in your paper:
S.Grimme, S.Ehrlich, L.Goerigk, J Comput Chem, (2011), 32, 1456–1465 
S.Grimme, J.Antony, S.Ehrlich and H.Krieg, J.Chem.Phys., 132, (2010), 154104 
   

----- Orbital basis set information -----
Your calculation utilizes the basis: def2-SVP
   F. Weigend and R. Ahlrichs, Phys. Chem. Chem. Phys. 7, 3297 (2005).

----- AuxJ basis set information -----
Your calculation utilizes the auxiliary basis: def2/J
   F. Weigend, Phys. Chem. Chem. Phys. 8, 1057 (2006).

================================================================================
                                        WARNINGS
                       Please study these warnings very carefully!
================================================================================


WARNING: Geometry Optimization
  ===> : Switching off AutoStart
         For restart on a previous wavefunction, please use MOREAD

INFO   : the flag for use of LIBINT has been found!

================================================================================
                                       INPUT FILE
================================================================================
NAME = DPP2F_T_Input_Dimethyl_Diketopyrrolopyrrole_1_Optimize_Monomer.inp
|  1> ! RI BP86 def2-SVP def2/J D3BJ TIGHTSCF  Opt Grid3 FinalGrid5
|  2> %maxcore 3000
|  3> %geom
|  4> optimizehydrogens true
|  5> end
|  6> 
|  7> 
|  8> *xyz 0 1
|  9> C	-2.874921	1.958933	-0.010121
| 10> C	-2.941555	0.553058	0.002131
| 11> C	-1.607385	0.038891	0.004624
| 12> C	-0.664039	1.150166	-0.006004
| 13> N	-1.532033	2.317711	-0.015048
| 14> O	0.561319	1.253076	-0.008375
| 15> C	-1.674552	-1.369626	0.017080
| 16> C	-3.885246	-0.563019	0.013138
| 17> N	-3.013098	-1.731935	0.022267
| 18> C	-0.961787	3.644848	-0.026690
| 19> H	0.136811	3.504183	-0.026462
| 20> H	-1.252168	4.225228	0.873686
| 21> H	-1.253631	4.210090	-0.936183
| 22> C	-3.570580	-3.063457	0.034344
| 23> H	-4.670837	-2.934489	0.035655
| 24> H	-3.271382	-3.626727	0.943133
| 25> H	-3.275407	-3.641489	-0.866482
| 26> O	-5.106224	-0.661197	0.015660
| 27> H	-3.690429	2.666976	-0.014890
| 28> H	-0.843777	-2.059691	0.021781
| 29> **                         ****END OF INPUT****
================================================================================

                       *****************************
                       * Geometry Optimization Run *
                       *****************************

Geometry optimization settings:
Update method            Update   .... BFGS
Choice of coordinates    CoordSys .... Z-matrix Internals
Initial Hessian          InHess   .... Almoef's Model

Convergence Tolerances:
Energy Change            TolE     ....  5.0000e-06 Eh
Max. Gradient            TolMAXG  ....  3.0000e-04 Eh/bohr
RMS Gradient             TolRMSG  ....  1.0000e-04 Eh/bohr
Max. Displacement        TolMAXD  ....  4.0000e-03 bohr
RMS Displacement         TolRMSD  ....  2.0000e-03 bohr
Strict Convergence                ....  False
------------------------------------------------------------------------------
                        ORCA OPTIMIZATION COORDINATE SETUP
------------------------------------------------------------------------------

The optimization will be done in new redundant internal coordinates
Making redundant internal coordinates   ...  (new redundants) done
Evaluating the initial hessian          ...  (Almloef) done
Evaluating the coordinates              ...  done
Calculating the B-matrix                .... done
Calculating the G-matrix                .... done
Diagonalizing the G-matrix              .... done
Imposing constraints:
 Iter   0:  RMS(Cart)=    0.0000000000 RMS(Int)=    0.0000000000
CONVERGED
The first mode is                       ....   51
The number of degrees of freedom        ....   54
Storing new coordinates                 .... done

    -----------------------------------------------------------------
                    Redundant Internal Coordinates


    -----------------------------------------------------------------
         Definition                    Initial Value    Approx d2E/dq
    -----------------------------------------------------------------
      1. B(C   1,C   0)                  1.4075         0.585879 C 
      2. B(C   2,C   1)                  1.4298         0.539771 C 
      3. B(C   3,C   2)                  1.4577         0.487187 C 
      4. B(N   4,C   0)                  1.3900         0.559601 C 
      5. B(N   4,C   3)                  1.4549         0.440934 C 
      6. B(O   5,C   3)                  1.2297         1.008475 C 
      7. B(C   6,C   2)                  1.4102         0.580169 C 
      8. B(C   7,C   1)                  1.4616         0.480276 C 
      9. B(N   8,C   6)                  1.3867         0.566375 C 
     10. B(N   8,C   7)                  1.4585         0.435171 C 
     11. B(C   9,N   4)                  1.4445         0.458045 C 
     12. B(H  10,C   9)                  1.1076         0.337595   
     13. B(H  11,C   9)                  1.1099         0.334736   
     14. B(H  12,C   9)                  1.1099         0.334730   
     15. B(C  13,N   8)                  1.4436         0.459636 C 
     16. B(H  14,C  13)                  1.1078         0.337318   
     17. B(H  15,C  13)                  1.1103         0.334265   
     18. B(H  16,C  13)                  1.1103         0.334239   
     19. B(O  17,C   7)                  1.2249         1.026237 C 
     20. B(H  18,C   0)                  1.0800         0.373574   
     21. B(H  19,C   6)                  1.0800         0.373575   
     22. A(C   1,C   0,H  18)          128.2523         0.351725   
     23. A(C   1,C   0,N   4)          107.6729         0.419122 C 
     24. A(N   4,C   0,H  18)          124.0747         0.346871   
     25. A(C   0,C   1,C   2)          108.3624         0.419154 C 
     26. A(C   0,C   1,C   7)          142.4989         0.410541 C 
     27. A(C   2,C   1,C   7)          109.1387         0.404631 C 
     28. A(C   1,C   2,C   6)          108.3458         0.418423 C 
     29. A(C   3,C   2,C   6)          142.4039         0.410869 C 
     30. A(C   1,C   2,C   3)          109.2503         0.405653 C 
     31. A(C   2,C   3,O   5)          135.1276         0.450773 C 
     32. A(C   2,C   3,N   4)          103.0462         0.388996 C 
     33. A(N   4,C   3,O   5)          121.8262         0.439786 C 
     34. A(C   0,N   4,C   9)          128.2109         0.398664 C 
     35. A(C   3,N   4,C   9)          120.1209         0.382403 C 
     36. A(C   0,N   4,C   3)          111.6682         0.396007 C 
     37. A(C   2,C   6,H  19)          126.9845         0.351143   
     38. A(N   8,C   6,H  19)          125.1387         0.347574   
     39. A(C   2,C   6,N   8)          107.8768         0.419289 C 
     40. A(N   8,C   7,O  17)          122.1284         0.440128 C 
     41. A(C   1,C   7,N   8)          103.0589         0.387138 C 
     42. A(C   1,C   7,O  17)          134.8127         0.451033 C 
     43. A(C   6,N   8,C  13)          127.8640         0.399752 C 
     44. A(C   7,N   8,C  13)          120.5563         0.381760 C 
     45. A(C   6,N   8,C   7)          111.5797         0.395929 C 
     46. A(N   4,C   9,H  10)          105.9552         0.329859   
     47. A(N   4,C   9,H  11)          111.7532         0.329396   
     48. A(H  10,C   9,H  11)          109.0116         0.284651   
     49. A(N   4,C   9,H  12)          111.7587         0.329395   
     50. A(H  10,C   9,H  12)          109.0061         0.284651   
     51. A(H  11,C   9,H  12)          109.2479         0.284274   
     52. A(H  15,C  13,H  16)          109.1685         0.284147   
     53. A(N   8,C  13,H  14)          106.0326         0.330003   
     54. A(N   8,C  13,H  15)          111.7606         0.329508   
     55. A(H  14,C  13,H  15)          109.0107         0.284553   
     56. A(N   8,C  13,H  16)          111.7620         0.329504   
     57. A(H  14,C  13,H  16)          109.0028         0.284549   
     58. D(C   2,C   1,C   0,N   4)     -0.0060         0.023605 C 
     59. D(C   2,C   1,C   0,H  18)   -179.9893         0.023605   
     60. D(C   7,C   1,C   0,N   4)    179.9954         0.023605 C 
     61. D(C   7,C   1,C   0,H  18)      0.0122         0.023605   
     62. D(C   6,C   2,C   1,C   0)    179.9923         0.019907 C 
     63. D(C   3,C   2,C   1,C   0)      0.0150         0.019907 C 
     64. D(C   3,C   2,C   1,C   7)   -179.9860         0.019907 C 
     65. D(C   6,C   2,C   1,C   7)     -0.0087         0.019907 C 
     66. D(O   5,C   3,C   2,C   6)      0.0240         0.016161 C 
     67. D(N   4,C   3,C   2,C   1)     -0.0171         0.016161 C 
     68. D(O   5,C   3,C   2,C   1)    179.9887         0.016161 C 
     69. D(N   4,C   3,C   2,C   6)   -179.9818         0.016161 C 
     70. D(C   3,N   4,C   0,C   1)     -0.0052         0.025007 C 
     71. D(C   3,N   4,C   0,H  18)    179.9789         0.025007   
     72. D(C   9,N   4,C   0,C   1)   -179.9691         0.025007 C 
     73. D(C   9,N   4,C   0,H  18)      0.0150         0.025007   
     74. D(C   0,N   4,C   3,O   5)   -179.9910         0.015311 C 
     75. D(C   9,N   4,C   3,C   2)    179.9810         0.015311 C 
     76. D(C   0,N   4,C   3,C   2)      0.0138         0.015311 C 
     77. D(C   9,N   4,C   3,O   5)     -0.0239         0.015311 C 
     78. D(N   8,C   6,C   2,C   1)      0.0006         0.023126 C 
     79. D(N   8,C   6,C   2,C   3)    179.9655         0.023126 C 
     80. D(H  19,C   6,C   2,C   1)    179.9936         0.023126   
     81. D(H  19,C   6,C   2,C   3)     -0.0415         0.023126   
     82. D(N   8,C   7,C   1,C   0)   -179.9889         0.015705 C 
     83. D(N   8,C   7,C   1,C   2)      0.0126         0.015705 C 
     84. D(O  17,C   7,C   1,C   0)      0.0054         0.015705 C 
     85. D(O  17,C   7,C   1,C   2)   -179.9931         0.015705 C 
     86. D(C   7,N   8,C   6,C   2)      0.0078         0.025652 C 
     87. D(C   7,N   8,C   6,H  19)   -179.9854         0.025652   
     88. D(C  13,N   8,C   6,C   2)    179.9779         0.025652 C 
     89. D(C  13,N   8,C   6,H  19)     -0.0153         0.025652   
     90. D(C   6,N   8,C   7,C   1)     -0.0126         0.014914 C 
     91. D(C   6,N   8,C   7,O  17)    179.9922         0.014914 C 
     92. D(C  13,N   8,C   7,C   1)   -179.9852         0.014914 C 
     93. D(C  13,N   8,C   7,O  17)      0.0196         0.014914 C 
     94. D(H  10,C   9,N   4,C   0)    179.9608         0.017907   
     95. D(H  10,C   9,N   4,C   3)     -0.0004         0.017907   
     96. D(H  11,C   9,N   4,C   0)     61.3492         0.017907   
     97. D(H  11,C   9,N   4,C   3)   -118.6120         0.017907   
     98. D(H  12,C   9,N   4,C   0)    -61.4313         0.017907   
     99. D(H  12,C   9,N   4,C   3)    118.6075         0.017907   
    100. D(H  14,C  13,N   8,C   6)    179.9660         0.018034   
    101. D(H  14,C  13,N   8,C   7)     -0.0663         0.018034   
    102. D(H  15,C  13,N   8,C   6)     61.3041         0.018034   
    103. D(H  15,C  13,N   8,C   7)   -118.7282         0.018034   
    104. D(H  16,C  13,N   8,C   6)    -61.3809         0.018034   
    105. D(H  16,C  13,N   8,C   7)    118.5868         0.018034   
    -----------------------------------------------------------------

Number of atoms                         .... 20
Number of degrees of freedom            .... 105

         *************************************************************
         *                GEOMETRY OPTIMIZATION CYCLE   1            *
         *************************************************************
---------------------------------
CARTESIAN COORDINATES (ANGSTROEM)
---------------------------------
  C     -2.874921    1.958933   -0.010121
  C     -2.941555    0.553058    0.002131
  C     -1.607385    0.038891    0.004624
  C     -0.664039    1.150166   -0.006004
  N     -1.532033    2.317711   -0.015048
  O      0.561319    1.253076   -0.008375
  C     -1.674552   -1.369626    0.017080
  C     -3.885246   -0.563019    0.013138
  N     -3.013098   -1.731935    0.022267
  C     -0.961787    3.644848   -0.026690
  H      0.136811    3.504183   -0.026462
  H     -1.252168    4.225228    0.873686
  H     -1.253631    4.210090   -0.936183
  C     -3.570580   -3.063457    0.034344
  H     -4.670837   -2.934489    0.035655
  H     -3.271382   -3.626727    0.943133
  H     -3.275407   -3.641489   -0.866482
  O     -5.106224   -0.661197    0.015660
  H     -3.690429    2.666976   -0.014890
  H     -0.843777   -2.059691    0.021781

----------------------------
CARTESIAN COORDINATES (A.U.)
----------------------------
  NO LB      ZA    FRAG     MASS         X           Y           Z
   0 C     6.0000    0    12.011   -5.432813    3.701847   -0.019126
   1 C     6.0000    0    12.011   -5.558733    1.045128    0.004027
   2 C     6.0000    0    12.011   -3.037517    0.073493    0.008738
   3 C     6.0000    0    12.011   -1.254852    2.173499   -0.011346
   4 N     7.0000    0    14.007   -2.895123    4.379839   -0.028437
   5 O     8.0000    0    15.999    1.060739    2.367970   -0.015826
   6 C     6.0000    0    12.011   -3.164445   -2.588218    0.032277
   7 C     6.0000    0    12.011   -7.342051   -1.063952    0.024827
   8 N     7.0000    0    14.007   -5.693930   -3.272883    0.042079
   9 C     6.0000    0    12.011   -1.817514    6.887765   -0.050437
  10 H     1.0000    0     1.008    0.258535    6.621946   -0.050006
  11 H     1.0000    0     1.008   -2.366255    7.984524    1.651027
  12 H     1.0000    0     1.008   -2.369019    7.955917   -1.769129
  13 C     6.0000    0    12.011   -6.747418   -5.789095    0.064901
  14 H     1.0000    0     1.008   -8.826603   -5.545381    0.067378
  15 H     1.0000    0     1.008   -6.182016   -6.853521    1.782263
  16 H     1.0000    0     1.008   -6.189622   -6.881417   -1.637414
  17 O     8.0000    0    15.999   -9.649365   -1.249481    0.029593
  18 H     1.0000    0     1.008   -6.973900    5.039854   -0.028138
  19 H     1.0000    0     1.008   -1.594507   -3.892252    0.041160

--------------------------------
INTERNAL COORDINATES (ANGSTROEM)
--------------------------------
 C      0   0   0     0.000000000000     0.00000000     0.00000000
 C      1   0   0     1.407506560228     0.00000000     0.00000000
 C      2   1   0     1.429819396930   108.36239570     0.00000000
 C      3   2   1     1.457719710961   109.25029793     0.00000000
 N      1   2   3     1.389997880990   107.67293875     0.00000000
 O      4   3   2     1.229674069786   135.12761374   179.98868258
 C      3   2   1     1.410172577068   108.34583826   179.99227901
 C      2   1   3     1.461609293710   142.49887698   180.00147514
 N      7   3   2     1.386722795142   107.87683439     0.00000000
 C      5   1   2     1.444509831552   128.21091179   180.03092760
 H     10   5   1     1.107566819570   105.95518536   179.96076192
 H     10   5   1     1.109882431133   111.75315267    61.34922287
 H     10   5   1     1.109886911333   111.75867916   298.56869812
 C      9   7   3     1.443566025763   127.86403832   179.97790568
 H     14   9   7     1.107790562243   106.03261267   179.96598385
 H     14   9   7     1.110265726133   111.76063932    61.30411147
 H     14   9   7     1.110286258237   111.76195126   298.61907352
 O      8   2   1     1.224921449176   134.81269407     0.00000000
 H      1   2   3     1.080000431145   128.25232054   180.01074724
 H      7   3   2     1.079999492709   126.98448102   179.99363523

---------------------------
INTERNAL COORDINATES (A.U.)
---------------------------
 C      0   0   0     0.000000000000     0.00000000     0.00000000
 C      1   0   0     2.659801930529     0.00000000     0.00000000
 C      2   1   0     2.701967081167   108.36239570     0.00000000
 C      3   2   1     2.754691033736   109.25029793     0.00000000
 N      1   2   3     2.626715321802   107.67293875     0.00000000
 O      4   3   2     2.323747225881   135.12761374   179.98868258
 C      3   2   1     2.664839972224   108.34583826   179.99227901
 C      2   1   3     2.762041279906   142.49887698   180.00147514
 N      7   3   2     2.620526306484   107.87683439     0.00000000
 C      5   1   2     2.729727979389   128.21091179   180.03092760
 H     10   5   1     2.092997964006   105.95518536   179.96076192
 H     10   5   1     2.097373835691   111.75315267    61.34922287
 H     10   5   1     2.097382302044   111.75867916   298.56869812
 C      9   7   3     2.727944444925   127.86403832   179.97790568
 H     14   9   7     2.093420776381   106.03261267   179.96598385
 H     14   9   7     2.098098158270   111.76063932    61.30411147
 H     14   9   7     2.098136958323   111.76195126   298.61907352
 O      8   2   1     2.314766074509   134.81269407     0.00000000
 H      1   2   3     2.040905039381   128.25232054   180.01074724
 H      7   3   2     2.040903265993   126.98448102   179.99363523

---------------------
BASIS SET INFORMATION
---------------------
There are 4 groups of distinct atoms

 Group   1 Type C   : 7s4p1d contracted to 3s2p1d pattern {511/31/1}
 Group   2 Type N   : 7s4p1d contracted to 3s2p1d pattern {511/31/1}
 Group   3 Type O   : 7s4p1d contracted to 3s2p1d pattern {511/31/1}
 Group   4 Type H   : 4s1p contracted to 2s1p pattern {31/1}

Atom   0C    basis set group =>   1
Atom   1C    basis set group =>   1
Atom   2C    basis set group =>   1
Atom   3C    basis set group =>   1
Atom   4N    basis set group =>   2
Atom   5O    basis set group =>   3
Atom   6C    basis set group =>   1
Atom   7C    basis set group =>   1
Atom   8N    basis set group =>   2
Atom   9C    basis set group =>   1
Atom  10H    basis set group =>   4
Atom  11H    basis set group =>   4
Atom  12H    basis set group =>   4
Atom  13C    basis set group =>   1
Atom  14H    basis set group =>   4
Atom  15H    basis set group =>   4
Atom  16H    basis set group =>   4
Atom  17O    basis set group =>   3
Atom  18H    basis set group =>   4
Atom  19H    basis set group =>   4
---------------------------------
AUXILIARY/J BASIS SET INFORMATION
---------------------------------
There are 4 groups of distinct atoms

 Group   1 Type C   : 12s5p4d2f1g contracted to 6s4p3d1f1g pattern {711111/2111/211/2/1}
 Group   2 Type N   : 12s5p4d2f1g contracted to 6s4p3d1f1g pattern {711111/2111/211/2/1}
 Group   3 Type O   : 12s5p4d2f1g contracted to 6s4p3d1f1g pattern {711111/2111/211/2/1}
 Group   4 Type H   : 5s2p1d contracted to 3s1p1d pattern {311/2/1}

Atom   0C    basis set group =>   1
Atom   1C    basis set group =>   1
Atom   2C    basis set group =>   1
Atom   3C    basis set group =>   1
Atom   4N    basis set group =>   2
Atom   5O    basis set group =>   3
Atom   6C    basis set group =>   1
Atom   7C    basis set group =>   1
Atom   8N    basis set group =>   2
Atom   9C    basis set group =>   1
Atom  10H    basis set group =>   4
Atom  11H    basis set group =>   4
Atom  12H    basis set group =>   4
Atom  13C    basis set group =>   1
Atom  14H    basis set group =>   4
Atom  15H    basis set group =>   4
Atom  16H    basis set group =>   4
Atom  17O    basis set group =>   3
Atom  18H    basis set group =>   4
Atom  19H    basis set group =>   4
------------------------------------------------------------------------------
                           ORCA GTO INTEGRAL CALCULATION
                           -- RI-GTO INTEGRALS CHOSEN --
------------------------------------------------------------------------------

                         BASIS SET STATISTICS AND STARTUP INFO

Gaussian basis set:
 # of primitive gaussian shells          ...  184
 # of primitive gaussian functions       ...  344
 # of contracted shells                  ...   96
 # of contracted basis functions         ...  208
 Highest angular momentum                ...    2
 Maximum contraction depth               ...    5
Auxiliary gaussian basis set:
 # of primitive gaussian shells          ...  352
 # of primitive gaussian functions       ...  968
 # of contracted shells                  ...  220
 # of contracted aux-basis functions     ...  676
 Highest angular momentum                ...    4
 Maximum contraction depth               ...    7
Ratio of auxiliary to basis functions    ...  3.25
Integral package used                  ... LIBINT
 One Electron integrals                  ... done
 Ordering auxiliary basis shells         ... done
 Integral threshhold             Thresh  ...  2.500e-11
 Primitive cut-off               TCut    ...  2.500e-12
 Pre-screening matrix                    ... done
 Shell pair data                         ... 
 Ordering of the shell pairs             ... done (   0.001 sec) 4058 of 4656 pairs
 Determination of significant pairs      ... done (   0.000 sec)
 Creation of shell pair data             ... done (   0.001 sec)
 Storage of shell pair data              ... done (   0.005 sec)
 Shell pair data done in (   0.006 sec)
 Computing two index integrals           ... done
 Cholesky decomposition of the V-matrix  ... done


Timings:
 Total evaluation time                   ...   0.333 sec (  0.006 min)
 One electron matrix time                ...   0.025 sec (  0.000 min) =  7.5%
 Schwartz matrix evaluation time         ...   0.076 sec (  0.001 min) = 22.9%
 Two index repulsion integral time       ...   0.015 sec (  0.000 min) =  4.5%
 Cholesky decomposition of V             ...   0.193 sec (  0.003 min) = 57.9%
 Three index repulsion integral time     ...   0.000 sec (  0.000 min) =  0.0%

-------------------------------------------------------------------------------
                                 ORCA SCF
-------------------------------------------------------------------------------

------------
SCF SETTINGS
------------
Hamiltonian:
 Density Functional     Method          .... DFT(GTOs)
 Exchange Functional    Exchange        .... B88
   X-Alpha parameter    XAlpha          ....  0.666667
   Becke's b parameter  XBeta           ....  0.004200
 Correlation Functional Correlation     .... P86
 LDA part of GGA corr.  LDAOpt          .... PW91-LDA
 Gradients option       PostSCFGGA      .... off
   Density functional embedding theory  .... OFF
 RI-approximation to the Coulomb term is turned on
   Number of auxiliary basis functions  .... 676


General Settings:
 Integral files         IntName         .... DPP2F_T_Input_Dimethyl_Diketopyrrolopyrrole_1_Optimize_Monomer
 Hartree-Fock type      HFTyp           .... RHF
 Total Charge           Charge          ....    0
 Multiplicity           Mult            ....    1
 Number of Electrons    NEL             ....   86
 Basis Dimension        Dim             ....  208
 Nuclear Repulsion      ENuc            ....    671.8117521062 Eh

Convergence Acceleration:
 DIIS                   CNVDIIS         .... on
   Start iteration      DIISMaxIt       ....    12
   Startup error        DIISStart       ....  0.200000
   # of expansion vecs  DIISMaxEq       ....     5
   Bias factor          DIISBfac        ....   1.050
   Max. coefficient     DIISMaxC        ....  10.000
 Newton-Raphson         CNVNR           .... off
 SOSCF                  CNVSOSCF        .... on
   Start iteration      SOSCFMaxIt      ....   150
   Startup grad/error   SOSCFStart      ....  0.003300
 Level Shifting         CNVShift        .... on
   Level shift para.    LevelShift      ....    0.2500
   Turn off err/grad.   ShiftErr        ....    0.0010
 Zerner damping         CNVZerner       .... off
 Static damping         CNVDamp         .... on
   Fraction old density DampFac         ....    0.7000
   Max. Damping (<1)    DampMax         ....    0.9800
   Min. Damping (>=0)   DampMin         ....    0.0000
   Turn off err/grad.   DampErr         ....    0.1000
 Fernandez-Rico         CNVRico         .... off

SCF Procedure:
 Maximum # iterations   MaxIter         ....   125
 SCF integral mode      SCFMode         .... Direct
   Integral package                     .... LIBINT
 Reset frequency        DirectResetFreq ....    20
 Integral Threshold     Thresh          ....  2.500e-11 Eh
 Primitive CutOff       TCut            ....  2.500e-12 Eh

Convergence Tolerance:
 Convergence Check Mode ConvCheckMode   .... Total+1el-Energy
 Convergence forced     ConvForced      .... 0
 Energy Change          TolE            ....  1.000e-08 Eh
 1-El. energy change                    ....  1.000e-05 Eh
 Orbital Gradient       TolG            ....  1.000e-05
 Orbital Rotation angle TolX            ....  1.000e-05
 DIIS Error             TolErr          ....  5.000e-07


Diagonalization of the overlap matrix:
Smallest eigenvalue                        ... 6.444e-04
Time for diagonalization                   ...    0.244 sec
Threshold for overlap eigenvalues          ... 1.000e-08
Number of eigenvalues below threshold      ... 0
Time for construction of square roots      ...    0.480 sec
Total time needed                          ...    0.724 sec

-------------------
DFT GRID GENERATION
-------------------

General Integration Accuracy     IntAcc      ...  4.340
Radial Grid Type                 RadialGrid  ... Gauss-Chebyshev
Angular Grid (max. acc.)         AngularGrid ... Lebedev-194
Angular grid pruning method      GridPruning ... 3 (G Style)
Weight generation scheme         WeightScheme... Becke
Basis function cutoff            BFCut       ...    1.0000e-11
Integration weight cutoff        WCut        ...    1.0000e-14
Grids for H and He will be reduced by one unit

# of grid points (after initial pruning)     ...  51816 (   0.0 sec)
# of grid points (after weights+screening)   ...  47420 (   0.1 sec)
nearest neighbour list constructed           ...    0.0 sec
Grid point re-assignment to atoms done       ...    0.0 sec
Grid point division into batches done        ...    0.1 sec
Reduced shell lists constructed in    0.3 sec

Total number of grid points                  ...    47420
Total number of batches                      ...      750
Average number of points per batch           ...       63
Average number of grid points per atom       ...     2371
Average number of shells per batch           ...    57.27 (59.66%)
Average number of basis functions per batch  ...   121.70 (58.51%)
Average number of large shells per batch     ...    41.93 (73.21%)
Average number of large basis fcns per batch ...    88.69 (72.88%)
Maximum spatial batch extension              ...  17.90, 19.95, 19.80 au
Average spatial batch extension              ...   2.97,  2.97,  3.08 au

Time for grid setup =    0.479 sec

------------------------------
INITIAL GUESS: MODEL POTENTIAL
------------------------------
Loading Hartree-Fock densities                     ... done
Calculating cut-offs                               ... done
Setting up the integral package                    ... done
Initializing the effective Hamiltonian             ... done
Starting the Coulomb interaction                   ... done (   0.1 sec)
Reading the grid                                   ... done
Mapping shells                                     ... done
Starting the XC term evaluation                    ... done (   0.4 sec)
  promolecular density results
     # of electrons  =     85.996221176
     EX              =    -73.040010604
     EC              =     -3.171372188
     EX+EC           =    -76.211382792
Transforming the Hamiltonian                       ... done (   0.0 sec)
Diagonalizing the Hamiltonian                      ... done (   0.0 sec)
Back transforming the eigenvectors                 ... done (   0.0 sec)
Now organizing SCF variables                       ... done
                      ------------------
                      INITIAL GUESS DONE (   1.1 sec)
                      ------------------
--------------
SCF ITERATIONS
--------------
ITER       Energy         Delta-E        Max-DP      RMS-DP      [F,P]     Damp
               ***  Starting incremental Fock matrix formation  ***
  0   -568.9563594329   0.000000000000 0.11341091  0.00307108  0.2497514 0.7000
  1   -569.0940646281  -0.137705195218 0.05933635  0.00171734  0.0677045 0.7000
                               ***Turning on DIIS***
  2   -569.1304045509  -0.036339922757 0.06720581  0.00212317  0.0292950 0.0000
  3   -569.2083733484  -0.077968797518 0.04184190  0.00123943  0.0375004 0.0000
  4   -569.2198673305  -0.011493982118 0.01540041  0.00048433  0.0325751 0.0000
  5   -569.2233218178  -0.003454487256 0.00482194  0.00013283  0.0036331 0.0000
                      *** Initiating the SOSCF procedure ***
                           *** Shutting down DIIS ***
                      *** Re-Reading the Fockian *** 
                      *** Removing any level shift *** 
ITER      Energy       Delta-E        Grad      Rot      Max-DP    RMS-DP
  6   -569.22344212  -0.0001203014  0.000563  0.000563  0.001214  0.000054
               *** Restarting incremental Fock matrix formation ***
  7   -569.22346882  -0.0000267013  0.000208  0.000930  0.001379  0.000039
  8   -569.22346307   0.0000057540  0.000749  0.001204  0.001222  0.000023
  9   -569.22347046  -0.0000073970  0.000079  0.001075  0.000517  0.000012
 10   -569.22346958   0.0000008828  0.000357  0.000980  0.000458  0.000009
 11   -569.22347050  -0.0000009169  0.000060  0.000309  0.000354  0.000008
 12   -569.22347019   0.0000003059  0.000108  0.000171  0.000251  0.000005
 13   -569.22347061  -0.0000004178  0.000009  0.000060  0.000050  0.000002
 14   -569.22347060   0.0000000135  0.000014  0.000019  0.000031  0.000001
 15   -569.22347061  -0.0000000144  0.000005  0.000042  0.000027  0.000001
 16   -569.22347061  -0.0000000013  0.000009  0.000023  0.000018  0.000001
                  ***Gradient check signals convergence***
              ***Rediagonalizing the Fockian in SOSCF/NRSCF***

               *****************************************************
               *                     SUCCESS                       *
               *           SCF CONVERGED AFTER  17 CYCLES          *
               *****************************************************

Setting up the final grid:

General Integration Accuracy     IntAcc      ...  5.010
Radial Grid Type                 RadialGrid  ... Gauss-Chebyshev
Angular Grid (max. acc.)         AngularGrid ... Lebedev-434
Angular grid pruning method      GridPruning ... 3 (G Style)
Weight generation scheme         WeightScheme... Becke
Basis function cutoff            BFCut       ...    1.0000e-11
Integration weight cutoff        WCut        ...    1.0000e-14
Grids for H and He will be reduced by one unit

# of grid points (after initial pruning)     ... 181984 (   0.1 sec)
# of grid points (after weights+screening)   ... 164748 (   0.4 sec)
nearest neighbour list constructed           ...    0.0 sec
Grid point re-assignment to atoms done       ...    0.0 sec
Grid point division into batches done        ...    1.0 sec
Reduced shell lists constructed in    1.8 sec

Total number of grid points                  ...   164748
Total number of batches                      ...     2584
Average number of points per batch           ...       63
Average number of grid points per atom       ...     8237
Average number of shells per batch           ...    52.56 (54.75%)
Average number of basis functions per batch  ...   110.74 (53.24%)
Average number of large shells per batch     ...    37.88 (72.06%)
Average number of large basis fcns per batch ...    79.55 (71.83%)
Maximum spatial batch extension              ...  20.97, 17.04, 22.55 au
Average spatial batch extension              ...   1.95,  1.94,  2.07 au

Final grid set up in    2.3 sec
Final integration                            ... done (   1.7 sec)
Change in XC energy                          ...    -0.000218881
Integrated number of electrons               ...    86.000037740
Previous integrated no of electrons          ...    86.000281643

----------------
TOTAL SCF ENERGY
----------------

Total Energy       :         -569.22368949 Eh          -15489.36406 eV

Components:
Nuclear Repulsion  :          671.81175211 Eh           18280.92716 eV
Electronic Energy  :        -1241.03544160 Eh          -33770.29121 eV
One Electron Energy:        -2105.49646508 Eh          -57293.47156 eV
Two Electron Energy:          864.46102349 Eh           23523.18034 eV

Virial components:
Potential Energy   :        -1132.32521888 Eh          -30812.13566 eV
Kinetic Energy     :          563.10152939 Eh           15322.77161 eV
Virial Ratio       :            2.01087221


DFT components:
N(Alpha)           :       43.000018870068 electrons
N(Beta)            :       43.000018870068 electrons
N(Total)           :       86.000037740137 electrons
E(X)               :      -74.085440581203 Eh       
E(C)               :       -3.181369542996 Eh       
E(XC)              :      -77.266810124199 Eh       
DFET-embed. en.    :        0.000000000000 Eh       

---------------
SCF CONVERGENCE
---------------

  Last Energy change         ...    1.8618e-09  Tolerance :   1.0000e-08
  Last MAX-Density change    ...    1.1147e-05  Tolerance :   1.0000e-07
  Last RMS-Density change    ...    3.2110e-07  Tolerance :   5.0000e-09
  Last Orbital Gradient      ...    1.5915e-06  Tolerance :   1.0000e-05
  Last Orbital Rotation      ...    1.2651e-05  Tolerance :   1.0000e-05

             **** THE GBW FILE WAS UPDATED (DPP2F_T_Input_Dimethyl_Diketopyrrolopyrrole_1_Optimize_Monomer.gbw) ****
             **** DENSITY FILE WAS UPDATED (DPP2F_T_Input_Dimethyl_Diketopyrrolopyrrole_1_Optimize_Monomer.scfp) ****
             **** ENERGY FILE WAS UPDATED (DPP2F_T_Input_Dimethyl_Diketopyrrolopyrrole_1_Optimize_Monomer.en.tmp) ****
             **** THE GBW FILE WAS UPDATED (DPP2F_T_Input_Dimethyl_Diketopyrrolopyrrole_1_Optimize_Monomer.gbw) ****
             **** DENSITY FILE WAS UPDATED (DPP2F_T_Input_Dimethyl_Diketopyrrolopyrrole_1_Optimize_Monomer.scfp) ****
----------------
ORBITAL ENERGIES
----------------

  NO   OCC          E(Eh)            E(eV) 
   0   2.0000     -18.762407      -510.5511 
   1   2.0000     -18.760836      -510.5083 
   2   2.0000     -14.073757      -382.9664 
   3   2.0000     -14.072756      -382.9392 
   4   2.0000     -10.016306      -272.5575 
   5   2.0000     -10.014964      -272.5210 
   6   2.0000      -9.983643      -271.6687 
   7   2.0000      -9.983401      -271.6621 
   8   2.0000      -9.960970      -271.0518 
   9   2.0000      -9.959841      -271.0210 
  10   2.0000      -9.920484      -269.9501 
  11   2.0000      -9.920131      -269.9405 
  12   2.0000      -0.950834       -25.8735 
  13   2.0000      -0.945521       -25.7289 
  14   2.0000      -0.886250       -24.1161 
  15   2.0000      -0.877084       -23.8667 
  16   2.0000      -0.757553       -20.6141 
  17   2.0000      -0.693840       -18.8804 
  18   2.0000      -0.656628       -17.8678 
  19   2.0000      -0.627176       -17.0663 
  20   2.0000      -0.611970       -16.6526 
  21   2.0000      -0.534672       -14.5492 
  22   2.0000      -0.532222       -14.4825 
  23   2.0000      -0.483475       -13.1560 
  24   2.0000      -0.458416       -12.4741 
  25   2.0000      -0.449606       -12.2344 
  26   2.0000      -0.442312       -12.0359 
  27   2.0000      -0.435994       -11.8640 
  28   2.0000      -0.423454       -11.5228 
  29   2.0000      -0.392927       -10.6921 
  30   2.0000      -0.382129       -10.3983 
  31   2.0000      -0.375980       -10.2309 
  32   2.0000      -0.374157       -10.1813 
  33   2.0000      -0.356264        -9.6944 
  34   2.0000      -0.355145        -9.6640 
  35   2.0000      -0.352561        -9.5937 
  36   2.0000      -0.342108        -9.3092 
  37   2.0000      -0.300183        -8.1684 
  38   2.0000      -0.298647        -8.1266 
  39   2.0000      -0.233546        -6.3551 
  40   2.0000      -0.224514        -6.1093 
  41   2.0000      -0.222669        -6.0591 
  42   2.0000      -0.184322        -5.0157 
  43   0.0000      -0.116533        -3.1710 
  44   0.0000      -0.043953        -1.1960 
  45   0.0000       0.036543         0.9944 
  46   0.0000       0.046415         1.2630 
  47   0.0000       0.048311         1.3146 
  48   0.0000       0.067347         1.8326 
  49   0.0000       0.078210         2.1282 
  50   0.0000       0.079707         2.1689 
  51   0.0000       0.088366         2.4046 
  52   0.0000       0.102690         2.7943 
  53   0.0000       0.109618         2.9829 
  54   0.0000       0.109662         2.9841 
  55   0.0000       0.110213         2.9991 
  56   0.0000       0.110696         3.0122 
  57   0.0000       0.140433         3.8214 
  58   0.0000       0.163165         4.4399 
  59   0.0000       0.180190         4.9032 
  60   0.0000       0.183505         4.9934 
  61   0.0000       0.220807         6.0085 
  62   0.0000       0.237859         6.4725 
  63   0.0000       0.249187         6.7807 
  64   0.0000       0.271874         7.3981 
  65   0.0000       0.285514         7.7692 
  66   0.0000       0.288718         7.8564 
  67   0.0000       0.350774         9.5450 
  68   0.0000       0.360259         9.8031 
  69   0.0000       0.363326         9.8866 
  70   0.0000       0.371280        10.1031 
  71   0.0000       0.377156        10.2629 
  72   0.0000       0.382900        10.4192 
  73   0.0000       0.407078        11.0771 
  74   0.0000       0.412919        11.2361 
  75   0.0000       0.426657        11.6099 
  76   0.0000       0.444423        12.0934 
  77   0.0000       0.455233        12.3875 
  78   0.0000       0.507970        13.8226 
  79   0.0000       0.508363        13.8333 
  80   0.0000       0.510245        13.8845 
  81   0.0000       0.521874        14.2009 
  82   0.0000       0.540939        14.7197 
  83   0.0000       0.561882        15.2896 
  84   0.0000       0.564159        15.3515 
  85   0.0000       0.580931        15.8079 
  86   0.0000       0.582726        15.8568 
  87   0.0000       0.584504        15.9052 
  88   0.0000       0.585565        15.9340 
  89   0.0000       0.588774        16.0214 
  90   0.0000       0.599235        16.3060 
  91   0.0000       0.606960        16.5162 
  92   0.0000       0.610975        16.6255 
  93   0.0000       0.634345        17.2614 
  94   0.0000       0.646397        17.5894 
  95   0.0000       0.654221        17.8023 
  96   0.0000       0.661724        18.0064 
  97   0.0000       0.689947        18.7744 
  98   0.0000       0.715744        19.4764 
  99   0.0000       0.722651        19.6643 
 100   0.0000       0.726874        19.7792 
 101   0.0000       0.770874        20.9765 
 102   0.0000       0.791856        21.5475 
 103   0.0000       0.806002        21.9324 
 104   0.0000       0.816478        22.2175 
 105   0.0000       0.827532        22.5183 
 106   0.0000       0.844457        22.9789 
 107   0.0000       0.872713        23.7477 
 108   0.0000       0.915105        24.9013 
 109   0.0000       0.975664        26.5492 
 110   0.0000       1.021060        27.7845 
 111   0.0000       1.049003        28.5448 
 112   0.0000       1.062626        28.9155 
 113   0.0000       1.076406        29.2905 
 114   0.0000       1.087961        29.6049 
 115   0.0000       1.106637        30.1131 
 116   0.0000       1.122615        30.5479 
 117   0.0000       1.137082        30.9416 
 118   0.0000       1.140690        31.0398 
 119   0.0000       1.148882        31.2627 
 120   0.0000       1.165547        31.7162 
 121   0.0000       1.211704        32.9722 
 122   0.0000       1.242673        33.8148 
 123   0.0000       1.261960        34.3397 
 124   0.0000       1.275318        34.7032 
 125   0.0000       1.332824        36.2680 
 126   0.0000       1.362246        37.0686 
 127   0.0000       1.377302        37.4783 
 128   0.0000       1.393626        37.9225 
 129   0.0000       1.401557        38.1383 
 130   0.0000       1.417316        38.5671 
 131   0.0000       1.431564        38.9548 
 132   0.0000       1.432620        38.9836 
 133   0.0000       1.505742        40.9733 
 134   0.0000       1.518414        41.3181 
 135   0.0000       1.536387        41.8072 
 136   0.0000       1.552654        42.2499 
 137   0.0000       1.626070        44.2476 
 138   0.0000       1.628992        44.3271 
 139   0.0000       1.639406        44.6105 
 140   0.0000       1.658048        45.1178 
 141   0.0000       1.675047        45.5804 
 142   0.0000       1.680219        45.7211 
 143   0.0000       1.686207        45.8840 
 144   0.0000       1.704511        46.3821 
 145   0.0000       1.716633        46.7120 
 146   0.0000       1.717656        46.7398 
 147   0.0000       1.752411        47.6855 
 148   0.0000       1.760478        47.9050 
 149   0.0000       1.801022        49.0083 
 150   0.0000       1.806001        49.1438 
 151   0.0000       1.807975        49.1975 
 152   0.0000       1.827898        49.7396 
 153   0.0000       1.867057        50.8052 
 154   0.0000       1.870189        50.8904 
 155   0.0000       1.896992        51.6198 
 156   0.0000       1.929260        52.4978 
 157   0.0000       1.939842        52.7858 
 158   0.0000       1.943148        52.8757 
 159   0.0000       1.944373        52.9091 
 160   0.0000       1.981013        53.9061 
 161   0.0000       2.040089        55.5136 
 162   0.0000       2.048537        55.7435 
 163   0.0000       2.052937        55.8633 
 164   0.0000       2.136591        58.1396 
 165   0.0000       2.157450        58.7072 
 166   0.0000       2.180144        59.3247 
 167   0.0000       2.190656        59.6108 
 168   0.0000       2.193937        59.7001 
 169   0.0000       2.256046        61.3901 
 170   0.0000       2.265304        61.6420 
 171   0.0000       2.300159        62.5905 
 172   0.0000       2.305736        62.7423 
 173   0.0000       2.338754        63.6407 
 174   0.0000       2.369382        64.4742 
 175   0.0000       2.387549        64.9685 
 176   0.0000       2.433815        66.2275 
 177   0.0000       2.446734        66.5790 
 178   0.0000       2.459417        66.9241 
 179   0.0000       2.471590        67.2554 
 180   0.0000       2.534562        68.9689 
 181   0.0000       2.537579        69.0510 
 182   0.0000       2.550501        69.4027 
 183   0.0000       2.564978        69.7966 
 184   0.0000       2.601687        70.7955 
 185   0.0000       2.613471        71.1162 
 186   0.0000       2.642260        71.8995 
 187   0.0000       2.654069        72.2209 
 188   0.0000       2.672139        72.7126 
 189   0.0000       2.676182        72.8226 
 190   0.0000       2.690376        73.2088 
 191   0.0000       2.722046        74.0706 
 192   0.0000       2.824922        76.8700 
 193   0.0000       2.826477        76.9124 
 194   0.0000       2.828081        76.9560 
 195   0.0000       2.841154        77.3117 
 196   0.0000       2.915207        79.3268 
 197   0.0000       2.957925        80.4892 
 198   0.0000       2.999102        81.6097 
 199   0.0000       3.065484        83.4160 
 200   0.0000       3.066405        83.4411 
 201   0.0000       3.070494        83.5524 
 202   0.0000       3.197808        87.0168 
 203   0.0000       3.234815        88.0238 
 204   0.0000       3.397984        92.4639 
 205   0.0000       3.446313        93.7789 
 206   0.0000       3.552275        96.6623 
 207   0.0000       3.556687        96.7824 

                    ********************************
                    * MULLIKEN POPULATION ANALYSIS *
                    ********************************

-----------------------
MULLIKEN ATOMIC CHARGES
-----------------------
   0 C :    0.084644
   1 C :   -0.055889
   2 C :   -0.060175
   3 C :    0.156070
   4 N :   -0.272760
   5 O :   -0.175029
   6 C :    0.088930
   7 C :    0.156278
   8 N :   -0.271817
   9 C :    0.051151
  10 H :    0.071030
  11 H :    0.052783
  12 H :    0.052764
  13 C :    0.051472
  14 H :    0.070566
  15 H :    0.053271
  16 H :    0.053318
  17 O :   -0.168294
  18 H :    0.030663
  19 H :    0.031023
Sum of atomic charges:    0.0000000

--------------------------------
MULLIKEN REDUCED ORBITAL CHARGES
--------------------------------
  0 C s       :     3.208712  s :     3.208712
      pz      :     0.948729  p :     2.660543
      px      :     0.752613
      py      :     0.959202
      dz2     :     0.003406  d :     0.046100
      dxz     :     0.008243
      dyz     :     0.006602
      dx2y2   :     0.013660
      dxy     :     0.014188
  1 C s       :     3.148637  s :     3.148637
      pz      :     1.120792  p :     2.870696
      px      :     0.951312
      py      :     0.798592
      dz2     :     0.003343  d :     0.036556
      dxz     :     0.005780
      dyz     :     0.005453
      dx2y2   :     0.010586
      dxy     :     0.011394
  2 C s       :     3.149364  s :     3.149364
      pz      :     1.121038  p :     2.874223
      px      :     0.951419
      py      :     0.801766
      dz2     :     0.003345  d :     0.036588
      dxz     :     0.005810
      dyz     :     0.005422
      dx2y2   :     0.010602
      dxy     :     0.011409
  3 C s       :     3.017128  s :     3.017128
      pz      :     0.904595  p :     2.722580
      px      :     0.893232
      py      :     0.924752
      dz2     :     0.005728  d :     0.104222
      dxz     :     0.022608
      dyz     :     0.007388
      dx2y2   :     0.021033
      dxy     :     0.047466
  4 N s       :     3.458163  s :     3.458163
      pz      :     1.541879  p :     3.787693
      px      :     1.094294
      py      :     1.151520
      dz2     :     0.002311  d :     0.026904
      dxz     :     0.004133
      dyz     :     0.003991
      dx2y2   :     0.007839
      dxy     :     0.008630
  5 O s       :     3.723902  s :     3.723902
      pz      :     1.401814  p :     4.434296
      px      :     1.317971
      py      :     1.714511
      dz2     :     0.001895  d :     0.016832
      dxz     :     0.005184
      dyz     :     0.000042
      dx2y2   :     0.005813
      dxy     :     0.003898
  6 C s       :     3.202378  s :     3.202378
      pz      :     0.946789  p :     2.662537
      px      :     0.751362
      py      :     0.964385
      dz2     :     0.003403  d :     0.046155
      dxz     :     0.008325
      dyz     :     0.006594
      dx2y2   :     0.013665
      dxy     :     0.014168
  7 C s       :     3.017818  s :     3.017818
      pz      :     0.902997  p :     2.721275
      px      :     0.895790
      py      :     0.922488
      dz2     :     0.005728  d :     0.104629
      dxz     :     0.022764
      dyz     :     0.007290
      dx2y2   :     0.021024
      dxy     :     0.047823
  8 N s       :     3.457494  s :     3.457494
      pz      :     1.541840  p :     3.787411
      px      :     1.094566
      py      :     1.151005
      dz2     :     0.002311  d :     0.026912
      dxz     :     0.004128
      dyz     :     0.003995
      dx2y2   :     0.007838
      dxy     :     0.008640
  9 C s       :     3.016083  s :     3.016083
      pz      :     1.026394  p :     2.896532
      px      :     1.040770
      py      :     0.829367
      dz2     :     0.006193  d :     0.036235
      dxz     :     0.002207
      dyz     :     0.011877
      dx2y2   :     0.008858
      dxy     :     0.007100
 10 H s       :     0.905945  s :     0.905945
      pz      :     0.004993  p :     0.023025
      px      :     0.013978
      py      :     0.004053
 11 H s       :     0.925744  s :     0.925744
      pz      :     0.010488  p :     0.021473
      px      :     0.005354
      py      :     0.005630
 12 H s       :     0.925764  s :     0.925764
      pz      :     0.010605  p :     0.021472
      px      :     0.005360
      py      :     0.005507
 13 C s       :     3.016374  s :     3.016374
      pz      :     1.027121  p :     2.895862
      px      :     1.040898
      py      :     0.827842
      dz2     :     0.006189  d :     0.036292
      dxz     :     0.002219
      dyz     :     0.011895
      dx2y2   :     0.009026
      dxy     :     0.006962
 14 H s       :     0.906542  s :     0.906542
      pz      :     0.004994  p :     0.022892
      px      :     0.013965
      py      :     0.003933
 15 H s       :     0.925275  s :     0.925275
      pz      :     0.010600  p :     0.021454
      px      :     0.005386
      py      :     0.005468
 16 H s       :     0.925228  s :     0.925228
      pz      :     0.010493  p :     0.021454
      px      :     0.005374
      py      :     0.005587
 17 O s       :     3.720369  s :     3.720369
      pz      :     1.398987  p :     4.430846
      px      :     1.319099
      py      :     1.712760
      dz2     :     0.001915  d :     0.017078
      dxz     :     0.005274
      dyz     :     0.000040
      dx2y2   :     0.005880
      dxy     :     0.003970
 18 H s       :     0.946751  s :     0.946751
      pz      :     0.005366  p :     0.022586
      px      :     0.009479
      py      :     0.007742
 19 H s       :     0.946335  s :     0.946335
      pz      :     0.005363  p :     0.022642
      px      :     0.009745
      py      :     0.007534


                     *******************************
                     * LOEWDIN POPULATION ANALYSIS *
                     *******************************

----------------------
LOEWDIN ATOMIC CHARGES
----------------------
   0 C :    0.080862
   1 C :   -0.125109
   2 C :   -0.125190
   3 C :    0.061223
   4 N :   -0.000910
   5 O :   -0.172050
   6 C :    0.080845
   7 C :    0.061492
   8 N :   -0.001207
   9 C :    0.007972
  10 H :    0.043212
  11 H :    0.033025
  12 H :    0.033027
  13 C :    0.008163
  14 H :    0.043236
  15 H :    0.033362
  16 H :    0.033360
  17 O :   -0.166265
  18 H :    0.035245
  19 H :    0.035707

-------------------------------
LOEWDIN REDUCED ORBITAL CHARGES
-------------------------------
  0 C s       :     2.873740  s :     2.873740
      pz      :     0.944487  p :     2.931709
      px      :     0.935805
      py      :     1.051416
      dz2     :     0.007531  d :     0.113689
      dxz     :     0.016593
      dyz     :     0.013569
      dx2y2   :     0.039666
      dxy     :     0.036330
  1 C s       :     2.857863  s :     2.857863
      pz      :     1.094102  p :     3.164590
      px      :     1.033794
      py      :     1.036694
      dz2     :     0.008582  d :     0.102656
      dxz     :     0.011952
      dyz     :     0.011611
      dx2y2   :     0.035023
      dxy     :     0.035489
  2 C s       :     2.857675  s :     2.857675
      pz      :     1.094300  p :     3.164739
      px      :     1.034045
      py      :     1.036393
      dz2     :     0.008584  d :     0.102776
      dxz     :     0.012032
      dyz     :     0.011537
      dx2y2   :     0.035127
      dxy     :     0.035496
  3 C s       :     2.845915  s :     2.845915
      pz      :     0.896638  p :     2.847036
      px      :     0.995512
      py      :     0.954886
      dz2     :     0.013935  d :     0.245827
      dxz     :     0.044249
      dyz     :     0.014620
      dx2y2   :     0.051239
      dxy     :     0.121784
  4 N s       :     3.100122  s :     3.100122
      pz      :     1.487135  p :     3.836477
      px      :     1.173809
      py      :     1.175533
      dz2     :     0.004991  d :     0.064311
      dxz     :     0.007909
      dyz     :     0.006511
      dx2y2   :     0.020522
      dxy     :     0.024377
  5 O s       :     3.558962  s :     3.558962
      pz      :     1.404164  p :     4.583544
      px      :     1.446090
      py      :     1.733290
      dz2     :     0.004126  d :     0.029544
      dxz     :     0.006878
      dyz     :     0.000053
      dx2y2   :     0.012527
      dxy     :     0.005960
  6 C s       :     2.872976  s :     2.872976
      pz      :     0.942625  p :     2.932304
      px      :     0.937968
      py      :     1.051712
      dz2     :     0.007549  d :     0.113874
      dxz     :     0.016784
      dyz     :     0.013546
      dx2y2   :     0.039763
      dxy     :     0.036232
  7 C s       :     2.846557  s :     2.846557
      pz      :     0.895173  p :     2.845185
      px      :     0.996985
      py      :     0.953027
      dz2     :     0.013973  d :     0.246766
      dxz     :     0.044541
      dyz     :     0.014393
      dx2y2   :     0.051261
      dxy     :     0.122598
  8 N s       :     3.099736  s :     3.099736
      pz      :     1.487019  p :     3.837065
      px      :     1.174711
      py      :     1.175334
      dz2     :     0.005002  d :     0.064406
      dxz     :     0.007900
      dyz     :     0.006526
      dx2y2   :     0.020566
      dxy     :     0.024413
  9 C s       :     2.843466  s :     2.843466
      pz      :     1.077437  p :     3.055607
      px      :     1.069973
      py      :     0.908197
      dz2     :     0.016027  d :     0.092955
      dxz     :     0.004685
      dyz     :     0.031295
      dx2y2   :     0.024153
      dxy     :     0.016794
 10 H s       :     0.886832  s :     0.886832
      pz      :     0.012002  p :     0.069956
      px      :     0.045773
      py      :     0.012182
 11 H s       :     0.903302  s :     0.903302
      pz      :     0.031481  p :     0.063672
      px      :     0.014410
      py      :     0.017782
 12 H s       :     0.903302  s :     0.903302
      pz      :     0.031898  p :     0.063670
      px      :     0.014427
      py      :     0.017345
 13 C s       :     2.843415  s :     2.843415
      pz      :     1.077712  p :     3.055302
      px      :     1.070591
      py      :     0.906999
      dz2     :     0.016017  d :     0.093121
      dxz     :     0.004743
      dyz     :     0.031317
      dx2y2   :     0.024613
      dxy     :     0.016431
 14 H s       :     0.887314  s :     0.887314
      pz      :     0.012001  p :     0.069450
      px      :     0.045629
      py      :     0.011819
 15 H s       :     0.903039  s :     0.903039
      pz      :     0.031865  p :     0.063599
      px      :     0.014469
      py      :     0.017264
 16 H s       :     0.903044  s :     0.903044
      pz      :     0.031492  p :     0.063597
      px      :     0.014418
      py      :     0.017687
 17 O s       :     3.555735  s :     3.555735
      pz      :     1.400928  p :     4.580568
      px      :     1.448704
      py      :     1.730936
      dz2     :     0.004172  d :     0.029963
      dxz     :     0.007004
      dyz     :     0.000050
      dx2y2   :     0.012666
      dxy     :     0.006071
 18 H s       :     0.892170  s :     0.892170
      pz      :     0.015033  p :     0.072586
      px      :     0.032013
      py      :     0.025539
 19 H s       :     0.891552  s :     0.891552
      pz      :     0.015015  p :     0.072741
      px      :     0.032907
      py      :     0.024819


                      *****************************
                      * MAYER POPULATION ANALYSIS *
                      *****************************

  NA   - Mulliken gross atomic population
  ZA   - Total nuclear charge
  QA   - Mulliken gross atomic charge
  VA   - Mayer's total valence
  BVA  - Mayer's bonded valence
  FA   - Mayer's free valence

  ATOM       NA         ZA         QA         VA         BVA        FA
  0 C      5.9154     6.0000     0.0846     3.7710     3.7710    -0.0000
  1 C      6.0559     6.0000    -0.0559     3.7825     3.7825    -0.0000
  2 C      6.0602     6.0000    -0.0602     3.7906     3.7906    -0.0000
  3 C      5.8439     6.0000     0.1561     4.1345     4.1345     0.0000
  4 N      7.2728     7.0000    -0.2728     3.3405     3.3405     0.0000
  5 O      8.1750     8.0000    -0.1750     2.3852     2.3852    -0.0000
  6 C      5.9111     6.0000     0.0889     3.7736     3.7736    -0.0000
  7 C      5.8437     6.0000     0.1563     4.1363     4.1363     0.0000
  8 N      7.2718     7.0000    -0.2718     3.3388     3.3388     0.0000
  9 C      5.9488     6.0000     0.0512     3.9020     3.9020     0.0000
 10 H      0.9290     1.0000     0.0710     1.0364     1.0364     0.0000
 11 H      0.9472     1.0000     0.0528     0.9873     0.9873    -0.0000
 12 H      0.9472     1.0000     0.0528     0.9873     0.9873     0.0000
 13 C      5.9485     6.0000     0.0515     3.9032     3.9032     0.0000
 14 H      0.9294     1.0000     0.0706     1.0346     1.0346    -0.0000
 15 H      0.9467     1.0000     0.0533     0.9872     0.9872    -0.0000
 16 H      0.9467     1.0000     0.0533     0.9872     0.9872    -0.0000
 17 O      8.1683     8.0000    -0.1683     2.3915     2.3915     0.0000
 18 H      0.9693     1.0000     0.0307     0.9968     0.9968    -0.0000
 19 H      0.9690     1.0000     0.0310     0.9967     0.9967     0.0000

  Mayer bond orders larger than 0.100000
B(  0-C ,  1-C ) :   1.4052 B(  0-C ,  4-N ) :   1.2032 B(  0-C ,  6-C ) :   0.1040 
B(  0-C , 18-H ) :   0.9773 B(  1-C ,  2-C ) :   1.2559 B(  1-C ,  7-C ) :   1.0054 
B(  2-C ,  3-C ) :   1.0094 B(  2-C ,  6-C ) :   1.4067 B(  3-C ,  4-N ) :   0.9636 
B(  3-C ,  5-O ) :   2.0891 B(  4-N ,  9-C ) :   0.9797 B(  6-C ,  8-N ) :   1.2064 
B(  6-C , 19-H ) :   0.9755 B(  7-C ,  8-N ) :   0.9581 B(  7-C , 17-O ) :   2.0988 
B(  8-N , 13-C ) :   0.9800 B(  9-C , 10-H ) :   0.9430 B(  9-C , 11-H ) :   0.9668 
B(  9-C , 12-H ) :   0.9668 B( 13-C , 14-H ) :   0.9441 B( 13-C , 15-H ) :   0.9666 
B( 13-C , 16-H ) :   0.9667 

-------
TIMINGS
-------

Total SCF time: 0 days 0 hours 0 min 28 sec 

Total time                  ....      28.801 sec
Sum of individual times     ....      26.924 sec  ( 93.5%)

Fock matrix formation       ....      23.061 sec  ( 80.1%)
  Split-RI-J                ....       7.457 sec  ( 32.3% of F)
  XC integration            ....      12.401 sec  ( 53.8% of F)
    Basis function eval.    ....       3.708 sec  ( 29.9% of XC)
    Density eval.           ....       2.635 sec  ( 21.2% of XC)
    XC-Functional eval.     ....       1.317 sec  ( 10.6% of XC)
    XC-Potential eval.      ....       2.413 sec  ( 19.5% of XC)
Diagonalization             ....       0.037 sec  (  0.1%)
Density matrix formation    ....       0.011 sec  (  0.0%)
Population analysis         ....       0.022 sec  (  0.1%)
Initial guess               ....       0.668 sec  (  2.3%)
Orbital Transformation      ....       0.000 sec  (  0.0%)
Orbital Orthonormalization  ....       0.000 sec  (  0.0%)
DIIS solution               ....       0.062 sec  (  0.2%)
SOSCF solution              ....       0.269 sec  (  0.9%)
Grid generation             ....       2.794 sec  (  9.7%)


-------------------------------------------------------------------------------
                          DFT DISPERSION CORRECTION                            
                                                                               
                              DFTD3 V3.1  Rev 1                                
                          USING Becke-Johnson damping                          
-------------------------------------------------------------------------------
The BP86 functional is recognized
Active option DFTDOPT                   ...         4   

molecular C6(AA) [au] = 4497.574382 


            DFT-D V3
 parameters
 s6 scaling factor         :     1.0000 
 a1 scaling factor         :     0.3946 
 s8 scaling factor         :     3.2822 
 a2 scaling factor         :     4.8516 
 ad hoc parameters k1-k3   :    16.0000     1.3333    -4.0000 

 Edisp/kcal,au: -21.054106236856  -0.033551850388 
 E6   /kcal   :  -7.895320518 
 E8   /kcal   : -13.158785719 
 % E8         :  62.499854284 

-------------------------   ----------------
Dispersion correction           -0.033551850
-------------------------   ----------------


-------------------------   --------------------
FINAL SINGLE POINT ENERGY      -569.257241340481
-------------------------   --------------------

------------------------------------------------------------------------------
                         ORCA SCF GRADIENT CALCULATION
------------------------------------------------------------------------------

Gradient of the Kohn-Sham DFT energy:
Kohn-Sham wavefunction type      ... RKS
Hartree-Fock exchange scaling    ...    0.000
Number of operators              ...    1
Number of atoms                  ...   20
Basis set dimensions             ...  208
Integral neglect threshold       ... 2.5e-11
Integral primitive cutoff        ... 2.5e-12

Nuclear repulsion gradient       ... done
One Electron Gradient            ... done
Pre-screening matrix             ... done
RI-J gradient                    ... done
Exchange-correlation gradient    ... done
Dispersion correction            ... done

------------------
CARTESIAN GRADIENT
------------------

   1   C   :   -0.020068052    0.029042809   -0.000236446
   2   C   :    0.006900132   -0.017956338    0.000165331
   3   C   :   -0.005390081    0.021717498   -0.000205610
   4   C   :   -0.007092960   -0.001194185    0.000048446
   5   N   :    0.013412580   -0.001489704   -0.000017930
   6   O   :    0.004966890    0.003685324   -0.000043375
   7   C   :    0.017084684   -0.032990315    0.000265740
   8   C   :    0.000757221   -0.001143330   -0.000006625
   9   N   :   -0.012993216    0.000944739    0.000026350
  10   C   :    0.000902594   -0.002797652    0.000021891
  11   H   :   -0.000069269   -0.000508787    0.000003661
  12   H   :    0.000284481   -0.000073538    0.000258999
  13   H   :    0.000288026   -0.000076116   -0.000255876
  14   C   :    0.000115996    0.003030297   -0.000015069
  15   H   :    0.000003917    0.000620750   -0.000007835
  16   H   :   -0.000133354   -0.000104958    0.000380330
  17   H   :   -0.000138763   -0.000114300   -0.000385893
  18   O   :    0.000326754   -0.001890172    0.000017822
  19   H   :    0.006434981   -0.011216250    0.000092937
  20   H   :   -0.005592561    0.012514228   -0.000106848

Difference to translation invariance:
           :    0.0000000000    0.0000000000   -0.0000000000

Norm of the cartesian gradient     ...    0.0657194901
RMS gradient                       ...    0.0084843497
MAX gradient                       ...    0.0329903147

-------
TIMINGS
-------

Total SCF gradient time            ...        9.309 sec

One electron gradient       ....       0.148 sec  (  1.6%)
Prescreening matrices       ....       0.101 sec  (  1.1%)
RI-J Coulomb gradient       ....       1.953 sec  ( 21.0%)
XC gradient                 ....       6.944 sec  ( 74.6%)
------------------------------------------------------------------------------
                         ORCA GEOMETRY RELAXATION STEP
------------------------------------------------------------------------------

Reading the OPT-File                    .... done
Getting information on internals        .... done
Copying old internal coords+grads       .... done
Making the new internal coordinates     .... (new redundants).... done
Validating the new internal coordinates .... (new redundants).... done
Calculating the B-matrix                .... done
Calculating the G,G- and P matrices     .... done
Transforming gradient to internals      .... done
Projecting the internal gradient        .... done
Number of atoms                         ....  20
Number of internal coordinates          .... 105
Current Energy                          ....  -569.257241340 Eh
Current gradient norm                   ....     0.065719490 Eh/bohr
Maximum allowed component of the step   ....  0.300
Current trust radius                    ....  0.300
Evaluating the initial hessian          ....  (Almloef) done
Projecting the Hessian                  .... done
Forming the augmented Hessian           .... done
Diagonalizing the augmented Hessian     .... done
Last element of RFO vector              ....  0.998428619
Lowest eigenvalues of augmented Hessian:
 -0.001142243  0.017907179  0.018033959  0.024269027  0.024359584
Length of the computed step             ....  0.056126516
The final length of the internal step   ....  0.056126516
Converting the step to cartesian space:
 Initial RMS(Int)=    0.0054773871
Transforming coordinates:
 Iter   0:  RMS(Cart)=    0.0084533906 RMS(Int)=    0.0054786103
 Iter   1:  RMS(Cart)=    0.0000964713 RMS(Int)=    0.0000572175
 Iter   2:  RMS(Cart)=    0.0000015251 RMS(Int)=    0.0000011129
 Iter   3:  RMS(Cart)=    0.0000000176 RMS(Int)=    0.0000000109
Imposing constraints:
 Iter   0:  RMS(Cart)=    0.0000001167 RMS(Int)=    0.0000000312
 Iter   1:  RMS(Cart)=    0.0000000156 RMS(Int)=    0.0000000176
CONVERGED
done
Storing new coordinates                 .... done

                                .--------------------.
          ----------------------|Geometry convergence|-------------------------
          Item                value                   Tolerance       Converged
          ---------------------------------------------------------------------
          RMS gradient        0.0019947832            0.0001000000      NO
          MAX gradient        0.0122985153            0.0003000000      NO
          RMS step            0.0054773871            0.0020000000      NO
          MAX step            0.0328207515            0.0040000000      NO
          ........................................................
          Max(Bonds)      0.0174      Max(Angles)    1.01
          Max(Dihed)        0.13      Max(Improp)    0.00
          ---------------------------------------------------------------------

The optimization has not yet converged - more geometry cycles are needed


    ---------------------------------------------------------------------------
                         Redundant Internal Coordinates
                            (Angstroem and degrees)

        Definition                    Value    dE/dq     Step     New-Value
    ----------------------------------------------------------------------------
     1. B(C   1,C   0)                1.4075  0.016122  0.0000    1.4075 C 
     2. B(C   2,C   1)                1.4298 -0.004074  0.0000    1.4298 C 
     3. B(C   3,C   2)                1.4577  0.000085 -0.0000    1.4577 C 
     4. B(N   4,C   0)                1.3900  0.010740 -0.0000    1.3900 C 
     5. B(N   4,C   3)                1.4549 -0.004652 -0.0000    1.4549 C 
     6. B(O   5,C   3)                1.2297  0.005258 -0.0000    1.2297 C 
     7. B(C   6,C   2)                1.4102  0.017909 -0.0000    1.4102 C 
     8. B(C   7,C   1)                1.4616  0.001883  0.0000    1.4616 C 
     9. B(N   8,C   6)                1.3867  0.009495  0.0000    1.3867 C 
    10. B(N   8,C   7)                1.4585 -0.003079  0.0000    1.4585 C 
    11. B(C   9,N   4)                1.4445 -0.002620  0.0000    1.4445 C 
    12. B(H  10,C   9)                1.1076 -0.000004  0.0000    1.1076   
    13. B(H  11,C   9)                1.1099  0.000097 -0.0002    1.1097   
    14. B(H  12,C   9)                1.1099  0.000095 -0.0001    1.1097   
    15. B(C  13,N   8)                1.4436 -0.003107 -0.0000    1.4436 C 
    16. B(H  14,C  13)                1.1078  0.000069 -0.0001    1.1077   
    17. B(H  15,C  13)                1.1103  0.000328 -0.0005    1.1097   
    18. B(H  16,C  13)                1.1103  0.000336 -0.0005    1.1098   
    19. B(O  17,C   7)                1.2249 -0.000174  0.0000    1.2249 C 
    20. B(H  18,C   0)                1.0800 -0.012213  0.0172    1.0972   
    21. B(H  19,C   6)                1.0800 -0.012299  0.0174    1.0974   
    22. A(C   1,C   0,H  18)          128.25 -0.001021    0.71    128.96   
    23. A(C   1,C   0,N   4)          107.67 -0.006633   -0.00    107.67 C 
    24. A(N   4,C   0,H  18)          124.07  0.007654   -0.71    123.37   
    25. A(C   0,C   1,C   2)          108.36  0.000080   -0.00    108.36 C 
    26. A(C   0,C   1,C   7)          142.50 -0.001911    0.00    142.50 C 
    27. A(C   2,C   1,C   7)          109.14  0.001831   -0.00    109.14 C 
    28. A(C   1,C   2,C   6)          108.35 -0.000031   -0.00    108.35 C 
    29. A(C   3,C   2,C   6)          142.40 -0.002267    0.00    142.40 C 
    30. A(C   1,C   2,C   3)          109.25  0.002298    0.00    109.25 C 
    31. A(C   2,C   3,O   5)          135.13  0.002324    0.00    135.13 C 
    32. A(C   2,C   3,N   4)          103.05  0.002920   -0.00    103.05 C 
    33. A(N   4,C   3,O   5)          121.83 -0.005244    0.00    121.83 C 
    34. A(C   0,N   4,C   9)          128.21  0.003767    0.00    128.21 C 
    35. A(C   3,N   4,C   9)          120.12 -0.005101    0.00    120.12 C 
    36. A(C   0,N   4,C   3)          111.67  0.001335   -0.00    111.67 C 
    37. A(C   2,C   6,H  19)          126.98 -0.003235    1.01    127.99   
    38. A(N   8,C   6,H  19)          125.14  0.009119   -1.01    124.13   
    39. A(C   2,C   6,N   8)          107.88 -0.005883   -0.00    107.88 C 
    40. A(N   8,C   7,O  17)          122.13 -0.003793   -0.00    122.13 C 
    41. A(C   1,C   7,N   8)          103.06  0.003165   -0.00    103.06 C 
    42. A(C   1,C   7,O  17)          134.81  0.000628   -0.00    134.81 C 
    43. A(C   6,N   8,C  13)          127.86  0.002397    0.00    127.86 C 
    44. A(C   7,N   8,C  13)          120.56 -0.003316    0.00    120.56 C 
    45. A(C   6,N   8,C   7)          111.58  0.000919    0.00    111.58 C 
    46. A(N   4,C   9,H  10)          105.96 -0.000955    0.21    106.17   
    47. A(N   4,C   9,H  11)          111.75  0.000211   -0.06    111.69   
    48. A(H  10,C   9,H  11)          109.01  0.000120    0.03    109.04   
    49. A(N   4,C   9,H  12)          111.76  0.000220   -0.06    111.70   
    50. A(H  10,C   9,H  12)          109.01  0.000117    0.03    109.04   
    51. A(H  11,C   9,H  12)          109.25  0.000253   -0.14    109.11   
    52. A(H  15,C  13,H  16)          109.17  0.000150   -0.11    109.06   
    53. A(N   8,C  13,H  14)          106.03 -0.001083    0.23    106.26   
    54. A(N   8,C  13,H  15)          111.76  0.000247   -0.06    111.70   
    55. A(H  14,C  13,H  15)          109.01  0.000209    0.00    109.02   
    56. A(N   8,C  13,H  16)          111.76  0.000247   -0.06    111.70   
    57. A(H  14,C  13,H  16)          109.00  0.000204    0.01    109.01   
    58. D(C   2,C   1,C   0,N   4)     -0.01 -0.000003    0.00     -0.01 C 
    59. D(C   2,C   1,C   0,H  18)   -179.99  0.000002   -0.01   -180.00   
    60. D(C   7,C   1,C   0,N   4)    180.00 -0.000001   -0.00    180.00 C 
    61. D(C   7,C   1,C   0,H  18)      0.01  0.000004   -0.01      0.01   
    62. D(C   6,C   2,C   1,C   0)    179.99  0.000002    0.00    179.99 C 
    63. D(C   3,C   2,C   1,C   0)      0.01  0.000005   -0.00      0.01 C 
    64. D(C   3,C   2,C   1,C   7)   -179.99  0.000004    0.00   -179.99 C 
    65. D(C   6,C   2,C   1,C   7)     -0.01  0.000000    0.00     -0.01 C 
    66. D(O   5,C   3,C   2,C   6)      0.02  0.000004   -0.00      0.02 C 
    67. D(N   4,C   3,C   2,C   1)     -0.02 -0.000006   -0.00     -0.02 C 
    68. D(O   5,C   3,C   2,C   1)    179.99  0.000000    0.00    179.99 C 
    69. D(N   4,C   3,C   2,C   6)   -179.98 -0.000002    0.00   -179.98 C 
    70. D(C   3,N   4,C   0,C   1)     -0.01  0.000000    0.00     -0.01 C 
    71. D(C   3,N   4,C   0,H  18)    179.98 -0.000006    0.01    179.99   
    72. D(C   9,N   4,C   0,C   1)   -179.97  0.000005    0.00   -179.97 C 
    73. D(C   9,N   4,C   0,H  18)      0.02 -0.000001    0.01      0.02   
    74. D(C   0,N   4,C   3,O   5)   -179.99 -0.000002    0.00   -179.99 C 
    75. D(C   9,N   4,C   3,C   2)    179.98  0.000002    0.00    179.98 C 
    76. D(C   0,N   4,C   3,C   2)      0.01  0.000003    0.00      0.01 C 
    77. D(C   9,N   4,C   3,O   5)     -0.02 -0.000003   -0.00     -0.02 C 
    78. D(N   8,C   6,C   2,C   1)      0.00 -0.000003   -0.00      0.00 C 
    79. D(N   8,C   6,C   2,C   3)    179.97 -0.000006    0.00    179.97 C 
    80. D(H  19,C   6,C   2,C   1)    179.99 -0.000001    0.01    180.00   
    81. D(H  19,C   6,C   2,C   3)     -0.04 -0.000005    0.01     -0.04   
    82. D(N   8,C   7,C   1,C   0)   -179.99  0.000001    0.00   -179.99 C 
    83. D(N   8,C   7,C   1,C   2)      0.01  0.000003    0.00      0.01 C 
    84. D(O  17,C   7,C   1,C   0)      0.01 -0.000003   -0.00      0.01 C 
    85. D(O  17,C   7,C   1,C   2)   -179.99 -0.000001    0.00   -179.99 C 
    86. D(C   7,N   8,C   6,C   2)      0.01  0.000005   -0.00      0.01 C 
    87. D(C   7,N   8,C   6,H  19)   -179.99  0.000004   -0.01   -179.99   
    88. D(C  13,N   8,C   6,C   2)    179.98  0.000001   -0.00    179.98 C 
    89. D(C  13,N   8,C   6,H  19)     -0.02  0.000001   -0.01     -0.02   
    90. D(C   6,N   8,C   7,C   1)     -0.01 -0.000005    0.00     -0.01 C 
    91. D(C   6,N   8,C   7,O  17)    179.99 -0.000002   -0.00    179.99 C 
    92. D(C  13,N   8,C   7,C   1)   -179.99 -0.000003   -0.00   -179.99 C 
    93. D(C  13,N   8,C   7,O  17)      0.02 -0.000000   -0.00      0.02 C 
    94. D(H  10,C   9,N   4,C   0)    179.96 -0.000003    0.00    179.96   
    95. D(H  10,C   9,N   4,C   3)     -0.00  0.000001    0.00      0.00   
    96. D(H  11,C   9,N   4,C   0)     61.35  0.000321   -0.13     61.22   
    97. D(H  11,C   9,N   4,C   3)   -118.61  0.000324   -0.13   -118.74   
    98. D(H  12,C   9,N   4,C   0)    -61.43 -0.000324    0.13    -61.30   
    99. D(H  12,C   9,N   4,C   3)    118.61 -0.000321    0.13    118.74   
   100. D(H  14,C  13,N   8,C   6)    179.97  0.000003    0.00    179.97   
   101. D(H  14,C  13,N   8,C   7)     -0.07 -0.000000    0.00     -0.06   
   102. D(H  15,C  13,N   8,C   6)     61.30  0.000278   -0.11     61.19   
   103. D(H  15,C  13,N   8,C   7)   -118.73  0.000275   -0.11   -118.84   
   104. D(H  16,C  13,N   8,C   6)    -61.38 -0.000279    0.12    -61.27   
   105. D(H  16,C  13,N   8,C   7)    118.59 -0.000281    0.12    118.70   
    ----------------------------------------------------------------------------

         *************************************************************
         *                GEOMETRY OPTIMIZATION CYCLE   2            *
         *************************************************************
---------------------------------
CARTESIAN COORDINATES (ANGSTROEM)
---------------------------------
  C     -2.874762    1.959119   -0.010101
  C     -2.941369    0.553243    0.002140
[...]
 190   0.0000       2.688623        73.1611 
 191   0.0000       2.721300        74.0503 
 192   0.0000       2.824411        76.8561 
 193   0.0000       2.824907        76.8696 
 194   0.0000       2.826018        76.8999 
 195   0.0000       2.838633        77.2431 
 196   0.0000       2.916993        79.3754 
 197   0.0000       2.961963        80.5991 
 198   0.0000       3.004757        81.7636 
 199   0.0000       3.059252        83.2465 
 200   0.0000       3.066640        83.4475 
 201   0.0000       3.070773        83.5600 
 202   0.0000       3.175811        86.4182 
 203   0.0000       3.231182        87.9249 
 204   0.0000       3.394606        92.3719 
 205   0.0000       3.449700        93.8711 
 206   0.0000       3.552258        96.6619 
 207   0.0000       3.556337        96.7729 

                    ********************************
                    * MULLIKEN POPULATION ANALYSIS *
                    ********************************

-----------------------
MULLIKEN ATOMIC CHARGES
-----------------------
   0 C :    0.069979
   1 C :   -0.048227
   2 C :   -0.048835
   3 C :    0.155092
   4 N :   -0.273359
   5 O :   -0.174859
   6 C :    0.071696
   7 C :    0.155442
   8 N :   -0.272908
   9 C :    0.050861
  10 H :    0.071814
  11 H :    0.052388
  12 H :    0.052362
  13 C :    0.051076
  14 H :    0.071256
  15 H :    0.052849
  16 H :    0.052895
  17 O :   -0.168253
  18 H :    0.039281
  19 H :    0.039449
Sum of atomic charges:    0.0000000

--------------------------------
MULLIKEN REDUCED ORBITAL CHARGES
--------------------------------
  0 C s       :     3.223806  s :     3.223806
      pz      :     0.948756  p :     2.660135
      px      :     0.759817
      py      :     0.951562
      dz2     :     0.003427  d :     0.046079
      dxz     :     0.008255
      dyz     :     0.006633
      dx2y2   :     0.013721
      dxy     :     0.014043
  1 C s       :     3.148973  s :     3.148973
      pz      :     1.122702  p :     2.862665
      px      :     0.947661
      py      :     0.792301
      dz2     :     0.003350  d :     0.036589
      dxz     :     0.005806
      dyz     :     0.005479
      dx2y2   :     0.010631
      dxy     :     0.011324
  2 C s       :     3.149284  s :     3.149284
      pz      :     1.123302  p :     2.862931
      px      :     0.947168
      py      :     0.792461
      dz2     :     0.003352  d :     0.036620
      dxz     :     0.005835
      dyz     :     0.005450
      dx2y2   :     0.010663
      dxy     :     0.011320
  3 C s       :     3.016987  s :     3.016987
      pz      :     0.904701  p :     2.723712
      px      :     0.893071
      py      :     0.925941
      dz2     :     0.005727  d :     0.104209
      dxz     :     0.022605
      dyz     :     0.007384
      dx2y2   :     0.021005
      dxy     :     0.047488
  4 N s       :     3.458878  s :     3.458878
      pz      :     1.540887  p :     3.787610
      px      :     1.095859
      py      :     1.150864
      dz2     :     0.002310  d :     0.026870
      dxz     :     0.004131
      dyz     :     0.003999
      dx2y2   :     0.007809
      dxy     :     0.008622
  5 O s       :     3.723816  s :     3.723816
      pz      :     1.401284  p :     4.434213
      px      :     1.318133
      py      :     1.714796
      dz2     :     0.001895  d :     0.016830
      dxz     :     0.005184
      dyz     :     0.000042
      dx2y2   :     0.005811
      dxy     :     0.003899
  6 C s       :     3.222045  s :     3.222045
      pz      :     0.946682  p :     2.660076
      px      :     0.760813
      py      :     0.952581
      dz2     :     0.003430  d :     0.046182
      dxz     :     0.008336
      dyz     :     0.006626
      dx2y2   :     0.013700
      dxy     :     0.014090
  7 C s       :     3.017579  s :     3.017579
      pz      :     0.903050  p :     2.722370
      px      :     0.895653
      py      :     0.923668
      dz2     :     0.005725  d :     0.104609
      dxz     :     0.022754
      dyz     :     0.007282
      dx2y2   :     0.021010
      dxy     :     0.047839
  8 N s       :     3.458558  s :     3.458558
      pz      :     1.540431  p :     3.787479
      px      :     1.097003
      py      :     1.150046
      dz2     :     0.002309  d :     0.026870
      dxz     :     0.004123
      dyz     :     0.004000
      dx2y2   :     0.007806
      dxy     :     0.008632
  9 C s       :     3.016231  s :     3.016231
      pz      :     1.026942  p :     2.896677
      px      :     1.040881
      py      :     0.828854
      dz2     :     0.006144  d :     0.036231
      dxz     :     0.002256
      dyz     :     0.011868
      dx2y2   :     0.008868
      dxy     :     0.007095
 10 H s       :     0.905191  s :     0.905191
      pz      :     0.004996  p :     0.022994
      px      :     0.014013
      py      :     0.003985
 11 H s       :     0.926127  s :     0.926127
      pz      :     0.010492  p :     0.021485
      px      :     0.005368
      py      :     0.005625
 12 H s       :     0.926154  s :     0.926154
      pz      :     0.010606  p :     0.021484
      px      :     0.005374
      py      :     0.005504
 13 C s       :     3.016151  s :     3.016151
      pz      :     1.027454  p :     2.896476
      px      :     1.041443
      py      :     0.827579
      dz2     :     0.006153  d :     0.036297
      dxz     :     0.002264
      dyz     :     0.011890
      dx2y2   :     0.009033
      dxy     :     0.006957
 14 H s       :     0.905871  s :     0.905871
      pz      :     0.005004  p :     0.022873
      px      :     0.014002
      py      :     0.003866
 15 H s       :     0.925665  s :     0.925665
      pz      :     0.010611  p :     0.021486
      px      :     0.005409
      py      :     0.005466
 16 H s       :     0.925618  s :     0.925618
      pz      :     0.010503  p :     0.021486
      px      :     0.005398
      py      :     0.005585
 17 O s       :     3.720178  s :     3.720178
      pz      :     1.398343  p :     4.431001
      px      :     1.319373
      py      :     1.713285
      dz2     :     0.001915  d :     0.017075
      dxz     :     0.005273
      dyz     :     0.000041
      dx2y2   :     0.005877
      dxy     :     0.003970
 18 H s       :     0.938963  s :     0.938963
      pz      :     0.005071  p :     0.021756
      px      :     0.008788
      py      :     0.007896
 19 H s       :     0.938817  s :     0.938817
      pz      :     0.005052  p :     0.021733
      px      :     0.008833
      py      :     0.007848


                     *******************************
                     * LOEWDIN POPULATION ANALYSIS *
                     *******************************

----------------------
LOEWDIN ATOMIC CHARGES
----------------------
   0 C :    0.077885
   1 C :   -0.125394
   2 C :   -0.125544
   3 C :    0.061039
   4 N :   -0.001427
   5 O :   -0.172115
   6 C :    0.078286
   7 C :    0.061140
   8 N :   -0.001775
   9 C :    0.008093
  10 H :    0.043464
  11 H :    0.032968
  12 H :    0.032970
  13 C :    0.008283
  14 H :    0.043546
  15 H :    0.033263
  16 H :    0.033260
  17 O :   -0.166470
  18 H :    0.039234
  19 H :    0.039293

-------------------------------
LOEWDIN REDUCED ORBITAL CHARGES
-------------------------------
  0 C s       :     2.880004  s :     2.880004
      pz      :     0.945392  p :     2.928848
      px      :     0.934091
      py      :     1.049365
      dz2     :     0.007496  d :     0.113263
      dxz     :     0.016550
      dyz     :     0.013613
      dx2y2   :     0.039464
      dxy     :     0.036140
  1 C s       :     2.857768  s :     2.857768
      pz      :     1.095809  p :     3.164847
      px      :     1.033066
      py      :     1.035972
      dz2     :     0.008601  d :     0.102779
      dxz     :     0.011994
      dyz     :     0.011643
      dx2y2   :     0.035177
      dxy     :     0.035363
  2 C s       :     2.857472  s :     2.857472
      pz      :     1.096375  p :     3.165139
      px      :     1.033570
      py      :     1.035195
      dz2     :     0.008607  d :     0.102932
      dxz     :     0.012069
      dyz     :     0.011567
      dx2y2   :     0.035328
      dxy     :     0.035360
  3 C s       :     2.845859  s :     2.845859
      pz      :     0.896817  p :     2.847284
      px      :     0.995465
      py      :     0.955002
      dz2     :     0.013936  d :     0.245818
      dxz     :     0.044246
      dyz     :     0.014615
      dx2y2   :     0.051152
      dxy     :     0.121868
  4 N s       :     3.100542  s :     3.100542
      pz      :     1.486164  p :     3.836670
      px      :     1.175212
      py      :     1.175294
      dz2     :     0.004991  d :     0.064215
      dxz     :     0.007916
      dyz     :     0.006526
      dx2y2   :     0.020480
      dxy     :     0.024301
  5 O s       :     3.558986  s :     3.558986
      pz      :     1.403679  p :     4.583583
      px      :     1.446150
      py      :     1.733754
      dz2     :     0.004126  d :     0.029545
      dxz     :     0.006878
      dyz     :     0.000053
      dx2y2   :     0.012522
      dxy     :     0.005966
  6 C s       :     2.879893  s :     2.879893
      pz      :     0.943407  p :     2.928256
      px      :     0.935740
      py      :     1.049109
      dz2     :     0.007514  d :     0.113566
      dxz     :     0.016731
      dyz     :     0.013602
      dx2y2   :     0.039449
      dxy     :     0.036269
  7 C s       :     2.846527  s :     2.846527
      pz      :     0.895292  p :     2.845575
      px      :     0.996985
      py      :     0.953298
      dz2     :     0.013971  d :     0.246758
      dxz     :     0.044525
      dyz     :     0.014382
      dx2y2   :     0.051213
      dxy     :     0.122667
  8 N s       :     3.100307  s :     3.100307
      pz      :     1.485624  p :     3.837196
      px      :     1.176643
      py      :     1.174929
      dz2     :     0.004999  d :     0.064272
      dxz     :     0.007906
      dyz     :     0.006536
      dx2y2   :     0.020516
      dxy     :     0.024315
  9 C s       :     2.843321  s :     2.843321
      pz      :     1.077844  p :     3.055633
      px      :     1.070212
      py      :     0.907578
      dz2     :     0.015920  d :     0.092952
      dxz     :     0.004801
      dyz     :     0.031241
      dx2y2   :     0.024202
      dxy     :     0.016787
 10 H s       :     0.886651  s :     0.886651
      pz      :     0.012033  p :     0.069885
      px      :     0.045862
      py      :     0.011990
 11 H s       :     0.903371  s :     0.903371
      pz      :     0.031410  p :     0.063661
      px      :     0.014457
      py      :     0.017794
 12 H s       :     0.903372  s :     0.903372
      pz      :     0.031817  p :     0.063658
      px      :     0.014480
      py      :     0.017361
 13 C s       :     2.843012  s :     2.843012
      pz      :     1.078030  p :     3.055555
      px      :     1.071008
      py      :     0.906517
      dz2     :     0.015950  d :     0.093149
      dxz     :     0.004849
      dyz     :     0.031268
      dx2y2   :     0.024656
      dxy     :     0.016425
 14 H s       :     0.887066  s :     0.887066
      pz      :     0.012041  p :     0.069388
      px      :     0.045711
      py      :     0.011635
 15 H s       :     0.903087  s :     0.903087
      pz      :     0.031829  p :     0.063650
      px      :     0.014539
      py      :     0.017282
 16 H s       :     0.903088  s :     0.903088
      pz      :     0.031450  p :     0.063651
      px      :     0.014492
      py      :     0.017709
 17 O s       :     3.555745  s :     3.555745
      pz      :     1.400332  p :     4.580762
      px      :     1.448844
      py      :     1.731585
      dz2     :     0.004172  d :     0.029963
      dxz     :     0.007003
      dyz     :     0.000051
      dx2y2   :     0.012660
      dxy     :     0.006078
 18 H s       :     0.891316  s :     0.891316
      pz      :     0.013991  p :     0.069449
      px      :     0.029402
      py      :     0.026056
 19 H s       :     0.891290  s :     0.891290
      pz      :     0.013938  p :     0.069417
      px      :     0.029529
      py      :     0.025950


                      *****************************
                      * MAYER POPULATION ANALYSIS *
                      *****************************

  NA   - Mulliken gross atomic population
  ZA   - Total nuclear charge
  QA   - Mulliken gross atomic charge
  VA   - Mayer's total valence
  BVA  - Mayer's bonded valence
  FA   - Mayer's free valence

  ATOM       NA         ZA         QA         VA         BVA        FA
  0 C      5.9300     6.0000     0.0700     3.7611     3.7611    -0.0000
  1 C      6.0482     6.0000    -0.0482     3.7676     3.7676    -0.0000
  2 C      6.0488     6.0000    -0.0488     3.7687     3.7687     0.0000
  3 C      5.8449     6.0000     0.1551     4.1359     4.1359     0.0000
  4 N      7.2734     7.0000    -0.2734     3.3433     3.3433    -0.0000
  5 O      8.1749     8.0000    -0.1749     2.3852     2.3852     0.0000
  6 C      5.9283     6.0000     0.0717     3.7608     3.7608     0.0000
  7 C      5.8446     6.0000     0.1554     4.1377     4.1377    -0.0000
  8 N      7.2729     7.0000    -0.2729     3.3431     3.3431    -0.0000
  9 C      5.9491     6.0000     0.0509     3.9037     3.9037     0.0000
 10 H      0.9282     1.0000     0.0718     1.0359     1.0359     0.0000
 11 H      0.9476     1.0000     0.0524     0.9873     0.9873    -0.0000
 12 H      0.9476     1.0000     0.0524     0.9873     0.9873     0.0000
 13 C      5.9489     6.0000     0.0511     3.9055     3.9055    -0.0000
 14 H      0.9287     1.0000     0.0713     1.0341     1.0341     0.0000
 15 H      0.9472     1.0000     0.0528     0.9872     0.9872     0.0000
 16 H      0.9471     1.0000     0.0529     0.9872     0.9872     0.0000
 17 O      8.1683     8.0000    -0.1683     2.3912     2.3912    -0.0000
 18 H      0.9607     1.0000     0.0393     0.9954     0.9954     0.0000
 19 H      0.9606     1.0000     0.0394     0.9955     0.9955     0.0000

  Mayer bond orders larger than 0.100000
B(  0-C ,  1-C ) :   1.3938 B(  0-C ,  4-N ) :   1.2056 B(  0-C ,  6-C ) :   0.1049 
B(  0-C , 18-H ) :   0.9763 B(  1-C ,  2-C ) :   1.2561 B(  1-C ,  7-C ) :   1.0048 
B(  2-C ,  3-C ) :   1.0090 B(  2-C ,  6-C ) :   1.3900 B(  3-C ,  4-N ) :   0.9634 
B(  3-C ,  5-O ) :   2.0906 B(  4-N ,  9-C ) :   0.9796 B(  6-C ,  8-N ) :   1.2098 
B(  6-C , 19-H ) :   0.9759 B(  7-C ,  8-N ) :   0.9583 B(  7-C , 17-O ) :   2.1000 
B(  8-N , 13-C ) :   0.9799 B(  9-C , 10-H ) :   0.9434 B(  9-C , 11-H ) :   0.9668 
B(  9-C , 12-H ) :   0.9668 B( 13-C , 14-H ) :   0.9445 B( 13-C , 15-H ) :   0.9666 
B( 13-C , 16-H ) :   0.9667 

-------
TIMINGS
-------

Total SCF time: 0 days 0 hours 0 min 12 sec 

Total time                  ....      12.008 sec
Sum of individual times     ....      11.643 sec  ( 97.0%)

Fock matrix formation       ....       8.414 sec  ( 70.1%)
  Split-RI-J                ....       2.516 sec  ( 29.9% of F)
  XC integration            ....       5.083 sec  ( 60.4% of F)
    Basis function eval.    ....       1.536 sec  ( 30.2% of XC)
    Density eval.           ....       1.099 sec  ( 21.6% of XC)
    XC-Functional eval.     ....       0.402 sec  (  7.9% of XC)
    XC-Potential eval.      ....       0.957 sec  ( 18.8% of XC)
Diagonalization             ....       0.005 sec  (  0.0%)
Density matrix formation    ....       0.004 sec  (  0.0%)
Population analysis         ....       0.025 sec  (  0.2%)
Initial guess               ....       0.006 sec  (  0.1%)
Orbital Transformation      ....       0.000 sec  (  0.0%)
Orbital Orthonormalization  ....       0.003 sec  (  0.0%)
DIIS solution               ....       0.001 sec  (  0.0%)
SOSCF solution              ....       0.017 sec  (  0.1%)
Grid generation             ....       3.171 sec  ( 26.4%)


-------------------------------------------------------------------------------
                          DFT DISPERSION CORRECTION                            
                                                                               
                              DFTD3 V3.1  Rev 1                                
                          USING Becke-Johnson damping                          
-------------------------------------------------------------------------------
The BP86 functional is recognized
Active option DFTDOPT                   ...         4   

molecular C6(AA) [au] = 4498.267289 


            DFT-D V3
 parameters
 s6 scaling factor         :     1.0000 
 a1 scaling factor         :     0.3946 
 s8 scaling factor         :     3.2822 
 a2 scaling factor         :     4.8516 
 ad hoc parameters k1-k3   :    16.0000     1.3333    -4.0000 

 Edisp/kcal,au: -21.040767625427  -0.033530593960 
 E6   /kcal   :  -7.890375174 
 E8   /kcal   : -13.150392451 
 % E8         :  62.499585022 

-------------------------   ----------------
Dispersion correction           -0.033530594
-------------------------   ----------------


-------------------------   --------------------
FINAL SINGLE POINT ENERGY      -569.258217740066
-------------------------   --------------------

                                *** OPTIMIZATION RUN DONE ***

                            ***************************************
                            *     ORCA property calculations      *
                            ***************************************

                                    ---------------------
                                    Active property flags
                                    ---------------------
   (+) Dipole Moment


------------------------------------------------------------------------------
                       ORCA ELECTRIC PROPERTIES CALCULATION
------------------------------------------------------------------------------

Dipole Moment Calculation                       ... on
Quadrupole Moment Calculation                   ... off
Polarizability Calculation                      ... off
GBWName                                         ... DPP2F_T_Input_Dimethyl_Diketopyrrolopyrrole_1_Optimize_Monomer.gbw
Electron density file                           ... DPP2F_T_Input_Dimethyl_Diketopyrrolopyrrole_1_Optimize_Monomer.scfp
The origin for moment calculation is the CENTER OF MASS  = (-4.292516,  0.556763  0.006785)

-------------
DIPOLE MOMENT
-------------
                                X             Y             Z
Electronic contribution:     -0.06017      -0.00147      -0.00115
Nuclear contribution   :      0.03978      -0.02040       0.00151
                        -----------------------------------------
Total Dipole Moment    :     -0.02039      -0.02187       0.00035
                        -----------------------------------------
Magnitude (a.u.)       :      0.02990
Magnitude (Debye)      :      0.07599



--------------------
Rotational spectrum 
--------------------
 
Rotational constants in cm-1:     0.073484     0.021424     0.016696 
Rotational constants in MHz :  2202.990787   642.289608   500.539326 

 Dipole components along the rotational axes: 
x,y,z [a.u.] :    -0.029642    -0.003900     0.000138 
x,y,z [Debye]:    -0.075343    -0.009913     0.000350 

 

Timings for individual modules:

Sum of individual times         ...      197.915 sec (=   3.299 min)
GTO integral calculation        ...        8.399 sec (=   0.140 min)   4.2 %
SCF iterations                  ...      130.521 sec (=   2.175 min)  65.9 %
SCF Gradient evaluation         ...       51.523 sec (=   0.859 min)  26.0 %
Geometry relaxation             ...        7.471 sec (=   0.125 min)   3.8 %
                             ****ORCA TERMINATED NORMALLY****
TOTAL RUN TIME: 0 days 0 hours 3 minutes 29 seconds 752 msec
