
                                 *****************
                                 * O   R   C   A *
                                 *****************

           --- An Ab Initio, DFT and Semiempirical electronic structure package ---

                  #######################################################
                  #                        -***-                        #
                  #          Department of theory and spectroscopy      #
                  #               Directorship: Frank Neese             #
                  #        Max Planck Institute fuer Kohlenforschung    #
                  #                Kaiser Wilhelm Platz 1               #
                  #                 D-45470 Muelheim/Ruhr               #
                  #                      Germany                        #
                  #                                                     #
                  #                  All rights reserved                #
                  #                        -***-                        #
                  #######################################################


                         Program Version 4.2.0 -  RELEASE  -


 With contributions from (in alphabetic order):
   Daniel Aravena         : Magnetic Suceptibility
   Michael Atanasov       : Ab Initio Ligand Field Theory (pilot matlab implementation)
   Alexander A. Auer      : GIAO ZORA, VPT2
   Ute Becker             : Parallelization
   Giovanni Bistoni       : ED, misc. LED, open-shell LED, HFLED
   Martin Brehm           : Molecular dynamics
   Dmytro Bykov           : SCF Hessian
   Vijay G. Chilkuri      : MRCI spin determinant printing, contributions to CSF-ICE
   Dipayan Datta          : RHF DLPNO-CCSD density
   Achintya Kumar Dutta   : EOM-CC, STEOM-CC
   Dmitry Ganyushin       : Spin-Orbit,Spin-Spin,Magnetic field MRCI
   Miquel Garcia          : C-PCM Hessian, Gaussian charge scheme
   Yang Guo               : DLPNO-NEVPT2, CIM, IAO-localization
   Andreas Hansen         : Spin unrestricted coupled pair/coupled cluster methods
   Benjamin Helmich-Paris : CASSCF linear response (MC-RPA)
   Lee Huntington         : MR-EOM, pCC
   Robert Izsak           : Overlap fitted RIJCOSX, COSX-SCS-MP3, EOM
   Christian Kollmar      : KDIIS, OOCD, Brueckner-CCSD(T), CCSD density
   Simone Kossmann        : Meta GGA functionals, TD-DFT gradient, OOMP2, MP2 Hessian
   Martin Krupicka        : AUTO-CI
   Lucas Lang             : DCDCAS
   Dagmar Lenk            : GEPOL surface, SMD
   Dimitrios Liakos       : Extrapolation schemes; Compound Job, initial MDCI parallelization
   Dimitrios Manganas     : Further ROCIS development; embedding schemes
   Dimitrios Pantazis     : SARC Basis sets
   Taras Petrenko         : DFT Hessian,TD-DFT gradient, ASA, ECA, R-Raman, ABS, FL, XAS/XES, NRVS
   Peter Pinski           : DLPNO-MP2, DLPNO-MP2 Gradient
   Christoph Reimann      : Effective Core Potentials
   Marius Retegan         : Local ZFS, SOC
   Christoph Riplinger    : Optimizer, TS searches, QM/MM, DLPNO-CCSD(T), (RO)-DLPNO pert. Triples
   Tobias Risthaus        : Range-separated hybrids, TD-DFT gradient, RPA, STAB
   Michael Roemelt        : Original ROCIS implementation
   Masaaki Saitow         : Open-shell DLPNO-CCSD energy and density
   Barbara Sandhoefer     : DKH picture change effects
   Avijit Sen             : IP-ROCIS
   Kantharuban Sivalingam : CASSCF convergence, NEVPT2, FIC-MRCI
   Bernardo de Souza      : ESD, SOC TD-DFT
   Georgi Stoychev        : AutoAux, RI-MP2 NMR
   Willem Van den Heuvel  : Paramagnetic NMR
   Boris Wezisla          : Elementary symmetry handling
   Frank Wennmohs         : Technical directorship


 We gratefully acknowledge several colleagues who have allowed us to
 interface, adapt or use parts of their codes:
   Stefan Grimme, W. Hujo, H. Kruse,             : VdW corrections, initial TS optimization,
                  C. Bannwarth                     DFT functionals, gCP, sTDA/sTD-DF
   Ed Valeev, F. Pavosevic, A. Kumar             : LibInt (2-el integral package), F12 methods
   Garnet Chan, S. Sharma, J. Yang, R. Olivares  : DMRG
   Ulf Ekstrom                                   : XCFun DFT Library
   Mihaly Kallay                                 : mrcc  (arbitrary order and MRCC methods)
   Andreas Klamt, Michael Diedenhofen            : otool_cosmo (COSMO solvation model)
   Jiri Pittner, Ondrej Demel                    : Mk-CCSD
   Frank Weinhold                                : gennbo (NPA and NBO analysis)
   Christopher J. Cramer and Donald G. Truhlar   : smd solvation model
   Lars Goerigk                                  : TD-DFT with DH, B97 family of functionals
   V. Asgeirsson, H. Jonsson                     : NEB implementation
   FAccTs GmbH                                   : IRC, NEB, NEB-TS, Multilevel, MM, QM/MM, CI optimization
   S Lehtola, MJT Oliveira, MAL Marques          : LibXC Library


 Your calculation uses the libint2 library for the computation of 2-el integrals
 For citations please refer to: http://libint.valeyev.net

 Your ORCA version has been built with support for libXC version: 4.2.3
 For citations please refer to: https://tddft.org/programs/libxc/

 This ORCA versions uses:
   CBLAS   interface :  Fast vector & matrix operations
   LAPACKE interface :  Fast linear algebra routines
   SCALAPACK package :  Parallel linear algebra routines


Your calculation utilizes the atom-pairwise dispersion correction
with the Becke-Johnson damping scheme (D3BJ)
Cite in your paper:
S.Grimme, S.Ehrlich, L.Goerigk, J Comput Chem, (2011), 32, 1456–1465 
S.Grimme, J.Antony, S.Ehrlich and H.Krieg, J.Chem.Phys., 132, (2010), 154104 
   

----- Orbital basis set information -----
Your calculation utilizes the basis: def2-SVP
   F. Weigend and R. Ahlrichs, Phys. Chem. Chem. Phys. 7, 3297 (2005).

----- AuxJ basis set information -----
Your calculation utilizes the auxiliary basis: def2/J
   F. Weigend, Phys. Chem. Chem. Phys. 8, 1057 (2006).

================================================================================
                                        WARNINGS
                       Please study these warnings very carefully!
================================================================================


WARNING: Geometry Optimization
  ===> : Switching off AutoStart
         For restart on a previous wavefunction, please use MOREAD

INFO   : the flag for use of LIBINT has been found!

================================================================================
                                       INPUT FILE
================================================================================
NAME = DPP2T_T_Optimize_Monomer.inp
|  1> ! RI BP86 def2-SVP def2/J D3BJ TIGHTSCF  Opt Grid3 FinalGrid5
|  2> %maxcore 3000
|  3> %geom
|  4> Constraints
|  5> {D 1 5 58 64 0.0 C}
|  6> {D 6 5 58 59 0.0 C}
|  7> {D 2 3 18 19 0.0 C}
|  8> {D 4 3 18 24 0.0 C}
|  9> {D 20 22 25 31 0.0 C}
| 10> {D 24 22 25 26 0.0 C}
| 11> {D 27 29 32 38 0.0 C}
| 12> {D 31 29 32 33 0.0 C}
| 13> {D 34 36 39 41 0.0 C}
| 14> {D 38 36 39 40 0.0 C}
| 15> end
| 16> end
| 17> 
| 18> *xyz 0 1
| 19> C	-5.714796	-0.222522	0.261672
| 20> C	-4.625566	-1.183882	0.054932
| 21> N	-5.044196	1.015408	0.265572
| 22> C	-3.656806	0.866868	0.097252
| 23> C	-3.386006	-0.442182	-0.034208
| 24> C	-4.375226	-2.489062	-0.074158
| 25> N	-3.005836	-2.669922	-0.245908
| 26> C	-2.312996	-1.444432	-0.246938
| 27> O	-6.897436	-0.456242	0.401652
| 28> O	-1.124016	-1.254642	-0.399478
| 29> C	-5.789156	2.237058	0.421462
| 30> H	-6.829226	2.025758	0.688832
| 31> H	-5.799246	2.772208	-0.532278
| 32> H	-5.348666	2.848818	1.212322
| 33> C	-2.329056	-3.929372	-0.432468
| 34> H	-2.856646	-4.534712	-1.174618
| 35> H	-2.287046	-4.455382	0.525622
| 36> H	-1.304056	-3.766202	-0.777608
| 37> C	-2.709206	1.945198	0.067612
| 38> C	-2.888946	3.289668	-0.232308
| 39> C	-1.695926	4.072878	-0.174168
| 40> H	-3.835596	3.728518	-0.511708
| 41> C	-0.579706	3.323778	0.131302
| 42> H	-1.670196	5.132968	-0.395868
| 43> S	-1.042396	1.711268	0.476892
| 44> C	0.804744	3.759228	0.175742
| 45> C	1.943434	2.974998	0.179012
| 46> C	3.149264	3.741728	0.180152
| 47> H	1.929774	1.891148	0.156762
| 48> C	2.924534	5.106818	0.179092
| 49> H	4.135924	3.292698	0.159992
| 50> S	1.235454	5.424208	0.193702
| 51> C	3.909544	6.173818	0.142122
| 52> C	3.714114	7.512838	-0.122388
| 53> C	4.938864	8.250108	-0.187108
| 54> H	2.743654	7.955608	-0.311778
| 55> C	6.076644	7.500268	0.085222
| 56> H	4.949754	9.299298	-0.445428
| 57> S	5.567364	5.884468	0.446302
| 58> C	7.465054	7.873598	0.108992
| 59> C	8.516824	7.031738	0.071622
| 60> N	7.955644	9.195338	0.175382
| 61> C	9.361974	9.240268	0.153252
| 62> C	9.723154	7.828028	0.105962
| 63> C	10.792994	7.040308	0.090052
| 64> C	8.971274	5.612128	0.008502
| 65> N	10.376064	5.724788	0.042722
| 66> H	11.835964	7.320438	0.112172
| 67> C	7.213144	10.424908	0.238702
| 68> H	6.364424	10.333868	0.918722
| 69> H	6.887814	10.694258	-0.770468
| 70> H	7.851094	11.232458	0.613652
| 71> C	11.272744	4.596968	0.035832
| 72> H	10.712014	3.658458	0.029122
| 73> H	11.899064	4.633598	0.932322
| 74> H	11.904284	4.646928	-0.855658
| 75> O	10.124354	10.185538	0.167462
| 76> O	8.303264	4.601688	-0.058608
| 77> C	-5.334896	-3.536822	-0.049388
| 78> C	-5.298336	-4.746712	0.630492
| 79> C	-6.441106	-5.566812	0.397222
| 80> H	-4.483596	-5.037122	1.282362
| 81> C	-7.337826	-4.962572	-0.450098
| 82> H	-6.600776	-6.543662	0.837442
| 83> S	-6.777816	-3.446552	-0.995708
| 84> H	-8.293826	-5.341902	-0.784848
| 85> **                         ****END OF INPUT****
================================================================================

                       *****************************
                       * Geometry Optimization Run *
                       *****************************

Geometry optimization settings:
Update method            Update   .... BFGS
Choice of coordinates    CoordSys .... Z-matrix Internals
Initial Hessian          InHess   .... Almoef's Model

Convergence Tolerances:
Energy Change            TolE     ....  5.0000e-06 Eh
Max. Gradient            TolMAXG  ....  3.0000e-04 Eh/bohr
RMS Gradient             TolRMSG  ....  1.0000e-04 Eh/bohr
Max. Displacement        TolMAXD  ....  4.0000e-03 bohr
RMS Displacement         TolRMSD  ....  2.0000e-03 bohr
Strict Convergence                ....  False
------------------------------------------------------------------------------
                        ORCA OPTIMIZATION COORDINATE SETUP
------------------------------------------------------------------------------

The optimization will be done in new redundant internal coordinates
Making redundant internal coordinates   ...  (new redundants) done
Evaluating the initial hessian          ...  (Almloef) done
Evaluating the coordinates              ...  done
Calculating the B-matrix                .... done
Calculating the G-matrix                .... done
Diagonalizing the G-matrix              .... done
Imposing constraints:
 Iter   0:  RMS(Cart)=    0.2893030712 RMS(Int)=    0.2628560324
 Iter   1:  RMS(Cart)=    0.1471162229 RMS(Int)=    0.1580856167
 Iter   2:  RMS(Cart)=    0.1107190676 RMS(Int)=    0.0896941052
 Iter   3:  RMS(Cart)=    0.0680730686 RMS(Int)=    0.0504475487
 Iter   4:  RMS(Cart)=    0.0363166372 RMS(Int)=    0.0291715564
 Iter   5:  RMS(Cart)=    0.0198046909 RMS(Int)=    0.0172757970
 Iter   6:  RMS(Cart)=    0.0110262643 RMS(Int)=    0.0104518751
 Iter   7:  RMS(Cart)=    0.0062738083 RMS(Int)=    0.0064464335
 Iter   8:  RMS(Cart)=    0.0036552007 RMS(Int)=    0.0040445467
 Iter   9:  RMS(Cart)=    0.0021836479 RMS(Int)=    0.0025753408
 Iter  10:  RMS(Cart)=    0.0013374922 RMS(Int)=    0.0016603318
 Iter  11:  RMS(Cart)=    0.0008382675 RMS(Int)=    0.0010814266
 Iter  12:  RMS(Cart)=    0.0005357929 RMS(Int)=    0.0007102425
 Iter  13:  RMS(Cart)=    0.0003478797 RMS(Int)=    0.0004696022
 Iter  14:  RMS(Cart)=    0.0002285874 RMS(Int)=    0.0003121854
 Iter  15:  RMS(Cart)=    0.0001515316 RMS(Int)=    0.0002084597
 Iter  16:  RMS(Cart)=    0.0001010960 RMS(Int)=    0.0001397101
 Iter  17:  RMS(Cart)=    0.0000677620 RMS(Int)=    0.0000939246
 Iter  18:  RMS(Cart)=    0.0000455753 RMS(Int)=    0.0000633121
 Iter  19:  RMS(Cart)=    0.0000307331 RMS(Int)=    0.0000427767
 Iter  20:  RMS(Cart)=    0.0000207671 RMS(Int)=    0.0000289623
 Iter  21:  RMS(Cart)=    0.0000140566 RMS(Int)=    0.0000196463
 Iter  22:  RMS(Cart)=    0.0000095284 RMS(Int)=    0.0000133501
 Iter  23:  RMS(Cart)=    0.0000064672 RMS(Int)=    0.0000090865
 Iter  24:  RMS(Cart)=    0.0000043948 RMS(Int)=    0.0000061940
 Iter  25:  RMS(Cart)=    0.0000029898 RMS(Int)=    0.0000042284
 Iter  26:  RMS(Cart)=    0.0000020362 RMS(Int)=    0.0000028906
 Iter  27:  RMS(Cart)=    0.0000013883 RMS(Int)=    0.0000019787
 Iter  28:  RMS(Cart)=    0.0000009474 RMS(Int)=    0.0000013562
 Iter  29:  RMS(Cart)=    0.0000006473 RMS(Int)=    0.0000009307
 Iter  30:  RMS(Cart)=    0.0000004426 RMS(Int)=    0.0000006394
 Iter  31:  RMS(Cart)=    0.0000003030 RMS(Int)=    0.0000004398
 Iter  32:  RMS(Cart)=    0.0000002076 RMS(Int)=    0.0000003029
 Iter  33:  RMS(Cart)=    0.0000001424 RMS(Int)=    0.0000002088
 Iter  34:  RMS(Cart)=    0.0000000977 RMS(Int)=    0.0000001441
 Iter  35:  RMS(Cart)=    0.0000000672 RMS(Int)=    0.0000000995
CONVERGED
Small eigenvalue found = 2.963e-04
Small eigenvalue found = 1.599e-03
Small eigenvalue found = 1.791e-03
Small eigenvalue found = 2.867e-03
Small eigenvalue found = 5.505e-03
Small eigenvalue found = 7.436e-03
Small eigenvalue found = 9.864e-03
Small eigenvalue found = 1.158e-02
Small eigenvalue found = 2.262e-02
Small eigenvalue found = 2.716e-02
Small eigenvalue found = 2.996e-02
The first mode is                       ....  185
The number of degrees of freedom        ....  192
Storing new coordinates                 .... done

    -----------------------------------------------------------------
                    Redundant Internal Coordinates


    -----------------------------------------------------------------
         Definition                    Initial Value    Approx d2E/dq
    -----------------------------------------------------------------
      1. B(C   1,C   0)                  1.5013         0.470100   
      2. B(N   2,C   0)                  1.4117         0.523978   
      3. B(C   3,N   2)                  1.4457         0.528750   
      4. B(C   4,C   1)                  1.4703         0.506264   
      5. B(C   4,C   3)                  1.3507         0.741961   
      6. B(C   5,C   1)                  1.3423         0.764058   
      7. B(N   6,C   5)                  1.4315         0.555667   
      8. B(C   7,C   4)                  1.5166         0.442980   
      9. B(C   7,N   6)                  1.4120         0.524207   
     10. B(O   8,C   0)                  1.2437         1.069768   
     11. B(O   9,C   7)                  1.2445         1.069597   
     12. B(C  10,N   2)                  1.4594         0.466830   
     13. B(H  11,C  10)                  1.1214         0.354226   
     14. B(H  12,C  10)                  1.1166         0.355282   
     15. B(H  13,C  10)                  1.1136         0.356697   
     16. B(C  14,N   6)                  1.4597         0.462473   
     17. B(H  15,C  14)                  1.1138         0.355600   
     18. B(H  16,C  14)                  1.1169         0.355114   
     19. B(H  17,C  14)                  1.1214         0.355124   
     20. B(C  18,C   3)                  1.4474         0.527975   
     21. B(C  19,C  18)                  1.4287         0.626651   
     22. B(C  20,C  19)                  1.4308         0.542754   
     23. B(H  21,C  19)                  1.0969         0.373321   
     24. B(C  22,C  20)                  1.4061         0.651629   
     25. B(H  23,C  20)                  1.1115         0.369033   
     26. B(S  24,C  18)                  1.7468         0.479249   
     27. B(S  24,C  22)                  1.7494         0.514625   
     28. B(C  25,C  22)                  1.4522         0.497539   
     29. B(C  26,C  25)                  1.3828         0.641964   
     30. B(C  27,C  26)                  1.4292         0.541494   
     31. B(H  28,C  26)                  1.0846         0.367903   
     32. B(C  29,C  27)                  1.3840         0.639978   
     33. B(H  30,C  27)                  1.0843         0.367828   
     34. B(S  31,C  25)                  1.7204         0.501420   
     35. B(S  31,C  29)                  1.7188         0.503595   
     36. B(C  32,C  29)                  1.4528         0.496403   
     37. B(C  33,C  32)                  1.3960         0.651002   
     38. B(C  34,C  33)                  1.4358         0.537430   
     39. B(H  35,C  33)                  1.1084         0.368968   
     40. B(C  36,C  34)                  1.4234         0.625733   
     41. B(H  37,C  34)                  1.0904         0.372783   
     42. B(S  38,C  32)                  1.7450         0.519668   
     43. B(S  38,C  36)                  1.7382         0.479215   
     44. B(C  39,C  36)                  1.4518         0.523939   
     45. B(C  40,C  39)                  1.3485         0.729787   
     46. B(N  41,C  39)                  1.4354         0.517267   
     47. B(C  42,N  41)                  1.4150         0.525291   
     48. B(C  43,C  40)                  1.4669         0.508897   
     49. B(C  43,C  42)                  1.4715         0.485862   
     50. B(C  44,C  43)                  1.3292         0.782739   
     51. B(C  45,C  40)                  1.5038         0.429679   
     52. B(N  46,C  44)                  1.4042         0.578791   
     53. B(N  46,C  45)                  1.4184         0.520500   
     54. B(H  47,C  44)                  1.0903         0.373353   
     55. B(C  48,N  41)                  1.4436         0.469543   
     56. B(H  49,C  48)                  1.1048         0.358321   
     57. B(H  50,C  48)                  1.1090         0.354861   
     58. B(H  51,C  48)                  1.1142         0.353143   
     59. B(C  52,N  46)                  1.4442         0.464238   
     60. B(H  53,C  52)                  1.1128         0.355785   
     61. B(H  54,C  52)                  1.1078         0.354563   
     62. B(H  55,C  52)                  1.1103         0.355290   
     63. B(O  56,C  42)                  1.2356         1.066368   
     64. B(O  57,C  45)                  1.2347         1.071594   
     65. B(C  58,C   5)                  1.4337         0.557444   
     66. B(C  59,C  58)                  1.6391         0.628685   
     67. B(C  60,C  59)                  1.4381         0.547802   
     68. B(H  61,C  59)                  1.3009         0.369364   
     69. B(C  62,C  60)                  1.6904         0.663253   
     70. B(H  63,C  60)                  1.2337         0.369082   
     71. B(S  64,C  58)                  2.0001         0.486839   
     72. B(S  64,C  62)                  1.8623         0.528118   
     73. B(H  65,C  62)                  1.1316         0.371369   
     74. A(N   2,C   0,O   8)          129.1548         0.458661   
     75. A(C   1,C   0,N   2)          101.7170         0.398433   
     76. A(C   1,C   0,O   8)          129.1246         0.452686   
     77. A(C   0,C   1,C   4)          109.4937         0.398582   
     78. A(C   0,C   1,C   5)          142.4203         0.428807   
     79. A(C   4,C   1,C   5)          108.0851         0.434556   
     80. A(C   3,N   2,C  10)          128.8144         0.396032   
     81. A(C   0,N   2,C  10)          118.7424         0.395403   
     82. A(C   0,N   2,C   3)          112.4415         0.404163   
     83. A(N   2,C   3,C  18)          125.6820         0.407325   
     84. A(N   2,C   3,C   4)          109.0987         0.432808   
     85. A(C   4,C   3,C  18)          125.2179         0.435546   
     86. A(C   1,C   4,C   3)          107.2465         0.432268   
     87. A(C   1,C   4,C   7)          107.9192         0.394446   
     88. A(C   3,C   4,C   7)          144.8313         0.422048   
     89. A(N   6,C   5,C  58)          125.4897         0.414905   
     90. A(C   1,C   5,N   6)          109.6293         0.439011   
     91. A(C   1,C   5,C  58)          124.8688         0.442170   
     92. A(C   5,N   6,C   7)          112.1578         0.407757   
     93. A(C   7,N   6,C  14)          120.6861         0.394784   
     94. A(C   5,N   6,C  14)          127.1449         0.398844   
     95. A(C   4,C   7,N   6)          102.2049         0.394330   
     96. A(N   6,C   7,O   9)          128.1421         0.458684   
     97. A(C   4,C   7,O   9)          129.6453         0.447814   
     98. A(N   2,C  10,H  11)          112.1588         0.333544   
     99. A(H  11,C  10,H  13)          107.8152         0.289658   
    100. A(N   2,C  10,H  13)          109.2350         0.333929   
    101. A(N   2,C  10,H  12)          108.1390         0.333709   
    102. A(H  11,C  10,H  12)          106.9036         0.289477   
    103. A(H  12,C  10,H  13)          112.6295         0.289793   
    104. A(H  15,C  14,H  17)          108.2623         0.289633   
    105. A(H  16,C  14,H  17)          107.7924         0.289571   
    106. A(N   6,C  14,H  15)          109.1819         0.333239   
    107. A(N   6,C  14,H  16)          108.0845         0.333164   
    108. A(H  15,C  14,H  16)          111.7155         0.289632   
    109. A(N   6,C  14,H  17)          111.8315         0.333165   
    110. A(C   3,C  18,C  19)          130.7110         0.422547   
    111. A(C   3,C  18,S  24)          120.3261         0.424941   
    112. A(C  19,C  18,S  24)          108.9615         0.438225   
    113. A(C  18,C  19,C  20)          114.4878         0.424638   
    114. A(C  18,C  19,H  21)          125.3678         0.355715   
    115. A(C  20,C  19,H  21)          120.1287         0.347178   
    116. A(C  19,C  20,C  22)          111.6347         0.427621   
    117. A(C  19,C  20,H  23)          123.0549         0.346503   
    118. A(C  22,C  20,H  23)          125.2392         0.357382   
    119. A(C  20,C  22,S  24)          111.3645         0.447054   
    120. A(C  20,C  22,C  25)          127.3697         0.421019   
    121. A(S  24,C  22,C  25)          121.2620         0.425843   
    122. A(C  18,S  24,C  22)           93.2730         0.446448   
    123. A(C  22,C  25,C  26)          127.9483         0.419898   
    124. A(C  22,C  25,S  31)          121.9765         0.423867   
    125. A(C  26,C  25,S  31)          110.0715         0.443752   
    126. A(C  25,C  26,C  27)          112.9664         0.426300   
    127. A(C  25,C  26,H  28)          123.8343         0.356290   
    128. A(C  27,C  26,H  28)          123.1820         0.346190   
    129. A(C  26,C  27,H  30)          123.0567         0.346178   
    130. A(C  26,C  27,C  29)          113.1113         0.426063   
    131. A(C  29,C  27,H  30)          123.8178         0.356091   
    132. A(C  27,C  29,S  31)          109.9883         0.443850   
    133. A(C  27,C  29,C  32)          127.9416         0.419495   
    134. A(S  31,C  29,C  32)          122.0675         0.424022   
    135. A(C  25,S  31,C  29)           93.8429         0.448359   
    136. A(C  29,C  32,C  33)          127.7102         0.420775   
    137. A(C  29,C  32,S  38)          121.4187         0.426413   
    138. A(C  33,C  32,S  38)          110.8684         0.447767   
    139. A(C  34,C  33,H  35)          123.4311         0.345919   
    140. A(C  32,C  33,C  34)          111.6683         0.426792   
    141. A(C  32,C  33,H  35)          124.8301         0.357313   
    142. A(C  33,C  34,C  36)          114.8480         0.423779   
    143. A(C  33,C  34,H  37)          120.1831         0.346518   
    144. A(C  36,C  34,H  37)          124.9601         0.355539   
    145. A(C  34,C  36,S  38)          108.2326         0.438104   
    146. A(C  34,C  36,C  39)          131.4412         0.421858   
    147. A(S  38,C  36,C  39)          120.3259         0.424353   
    148. A(C  32,S  38,C  36)           94.1273         0.447232   
    149. A(C  36,C  39,C  40)          125.5712         0.433651   
    150. A(C  36,C  39,N  41)          126.1043         0.405197   
    151. A(C  40,C  39,N  41)          108.3242         0.429825   
    152. A(C  39,C  40,C  43)          107.3216         0.431387   
    153. A(C  39,C  40,C  45)          146.0785         0.418522   
    154. A(C  43,C  40,C  45)          106.5999         0.392702   
    155. A(C  39,N  41,C  42)          112.7483         0.402779   
    156. A(C  39,N  41,C  48)          128.7929         0.394911   
    157. A(C  42,N  41,C  48)          118.4515         0.395979   
    158. A(N  41,C  42,C  43)          101.5836         0.400928   
    159. A(N  41,C  42,O  56)          131.0210         0.458604   
    160. A(C  43,C  42,O  56)          127.3954         0.455147   
    161. A(C  40,C  43,C  42)          109.9962         0.401267   
    162. A(C  40,C  43,C  44)          109.7030         0.436858   
    163. A(C  42,C  43,C  44)          140.2998         0.433230   
    164. A(C  43,C  44,N  46)          108.6611         0.444193   
    165. A(C  43,C  44,H  47)          127.9784         0.369490   
    166. A(N  46,C  44,H  47)          123.3601         0.348811   
    167. A(C  40,C  45,N  46)          102.1176         0.391744   
    168. A(C  40,C  45,O  57)          129.3835         0.445498   
    169. A(N  46,C  45,O  57)          128.4987         0.458247   
    170. A(C  44,N  46,C  45)          112.9011         0.410196   
    171. A(C  44,N  46,C  52)          124.0248         0.401986   
    172. A(C  45,N  46,C  52)          123.0735         0.394556   
    173. A(N  41,C  48,H  49)          110.3344         0.334503   
    174. A(N  41,C  48,H  50)          108.3347         0.333964   
    175. A(H  49,C  48,H  50)          112.1176         0.289946   
    176. A(N  41,C  48,H  51)          110.7359         0.333695   
    177. A(H  49,C  48,H  51)          107.4617         0.289725   
    178. A(H  50,C  48,H  51)          107.8413         0.289285   
    179. A(N  46,C  52,H  53)          110.9816         0.333479   
    180. A(N  46,C  52,H  54)          108.3360         0.333289   
    181. A(H  53,C  52,H  54)          109.2198         0.289585   
    182. A(N  46,C  52,H  55)          108.7084         0.333402   
    183. A(H  53,C  52,H  55)          109.3476         0.289678   
    184. A(H  54,C  52,H  55)          110.2377         0.289522   
    185. A(C   5,C  58,C  59)          126.3592         0.426921   
    186. A(C   5,C  58,S  64)          113.0259         0.430308   
    187. A(C  59,C  58,S  64)          120.6000         0.439727   
    188. A(C  58,C  59,C  60)          106.6377         0.425589   
    189. A(C  58,C  59,H  61)          132.7246         0.355268   
    190. A(C  60,C  59,H  61)          120.6359         0.347096   
    191. A(C  59,C  60,C  62)          110.9703         0.429692   
    192. A(C  59,C  60,H  63)          116.9657         0.347051   
    193. A(C  62,C  60,H  63)          132.0579         0.358467   
    194. A(C  60,C  62,S  64)          120.6696         0.450602   
    195. A(C  60,C  62,H  65)          130.1445         0.358843   
    196. A(S  64,C  62,H  65)          109.1835         0.363273   
    197. A(C  58,S  64,C  62)           81.0724         0.449829   
    198. D(C   5,C   1,C   0,O   8)      0.6975         0.015048   
    199. D(C   5,C   1,C   0,N   2)   -179.9538         0.015048   
    200. D(C   4,C   1,C   0,O   8)   -178.8929         0.015048   
    201. D(C   4,C   1,C   0,N   2)      0.4557         0.015048   
    202. D(C   3,N   2,C   0,C   1)     -0.5109         0.021781   
    203. D(C   3,N   2,C   0,O   8)    178.8374         0.021781   
    204. D(C  10,N   2,C   0,C   1)    179.0510         0.021781   
    205. D(C  10,N   2,C   0,O   8)     -1.6007         0.021781   
    206. D(C   4,C   3,N   2,C  10)   -179.1084         0.022197   
    207. D(C  18,C   3,N   2,C  10)      1.3018         0.022197   
    208. D(C  18,C   3,N   2,C   0)   -179.1912         0.022197   
    209. D(C   4,C   3,N   2,C   0)      0.3986         0.022197   
    210. D(C   3,C   4,C   1,C   0)     -0.2458         0.017463   
    211. D(C   3,C   4,C   1,C   5)   -179.9830         0.017463   
    212. D(C   7,C   4,C   1,C   0)   -179.7771         0.017463   
    213. D(C   7,C   4,C   1,C   5)      0.4856         0.017463   
    214. D(C   1,C   4,C   3,N   2)     -0.0748         0.039179   
    215. D(C   1,C   4,C   3,C  18)    179.5173         0.039179   
    216. D(C   7,C   4,C   3,N   2)    179.1509         0.039179   
    217. D(C   7,C   4,C   3,C  18)     -1.2569         0.039179   
    218. D(N   6,C   5,C   1,C   0)   -179.7484         0.041785   
    219. D(N   6,C   5,C   1,C   4)     -0.1545         0.041785   
    220. D(C  58,C   5,C   1,C   0)      1.4663         0.041785   
    221. D(C  58,C   5,C   1,C   4)   -178.9398         0.041785   
    222. D(C   7,N   6,C   5,C   1)     -0.2654         0.024637   
    223. D(C   7,N   6,C   5,C  58)    178.5106         0.024637   
    224. D(C  14,N   6,C   5,C   1)   -179.0412         0.024637   
    225. D(C  14,N   6,C   5,C  58)     -0.2652         0.024637   
    226. D(N   6,C   7,C   4,C   1)     -0.6062         0.013385   
    227. D(N   6,C   7,C   4,C   3)   -179.8291         0.013385   
    228. D(O   9,C   7,C   4,C   1)    178.4372         0.013385   
    229. D(O   9,C   7,C   4,C   3)     -0.7857         0.013385   
    230. D(C   4,C   7,N   6,C   5)      0.5331         0.021801   
    231. D(C   4,C   7,N   6,C  14)    179.3984         0.021801   
    232. D(O   9,C   7,N   6,C   5)   -178.5303         0.021801   
    233. D(O   9,C   7,N   6,C  14)      0.3350         0.021801   
    234. D(H  11,C  10,N   2,C   0)      9.5249         0.018614   
    235. D(H  11,C  10,N   2,C   3)   -170.9947         0.018614   
    236. D(H  12,C  10,N   2,C   0)   -108.1067         0.018614   
    237. D(H  12,C  10,N   2,C   3)     71.3736         0.018614   
    238. D(H  13,C  10,N   2,C   0)    128.9956         0.018614   
    239. D(H  13,C  10,N   2,C   3)    -51.5240         0.018614   
    240. D(H  15,C  14,N   6,C   5)     46.5237         0.018261   
    241. D(H  15,C  14,N   6,C   7)   -132.1579         0.018261   
    242. D(H  16,C  14,N   6,C   5)    -75.1923         0.018261   
    243. D(H  16,C  14,N   6,C   7)    106.1261         0.018261   
    244. D(H  17,C  14,N   6,C   5)    166.3113         0.018261   
    245. D(H  17,C  14,N   6,C   7)    -12.3703         0.018261   
    246. D(C  19,C  18,C   3,N   2)      0.0000         0.019024 C 
    247. D(C  19,C  18,C   3,C   4)   -179.5255         0.019024   
    248. D(S  24,C  18,C   3,N   2)    179.5255         0.019024   
    249. D(S  24,C  18,C   3,C   4)     -0.0000         0.019024 C 
    250. D(C  20,C  19,C  18,C   3)   -178.6309         0.027209   
    251. D(C  20,C  19,C  18,S  24)      1.8022         0.027209   
    252. D(H  21,C  19,C  18,C   3)     -0.0790         0.027209   
    253. D(H  21,C  19,C  18,S  24)   -179.6460         0.027209   
    254. D(C  22,C  20,C  19,C  18)      1.9828         0.020135   
    255. D(C  22,C  20,C  19,H  21)   -176.6519         0.020135   
    256. D(H  23,C  20,C  19,C  18)    179.0576         0.020135   
    257. D(H  23,C  20,C  19,H  21)      0.4229         0.020135   
    258. D(S  24,C  22,C  20,C  19)     -4.8755         0.029575   
    259. D(S  24,C  22,C  20,H  23)    178.1265         0.029575   
    260. D(C  25,C  22,C  20,C  19)    174.4159         0.029575   
    261. D(C  25,C  22,C  20,H  23)     -2.5822         0.029575   
    262. D(C  22,S  24,C  18,C   3)    176.5059         0.004890   
    263. D(C  22,S  24,C  18,C  19)     -3.8744         0.004890   
    264. D(C  18,S  24,C  22,C  20)      5.1226         0.005437   
    265. D(C  18,S  24,C  22,C  25)   -174.2186         0.005437   
    266. D(C  26,C  25,C  22,C  20)   -179.2280         0.016860   
    267. D(C  26,C  25,C  22,S  24)     -0.0000         0.016860 C 
    268. D(S  31,C  25,C  22,C  20)      0.0000         0.016860 C 
    269. D(S  31,C  25,C  22,S  24)    179.2280         0.016860   
    270. D(C  27,C  26,C  25,C  22)    178.3068         0.028645   
    271. D(C  27,C  26,C  25,S  31)     -0.9960         0.028645   
    272. D(H  28,C  26,C  25,C  22)     -0.2177         0.028645   
    273. D(H  28,C  26,C  25,S  31)   -179.5205         0.028645   
    274. D(C  29,C  27,C  26,C  25)      0.0726         0.020038   
    275. D(C  29,C  27,C  26,H  28)    178.6082         0.020038   
    276. D(H  30,C  27,C  26,C  25)   -178.6051         0.020038   
    277. D(H  30,C  27,C  26,H  28)     -0.0696         0.020038   
    278. D(S  31,C  29,C  27,C  26)      0.8864         0.028456   
    279. D(S  31,C  29,C  27,H  30)    179.5525         0.028456   
    280. D(C  32,C  29,C  27,C  26)   -178.5228         0.028456   
    281. D(C  32,C  29,C  27,H  30)      0.1433         0.028456   
    282. D(C  29,S  31,C  25,C  22)   -178.0624         0.005228   
    283. D(C  29,S  31,C  25,C  26)      1.2894         0.005228   
    284. D(C  25,S  31,C  29,C  27)     -1.2470         0.005262   
    285. D(C  25,S  31,C  29,C  32)    178.2031         0.005262   
    286. D(C  33,C  32,C  29,C  27)    179.3448         0.016782   
    287. D(C  33,C  32,C  29,S  31)      0.0000         0.016782 C 
    288. D(S  38,C  32,C  29,C  27)     -0.0000         0.016782 C 
    289. D(S  38,C  32,C  29,S  31)   -179.3448         0.016782   
    290. D(C  34,C  33,C  32,C  29)   -174.3867         0.029515   
    291. D(C  34,C  33,C  32,S  38)      5.0148         0.029515   
    292. D(H  35,C  33,C  32,C  29)      2.6380         0.029515   
    293. D(H  35,C  33,C  32,S  38)   -177.9604         0.029515   
    294. D(C  36,C  34,C  33,C  32)     -2.6772         0.019730   
    295. D(C  36,C  34,C  33,H  35)   -179.7508         0.019730   
    296. D(H  37,C  34,C  33,C  32)    176.2920         0.019730   
    297. D(H  37,C  34,C  33,H  35)     -0.7816         0.019730   
    298. D(S  38,C  36,C  34,C  33)     -0.9295         0.027124   
    299. D(S  38,C  36,C  34,H  37)   -179.8423         0.027124   
    300. D(C  39,C  36,C  34,C  33)    179.2753         0.027124   
    301. D(C  39,C  36,C  34,H  37)      0.3626         0.027124   
    302. D(C  36,S  38,C  32,C  29)    174.5888         0.005518   
    303. D(C  36,S  38,C  32,C  33)     -4.8565         0.005518   
    304. D(C  32,S  38,C  36,C  34)      3.2327         0.004890   
    305. D(C  32,S  38,C  36,C  39)   -176.9452         0.004890   
    306. D(C  40,C  39,C  36,C  34)    179.7746         0.018727   
    307. D(C  40,C  39,C  36,S  38)     -0.0000         0.018727 C 
    308. D(N  41,C  39,C  36,C  34)     -0.0000         0.018727 C 
    309. D(N  41,C  39,C  36,S  38)   -179.7746         0.018727   
    310. D(C  43,C  40,C  39,C  36)    179.7468         0.037787   
    311. D(C  43,C  40,C  39,N  41)     -0.4450         0.037787   
    312. D(C  45,C  40,C  39,C  36)     -0.2066         0.037787   
    313. D(C  45,C  40,C  39,N  41)    179.6015         0.037787   
    314. D(C  42,N  41,C  39,C  36)   -178.7888         0.021204   
    315. D(C  42,N  41,C  39,C  40)      1.4044         0.021204   
    316. D(C  48,N  41,C  39,C  36)      0.1956         0.021204   
    317. D(C  48,N  41,C  39,C  40)   -179.6113         0.021204   
    318. D(C  43,C  42,N  41,C  39)     -1.6479         0.021895   
    319. D(C  43,C  42,N  41,C  48)    179.2525         0.021895   
    320. D(O  56,C  42,N  41,C  39)    178.3556         0.021895   
    321. D(O  56,C  42,N  41,C  48)     -0.7440         0.021895   
    322. D(C  42,C  43,C  40,C  39)     -0.5875         0.017648   
    323. D(C  42,C  43,C  40,C  45)    179.3854         0.017648   
    324. D(C  44,C  43,C  40,C  39)    179.1317         0.017648   
    325. D(C  44,C  43,C  40,C  45)     -0.8954         0.017648   
    326. D(C  40,C  43,C  42,N  41)      1.3377         0.016073   
    327. D(C  40,C  43,C  42,O  56)   -178.6657         0.016073   
    328. D(C  44,C  43,C  42,N  41)   -178.2485         0.016073   
    329. D(C  44,C  43,C  42,O  56)      1.7481         0.016073   
    330. D(N  46,C  44,C  43,C  40)      0.1228         0.044070   
    331. D(N  46,C  44,C  43,C  42)    179.7098         0.044070   
    332. D(H  47,C  44,C  43,C  40)   -179.6537         0.044070   
    333. D(H  47,C  44,C  43,C  42)     -0.0667         0.044070   
    334. D(N  46,C  45,C  40,C  39)   -178.7936         0.012615   
    335. D(N  46,C  45,C  40,C  43)      1.2528         0.012615   
    336. D(O  57,C  45,C  40,C  39)      1.3463         0.012615   
    337. D(O  57,C  45,C  40,C  43)   -178.6074         0.012615   
    338. D(C  45,N  46,C  44,C  43)      0.7740         0.026862   
    339. D(C  45,N  46,C  44,H  47)   -179.4369         0.026862   
    340. D(C  52,N  46,C  44,C  43)   -178.9288         0.026862   
    341. D(C  52,N  46,C  44,H  47)      0.8603         0.026862   
    342. D(C  44,N  46,C  45,C  40)     -1.2576         0.021481   
    343. D(C  44,N  46,C  45,O  57)    178.6043         0.021481   
    344. D(C  52,N  46,C  45,C  40)    178.4485         0.021481   
    345. D(C  52,N  46,C  45,O  57)     -1.6896         0.021481   
    346. D(H  49,C  48,N  41,C  39)     42.1025         0.018836   
    347. D(H  49,C  48,N  41,C  42)   -138.9628         0.018836   
    348. D(H  50,C  48,N  41,C  39)    -80.9780         0.018836   
    349. D(H  50,C  48,N  41,C  42)     97.9566         0.018836   
    350. D(H  51,C  48,N  41,C  39)    160.9499         0.018836   
    351. D(H  51,C  48,N  41,C  42)    -20.1155         0.018836   
    352. D(H  53,C  52,N  46,C  44)    178.0844         0.018404   
    353. D(H  53,C  52,N  46,C  45)     -1.5889         0.018404   
    354. D(H  54,C  52,N  46,C  44)     58.1820         0.018404   
    355. D(H  54,C  52,N  46,C  45)   -121.4913         0.018404   
    356. D(H  55,C  52,N  46,C  44)    -61.6183         0.018404   
    357. D(H  55,C  52,N  46,C  45)    118.7084         0.018404   
    358. D(C  59,C  58,C   5,C   1)    178.5948         0.021278   
    359. D(C  59,C  58,C   5,N   6)      0.0000         0.021278 C 
    360. D(S  64,C  58,C   5,C   1)      0.0000         0.021278 C 
    361. D(S  64,C  58,C   5,N   6)   -178.5948         0.021278   
    362. D(C  60,C  59,C  58,C   5)   -179.3638         0.027397   
    363. D(C  60,C  59,C  58,S  64)     -0.8663         0.027397   
    364. D(H  61,C  59,C  58,C   5)      1.1443         0.027397   
    365. D(H  61,C  59,C  58,S  64)    179.6418         0.027397   
    366. D(C  62,C  60,C  59,C  58)     -0.6990         0.020523   
    367. D(C  62,C  60,C  59,H  61)    178.8672         0.020523   
    368. D(H  63,C  60,C  59,C  58)   -179.9084         0.020523   
    369. D(H  63,C  60,C  59,H  61)     -0.3422         0.020523   
    370. D(S  64,C  62,C  60,C  59)      2.2575         0.030719   
    371. D(S  64,C  62,C  60,H  63)   -178.6915         0.030719   
    372. D(H  65,C  62,C  60,C  59)   -178.3674         0.030719   
    373. D(H  65,C  62,C  60,H  63)      0.6836         0.030719   
    374. D(C  62,S  64,C  58,C   5)   -179.5803         0.005004   
    375. D(C  62,S  64,C  58,C  59)      1.7344         0.005004   
    376. D(C  58,S  64,C  62,C  60)     -2.1218         0.005657   
    377. D(C  58,S  64,C  62,H  65)    178.3840         0.005657   
    -----------------------------------------------------------------

Number of atoms                         .... 66
Number of degrees of freedom            .... 377

         *************************************************************
         *                GEOMETRY OPTIMIZATION CYCLE   1            *
         *************************************************************
---------------------------------
CARTESIAN COORDINATES (ANGSTROEM)
---------------------------------
  C     -5.773649   -0.199770   -0.138036
  C     -4.620531   -1.155525   -0.034304
  N     -5.122014    1.048110   -0.033298
  C     -3.692538    0.911895    0.134333
  C     -3.370707   -0.399904    0.135431
  C     -4.319711   -2.463724   -0.035219
  N     -2.907141   -2.632462    0.124286
  C     -2.231861   -1.396973    0.230524
  O     -6.986188   -0.444052   -0.268295
  O     -1.009452   -1.197042    0.351160
  C     -5.921813    2.266287   -0.112255
  H     -7.022261    2.052500   -0.081721
  H     -5.713336    2.755992   -1.093807
  H     -5.677975    2.922040    0.754105
  C     -2.167800   -3.890640    0.156088
  H     -2.511218   -4.538213   -0.682541
  H     -2.344345   -4.371515    1.148541
  H     -1.063682   -3.728451    0.045450
  C     -2.752699    2.002050    0.286770
  C     -2.960950    3.415266    0.312219
  C     -1.765342    4.188469    0.452820
  H     -3.931770    3.915891    0.211736
  C     -0.621425    3.371817    0.491673
  H     -1.760975    5.299808    0.473694
  S     -1.049131    1.675549    0.493253
  C      0.766320    3.799136    0.513116
  C      1.899655    3.007224    0.536599
  C      3.110631    3.765897    0.514403
  H      1.878604    1.922831    0.545339
  C      2.894918    5.132449    0.475722
  H      4.094284    3.309740    0.505842
  S      1.208075    5.461672    0.492286
  C      3.887061    6.192061    0.415552
  C      3.663637    7.569121    0.364091
  C      4.887106    8.298280    0.182487
  H      2.666017    8.050555    0.404267
  C      6.062672    7.496236    0.153018
  H      4.866870    9.381886    0.062641
  S      5.595453    5.837830    0.382568
  C      7.460690    7.846478   -0.021769
  C      8.492398    6.978076   -0.025642
  N      7.983512    9.169286   -0.214850
  C      9.388553    9.183293   -0.382171
  C      9.717589    7.756399   -0.237413
  C     10.770532    6.945272   -0.230789
  C      8.913027    5.539411    0.096263
  N     10.323352    5.630231   -0.024991
  H     11.821118    7.208650   -0.355631
  C      7.271143   10.423431   -0.275423
  H      6.487336   10.457691    0.502388
  H      6.852093   10.537666   -1.295781
  H      7.961572   11.278553   -0.092221
  C     11.197389    4.483831    0.062621
  H     10.617721    3.555161    0.262240
  H     11.912013    4.653019    0.892002
  H     11.742800    4.377538   -0.898640
  O     10.170740   10.115990   -0.594216
  O      8.218779    4.531150    0.257512
  C     -5.271214   -3.523444   -0.199945
  C     -4.941053   -5.128461   -0.239096
  C     -6.196118   -5.802328   -0.436459
  H     -3.836445   -5.805434   -0.121732
  C     -7.469980   -4.694722   -0.525792
  H     -6.166642   -7.034326   -0.493809
  S     -7.144464   -2.863275   -0.435676
  H     -8.581146   -4.869237   -0.649498

----------------------------
CARTESIAN COORDINATES (A.U.)
----------------------------
  NO LB      ZA    FRAG     MASS         X           Y           Z
   0 C     6.0000    0    12.011  -10.910615   -0.377512   -0.260850
   1 C     6.0000    0    12.011   -8.731538   -2.183626   -0.064826
   2 N     7.0000    0    14.007   -9.679204    1.980640   -0.062925
   3 C     6.0000    0    12.011   -6.977885    1.723231    0.253853
   4 C     6.0000    0    12.011   -6.369712   -0.755709    0.255927
   5 C     6.0000    0    12.011   -8.163070   -4.655763   -0.066554
   6 N     7.0000    0    14.007   -5.493701   -4.974632    0.234866
   7 C     6.0000    0    12.011   -4.217606   -2.639896    0.435626
   8 O     8.0000    0    15.999  -13.201981   -0.839138   -0.507004
   9 O     8.0000    0    15.999   -1.907588   -2.262082    0.663597
  10 C     6.0000    0    12.011  -11.190605    4.282661   -0.212131
  11 H     1.0000    0     1.008  -13.270151    3.878662   -0.154430
  12 H     1.0000    0     1.008  -10.796641    5.208069   -2.066995
  13 H     1.0000    0     1.008  -10.729817    5.521855    1.425052
  14 C     6.0000    0    12.011   -4.096549   -7.352244    0.294963
  15 H     1.0000    0     1.008   -4.745515   -8.575980   -1.289816
  16 H     1.0000    0     1.008   -4.430170   -8.260966    2.170427
  17 H     1.0000    0     1.008   -2.010068   -7.045751    0.085888
  18 C     6.0000    0    12.011   -5.201848    3.783326    0.541916
  19 C     6.0000    0    12.011   -5.595385    6.453917    0.590008
  20 C     6.0000    0    12.011   -3.336013    7.915060    0.855706
  21 H     1.0000    0     1.008   -7.429968    7.399961    0.400124
  22 C     6.0000    0    12.011   -1.174323    6.371810    0.929127
  23 H     1.0000    0     1.008   -3.327760   10.015186    0.895152
  24 S    16.0000    0    32.060   -1.982569    3.166328    0.932112
  25 C     6.0000    0    12.011    1.448136    7.179327    0.969648
  26 C     6.0000    0    12.011    3.589827    5.682829    1.014025
  27 C     6.0000    0    12.011    5.878241    7.116514    0.972082
  28 H     1.0000    0     1.008    3.550047    3.633624    1.030542
  29 C     6.0000    0    12.011    5.470603    9.698924    0.898985
  30 H     1.0000    0     1.008    7.737076    6.254501    0.955903
  31 S    16.0000    0    32.060    2.282930   10.321064    0.930285
  32 C     6.0000    0    12.011    7.345480   11.701300    0.785280
  33 C     6.0000    0    12.011    6.923271   14.303565    0.688033
  34 C     6.0000    0    12.011    9.235291   15.681476    0.344851
  35 H     1.0000    0     1.008    5.038042   15.213345    0.763954
  36 C     6.0000    0    12.011   11.456790   14.165833    0.289163
  37 H     1.0000    0     1.008    9.197052   17.729196    0.118374
  38 S    16.0000    0    32.060   10.573874   11.031901    0.722949
  39 C     6.0000    0    12.011   14.098660   14.827694   -0.041137
  40 C     6.0000    0    12.011   16.048306   13.186652   -0.048456
  41 N     7.0000    0    14.007   15.086652   17.327439   -0.406008
  42 C     6.0000    0    12.011   17.741794   17.353910   -0.722198
  43 C     6.0000    0    12.011   18.363582   14.657471   -0.448645
  44 C     6.0000    0    12.011   20.353355   13.124662   -0.436128
  45 C     6.0000    0    12.011   16.843179   10.467969    0.181910
  46 N     7.0000    0    14.007   19.508308   10.639595   -0.047226
  47 H     1.0000    0     1.008   22.338676   13.622373   -0.672045
  48 C     6.0000    0    12.011   13.740469   19.697430   -0.520474
  49 H     1.0000    0     1.008   12.259288   19.762172    0.949376
  50 H     1.0000    0     1.008   12.948579   19.913303   -2.448671
  51 H     1.0000    0     1.008   15.045191   21.313377   -0.174272
  52 C     6.0000    0    12.011   21.159998    8.473214    0.118337
  53 H     1.0000    0     1.008   20.064585    6.718281    0.495562
  54 H     1.0000    0     1.008   22.510442    8.792932    1.685640
  55 H     1.0000    0     1.008   22.190675    8.272349   -1.698184
  56 O     8.0000    0    15.999   19.219913   19.116451   -1.122905
  57 O     8.0000    0    15.999   15.531242    8.562632    0.486627
  58 C     6.0000    0    12.011   -9.961150   -6.658344   -0.377842
  59 C     6.0000    0    12.011   -9.337237   -9.691387   -0.451826
  60 C     6.0000    0    12.011  -11.708966  -10.964811   -0.824787
  61 H     1.0000    0     1.008   -7.249831  -10.970681   -0.230041
  62 C     6.0000    0    12.011  -14.116216   -8.871738   -0.993602
  63 H     1.0000    0     1.008  -11.653265  -13.292950   -0.933163
  64 S    16.0000    0    32.060  -13.501080   -5.410806   -0.823308
  65 H     1.0000    0     1.008  -16.216016   -9.201525   -1.227374

--------------------------------
INTERNAL COORDINATES (ANGSTROEM)
--------------------------------
 C      0   0   0     0.000000000000     0.00000000     0.00000000
 C      1   0   0     1.467438744923     0.00000000     0.00000000
 N      1   2   0     1.407902786026   102.87803184     0.00000000
 C      3   1   2     1.405434724952   112.14389728   359.22151198
 C      4   3   1     1.343214902426   108.28477196     0.68056664
 C      2   1   3     1.335226264009   142.48303550   180.26803382
 N      6   2   1     1.391918594674   108.86839919   180.46664675
 C      7   6   2     1.407783387670   111.78741309   359.33693745
 O      1   2   3     1.213613121386   127.83622269   180.41993567
 O      8   7   6     1.213656514876   128.19677957   181.55000428
 C      3   1   2     1.439338673211   120.00426116   178.81944475
 H     11   3   1     1.094477049462   110.75907570     9.37492598
 H     11   3   1     1.093666913736   109.00418440   251.44181391
 H     11   3   1     1.092584677405   110.17983757   129.21096269
 C      7   6   2     1.441891155566   126.24454853   180.57700314
 H     15   7   6     1.093423223734   110.17647385    46.30665074
 H     15   7   6     1.093795140006   108.95040782   285.18577594
 H     15   7   6     1.093787487815   110.51025599   166.44701485
 C      4   3   1     1.435834209963   125.07087355   180.41208876
 C     19   4   3     1.389193310846   130.23337903   337.03232050
 C     20  19   4     1.428318901401   114.44583271   180.75793621
 H     20  19   4     1.080185125337   124.22376724   359.38413858
 C     21  20  19     1.378553524278   112.79073794     1.91437509
 H     21  20  19     1.083329927123   123.23598621   179.06762275
 S     23  21  20     1.712805588589   109.72802988   354.92646896
 C     23  21  20     1.451996356263   128.01411670   174.95753849
 C     26  23  21     1.382621532416   127.96862423   196.11601612
 C     27  26  23     1.428951427236   112.99403055   177.87301214
 H     27  26  23     1.084164415852   123.82205286   359.38722012
 C     28  27  26     1.383464999413   113.10173755     0.06058242
 H     28  27  26     1.084219683505   123.07184827   181.42901694
 S     30  28  27     1.718703322450   109.98957767     0.60266984
 C     30  28  27     1.452618491208   127.92647466   181.88316278
 C     33  30  28     1.378815790960   128.47011943   165.92339749
 C     34  33  30     1.431002548495   112.81205756   185.17224545
 H     34  33  30     1.083377338050   123.87612024     2.23988171
 C     35  34  33     1.389592380124   114.44980800   357.25540638
 H     35  34  33     1.080577378349   121.31106903   176.28234347
 S     33  30  28     1.710150884367   121.90658758   345.89004996
 C     37  35  34     1.437923026417   130.82361740   179.48780261
 C     40  37  35     1.347718408793   126.22067876   196.83048977
 N     40  37  35     1.411411636554   125.41771601    16.80094985
 C     42  40  37     1.407221557076   112.11877805   181.31555177
 C     41  40  37     1.445852367498   107.84494747   179.60294460
 C     44  41  40     1.328651027208   110.18254930   179.12345602
 C     41  40  37     1.491912024551   146.43671747   359.65203460
 N     45  44  41     1.380819910126   108.79104149     0.13908218
 H     45  44  41     1.080161345448   128.57086884   180.34603676
 C     42  40  37     1.437761474411   128.56714561     0.32442949
 H     49  42  40     1.091348303888   110.96006259    42.05459150
 H     49  42  40     1.093989543049   108.87509604   279.16772565
 H     49  42  40     1.095310324748   110.17012630   161.01954761
 C     47  45  44     1.440854068565   123.91650748   181.04751440
 H     53  47  45     1.093281380570   110.65749978   178.08960903
 H     53  47  45     1.094217903070   109.03176180    58.08235089
 H     53  47  45     1.093660456129   109.11747476   298.37951673
 O     43  42  40     1.214479543426   130.69340940   178.38185365
 O     46  41  40     1.213148839096   128.84031546     1.33914297
 C      6   2   1     1.421049288167   126.32904410     0.73416654
 C     59   6   2     1.388310937831   129.29469898   225.84956424
 C     60  59   6     1.425798785173   113.58053737   181.02827115
 H     60  59   6     1.083085284084   123.24536609     1.49764105
 C     61  60  59     1.373740848341   111.78336001   359.49385974
 H     61  60  59     1.083293164291   124.77246606   180.18883289
 S     63  61  60     1.705760274071   111.95698597     1.89668289
 H     63  61  60     1.081612135379   127.84918203   181.24619489

---------------------------
INTERNAL COORDINATES (A.U.)
---------------------------
 C      0   0   0     0.000000000000     0.00000000     0.00000000
 C      1   0   0     2.773057346209     0.00000000     0.00000000
 N      1   2   0     2.660550688774   102.87803184     0.00000000
 C      3   1   2     2.655886729262   112.14389728   359.22151198
 C      4   3   1     2.538308304587   108.28477196     0.68056664
 C      2   1   3     2.523211965796   142.48303550   180.26803382
 N      6   2   1     2.630344944647   108.86839919   180.46664675
 C      7   6   2     2.660325058580   111.78741309   359.33693745
 O      1   2   3     2.293396431953   127.83622269   180.41993567
 O      8   7   6     2.293478433764   128.19677957   181.55000428
 C      3   1   2     2.719955906330   120.00426116   178.81944475
 H     11   3   1     2.068261883346   110.75907570     9.37492598
 H     11   3   1     2.066730948691   109.00418440   251.44181391
 H     11   3   1     2.064685818414   110.17983757   129.21096269
 C      7   6   2     2.724779398943   126.24454853   180.57700314
 H     15   7   6     2.066270441326   110.17647385    46.30665074
 H     15   7   6     2.066973261225   108.95040782   285.18577594
 H     15   7   6     2.066958800680   110.51025599   166.44701485
 C      4   3   1     2.713333430545   125.07087355   180.41208876
 C     19   4   3     2.625194904575   130.23337903   337.03232050
 C     20  19   4     2.699131555552   114.44583271   180.75793621
 H     20  19   4     2.041254060823   124.22376724   359.38413858
 C     21  20  19     2.605088621838   112.79073794     1.91437509
 H     21  20  19     2.047196874943   123.23598621   179.06762275
 S     23  21  20     3.236733483082   109.72802988   354.92646896
 C     23  21  20     2.743875460788   128.01411670   174.95753849
 C     26  23  21     2.612776043129   127.96862423   196.11601612
 C     27  26  23     2.700326856152   112.99403055   177.87301214
 H     27  26  23     2.048773830103   123.82205286   359.38722012
 C     28  27  26     2.614369964756   113.10173755     0.06058242
 H     28  27  26     2.048878270832   123.07184827   181.42901694
 S     30  28  27     3.247878584891   109.98957767     0.60266984
 C     30  28  27     2.745051125453   127.92647466   181.88316278
 C     33  30  28     2.605584234040   128.47011943   165.92339749
 C     34  33  30     2.704202913599   112.81205756   185.17224545
 H     34  33  30     2.047286468611   123.87612024     2.23988171
 C     35  34  33     2.625949036219   114.44980800   357.25540638
 H     35  34  33     2.041995311591   121.31106903   176.28234347
 S     33  30  28     3.231716819136   121.90658758   345.89004996
 C     37  35  34     2.717280721587   130.82361740   179.48780261
 C     40  37  35     2.546818698263   126.22067876   196.83048977
 N     40  37  35     2.667181455317   125.41771601    16.80094985
 C     42  40  37     2.659263352624   112.11877805   181.31555177
 C     41  40  37     2.732265004653   107.84494747   179.60294460
 C     44  41  40     2.510786568976   110.18254930   179.12345602
 C     41  40  37     2.819305142305   146.43671747   359.65203460
 N     45  44  41     2.609371470404   108.79104149     0.13908218
 H     45  44  41     2.041209123345   128.57086884   180.34603676
 C     42  40  37     2.716975432539   128.56714561     0.32442949
 H     49  42  40     2.062349411068   110.96006259    42.05459150
 H     49  42  40     2.067340629736   108.87509604   279.16772565
 H     49  42  40     2.069836545430   110.17012630   161.01954761
 C     47  45  44     2.722819588534   123.91650748   181.04751440
 H     53  47  45     2.066002396592   110.65749978   178.08960903
 H     53  47  45     2.067772167637   109.03176180    58.08235089
 H     53  47  45     2.066718745583   109.11747476   298.37951673
 O     43  42  40     2.295033732325   130.69340940   178.38185365
 O     46  41  40     2.292519065576   128.84031546     1.33914297
 C      6   2   1     2.685393977439   126.32904410     0.73416654
 C     59   6   2     2.623527461227   129.29469898   225.84956424
 C     60  59   6     2.694369226054   113.58053737   181.02827115
 H     60  59   6     2.046734566600   123.24536609     1.49764105
 C     61  60  59     2.595993982345   111.78336001   359.49385974
 H     61  60  59     2.047127403259   124.77246606   180.18883289
 S     63  61  60     3.223419768117   111.95698597     1.89668289
 H     63  61  60     2.043950718993   127.84918203   181.24619489

---------------------
BASIS SET INFORMATION
---------------------
There are 5 groups of distinct atoms

 Group   1 Type C   : 7s4p1d contracted to 3s2p1d pattern {511/31/1}
 Group   2 Type N   : 7s4p1d contracted to 3s2p1d pattern {511/31/1}
 Group   3 Type O   : 7s4p1d contracted to 3s2p1d pattern {511/31/1}
 Group   4 Type H   : 4s1p contracted to 2s1p pattern {31/1}
 Group   5 Type S   : 10s7p1d contracted to 4s3p1d pattern {5311/511/1}

Atom   0C    basis set group =>   1
Atom   1C    basis set group =>   1
Atom   2N    basis set group =>   2
Atom   3C    basis set group =>   1
Atom   4C    basis set group =>   1
Atom   5C    basis set group =>   1
Atom   6N    basis set group =>   2
Atom   7C    basis set group =>   1
Atom   8O    basis set group =>   3
Atom   9O    basis set group =>   3
Atom  10C    basis set group =>   1
Atom  11H    basis set group =>   4
Atom  12H    basis set group =>   4
Atom  13H    basis set group =>   4
Atom  14C    basis set group =>   1
Atom  15H    basis set group =>   4
Atom  16H    basis set group =>   4
Atom  17H    basis set group =>   4
Atom  18C    basis set group =>   1
Atom  19C    basis set group =>   1
Atom  20C    basis set group =>   1
Atom  21H    basis set group =>   4
Atom  22C    basis set group =>   1
Atom  23H    basis set group =>   4
Atom  24S    basis set group =>   5
Atom  25C    basis set group =>   1
Atom  26C    basis set group =>   1
Atom  27C    basis set group =>   1
Atom  28H    basis set group =>   4
Atom  29C    basis set group =>   1
Atom  30H    basis set group =>   4
Atom  31S    basis set group =>   5
Atom  32C    basis set group =>   1
Atom  33C    basis set group =>   1
Atom  34C    basis set group =>   1
Atom  35H    basis set group =>   4
Atom  36C    basis set group =>   1
Atom  37H    basis set group =>   4
Atom  38S    basis set group =>   5
Atom  39C    basis set group =>   1
Atom  40C    basis set group =>   1
Atom  41N    basis set group =>   2
Atom  42C    basis set group =>   1
Atom  43C    basis set group =>   1
Atom  44C    basis set group =>   1
Atom  45C    basis set group =>   1
Atom  46N    basis set group =>   2
Atom  47H    basis set group =>   4
Atom  48C    basis set group =>   1
Atom  49H    basis set group =>   4
Atom  50H    basis set group =>   4
Atom  51H    basis set group =>   4
Atom  52C    basis set group =>   1
Atom  53H    basis set group =>   4
Atom  54H    basis set group =>   4
Atom  55H    basis set group =>   4
Atom  56O    basis set group =>   3
Atom  57O    basis set group =>   3
Atom  58C    basis set group =>   1
Atom  59C    basis set group =>   1
Atom  60C    basis set group =>   1
Atom  61H    basis set group =>   4
Atom  62C    basis set group =>   1
Atom  63H    basis set group =>   4
Atom  64S    basis set group =>   5
Atom  65H    basis set group =>   4
---------------------------------
AUXILIARY/J BASIS SET INFORMATION
---------------------------------
There are 5 groups of distinct atoms

 Group   1 Type C   : 12s5p4d2f1g contracted to 6s4p3d1f1g pattern {711111/2111/211/2/1}
 Group   2 Type N   : 12s5p4d2f1g contracted to 6s4p3d1f1g pattern {711111/2111/211/2/1}
 Group   3 Type O   : 12s5p4d2f1g contracted to 6s4p3d1f1g pattern {711111/2111/211/2/1}
 Group   4 Type H   : 5s2p1d contracted to 3s1p1d pattern {311/2/1}
 Group   5 Type S   : 14s5p5d2f1g contracted to 8s4p3d1f1g pattern {71111111/2111/311/2/1}

Atom   0C    basis set group =>   1
Atom   1C    basis set group =>   1
Atom   2N    basis set group =>   2
Atom   3C    basis set group =>   1
Atom   4C    basis set group =>   1
Atom   5C    basis set group =>   1
Atom   6N    basis set group =>   2
Atom   7C    basis set group =>   1
Atom   8O    basis set group =>   3
Atom   9O    basis set group =>   3
Atom  10C    basis set group =>   1
Atom  11H    basis set group =>   4
Atom  12H    basis set group =>   4
Atom  13H    basis set group =>   4
Atom  14C    basis set group =>   1
Atom  15H    basis set group =>   4
Atom  16H    basis set group =>   4
Atom  17H    basis set group =>   4
Atom  18C    basis set group =>   1
Atom  19C    basis set group =>   1
Atom  20C    basis set group =>   1
Atom  21H    basis set group =>   4
Atom  22C    basis set group =>   1
Atom  23H    basis set group =>   4
Atom  24S    basis set group =>   5
Atom  25C    basis set group =>   1
Atom  26C    basis set group =>   1
Atom  27C    basis set group =>   1
Atom  28H    basis set group =>   4
Atom  29C    basis set group =>   1
Atom  30H    basis set group =>   4
Atom  31S    basis set group =>   5
Atom  32C    basis set group =>   1
Atom  33C    basis set group =>   1
Atom  34C    basis set group =>   1
Atom  35H    basis set group =>   4
Atom  36C    basis set group =>   1
Atom  37H    basis set group =>   4
Atom  38S    basis set group =>   5
Atom  39C    basis set group =>   1
Atom  40C    basis set group =>   1
Atom  41N    basis set group =>   2
Atom  42C    basis set group =>   1
Atom  43C    basis set group =>   1
Atom  44C    basis set group =>   1
Atom  45C    basis set group =>   1
Atom  46N    basis set group =>   2
Atom  47H    basis set group =>   4
Atom  48C    basis set group =>   1
Atom  49H    basis set group =>   4
Atom  50H    basis set group =>   4
Atom  51H    basis set group =>   4
Atom  52C    basis set group =>   1
Atom  53H    basis set group =>   4
Atom  54H    basis set group =>   4
Atom  55H    basis set group =>   4
Atom  56O    basis set group =>   3
Atom  57O    basis set group =>   3
Atom  58C    basis set group =>   1
Atom  59C    basis set group =>   1
Atom  60C    basis set group =>   1
Atom  61H    basis set group =>   4
Atom  62C    basis set group =>   1
Atom  63H    basis set group =>   4
Atom  64S    basis set group =>   5
Atom  65H    basis set group =>   4
------------------------------------------------------------------------------
                           ORCA GTO INTEGRAL CALCULATION
                           -- RI-GTO INTEGRALS CHOSEN --
------------------------------------------------------------------------------

                         BASIS SET STATISTICS AND STARTUP INFO

Gaussian basis set:
 # of primitive gaussian shells          ...  662
 # of primitive gaussian functions       ... 1258
 # of contracted shells                  ...  338
 # of contracted basis functions         ...  742
 Highest angular momentum                ...    2
 Maximum contraction depth               ...    5
Auxiliary gaussian basis set:
 # of primitive gaussian shells          ... 1244
 # of primitive gaussian functions       ... 3460
 # of contracted shells                  ...  778
 # of contracted aux-basis functions     ... 2406
 Highest angular momentum                ...    4
 Maximum contraction depth               ...    7
Ratio of auxiliary to basis functions    ...  3.24
Integral package used                  ... LIBINT
 One Electron integrals                  ... done
 Ordering auxiliary basis shells         ... done
 Integral threshhold             Thresh  ...  2.500e-11
 Primitive cut-off               TCut    ...  2.500e-12
 Pre-screening matrix                    ... done
 Shell pair data                         ... 
 Ordering of the shell pairs             ... done (   0.003 sec) 23207 of 57291 pairs
 Determination of significant pairs      ... done (   0.000 sec)
 Creation of shell pair data             ... done (   0.003 sec)
 Storage of shell pair data              ... done (   0.010 sec)
 Shell pair data done in (   0.017 sec)
 Computing two index integrals           ... done
 Cholesky decomposition of the V-matrix  ... done


Timings:
 Total evaluation time                   ...   1.182 sec (  0.020 min)
 One electron matrix time                ...   0.404 sec (  0.007 min) = 34.2%
 Schwartz matrix evaluation time         ...   0.264 sec (  0.004 min) = 22.4%
 Two index repulsion integral time       ...   0.332 sec (  0.006 min) = 28.1%
 Cholesky decomposition of V             ...   0.146 sec (  0.002 min) = 12.4%
 Three index repulsion integral time     ...   0.000 sec (  0.000 min) =  0.0%

-------------------------------------------------------------------------------
                                 ORCA SCF
-------------------------------------------------------------------------------

------------
SCF SETTINGS
------------
Hamiltonian:
 Density Functional     Method          .... DFT(GTOs)
 Exchange Functional    Exchange        .... B88
   X-Alpha parameter    XAlpha          ....  0.666667
   Becke's b parameter  XBeta           ....  0.004200
 Correlation Functional Correlation     .... P86
 LDA part of GGA corr.  LDAOpt          .... PW91-LDA
 Gradients option       PostSCFGGA      .... off
   Density functional embedding theory  .... OFF
 RI-approximation to the Coulomb term is turned on
   Number of auxiliary basis functions  .... 2406


General Settings:
 Integral files         IntName         .... DPP2T_T_Optimize_Monomer
 Hartree-Fock type      HFTyp           .... RHF
 Total Charge           Charge          ....    0
 Multiplicity           Mult            ....    1
 Number of Electrons    NEL             ....  338
 Basis Dimension        Dim             ....  742
 Nuclear Repulsion      ENuc            ....   5262.9778206010 Eh

Convergence Acceleration:
 DIIS                   CNVDIIS         .... on
   Start iteration      DIISMaxIt       ....    12
   Startup error        DIISStart       ....  0.200000
   # of expansion vecs  DIISMaxEq       ....     5
   Bias factor          DIISBfac        ....   1.050
   Max. coefficient     DIISMaxC        ....  10.000
 Newton-Raphson         CNVNR           .... off
 SOSCF                  CNVSOSCF        .... on
   Start iteration      SOSCFMaxIt      ....   150
   Startup grad/error   SOSCFStart      ....  0.003300
 Level Shifting         CNVShift        .... on
   Level shift para.    LevelShift      ....    0.2500
   Turn off err/grad.   ShiftErr        ....    0.0010
 Zerner damping         CNVZerner       .... off
 Static damping         CNVDamp         .... on
   Fraction old density DampFac         ....    0.7000
   Max. Damping (<1)    DampMax         ....    0.9800
   Min. Damping (>=0)   DampMin         ....    0.0000
   Turn off err/grad.   DampErr         ....    0.1000
 Fernandez-Rico         CNVRico         .... off

SCF Procedure:
 Maximum # iterations   MaxIter         ....   125
 SCF integral mode      SCFMode         .... Direct
   Integral package                     .... LIBINT
 Reset frequency        DirectResetFreq ....    20
 Integral Threshold     Thresh          ....  2.500e-11 Eh
 Primitive CutOff       TCut            ....  2.500e-12 Eh

Convergence Tolerance:
 Convergence Check Mode ConvCheckMode   .... Total+1el-Energy
 Convergence forced     ConvForced      .... 0
 Energy Change          TolE            ....  1.000e-08 Eh
 1-El. energy change                    ....  1.000e-05 Eh
 Orbital Gradient       TolG            ....  1.000e-05
 Orbital Rotation angle TolX            ....  1.000e-05
 DIIS Error             TolErr          ....  5.000e-07


Diagonalization of the overlap matrix:
Smallest eigenvalue                        ... 3.313e-04
Time for diagonalization                   ...    0.079 sec
Threshold for overlap eigenvalues          ... 1.000e-08
Number of eigenvalues below threshold      ... 0
Time for construction of square roots      ...    0.039 sec
Total time needed                          ...    0.120 sec

-------------------
DFT GRID GENERATION
-------------------

General Integration Accuracy     IntAcc      ...  4.340
Radial Grid Type                 RadialGrid  ... Gauss-Chebyshev
Angular Grid (max. acc.)         AngularGrid ... Lebedev-194
Angular grid pruning method      GridPruning ... 3 (G Style)
Weight generation scheme         WeightScheme... Becke
Basis function cutoff            BFCut       ...    1.0000e-11
Integration weight cutoff        WCut        ...    1.0000e-14
Grids for H and He will be reduced by one unit

# of grid points (after initial pruning)     ... 179580 (   0.1 sec)
# of grid points (after weights+screening)   ... 158775 (   2.8 sec)
nearest neighbour list constructed           ...    0.0 sec
Grid point re-assignment to atoms done       ...    0.0 sec
Grid point division into batches done        ...    0.2 sec
Reduced shell lists constructed in    1.9 sec

Total number of grid points                  ...   158775
Total number of batches                      ...     2512
Average number of points per batch           ...       63
Average number of grid points per atom       ...     2406
Average number of shells per batch           ...    81.36 (24.07%)
Average number of basis functions per batch  ...   170.91 (23.03%)
Average number of large shells per batch     ...    52.28 (64.26%)
Average number of large basis fcns per batch ...   111.15 (65.04%)
Maximum spatial batch extension              ...  19.19, 20.55, 27.40 au
Average spatial batch extension              ...   2.56,  2.59,  3.14 au

Time for grid setup =   23.314 sec

------------------------------
INITIAL GUESS: MODEL POTENTIAL
------------------------------
Loading Hartree-Fock densities                     ... done
Calculating cut-offs                               ... done
Setting up the integral package                    ... done
Initializing the effective Hamiltonian             ... done
Starting the Coulomb interaction                   ... done (   2.4 sec)
Reading the grid                                   ... done
Mapping shells                                     ... done
Starting the XC term evaluation                    ... done (   1.9 sec)
  promolecular density results
     # of electrons  =    337.989988627
     EX              =   -330.045383276
     EC              =    -12.971182975
     EX+EC           =   -343.016566251
Transforming the Hamiltonian                       ... done (   0.0 sec)
Diagonalizing the Hamiltonian                      ... done (   0.1 sec)
Back transforming the eigenvectors                 ... done (   0.0 sec)
Now organizing SCF variables                       ... done
                      ------------------
                      INITIAL GUESS DONE (  27.8 sec)
                      ------------------
--------------
SCF ITERATIONS
--------------
ITER       Energy         Delta-E        Max-DP      RMS-DP      [F,P]     Damp
               ***  Starting incremental Fock matrix formation  ***
  0  -3342.7765176087   0.000000000000 0.11052534  0.00143313  0.2518725 0.7000
  1  -3343.2077177690  -0.431200160291 0.05779459  0.00086200  0.0692868 0.7000
                               ***Turning on DIIS***
  2  -3343.3308892427  -0.123171473640 0.10644267  0.00115774  0.0260926 0.0000
  3  -3343.5373831111  -0.206493868408 0.04119189  0.00067254  0.0439534 0.0000
  4  -3343.5973407132  -0.059957602072 0.01789413  0.00027427  0.0311591 0.0000
  5  -3343.6082274269  -0.010886713739 0.01459513  0.00010039  0.0060444 0.0000
                      *** Initiating the SOSCF procedure ***
                           *** Shutting down DIIS ***
                      *** Re-Reading the Fockian *** 
                      *** Removing any level shift *** 
ITER      Energy       Delta-E        Grad      Rot      Max-DP    RMS-DP
  6  -3343.60900286  -0.0007754346  0.001036  0.001036  0.003241  0.000038
               *** Restarting incremental Fock matrix formation ***
  7  -3343.60915175  -0.0001488934  0.000595  0.006643  0.004277  0.000049
  8  -3343.60909558   0.0000561744  0.001302  0.004011  0.005436  0.000036
  9  -3343.60917892  -0.0000833427  0.000766  0.009783  0.005545  0.000044
 10  -3343.60910846   0.0000704591  0.001496  0.006442  0.004438  0.000032
 11  -3343.60918180  -0.0000733364  0.000658  0.004784  0.005967  0.000042
 12  -3343.60904640   0.0001353961  0.001672  0.002960  0.003212  0.000032
 13  -3343.60920259  -0.0001561840  0.000281  0.005909  0.002403  0.000027
 14  -3343.60915656   0.0000460292  0.000763  0.004010  0.001754  0.000019
 15  -3343.60920874  -0.0000521798  0.000083  0.000960  0.000761  0.000010
 16  -3343.60920464   0.0000041011  0.000182  0.000633  0.000504  0.000006
 17  -3343.60920964  -0.0000050062  0.000038  0.000551  0.000594  0.000005
 18  -3343.60920855   0.0000010930  0.000087  0.000297  0.000303  0.000003
 19  -3343.60920988  -0.0000013335  0.000037  0.000500  0.000258  0.000003
 20  -3343.60920939   0.0000004936  0.000126  0.000431  0.000212  0.000002
 21  -3343.60920993  -0.0000005376  0.000017  0.000202  0.000147  0.000002
 22  -3343.60920983   0.0000001018  0.000023  0.000113  0.000099  0.000001
 23  -3343.60920995  -0.0000001248  0.000003  0.000044  0.000042  0.000000
 24  -3343.60920992   0.0000000269  0.000007  0.000015  0.000028  0.000000
                  ***Gradient check signals convergence***
              ***Rediagonalizing the Fockian in SOSCF/NRSCF***

               *****************************************************
               *                     SUCCESS                       *
               *           SCF CONVERGED AFTER  25 CYCLES          *
               *****************************************************

Setting up the final grid:

General Integration Accuracy     IntAcc      ...  5.010
Radial Grid Type                 RadialGrid  ... Gauss-Chebyshev
Angular Grid (max. acc.)         AngularGrid ... Lebedev-434
Angular grid pruning method      GridPruning ... 3 (G Style)
Weight generation scheme         WeightScheme... Becke
Basis function cutoff            BFCut       ...    1.0000e-11
Integration weight cutoff        WCut        ...    1.0000e-14
Grids for H and He will be reduced by one unit

# of grid points (after initial pruning)     ... 622248 (   0.6 sec)
# of grid points (after weights+screening)   ... 543114 (   9.8 sec)
nearest neighbour list constructed           ...    0.0 sec
Grid point re-assignment to atoms done       ...    0.1 sec
Grid point division into batches done        ...    2.8 sec
Reduced shell lists constructed in    7.3 sec

Total number of grid points                  ...   543114
Total number of batches                      ...     8516
Average number of points per batch           ...       63
Average number of grid points per atom       ...     8229
Average number of shells per batch           ...    74.04 (21.90%)
Average number of basis functions per batch  ...   154.82 (20.86%)
Average number of large shells per batch     ...    47.24 (63.80%)
Average number of large basis fcns per batch ...    99.70 (64.40%)
Maximum spatial batch extension              ...  22.99, 19.29, 23.08 au
Average spatial batch extension              ...   1.75,  1.77,  1.98 au

Final grid set up in   25.9 sec
Final integration                            ... done (  27.9 sec)
Change in XC energy                          ...    -0.001020768
Integrated number of electrons               ...   337.999990325
Previous integrated no of electrons          ...   337.999727800

----------------
TOTAL SCF ENERGY
----------------

Total Energy       :        -3343.61023072 Eh          -90984.25993 eV

Components:
Nuclear Repulsion  :         5262.97782060 Eh          143212.90730 eV
Electronic Energy  :        -8606.58805132 Eh         -234197.16723 eV
One Electron Energy:       -15057.20668012 Eh         -409727.42391 eV
Two Electron Energy:         6450.61862880 Eh          175530.25668 eV

Virial components:
Potential Energy   :        -6662.26268841 Eh         -181289.38433 eV
Kinetic Energy     :         3318.65245769 Eh           90305.12440 eV
Virial Ratio       :            2.00752045


DFT components:
N(Alpha)           :      168.999995162546 electrons
N(Beta)            :      168.999995162546 electrons
N(Total)           :      337.999990325092 electrons
E(X)               :     -332.980472117251 Eh       
E(C)               :      -12.978275742690 Eh       
E(XC)              :     -345.958747859941 Eh       
DFET-embed. en.    :        0.000000000000 Eh       

---------------
SCF CONVERGENCE
---------------

  Last Energy change         ...   -3.1382e-08  Tolerance :   1.0000e-08
  Last MAX-Density change    ...    1.9114e-05  Tolerance :   1.0000e-07
  Last RMS-Density change    ...    2.4488e-07  Tolerance :   5.0000e-09
  Last Orbital Gradient      ...    1.7769e-06  Tolerance :   1.0000e-05
  Last Orbital Rotation      ...    3.1151e-05  Tolerance :   1.0000e-05

             **** THE GBW FILE WAS UPDATED (DPP2T_T_Optimize_Monomer.gbw) ****
             **** DENSITY FILE WAS UPDATED (DPP2T_T_Optimize_Monomer.scfp) ****
             **** ENERGY FILE WAS UPDATED (DPP2T_T_Optimize_Monomer.en.tmp) ****
             **** THE GBW FILE WAS UPDATED (DPP2T_T_Optimize_Monomer.gbw) ****
             **** DENSITY FILE WAS UPDATED (DPP2T_T_Optimize_Monomer.scfp) ****
----------------
ORBITAL ENERGIES
----------------

  NO   OCC          E(Eh)            E(eV) 
   0   2.0000     -88.153315     -2398.7736 
   1   2.0000     -88.129391     -2398.1226 
   2   2.0000     -88.126991     -2398.0573 
   3   2.0000     -88.125940     -2398.0287 
   4   2.0000     -18.773717      -510.8588 
   5   2.0000     -18.763396      -510.5779 
   6   2.0000     -18.760041      -510.4867 
   7   2.0000     -18.755434      -510.3613 
   8   2.0000     -14.075397      -383.0110 
   9   2.0000     -14.071079      -382.8935 
  10   2.0000     -14.068259      -382.8168 
  11   2.0000     -14.067389      -382.7931 
  12   2.0000     -10.022295      -272.7205 
  13   2.0000     -10.021951      -272.7111 
  14   2.0000     -10.016286      -272.5570 
  15   2.0000     -10.010079      -272.3881 
  16   2.0000      -9.993323      -271.9322 
  17   2.0000      -9.990726      -271.8615 
  18   2.0000      -9.985278      -271.7132 
  19   2.0000      -9.984270      -271.6858 
  20   2.0000      -9.983874      -271.6750 
  21   2.0000      -9.981888      -271.6210 
  22   2.0000      -9.978174      -271.5199 
  23   2.0000      -9.968582      -271.2589 
  24   2.0000      -9.967837      -271.2386 
  25   2.0000      -9.967186      -271.2209 
  26   2.0000      -9.966976      -271.2152 
  27   2.0000      -9.965922      -271.1865 
  28   2.0000      -9.964829      -271.1568 
  29   2.0000      -9.964782      -271.1555 
  30   2.0000      -9.963308      -271.1154 
  31   2.0000      -9.963191      -271.1122 
  32   2.0000      -9.960279      -271.0330 
  33   2.0000      -9.959231      -271.0045 
  34   2.0000      -9.943020      -270.5633 
  35   2.0000      -9.940319      -270.4898 
  36   2.0000      -9.938758      -270.4474 
  37   2.0000      -9.938219      -270.4327 
  38   2.0000      -9.932490      -270.2768 
  39   2.0000      -9.931657      -270.2541 
  40   2.0000      -9.920941      -269.9625 
  41   2.0000      -9.915495      -269.8143 
  42   2.0000      -9.914235      -269.7801 
  43   2.0000      -9.907956      -269.6092 
  44   2.0000      -7.741613      -210.6600 
  45   2.0000      -7.726787      -210.2566 
  46   2.0000      -7.722936      -210.1518 
  47   2.0000      -7.721549      -210.1140 
  48   2.0000      -5.768318      -156.9639 
[...]
      px      :     1.060258
      py      :     1.010718
      dz2     :     0.007410  d :     0.099147
      dxz     :     0.013944
      dyz     :     0.011786
      dx2y2   :     0.037900
      dxy     :     0.028106
 37 H s       :     0.891990  s :     0.891990
      pz      :     0.015671  p :     0.071389
      px      :     0.011528
      py      :     0.044190
 38 S s       :     5.531105  s :     5.531105
      pz      :     3.597181  p :     9.852987
      px      :     3.041072
      py      :     3.214734
      dz2     :     0.017247  d :     0.129376
      dxz     :     0.019338
      dyz     :     0.013370
      dx2y2   :     0.053437
      dxy     :     0.025984
 39 C s       :     2.843439  s :     2.843439
      pz      :     0.960095  p :     2.971645
      px      :     1.053418
      py      :     0.958131
      dz2     :     0.009245  d :     0.142045
      dxz     :     0.018246
      dyz     :     0.025181
      dx2y2   :     0.045793
      dxy     :     0.043581
 40 C s       :     2.851285  s :     2.851285
      pz      :     1.111974  p :     3.174472
      px      :     1.028142
      py      :     1.034356
      dz2     :     0.008713  d :     0.101928
      dxz     :     0.012787
      dyz     :     0.010746
      dx2y2   :     0.029755
      dxy     :     0.039926
 41 N s       :     3.095153  s :     3.095153
      pz      :     1.517950  p :     3.850813
      px      :     1.184281
      py      :     1.148582
      dz2     :     0.005054  d :     0.062694
      dxz     :     0.005539
      dyz     :     0.008083
      dx2y2   :     0.025961
      dxy     :     0.018056
 42 C s       :     2.844266  s :     2.844266
      pz      :     0.889080  p :     2.841618
      px      :     0.918613
      py      :     1.033925
      dz2     :     0.014003  d :     0.248606
      dxz     :     0.025578
      dyz     :     0.034846
      dx2y2   :     0.116954
      dxy     :     0.057226
 43 C s       :     2.853368  s :     2.853368
      pz      :     1.088180  p :     3.160215
      px      :     1.040487
      py      :     1.031548
      dz2     :     0.008726  d :     0.105535
      dxz     :     0.014745
      dyz     :     0.010408
      dx2y2   :     0.030766
      dxy     :     0.040889
 44 C s       :     2.869217  s :     2.869217
      pz      :     0.961393  p :     2.950000
      px      :     1.047737
      py      :     0.940870
      dz2     :     0.007839  d :     0.118763
      dxz     :     0.006255
      dyz     :     0.025750
      dx2y2   :     0.043513
      dxy     :     0.035406
 45 C s       :     2.844377  s :     2.844377
      pz      :     0.910192  p :     2.860605
      px      :     0.919719
      py      :     1.030694
      dz2     :     0.013961  d :     0.245565
      dxz     :     0.024302
      dyz     :     0.035873
      dx2y2   :     0.114124
      dxy     :     0.057304
 46 N s       :     3.095357  s :     3.095357
      pz      :     1.485819  p :     3.835477
      px      :     1.187221
      py      :     1.162437
      dz2     :     0.005025  d :     0.065146
      dxz     :     0.006112
      dyz     :     0.008877
      dx2y2   :     0.026208
      dxy     :     0.018924
 47 H s       :     0.893524  s :     0.893524
      pz      :     0.014553  p :     0.069249
      px      :     0.043403
      py      :     0.011293
 48 C s       :     2.843367  s :     2.843367
      pz      :     1.072754  p :     3.055968
      px      :     1.041680
      py      :     0.941533
      dz2     :     0.016028  d :     0.093929
      dxz     :     0.025465
      dyz     :     0.011577
      dx2y2   :     0.012221
      dxy     :     0.028638
 49 H s       :     0.904613  s :     0.904613
      pz      :     0.032388  p :     0.064475
      px      :     0.021046
      py      :     0.011040
 50 H s       :     0.904626  s :     0.904626
      pz      :     0.032176  p :     0.064483
      px      :     0.021157
      py      :     0.011149
 51 H s       :     0.886338  s :     0.886338
      pz      :     0.011836  p :     0.070166
      px      :     0.032191
      py      :     0.026138
 52 C s       :     2.843660  s :     2.843660
      pz      :     1.078062  p :     3.053448
      px      :     1.026843
      py      :     0.948543
      dz2     :     0.015937  d :     0.092414
      dxz     :     0.026043
      dyz     :     0.009840
      dx2y2   :     0.011217
      dxy     :     0.029378
 53 H s       :     0.888208  s :     0.888208
      pz      :     0.012029  p :     0.068559
      px      :     0.028081
      py      :     0.028449
 54 H s       :     0.903116  s :     0.903116
      pz      :     0.031457  p :     0.063640
      px      :     0.021332
      py      :     0.010850
 55 H s       :     0.903141  s :     0.903141
      pz      :     0.031987  p :     0.063626
      px      :     0.020845
      py      :     0.010794
 56 O s       :     3.554470  s :     3.554470
      pz      :     1.408668  p :     4.584971
      px      :     1.656376
      py      :     1.519927
      dz2     :     0.004177  d :     0.029976
      dxz     :     0.001983
      dyz     :     0.005019
      dx2y2   :     0.007240
      dxy     :     0.011557
 57 O s       :     3.561207  s :     3.561207
      pz      :     1.422566  p :     4.594722
      px      :     1.653228
      py      :     1.518929
      dz2     :     0.004105  d :     0.029421
      dxz     :     0.001890
      dyz     :     0.005052
      dx2y2   :     0.007197
      dxy     :     0.011177
 58 C s       :     2.913678  s :     2.913678
      pz      :     1.097791  p :     3.170972
      px      :     1.001498
      py      :     1.071683
      dz2     :     0.007364  d :     0.098818
      dxz     :     0.010435
      dyz     :     0.015196
      dx2y2   :     0.034814
      dxy     :     0.031009
 59 C s       :     2.877978  s :     2.877978
      pz      :     1.007141  p :     3.095649
      px      :     1.046662
      py      :     1.041846
      dz2     :     0.006219  d :     0.086622
      dxz     :     0.006046
      dyz     :     0.012842
      dx2y2   :     0.031785
      dxy     :     0.029730
 60 C s       :     2.878273  s :     2.878273
      pz      :     1.006932  p :     3.102694
      px      :     1.050880
      py      :     1.044881
      dz2     :     0.006300  d :     0.088889
      dxz     :     0.014474
      dyz     :     0.004853
      dx2y2   :     0.029935
      dxy     :     0.033327
 61 H s       :     0.894010  s :     0.894010
      pz      :     0.016140  p :     0.071680
      px      :     0.038506
      py      :     0.017034
 62 C s       :     2.946072  s :     2.946072
      pz      :     1.066678  p :     3.158283
      px      :     1.071841
      py      :     1.019764
      dz2     :     0.005902  d :     0.080546
      dxz     :     0.006006
      dyz     :     0.012659
      dx2y2   :     0.033604
      dxy     :     0.022374
 63 H s       :     0.894287  s :     0.894287
      pz      :     0.014689  p :     0.067139
      px      :     0.010529
      py      :     0.041920
 64 S s       :     5.529772  s :     5.529772
      pz      :     3.561595  p :     9.844754
      px      :     3.062842
      py      :     3.220317
      dz2     :     0.017397  d :     0.135092
      dxz     :     0.019575
      dyz     :     0.016445
      dx2y2   :     0.057822
      dxy     :     0.023853
 65 H s       :     0.892159  s :     0.892159
      pz      :     0.016340  p :     0.072137
      px      :     0.041526
      py      :     0.014271


                      *****************************
                      * MAYER POPULATION ANALYSIS *
                      *****************************

  NA   - Mulliken gross atomic population
  ZA   - Total nuclear charge
  QA   - Mulliken gross atomic charge
  VA   - Mayer's total valence
  BVA  - Mayer's bonded valence
  FA   - Mayer's free valence

  ATOM       NA         ZA         QA         VA         BVA        FA
  0 C      5.8694     6.0000     0.1306     4.1287     4.1287     0.0000
  1 C      6.0864     6.0000    -0.0864     3.7862     3.7862    -0.0000
  2 N      7.2869     7.0000    -0.2869     3.3421     3.3421     0.0000
  3 C      5.8117     6.0000     0.1883     3.8287     3.8287     0.0000
  4 C      6.0814     6.0000    -0.0814     3.7815     3.7815     0.0000
  5 C      5.8058     6.0000     0.1942     3.8412     3.8412    -0.0000
  6 N      7.2861     7.0000    -0.2861     3.3485     3.3485     0.0000
  7 C      5.8707     6.0000     0.1293     4.1263     4.1263     0.0000
  8 O      8.1823     8.0000    -0.1823     2.3844     2.3844     0.0000
  9 O      8.1847     8.0000    -0.1847     2.3820     2.3820     0.0000
 10 C      5.9456     6.0000     0.0544     3.9168     3.9168    -0.0000
 11 H      0.9314     1.0000     0.0686     1.0339     1.0339     0.0000
 12 H      0.9427     1.0000     0.0573     0.9850     0.9850    -0.0000
 13 H      0.9428     1.0000     0.0572     0.9851     0.9851    -0.0000
 14 C      5.9455     6.0000     0.0545     3.9163     3.9163     0.0000
 15 H      0.9418     1.0000     0.0582     0.9855     0.9855     0.0000
 16 H      0.9417     1.0000     0.0583     0.9854     0.9854     0.0000
 17 H      0.9319     1.0000     0.0681     1.0336     1.0336    -0.0000
 18 C      6.1315     6.0000    -0.1315     3.8640     3.8640    -0.0000
 19 C      6.0134     6.0000    -0.0134     3.8395     3.8395    -0.0000
 20 C      6.0245     6.0000    -0.0245     3.8528     3.8528     0.0000
 21 H      1.0105     1.0000    -0.0105     1.0130     1.0130     0.0000
 22 C      6.0344     6.0000    -0.0344     3.8959     3.8959     0.0000
 23 H      0.9902     1.0000     0.0098     0.9927     0.9927    -0.0000
 24 S     15.8203    16.0000     0.1797     2.5421     2.5421     0.0000
 25 C      6.0505     6.0000    -0.0505     3.9190     3.9190     0.0000
 26 C      6.0138     6.0000    -0.0138     3.8837     3.8837    -0.0000
 27 C      6.0105     6.0000    -0.0105     3.8843     3.8843     0.0000
 28 H      0.9715     1.0000     0.0285     0.9928     0.9928     0.0000
 29 C      6.0524     6.0000    -0.0524     3.9179     3.9179    -0.0000
 30 H      0.9719     1.0000     0.0281     0.9927     0.9927     0.0000
 31 S     15.8817    16.0000     0.1183     2.5016     2.5016     0.0000
 32 C      6.0348     6.0000    -0.0348     3.8970     3.8970    -0.0000
 33 C      6.0224     6.0000    -0.0224     3.8515     3.8515     0.0000
 34 C      6.0140     6.0000    -0.0140     3.8396     3.8396     0.0000
 35 H      0.9906     1.0000     0.0094     0.9929     0.9929    -0.0000
 36 C      6.1336     6.0000    -0.1336     3.8670     3.8670     0.0000
 37 H      1.0087     1.0000    -0.0087     1.0137     1.0137     0.0000
 38 S     15.8179    16.0000     0.1821     2.5456     2.5456    -0.0000
 39 C      5.7923     6.0000     0.2077     3.8423     3.8423    -0.0000
 40 C      6.1195     6.0000    -0.1195     3.7898     3.7898    -0.0000
 41 N      7.2937     7.0000    -0.2937     3.3201     3.3201    -0.0000
 42 C      5.8514     6.0000     0.1486     4.1289     4.1289    -0.0000
 43 C      6.0055     6.0000    -0.0055     3.7497     3.7497     0.0000
 44 C      5.9673     6.0000     0.0327     3.7569     3.7569     0.0000
 45 C      5.8612     6.0000     0.1388     4.1273     4.1273    -0.0000
 46 N      7.2609     7.0000    -0.2609     3.3659     3.3659     0.0000
 47 H      0.9678     1.0000     0.0322     0.9956     0.9956     0.0000
 48 C      5.9461     6.0000     0.0539     3.9194     3.9194     0.0000
 49 H      0.9435     1.0000     0.0565     0.9848     0.9848    -0.0000
 50 H      0.9436     1.0000     0.0564     0.9848     0.9848    -0.0000
 51 H      0.9321     1.0000     0.0679     1.0350     1.0350    -0.0000
 52 C      5.9466     6.0000     0.0534     3.9076     3.9076     0.0000
 53 H      0.9307     1.0000     0.0693     1.0314     1.0314    -0.0000
 54 H      0.9473     1.0000     0.0527     0.9871     0.9871    -0.0000
 55 H      0.9471     1.0000     0.0529     0.9870     0.9870     0.0000
 56 O      8.1699     8.0000    -0.1699     2.3951     2.3951    -0.0000
 57 O      8.1852     8.0000    -0.1852     2.3779     2.3779     0.0000
 58 C      6.1776     6.0000    -0.1776     3.8978     3.8978    -0.0000
 59 C      6.0094     6.0000    -0.0094     3.8477     3.8477    -0.0000
 60 C      5.9806     6.0000     0.0194     3.8697     3.8697    -0.0000
 61 H      1.0068     1.0000    -0.0068     1.0122     1.0122    -0.0000
 62 C      6.0842     6.0000    -0.0842     3.7946     3.7946     0.0000
 63 H      0.9855     1.0000     0.0145     0.9862     0.9862     0.0000
 64 S     15.8133    16.0000     0.1867     2.5930     2.5930    -0.0000
 65 H      0.9426     1.0000     0.0574     0.9900     0.9900    -0.0000

  Mayer bond orders larger than 0.100000
B(  0-C ,  1-C ) :   1.0192 B(  0-C ,  2-N ) :   0.9785 B(  0-C ,  8-O ) :   2.0525 
B(  1-C ,  4-C ) :   1.2893 B(  1-C ,  5-C ) :   1.2699 B(  2-N ,  3-C ) :   1.1832 
B(  2-N , 10-C ) :   0.9892 B(  3-C ,  4-C ) :   1.2617 B(  3-C , 18-C ) :   1.2117 
B(  4-C ,  7-C ) :   1.0232 B(  5-C ,  6-N ) :   1.1898 B(  5-C , 58-C ) :   1.2057 
B(  6-N ,  7-C ) :   0.9784 B(  6-N , 14-C ) :   0.9881 B(  7-C ,  9-O ) :   2.0418 
B( 10-C , 11-H ) :   0.9299 B( 10-C , 12-H ) :   0.9574 B( 10-C , 13-H ) :   0.9575 
B( 14-C , 15-H ) :   0.9576 B( 14-C , 16-H ) :   0.9576 B( 14-C , 17-H ) :   0.9302 
B( 18-C , 19-C ) :   1.3485 B( 18-C , 22-C ) :   0.1029 B( 18-C , 24-S ) :   1.1223 
B( 19-C , 20-C ) :   1.3085 B( 19-C , 21-H ) :   0.9811 B( 20-C , 22-C ) :   1.3830 
B( 20-C , 23-H ) :   0.9740 B( 22-C , 24-S ) :   1.1079 B( 22-C , 25-C ) :   1.2078 
B( 25-C , 26-C ) :   1.4091 B( 25-C , 31-S ) :   1.1116 B( 26-C , 27-C ) :   1.3096 
B( 26-C , 28-H ) :   0.9730 B( 27-C , 29-C ) :   1.4112 B( 27-C , 30-H ) :   0.9730 
B( 29-C , 31-S ) :   1.1095 B( 29-C , 32-C ) :   1.2066 B( 32-C , 33-C ) :   1.3826 
B( 32-C , 36-C ) :   0.1036 B( 32-C , 38-S ) :   1.1124 B( 33-C , 34-C ) :   1.3078 
B( 33-C , 35-H ) :   0.9742 B( 34-C , 36-C ) :   1.3524 B( 34-C , 37-H ) :   0.9806 
B( 36-C , 38-S ) :   1.1219 B( 36-C , 39-C ) :   1.2098 B( 39-C , 40-C ) :   1.2910 
B( 39-C , 41-N ) :   1.1794 B( 40-C , 43-C ) :   1.2598 B( 40-C , 45-C ) :   1.0346 
B( 41-N , 42-C ) :   0.9556 B( 41-N , 48-C ) :   0.9901 B( 42-C , 43-C ) :   0.9901 
B( 42-C , 56-O ) :   2.1096 B( 43-C , 44-C ) :   1.3754 B( 44-C , 46-N ) :   1.2170 
B( 44-C , 47-H ) :   0.9743 B( 45-C , 46-N ) :   0.9788 B( 45-C , 57-O ) :   2.0364 
B( 46-N , 52-C ) :   0.9789 B( 48-C , 49-H ) :   0.9572 B( 48-C , 50-H ) :   0.9572 
B( 48-C , 51-H ) :   0.9301 B( 52-C , 53-H ) :   0.9471 B( 52-C , 54-H ) :   0.9668 
B( 52-C , 55-H ) :   0.9668 B( 58-C , 59-C ) :   1.3820 B( 58-C , 62-C ) :   0.1048 
B( 58-C , 64-S ) :   1.1497 B( 59-C , 60-C ) :   1.2849 B( 59-C , 61-H ) :   0.9806 
B( 60-C , 62-C ) :   1.4785 B( 60-C , 63-H ) :   0.9789 B( 62-C , 64-S ) :   1.1780 
B( 62-C , 65-H ) :   0.9608 

-------
TIMINGS
-------

Total SCF time: 0 days 0 hours 2 min 45 sec 

Total time                  ....     165.188 sec
Sum of individual times     ....     163.909 sec  ( 99.2%)

Fock matrix formation       ....     139.033 sec  ( 84.2%)
  Split-RI-J                ....      43.312 sec  ( 31.2% of F)
  XC integration            ....      80.002 sec  ( 57.5% of F)
    Basis function eval.    ....       9.791 sec  ( 12.2% of XC)
    Density eval.           ....       5.909 sec  (  7.4% of XC)
    XC-Functional eval.     ....       1.855 sec  (  2.3% of XC)
    XC-Potential eval.      ....       5.379 sec  (  6.7% of XC)
Diagonalization             ....       0.107 sec  (  0.1%)
Density matrix formation    ....       0.293 sec  (  0.2%)
Population analysis         ....       0.316 sec  (  0.2%)
Initial guess               ....       0.150 sec  (  0.1%)
Orbital Transformation      ....       0.000 sec  (  0.0%)
Orbital Orthonormalization  ....       0.113 sec  (  0.1%)
DIIS solution               ....       0.035 sec  (  0.0%)
SOSCF solution              ....       1.050 sec  (  0.6%)
Grid generation             ....      22.926 sec  ( 13.9%)


-------------------------------------------------------------------------------
                          DFT DISPERSION CORRECTION                            
                                                                               
                              DFTD3 V3.1  Rev 1                                
                          USING Becke-Johnson damping                          
-------------------------------------------------------------------------------
The BP86 functional is recognized
Active option DFTDOPT                   ...         4   

molecular C6(AA) [au] = 71908.124077 


            DFT-D V3
 parameters
 s6 scaling factor         :     1.0000 
 a1 scaling factor         :     0.3946 
 s8 scaling factor         :     3.2822 
 a2 scaling factor         :     4.8516 
 ad hoc parameters k1-k3   :    16.0000     1.3333    -4.0000 

 Edisp/kcal,au: -108.213484309247  -0.172449145772 
 E6   /kcal   : -38.487933871 
 E8   /kcal   : -69.725550438 
 % E8         :  64.433329065 

-------------------------   ----------------
Dispersion correction           -0.172449146
-------------------------   ----------------


-------------------------   --------------------
FINAL SINGLE POINT ENERGY     -3343.990677026712
-------------------------   --------------------

                                *** OPTIMIZATION RUN DONE ***

                            ***************************************
                            *     ORCA property calculations      *
                            ***************************************

                                    ---------------------
                                    Active property flags
                                    ---------------------
   (+) Dipole Moment


------------------------------------------------------------------------------
                       ORCA ELECTRIC PROPERTIES CALCULATION
------------------------------------------------------------------------------

Dipole Moment Calculation                       ... on
Quadrupole Moment Calculation                   ... off
Polarizability Calculation                      ... off
GBWName                                         ... DPP2T_T_Optimize_Monomer.gbw
Electron density file                           ... DPP2T_T_Optimize_Monomer.scfp
The origin for moment calculation is the CENTER OF MASS  = ( 2.134496,  5.412617  0.091702)

-------------
DIPOLE MOMENT
-------------
                                X             Y             Z
Electronic contribution:     -7.67151       0.88189       0.01602
Nuclear contribution   :      7.09663      -1.45812      -0.02012
                        -----------------------------------------
Total Dipole Moment    :     -0.57488      -0.57624      -0.00410
                        -----------------------------------------
Magnitude (a.u.)       :      0.81397
Magnitude (Debye)      :      2.06896



--------------------
Rotational spectrum 
--------------------
 
Rotational constants in cm-1:     0.006696     0.000511     0.000475 
Rotational constants in MHz :   200.753636    15.327031    14.245161 

 Dipole components along the rotational axes: 
x,y,z [a.u.] :    -0.802930     0.133636    -0.000183 
x,y,z [Debye]:    -2.040886     0.339675    -0.000464 

 

Timings for individual modules:

Sum of individual times         ...     6498.757 sec (= 108.313 min)
GTO integral calculation        ...       28.447 sec (=   0.474 min)   0.4 %
SCF iterations                  ...     5053.792 sec (=  84.230 min)  77.8 %
SCF Gradient evaluation         ...     1406.249 sec (=  23.437 min)  21.6 %
Geometry relaxation             ...       10.269 sec (=   0.171 min)   0.2 %
                             ****ORCA TERMINATED NORMALLY****
TOTAL RUN TIME: 0 days 1 hours 50 minutes 41 seconds 858 msec
