
                                 *****************
                                 * O   R   C   A *
                                 *****************

           --- An Ab Initio, DFT and Semiempirical electronic structure package ---

                  #######################################################
                  #                        -***-                        #
                  #          Department of theory and spectroscopy      #
                  #               Directorship: Frank Neese             #
                  #        Max Planck Institute fuer Kohlenforschung    #
                  #                Kaiser Wilhelm Platz 1               #
                  #                 D-45470 Muelheim/Ruhr               #
                  #                      Germany                        #
                  #                                                     #
                  #                  All rights reserved                #
                  #                        -***-                        #
                  #######################################################


                         Program Version 4.2.0 -  RELEASE  -


 With contributions from (in alphabetic order):
   Daniel Aravena         : Magnetic Suceptibility
   Michael Atanasov       : Ab Initio Ligand Field Theory (pilot matlab implementation)
   Alexander A. Auer      : GIAO ZORA, VPT2
   Ute Becker             : Parallelization
   Giovanni Bistoni       : ED, misc. LED, open-shell LED, HFLED
   Martin Brehm           : Molecular dynamics
   Dmytro Bykov           : SCF Hessian
   Vijay G. Chilkuri      : MRCI spin determinant printing, contributions to CSF-ICE
   Dipayan Datta          : RHF DLPNO-CCSD density
   Achintya Kumar Dutta   : EOM-CC, STEOM-CC
   Dmitry Ganyushin       : Spin-Orbit,Spin-Spin,Magnetic field MRCI
   Miquel Garcia          : C-PCM Hessian, Gaussian charge scheme
   Yang Guo               : DLPNO-NEVPT2, CIM, IAO-localization
   Andreas Hansen         : Spin unrestricted coupled pair/coupled cluster methods
   Benjamin Helmich-Paris : CASSCF linear response (MC-RPA)
   Lee Huntington         : MR-EOM, pCC
   Robert Izsak           : Overlap fitted RIJCOSX, COSX-SCS-MP3, EOM
   Christian Kollmar      : KDIIS, OOCD, Brueckner-CCSD(T), CCSD density
   Simone Kossmann        : Meta GGA functionals, TD-DFT gradient, OOMP2, MP2 Hessian
   Martin Krupicka        : AUTO-CI
   Lucas Lang             : DCDCAS
   Dagmar Lenk            : GEPOL surface, SMD
   Dimitrios Liakos       : Extrapolation schemes; Compound Job, initial MDCI parallelization
   Dimitrios Manganas     : Further ROCIS development; embedding schemes
   Dimitrios Pantazis     : SARC Basis sets
   Taras Petrenko         : DFT Hessian,TD-DFT gradient, ASA, ECA, R-Raman, ABS, FL, XAS/XES, NRVS
   Peter Pinski           : DLPNO-MP2, DLPNO-MP2 Gradient
   Christoph Reimann      : Effective Core Potentials
   Marius Retegan         : Local ZFS, SOC
   Christoph Riplinger    : Optimizer, TS searches, QM/MM, DLPNO-CCSD(T), (RO)-DLPNO pert. Triples
   Tobias Risthaus        : Range-separated hybrids, TD-DFT gradient, RPA, STAB
   Michael Roemelt        : Original ROCIS implementation
   Masaaki Saitow         : Open-shell DLPNO-CCSD energy and density
   Barbara Sandhoefer     : DKH picture change effects
   Avijit Sen             : IP-ROCIS
   Kantharuban Sivalingam : CASSCF convergence, NEVPT2, FIC-MRCI
   Bernardo de Souza      : ESD, SOC TD-DFT
   Georgi Stoychev        : AutoAux, RI-MP2 NMR
   Willem Van den Heuvel  : Paramagnetic NMR
   Boris Wezisla          : Elementary symmetry handling
   Frank Wennmohs         : Technical directorship


 We gratefully acknowledge several colleagues who have allowed us to
 interface, adapt or use parts of their codes:
   Stefan Grimme, W. Hujo, H. Kruse,             : VdW corrections, initial TS optimization,
                  C. Bannwarth                     DFT functionals, gCP, sTDA/sTD-DF
   Ed Valeev, F. Pavosevic, A. Kumar             : LibInt (2-el integral package), F12 methods
   Garnet Chan, S. Sharma, J. Yang, R. Olivares  : DMRG
   Ulf Ekstrom                                   : XCFun DFT Library
   Mihaly Kallay                                 : mrcc  (arbitrary order and MRCC methods)
   Andreas Klamt, Michael Diedenhofen            : otool_cosmo (COSMO solvation model)
   Jiri Pittner, Ondrej Demel                    : Mk-CCSD
   Frank Weinhold                                : gennbo (NPA and NBO analysis)
   Christopher J. Cramer and Donald G. Truhlar   : smd solvation model
   Lars Goerigk                                  : TD-DFT with DH, B97 family of functionals
   V. Asgeirsson, H. Jonsson                     : NEB implementation
   FAccTs GmbH                                   : IRC, NEB, NEB-TS, Multilevel, MM, QM/MM, CI optimization
   S Lehtola, MJT Oliveira, MAL Marques          : LibXC Library


 Your calculation uses the libint2 library for the computation of 2-el integrals
 For citations please refer to: http://libint.valeyev.net

 Your ORCA version has been built with support for libXC version: 4.2.3
 For citations please refer to: https://tddft.org/programs/libxc/

 This ORCA versions uses:
   CBLAS   interface :  Fast vector & matrix operations
   LAPACKE interface :  Fast linear algebra routines
   SCALAPACK package :  Parallel linear algebra routines


Your calculation utilizes the atom-pairwise dispersion correction
with the Becke-Johnson damping scheme (D3BJ)
Cite in your paper:
S.Grimme, S.Ehrlich, L.Goerigk, J Comput Chem, (2011), 32, 1456–1465 
S.Grimme, J.Antony, S.Ehrlich and H.Krieg, J.Chem.Phys., 132, (2010), 154104 
   

----- Orbital basis set information -----
Your calculation utilizes the basis: def2-SVP
   F. Weigend and R. Ahlrichs, Phys. Chem. Chem. Phys. 7, 3297 (2005).

----- AuxJ basis set information -----
Your calculation utilizes the auxiliary basis: def2/J
   F. Weigend, Phys. Chem. Chem. Phys. 8, 1057 (2006).

================================================================================
                                        WARNINGS
                       Please study these warnings very carefully!
================================================================================


WARNING: Geometry Optimization
  ===> : Switching off AutoStart
         For restart on a previous wavefunction, please use MOREAD

INFO   : the flag for use of LIBINT has been found!

================================================================================
                                       INPUT FILE
================================================================================
NAME = DPP2T_TT_Input_Thiophene_2_Optimize_Monomer.inp
|  1> ! RI BP86 def2-SVP def2/J D3BJ TIGHTSCF  Opt Grid3 FinalGrid5
|  2> %maxcore 3000
|  3> %geom
|  4> optimizehydrogens true
|  5> end
|  6> 
|  7> 
|  8> *xyz 0 1
|  9> C	-2.562708	0.029471	0.001930
| 10> C	-2.643754	1.435894	-0.002334
| 11> C	-1.389710	2.075522	-0.004635
| 12> H	-3.588657	1.986408	-0.003640
| 13> C	-0.310196	1.179647	-0.002090
| 14> H	-1.260416	3.166999	-0.007966
| 15> S	-0.868369	-0.480869	0.003064
| 16> H	-3.339826	-0.720516	0.004570
| 17> H	0.746817	1.401283	-0.002973
| 18> **                         ****END OF INPUT****
================================================================================

                       *****************************
                       * Geometry Optimization Run *
                       *****************************

Geometry optimization settings:
Update method            Update   .... BFGS
Choice of coordinates    CoordSys .... Z-matrix Internals
Initial Hessian          InHess   .... Almoef's Model

Convergence Tolerances:
Energy Change            TolE     ....  5.0000e-06 Eh
Max. Gradient            TolMAXG  ....  3.0000e-04 Eh/bohr
RMS Gradient             TolRMSG  ....  1.0000e-04 Eh/bohr
Max. Displacement        TolMAXD  ....  4.0000e-03 bohr
RMS Displacement         TolRMSD  ....  2.0000e-03 bohr
Strict Convergence                ....  False
------------------------------------------------------------------------------
                        ORCA OPTIMIZATION COORDINATE SETUP
------------------------------------------------------------------------------

The optimization will be done in new redundant internal coordinates
Making redundant internal coordinates   ...  (new redundants) done
Evaluating the initial hessian          ...  (Almloef) done
Evaluating the coordinates              ...  done
Calculating the B-matrix                .... done
Calculating the G-matrix                .... done
Diagonalizing the G-matrix              .... done
Imposing constraints:
 Iter   0:  RMS(Cart)=    0.0000000000 RMS(Int)=    0.0000000000
CONVERGED
The first mode is                       ....   17
The number of degrees of freedom        ....   21
Storing new coordinates                 .... done

    -----------------------------------------------------------------
                    Redundant Internal Coordinates


    -----------------------------------------------------------------
         Definition                    Initial Value    Approx d2E/dq
    -----------------------------------------------------------------
      1. B(C   1,C   0)                  1.4088         0.583182 C 
      2. B(C   2,C   1)                  1.4077         0.585359 C 
      3. B(H   3,C   1)                  1.0936         0.355400   
      4. B(C   4,C   2)                  1.4028         0.596018 C 
      5. B(H   5,C   2)                  1.0991         0.348244   
      6. B(S   6,C   0)                  1.7695         0.417823 C 
      7. B(S   6,C   4)                  1.7518         0.445897 C 
      8. B(H   7,C   0)                  1.0800         0.373575   
      9. B(H   8,C   4)                  1.0800         0.373575   
     10. A(S   6,C   0,H   7)          119.2552         0.349458   
     11. A(C   1,C   0,H   7)          130.6843         0.351450   
     12. A(C   1,C   0,S   6)          110.0605         0.422086 C 
     13. A(C   0,C   1,C   2)          113.7261         0.424918 C 
     14. A(C   2,C   1,H   3)          122.7501         0.348723   
     15. A(C   0,C   1,H   3)          123.5238         0.348504   
     16. A(C   4,C   2,H   5)          122.9333         0.348589   
     17. A(C   1,C   2,C   4)          113.2869         0.426577 C 
     18. A(C   1,C   2,H   5)          123.7797         0.347530   
     19. A(C   2,C   4,S   6)          111.1093         0.428695 C 
     20. A(C   2,C   4,H   8)          128.4687         0.352747   
     21. A(S   6,C   4,H   8)          120.4221         0.353320   
     22. A(C   0,S   6,C   4)           91.8172         0.424459 C 
     23. D(C   2,C   1,C   0,S   6)      0.0018         0.023378 C 
     24. D(H   3,C   1,C   0,H   7)     -0.0028         0.023378   
     25. D(C   2,C   1,C   0,H   7)    179.9905         0.023378   
     26. D(H   3,C   1,C   0,S   6)   -179.9914         0.023378   
     27. D(H   5,C   2,C   1,C   0)   -179.9980         0.023562   
     28. D(C   4,C   2,C   1,C   0)     -0.0052         0.023562 C 
     29. D(C   4,C   2,C   1,H   3)    179.9881         0.023562   
     30. D(H   5,C   2,C   1,H   3)     -0.0047         0.023562   
     31. D(S   6,C   4,C   2,C   1)      0.0061         0.024472 C 
     32. D(S   6,C   4,C   2,H   5)    179.9990         0.024472   
     33. D(H   8,C   4,C   2,C   1)   -179.9957         0.024472   
     34. D(H   8,C   4,C   2,H   5)     -0.0029         0.024472   
     35. D(C   4,S   6,C   0,C   1)      0.0014         0.004046 C 
     36. D(C   4,S   6,C   0,H   7)   -179.9887         0.004046   
     37. D(C   0,S   6,C   4,C   2)     -0.0043         0.004416 C 
     38. D(C   0,S   6,C   4,H   8)    179.9974         0.004416   
    -----------------------------------------------------------------

Number of atoms                         .... 9
Number of degrees of freedom            .... 38

         *************************************************************
         *                GEOMETRY OPTIMIZATION CYCLE   1            *
         *************************************************************
---------------------------------
CARTESIAN COORDINATES (ANGSTROEM)
---------------------------------
  C     -2.562708    0.029471    0.001930
  C     -2.643754    1.435894   -0.002334
  C     -1.389710    2.075522   -0.004635
  H     -3.588657    1.986408   -0.003640
  C     -0.310196    1.179647   -0.002090
  H     -1.260416    3.166999   -0.007966
  S     -0.868369   -0.480869    0.003064
  H     -3.339826   -0.720516    0.004570
  H      0.746817    1.401283   -0.002973

----------------------------
CARTESIAN COORDINATES (A.U.)
----------------------------
  NO LB      ZA    FRAG     MASS         X           Y           Z
   0 C     6.0000    0    12.011   -4.842816    0.055692    0.003647
   1 C     6.0000    0    12.011   -4.995971    2.713446   -0.004411
   2 C     6.0000    0    12.011   -2.626171    3.922168   -0.008759
   3 H     1.0000    0     1.008   -6.781579    3.753767   -0.006879
   4 C     6.0000    0    12.011   -0.586185    2.229210   -0.003950
   5 H     1.0000    0     1.008   -2.381841    5.984761   -0.015054
   6 S    16.0000    0    32.060   -1.640980   -0.908711    0.005790
   7 H     1.0000    0     1.008   -6.311356   -1.361578    0.008636
   8 H     1.0000    0     1.008    1.411280    2.648041   -0.005618

--------------------------------
INTERNAL COORDINATES (ANGSTROEM)
--------------------------------
 C      0   0   0     0.000000000000     0.00000000     0.00000000
 C      1   0   0     1.408762680774     0.00000000     0.00000000
 C      2   1   0     1.407748424585   113.72606174     0.00000000
 H      2   1   3     1.093576265855   123.52379447   180.00673308
 C      3   2   1     1.402836044891   113.28693199     0.00000000
 H      3   2   1     1.099113313324   123.77972511   180.00200733
 S      5   3   2     1.751826774513   111.10926897     0.00000000
 H      1   2   3     1.079999933191   130.68430202   179.99046530
 H      5   3   2     1.079999897386   128.46865406   180.00427509

---------------------------
INTERNAL COORDINATES (A.U.)
---------------------------
 C      0   0   0     0.000000000000     0.00000000     0.00000000
 C      1   0   0     2.662175654351     0.00000000     0.00000000
 C      2   1   0     2.660258987924   113.72606174     0.00000000
 H      2   1   3     2.066559649022   123.52379447   180.00673308
 C      3   2   1     2.650975935638   113.28693199     0.00000000
 H      3   2   1     2.077023152329   123.77972511   180.00200733
 S      5   3   2     3.310472837900   111.10926897     0.00000000
 H      1   2   3     2.040904098385   130.68430202   179.99046530
 H      5   3   2     2.040904030723   128.46865406   180.00427509

---------------------
BASIS SET INFORMATION
---------------------
There are 3 groups of distinct atoms

 Group   1 Type C   : 7s4p1d contracted to 3s2p1d pattern {511/31/1}
 Group   2 Type H   : 4s1p contracted to 2s1p pattern {31/1}
 Group   3 Type S   : 10s7p1d contracted to 4s3p1d pattern {5311/511/1}

Atom   0C    basis set group =>   1
Atom   1C    basis set group =>   1
Atom   2C    basis set group =>   1
Atom   3H    basis set group =>   2
Atom   4C    basis set group =>   1
Atom   5H    basis set group =>   2
Atom   6S    basis set group =>   3
Atom   7H    basis set group =>   2
Atom   8H    basis set group =>   2
---------------------------------
AUXILIARY/J BASIS SET INFORMATION
---------------------------------
There are 3 groups of distinct atoms

 Group   1 Type C   : 12s5p4d2f1g contracted to 6s4p3d1f1g pattern {711111/2111/211/2/1}
 Group   2 Type H   : 5s2p1d contracted to 3s1p1d pattern {311/2/1}
 Group   3 Type S   : 14s5p5d2f1g contracted to 8s4p3d1f1g pattern {71111111/2111/311/2/1}

Atom   0C    basis set group =>   1
Atom   1C    basis set group =>   1
Atom   2C    basis set group =>   1
Atom   3H    basis set group =>   2
Atom   4C    basis set group =>   1
Atom   5H    basis set group =>   2
Atom   6S    basis set group =>   3
Atom   7H    basis set group =>   2
Atom   8H    basis set group =>   2
------------------------------------------------------------------------------
                           ORCA GTO INTEGRAL CALCULATION
                           -- RI-GTO INTEGRALS CHOSEN --
------------------------------------------------------------------------------

                         BASIS SET STATISTICS AND STARTUP INFO

Gaussian basis set:
 # of primitive gaussian shells          ...   86
 # of primitive gaussian functions       ...  160
 # of contracted shells                  ...   44
 # of contracted basis functions         ...   94
 Highest angular momentum                ...    2
 Maximum contraction depth               ...    5
Auxiliary gaussian basis set:
 # of primitive gaussian shells          ...  155
 # of primitive gaussian functions       ...  421
 # of contracted shells                  ...   97
 # of contracted aux-basis functions     ...  291
 Highest angular momentum                ...    4
 Maximum contraction depth               ...    7
Ratio of auxiliary to basis functions    ...  3.10
Integral package used                  ... LIBINT
 One Electron integrals                  ... done
 Ordering auxiliary basis shells         ... done
 Integral threshhold             Thresh  ...  2.500e-11
 Primitive cut-off               TCut    ...  2.500e-12
 Pre-screening matrix                    ... done
 Shell pair data                         ... 
 Ordering of the shell pairs             ... done (   0.000 sec) 975 of 990 pairs
 Determination of significant pairs      ... done (   0.000 sec)
 Creation of shell pair data             ... done (   0.000 sec)
 Storage of shell pair data              ... done (   0.006 sec)
 Shell pair data done in (   0.007 sec)
 Computing two index integrals           ... done
 Cholesky decomposition of the V-matrix  ... done


Timings:
 Total evaluation time                   ...   0.124 sec (  0.002 min)
 One electron matrix time                ...   0.018 sec (  0.000 min) = 14.7%
 Schwartz matrix evaluation time         ...   0.066 sec (  0.001 min) = 52.9%
 Two index repulsion integral time       ...   0.005 sec (  0.000 min) =  3.7%
 Cholesky decomposition of V             ...   0.012 sec (  0.000 min) =  9.4%
 Three index repulsion integral time     ...   0.000 sec (  0.000 min) =  0.0%

-------------------------------------------------------------------------------
                                 ORCA SCF
-------------------------------------------------------------------------------

------------
SCF SETTINGS
------------
Hamiltonian:
 Density Functional     Method          .... DFT(GTOs)
 Exchange Functional    Exchange        .... B88
   X-Alpha parameter    XAlpha          ....  0.666667
   Becke's b parameter  XBeta           ....  0.004200
 Correlation Functional Correlation     .... P86
 LDA part of GGA corr.  LDAOpt          .... PW91-LDA
 Gradients option       PostSCFGGA      .... off
   Density functional embedding theory  .... OFF
 RI-approximation to the Coulomb term is turned on
   Number of auxiliary basis functions  .... 291


General Settings:
 Integral files         IntName         .... DPP2T_TT_Input_Thiophene_2_Optimize_Monomer
 Hartree-Fock type      HFTyp           .... RHF
 Total Charge           Charge          ....    0
 Multiplicity           Mult            ....    1
 Number of Electrons    NEL             ....   44
 Basis Dimension        Dim             ....   94
 Nuclear Repulsion      ENuc            ....    199.1320148135 Eh

Convergence Acceleration:
 DIIS                   CNVDIIS         .... on
   Start iteration      DIISMaxIt       ....    12
   Startup error        DIISStart       ....  0.200000
   # of expansion vecs  DIISMaxEq       ....     5
   Bias factor          DIISBfac        ....   1.050
   Max. coefficient     DIISMaxC        ....  10.000
 Newton-Raphson         CNVNR           .... off
 SOSCF                  CNVSOSCF        .... on
   Start iteration      SOSCFMaxIt      ....   150
   Startup grad/error   SOSCFStart      ....  0.003300
 Level Shifting         CNVShift        .... on
   Level shift para.    LevelShift      ....    0.2500
   Turn off err/grad.   ShiftErr        ....    0.0010
 Zerner damping         CNVZerner       .... off
 Static damping         CNVDamp         .... on
   Fraction old density DampFac         ....    0.7000
   Max. Damping (<1)    DampMax         ....    0.9800
   Min. Damping (>=0)   DampMin         ....    0.0000
   Turn off err/grad.   DampErr         ....    0.1000
 Fernandez-Rico         CNVRico         .... off

SCF Procedure:
 Maximum # iterations   MaxIter         ....   125
 SCF integral mode      SCFMode         .... Direct
   Integral package                     .... LIBINT
 Reset frequency        DirectResetFreq ....    20
 Integral Threshold     Thresh          ....  2.500e-11 Eh
 Primitive CutOff       TCut            ....  2.500e-12 Eh

Convergence Tolerance:
 Convergence Check Mode ConvCheckMode   .... Total+1el-Energy
 Convergence forced     ConvForced      .... 0
 Energy Change          TolE            ....  1.000e-08 Eh
 1-El. energy change                    ....  1.000e-05 Eh
 Orbital Gradient       TolG            ....  1.000e-05
 Orbital Rotation angle TolX            ....  1.000e-05
 DIIS Error             TolErr          ....  5.000e-07


Diagonalization of the overlap matrix:
Smallest eigenvalue                        ... 1.144e-03
Time for diagonalization                   ...    0.011 sec
Threshold for overlap eigenvalues          ... 1.000e-08
Number of eigenvalues below threshold      ... 0
Time for construction of square roots      ...    0.006 sec
Total time needed                          ...    0.017 sec

-------------------
DFT GRID GENERATION
-------------------

General Integration Accuracy     IntAcc      ...  4.340
Radial Grid Type                 RadialGrid  ... Gauss-Chebyshev
Angular Grid (max. acc.)         AngularGrid ... Lebedev-194
Angular grid pruning method      GridPruning ... 3 (G Style)
Weight generation scheme         WeightScheme... Becke
Basis function cutoff            BFCut       ...    1.0000e-11
Integration weight cutoff        WCut        ...    1.0000e-14
Grids for H and He will be reduced by one unit

# of grid points (after initial pruning)     ...  22812 (   0.0 sec)
# of grid points (after weights+screening)   ...  21670 (   0.0 sec)
nearest neighbour list constructed           ...    0.0 sec
Grid point re-assignment to atoms done       ...    0.0 sec
Grid point division into batches done        ...    0.0 sec
Reduced shell lists constructed in    0.1 sec

Total number of grid points                  ...    21670
Total number of batches                      ...      343
Average number of points per batch           ...       63
Average number of grid points per atom       ...     2408
Average number of shells per batch           ...    33.52 (76.18%)
Average number of basis functions per batch  ...    73.12 (77.78%)
Average number of large shells per batch     ...    28.37 (84.63%)
Average number of large basis fcns per batch ...    61.00 (83.43%)
Maximum spatial batch extension              ...  18.47, 18.59, 21.98 au
Average spatial batch extension              ...   3.41,  3.51,  4.10 au

Time for grid setup =    0.123 sec

------------------------------
INITIAL GUESS: MODEL POTENTIAL
------------------------------
Loading Hartree-Fock densities                     ... done
Calculating cut-offs                               ... done
Setting up the integral package                    ... done
Initializing the effective Hamiltonian             ... done
Starting the Coulomb interaction                   ... done (   0.0 sec)
Reading the grid                                   ... done
Mapping shells                                     ... done
Starting the XC term evaluation                    ... done (   0.1 sec)
  promolecular density results
     # of electrons  =     43.998349312
     EX              =    -46.733738189
     EC              =     -1.699575281
     EX+EC           =    -48.433313470
Transforming the Hamiltonian                       ... done (   0.0 sec)
Diagonalizing the Hamiltonian                      ... done (   0.0 sec)
Back transforming the eigenvectors                 ... done (   0.0 sec)
Now organizing SCF variables                       ... done
                      ------------------
                      INITIAL GUESS DONE (   0.3 sec)
                      ------------------
--------------
SCF ITERATIONS
--------------
ITER       Energy         Delta-E        Max-DP      RMS-DP      [F,P]     Damp
               ***  Starting incremental Fock matrix formation  ***
  0   -552.6839979975   0.000000000000 0.06288264  0.00349627  0.1311713 0.7000
  1   -552.7542597134  -0.070261715901 0.04971620  0.00231773  0.0507089 0.7000
                               ***Turning on DIIS***
  2   -552.7722275002  -0.017967786819 0.10250030  0.00296167  0.0163653 0.0000
  3   -552.7995910027  -0.027363502555 0.03023390  0.00189213  0.0447462 0.0000
  4   -552.8119738322  -0.012382829460 0.02298564  0.00064416  0.0110913 0.0000
  5   -552.8128244886  -0.000850656379 0.00727332  0.00021964  0.0040922 0.0000
                      *** Initiating the SOSCF procedure ***
                           *** Shutting down DIIS ***
                      *** Re-Reading the Fockian *** 
                      *** Removing any level shift *** 
ITER      Energy       Delta-E        Grad      Rot      Max-DP    RMS-DP
  6   -552.81292166  -0.0000971697  0.001017  0.001017  0.002494  0.000075
               *** Restarting incremental Fock matrix formation ***
  7   -552.81293248  -0.0000108221  0.000266  0.001520  0.002279  0.000076
  8   -552.81293434  -0.0000018548  0.000253  0.001170  0.000880  0.000031
  9   -552.81293393   0.0000004072  0.000362  0.001086  0.001149  0.000028
 10   -552.81293497  -0.0000010383  0.000054  0.000142  0.000257  0.000010
 11   -552.81293490   0.0000000666  0.000085  0.000144  0.000203  0.000007
 12   -552.81293502  -0.0000001173  0.000030  0.000128  0.000121  0.000005
 13   -552.81293498   0.0000000321  0.000053  0.000091  0.000095  0.000004
 14   -552.81293502  -0.0000000395  0.000009  0.000041  0.000093  0.000002
 15   -552.81293503  -0.0000000018  0.000013  0.000026  0.000054  0.000001
                 **** Energy Check signals convergence ****
              ***Rediagonalizing the Fockian in SOSCF/NRSCF***

               *****************************************************
               *                     SUCCESS                       *
               *           SCF CONVERGED AFTER  16 CYCLES          *
               *****************************************************

Setting up the final grid:

General Integration Accuracy     IntAcc      ...  5.010
Radial Grid Type                 RadialGrid  ... Gauss-Chebyshev
Angular Grid (max. acc.)         AngularGrid ... Lebedev-434
Angular grid pruning method      GridPruning ... 3 (G Style)
Weight generation scheme         WeightScheme... Becke
Basis function cutoff            BFCut       ...    1.0000e-11
Integration weight cutoff        WCut        ...    1.0000e-14
Grids for H and He will be reduced by one unit

# of grid points (after initial pruning)     ...  81300 (   0.0 sec)
# of grid points (after weights+screening)   ...  76749 (   0.0 sec)
nearest neighbour list constructed           ...    0.0 sec
Grid point re-assignment to atoms done       ...    0.0 sec
Grid point division into batches done        ...    0.4 sec
Reduced shell lists constructed in    0.6 sec

Total number of grid points                  ...    76749
Total number of batches                      ...     1204
Average number of points per batch           ...       63
Average number of grid points per atom       ...     8528
Average number of shells per batch           ...    31.29 (71.12%)
Average number of basis functions per batch  ...    67.86 (72.19%)
Average number of large shells per batch     ...    26.00 (83.09%)
Average number of large basis fcns per batch ...    55.48 (81.75%)
Maximum spatial batch extension              ...  15.23, 21.23, 22.36 au
Average spatial batch extension              ...   2.32,  2.37,  2.60 au

Final grid set up in    0.7 sec
Final integration                            ... done (   0.4 sec)
Change in XC energy                          ...    -0.000107696
Integrated number of electrons               ...    43.999999113
Previous integrated no of electrons          ...    44.000290070

----------------
TOTAL SCF ENERGY
----------------

Total Energy       :         -552.81304272 Eh          -15042.80765 eV

Components:
Nuclear Repulsion  :          199.13201481 Eh            5418.65760 eV
Electronic Energy  :         -751.94505754 Eh          -20461.46526 eV
One Electron Energy:        -1152.06386947 Eh          -31349.25165 eV
Two Electron Energy:          400.11881193 Eh           10887.78640 eV

Virial components:
Potential Energy   :        -1102.57387323 Eh          -30002.56039 eV
Kinetic Energy     :          549.76083051 Eh           14959.75274 eV
Virial Ratio       :            2.00555189


DFT components:
N(Alpha)           :       21.999999556647 electrons
N(Beta)            :       21.999999556647 electrons
N(Total)           :       43.999999113295 electrons
E(X)               :      -47.109806596509 Eh       
E(C)               :       -1.707003958054 Eh       
E(XC)              :      -48.816810554563 Eh       
DFET-embed. en.    :        0.000000000000 Eh       

---------------
SCF CONVERGENCE
---------------

  Last Energy change         ...   -1.1905e-09  Tolerance :   1.0000e-08
  Last MAX-Density change    ...    1.7927e-06  Tolerance :   1.0000e-07
  Last RMS-Density change    ...    6.6123e-08  Tolerance :   5.0000e-09
  Last Orbital Gradient      ...    3.0489e-07  Tolerance :   1.0000e-05
  Last Orbital Rotation      ...    5.1736e-07  Tolerance :   1.0000e-05

             **** THE GBW FILE WAS UPDATED (DPP2T_TT_Input_Thiophene_2_Optimize_Monomer.gbw) ****
             **** DENSITY FILE WAS UPDATED (DPP2T_TT_Input_Thiophene_2_Optimize_Monomer.scfp) ****
             **** ENERGY FILE WAS UPDATED (DPP2T_TT_Input_Thiophene_2_Optimize_Monomer.en.tmp) ****
             **** THE GBW FILE WAS UPDATED (DPP2T_TT_Input_Thiophene_2_Optimize_Monomer.gbw) ****
             **** DENSITY FILE WAS UPDATED (DPP2T_TT_Input_Thiophene_2_Optimize_Monomer.scfp) ****
----------------
ORBITAL ENERGIES
----------------

  NO   OCC          E(Eh)            E(eV) 
   0   2.0000     -88.119936     -2397.8654 
   1   2.0000      -9.942840      -270.5584 
   2   2.0000      -9.941054      -270.5098 
   3   2.0000      -9.923064      -270.0203 
   4   2.0000      -9.922261      -269.9984 
   5   2.0000      -7.715575      -209.9515 
   6   2.0000      -5.742501      -156.2614 
   7   2.0000      -5.738111      -156.1419 
   8   2.0000      -5.735362      -156.0671 
   9   2.0000      -0.792053       -21.5529 
  10   2.0000      -0.664976       -18.0949 
  11   2.0000      -0.642981       -17.4964 
  12   2.0000      -0.509665       -13.8687 
  13   2.0000      -0.493640       -13.4326 
  14   2.0000      -0.462065       -12.5734 
  15   2.0000      -0.368092       -10.0163 
  16   2.0000      -0.355616        -9.6768 
  17   2.0000      -0.345696        -9.4069 
  18   2.0000      -0.336643        -9.1605 
  19   2.0000      -0.309727        -8.4281 
  20   2.0000      -0.230239        -6.2651 
  21   2.0000      -0.209559        -5.7024 
  22   0.0000      -0.055050        -1.4980 
  23   0.0000       0.005320         0.1448 
  24   0.0000       0.019467         0.5297 
  25   0.0000       0.052274         1.4224 
  26   0.0000       0.065481         1.7818 
  27   0.0000       0.094448         2.5700 
  28   0.0000       0.116322         3.1653 
  29   0.0000       0.119365         3.2481 
  30   0.0000       0.219646         5.9769 
  31   0.0000       0.274834         7.4786 
  32   0.0000       0.309289         8.4162 
  33   0.0000       0.343143         9.3374 
  34   0.0000       0.360296         9.8041 
  35   0.0000       0.376818        10.2537 
  36   0.0000       0.393971        10.7205 
  37   0.0000       0.396490        10.7890 
  38   0.0000       0.440656        11.9909 
  39   0.0000       0.466339        12.6897 
  40   0.0000       0.475106        12.9283 
  41   0.0000       0.496914        13.5217 
  42   0.0000       0.525535        14.3005 
  43   0.0000       0.538815        14.6619 
  44   0.0000       0.574573        15.6349 
  45   0.0000       0.585022        15.9193 
  46   0.0000       0.604777        16.4568 
  47   0.0000       0.628604        17.1052 
  48   0.0000       0.650005        17.6875 
  49   0.0000       0.652199        17.7472 
  50   0.0000       0.654989        17.8232 
  51   0.0000       0.675191        18.3729 
  52   0.0000       0.694146        18.8887 
  53   0.0000       0.706776        19.2323 
  54   0.0000       0.720459        19.6047 
  55   0.0000       0.753575        20.5058 
  56   0.0000       0.836899        22.7732 
  57   0.0000       0.900671        24.5085 
  58   0.0000       1.058877        28.8135 
  59   0.0000       1.064467        28.9656 
  60   0.0000       1.096967        29.8500 
  61   0.0000       1.116175        30.3727 
  62   0.0000       1.185375        32.2557 
  63   0.0000       1.198147        32.6032 
  64   0.0000       1.210942        32.9514 
  65   0.0000       1.444907        39.3179 
  66   0.0000       1.500348        40.8265 
  67   0.0000       1.564096        42.5612 
  68   0.0000       1.577312        42.9208 
  69   0.0000       1.617792        44.0224 
  70   0.0000       1.687244        45.9122 
  71   0.0000       1.700684        46.2780 
  72   0.0000       1.718715        46.7686 
  73   0.0000       1.826780        49.7092 
  74   0.0000       1.859220        50.5920 
  75   0.0000       1.865353        50.7588 
  76   0.0000       1.889445        51.4144 
  77   0.0000       1.935328        52.6629 
  78   0.0000       1.948450        53.0200 
  79   0.0000       1.996897        54.3383 
  80   0.0000       2.054224        55.8983 
  81   0.0000       2.068202        56.2786 
  82   0.0000       2.231827        60.7311 
  83   0.0000       2.261648        61.5426 
  84   0.0000       2.272695        61.8432 
  85   0.0000       2.343096        63.7589 
  86   0.0000       2.427052        66.0434 
  87   0.0000       2.560317        69.6698 
  88   0.0000       2.583992        70.3140 
  89   0.0000       2.616556        71.2001 
  90   0.0000       2.648351        72.0653 
  91   0.0000       2.940805        80.0234 
  92   0.0000       2.964248        80.6613 
  93   0.0000       3.313546        90.1662 

                    ********************************
                    * MULLIKEN POPULATION ANALYSIS *
                    ********************************

-----------------------
MULLIKEN ATOMIC CHARGES
-----------------------
   0 C :   -0.127269
   1 C :    0.020224
   2 C :    0.012824
   3 H :    0.014877
   4 C :   -0.124029
   5 H :    0.017452
   6 S :    0.087857
   7 H :    0.049898
   8 H :    0.048168
Sum of atomic charges:    0.0000000

--------------------------------
MULLIKEN REDUCED ORBITAL CHARGES
--------------------------------
  0 C s       :     3.202692  s :     3.202692
      pz      :     1.122672  p :     2.894276
      px      :     0.837102
      py      :     0.934501
      dz2     :     0.002762  d :     0.030302
      dxz     :     0.003254
      dyz     :     0.004899
      dx2y2   :     0.008884
      dxy     :     0.010502
  1 C s       :     3.156491  s :     3.156491
      pz      :     1.020807  p :     2.791174
      px      :     0.881657
      py      :     0.888710
      dz2     :     0.002464  d :     0.032112
      dxz     :     0.003745
      dyz     :     0.005689
      dx2y2   :     0.010118
      dxy     :     0.010096
  2 C s       :     3.156824  s :     3.156824
      pz      :     1.022966  p :     2.798136
      px      :     0.942343
      py      :     0.832827
      dz2     :     0.002467  d :     0.032216
      dxz     :     0.006686
      dyz     :     0.002754
      dx2y2   :     0.010243
      dxy     :     0.010067
  3 H s       :     0.962549  s :     0.962549
      pz      :     0.005420  p :     0.022574
      px      :     0.011149
      py      :     0.006005
  4 C s       :     3.191126  s :     3.191126
      pz      :     1.117239  p :     2.901755
      px      :     0.927849
      py      :     0.856667
      dz2     :     0.002785  d :     0.031148
      dxz     :     0.002958
      dyz     :     0.005599
      dx2y2   :     0.012150
      dxy     :     0.007656
  5 H s       :     0.960222  s :     0.960222
      pz      :     0.005355  p :     0.022326
      px      :     0.003655
      py      :     0.013316
  6 S s       :     5.858248  s :     5.858248
      pz      :     3.623987  p :     9.949715
      px      :     3.071969
      py      :     3.253759
      dz2     :     0.011366  d :     0.104180
      dxz     :     0.020381
      dyz     :     0.013416
      dx2y2   :     0.033909
      dxy     :     0.025110
  7 H s       :     0.926822  s :     0.926822
      pz      :     0.006119  p :     0.023280
      px      :     0.008671
      py      :     0.008490
  8 H s       :     0.928629  s :     0.928629
      pz      :     0.006045  p :     0.023203
      px      :     0.013570
      py      :     0.003588


                     *******************************
                     * LOEWDIN POPULATION ANALYSIS *
                     *******************************

----------------------
LOEWDIN ATOMIC CHARGES
----------------------
   0 C :   -0.192024
   1 C :   -0.072797
   2 C :   -0.076139
   3 H :    0.035374
   4 C :   -0.196058
   5 H :    0.036932
   6 S :    0.411472
   7 H :    0.026478
   8 H :    0.026763

-------------------------------
LOEWDIN REDUCED ORBITAL CHARGES
-------------------------------
  0 C s       :     2.953244  s :     2.953244
      pz      :     1.113263  p :     3.165068
      px      :     0.984359
      py      :     1.067446
      dz2     :     0.005487  d :     0.073711
      dxz     :     0.006187
      dyz     :     0.009928
      dx2y2   :     0.025421
      dxy     :     0.026688
  1 C s       :     2.879691  s :     2.879691
      pz      :     1.010021  p :     3.105790
      px      :     1.046320
      py      :     1.049449
      dz2     :     0.006133  d :     0.087316
      dxz     :     0.006996
      dyz     :     0.012470
      dx2y2   :     0.031852
      dxy     :     0.029864
  2 C s       :     2.880032  s :     2.880032
      pz      :     1.012464  p :     3.108576
      px      :     1.052052
      py      :     1.044060
      dz2     :     0.006163  d :     0.087532
      dxz     :     0.014810
      dyz     :     0.004678
      dx2y2   :     0.029196
      dxy     :     0.032686
  3 H s       :     0.896803  s :     0.896803
      pz      :     0.015138  p :     0.067824
      px      :     0.034113
      py      :     0.018573
  4 C s       :     2.948028  s :     2.948028
      pz      :     1.107903  p :     3.171841
      px      :     1.065958
      py      :     0.997979
      dz2     :     0.005636  d :     0.076189
      dxz     :     0.005116
      dyz     :     0.011849
      dx2y2   :     0.030952
      dxy     :     0.022636
  5 H s       :     0.896186  s :     0.896186
      pz      :     0.014883  p :     0.066882
      px      :     0.010971
      py      :     0.041028
  6 S s       :     5.537243  s :     5.537243
      pz      :     3.579213  p :     9.925634
      px      :     3.068425
      py      :     3.277996
      dz2     :     0.014284  d :     0.125651
      dxz     :     0.023999
      dyz     :     0.013783
      dx2y2   :     0.043604
      dxy     :     0.029982
  7 H s       :     0.897656  s :     0.897656
      pz      :     0.018724  p :     0.075866
      px      :     0.030590
      py      :     0.026553
  8 H s       :     0.897659  s :     0.897659
      pz      :     0.018574  p :     0.075578
      px      :     0.043652
      py      :     0.013352


                      *****************************
                      * MAYER POPULATION ANALYSIS *
                      *****************************

  NA   - Mulliken gross atomic population
  ZA   - Total nuclear charge
  QA   - Mulliken gross atomic charge
  VA   - Mayer's total valence
  BVA  - Mayer's bonded valence
  FA   - Mayer's free valence

  ATOM       NA         ZA         QA         VA         BVA        FA
  0 C      6.1273     6.0000    -0.1273     3.8040     3.8040    -0.0000
  1 C      5.9798     6.0000     0.0202     3.9061     3.9061     0.0000
  2 C      5.9872     6.0000     0.0128     3.9151     3.9151    -0.0000
  3 H      0.9851     1.0000     0.0149     0.9868     0.9868     0.0000
  4 C      6.1240     6.0000    -0.1240     3.8156     3.8156     0.0000
  5 H      0.9825     1.0000     0.0175     0.9860     0.9860     0.0000
  6 S     15.9121    16.0000     0.0879     2.5572     2.5572    -0.0000
  7 H      0.9501     1.0000     0.0499     0.9946     0.9946     0.0000
  8 H      0.9518     1.0000     0.0482     0.9941     0.9941     0.0000

  Mayer bond orders larger than 0.100000
B(  0-C ,  1-C ) :   1.5160 B(  0-C ,  4-C ) :   0.1189 B(  0-C ,  6-S ) :   1.1807 
B(  0-C ,  7-H ) :   0.9687 B(  1-C ,  2-C ) :   1.3209 B(  1-C ,  3-H ) :   0.9826 
B(  2-C ,  4-C ) :   1.5217 B(  2-C ,  5-H ) :   0.9808 B(  4-C ,  6-S ) :   1.1886 
B(  4-C ,  8-H ) :   0.9660 

-------
TIMINGS
-------

Total SCF time: 0 days 0 hours 0 min 7 sec 

Total time                  ....       7.959 sec
Sum of individual times     ....       7.619 sec  ( 95.7%)

Fock matrix formation       ....       6.388 sec  ( 80.3%)
  Split-RI-J                ....       1.723 sec  ( 27.0% of F)
  XC integration            ....       3.963 sec  ( 62.0% of F)
    Basis function eval.    ....       0.848 sec  ( 21.4% of XC)
    Density eval.           ....       0.737 sec  ( 18.6% of XC)
    XC-Functional eval.     ....       0.820 sec  ( 20.7% of XC)
    XC-Potential eval.      ....       0.487 sec  ( 12.3% of XC)
Diagonalization             ....       0.010 sec  (  0.1%)
Density matrix formation    ....       0.001 sec  (  0.0%)
Population analysis         ....       0.182 sec  (  2.3%)
Initial guess               ....       0.195 sec  (  2.4%)
Orbital Transformation      ....       0.000 sec  (  0.0%)
Orbital Orthonormalization  ....       0.000 sec  (  0.0%)
DIIS solution               ....       0.014 sec  (  0.2%)
SOSCF solution              ....       0.011 sec  (  0.1%)
Grid generation             ....       0.819 sec  ( 10.3%)


-------------------------------------------------------------------------------
                          DFT DISPERSION CORRECTION                            
                                                                               
                              DFTD3 V3.1  Rev 1                                
                          USING Becke-Johnson damping                          
-------------------------------------------------------------------------------
The BP86 functional is recognized
Active option DFTDOPT                   ...         4   

molecular C6(AA) [au] = 1461.545786 


            DFT-D V3
 parameters
 s6 scaling factor         :     1.0000 
 a1 scaling factor         :     0.3946 
 s8 scaling factor         :     3.2822 
 a2 scaling factor         :     4.8516 
 ad hoc parameters k1-k3   :    16.0000     1.3333    -4.0000 

 Edisp/kcal,au: -8.719028952226  -0.013894655591 
 E6   /kcal   :  -3.001672741 
 E8   /kcal   :  -5.717356211 
 % E8         :  65.573313755 

-------------------------   ----------------
Dispersion correction           -0.013894656
-------------------------   ----------------


-------------------------   --------------------
FINAL SINGLE POINT ENERGY      -552.826937378554
-------------------------   --------------------

------------------------------------------------------------------------------
                         ORCA SCF GRADIENT CALCULATION
------------------------------------------------------------------------------

Gradient of the Kohn-Sham DFT energy:
Kohn-Sham wavefunction type      ... RKS
Hartree-Fock exchange scaling    ...    0.000
Number of operators              ...    1
Number of atoms                  ...    9
Basis set dimensions             ...   94
Integral neglect threshold       ... 2.5e-11
Integral primitive cutoff        ... 2.5e-12

Nuclear repulsion gradient       ... done
One Electron Gradient            ... done
Pre-screening matrix             ... done
RI-J gradient                    ... done
Exchange-correlation gradient    ... done
Dispersion correction            ... done

------------------
CARTESIAN GRADIENT
------------------

   1   C   :   -0.024499496   -0.025120615    0.000079627
   2   C   :    0.010745525    0.027674972   -0.000088547
   3   C   :   -0.025558478    0.004983342   -0.000019105
   4   H   :    0.004535955    0.000048105    0.000003003
   5   C   :    0.026531927    0.000349593    0.000001917
   6   H   :   -0.000694378    0.000117949    0.000000420
   7   S   :    0.011155164   -0.012891853    0.000033076
   8   H   :    0.009389969    0.006676205   -0.000020847
   9   H   :   -0.011606187   -0.001837698    0.000010454

Difference to translation invariance:
           :    0.0000000000    0.0000000000   -0.0000000000

Norm of the cartesian gradient     ...    0.0638539493
RMS gradient                       ...    0.0122886983
MAX gradient                       ...    0.0276749725

-------
TIMINGS
-------

Total SCF gradient time            ...        1.734 sec

One electron gradient       ....       0.020 sec  (  1.1%)
Prescreening matrices       ....       0.036 sec  (  2.1%)
RI-J Coulomb gradient       ....       0.257 sec  ( 14.8%)
XC gradient                 ....       1.306 sec  ( 75.3%)
------------------------------------------------------------------------------
                         ORCA GEOMETRY RELAXATION STEP
------------------------------------------------------------------------------

Reading the OPT-File                    .... done
Getting information on internals        .... done
Copying old internal coords+grads       .... done
Making the new internal coordinates     .... (new redundants).... done
Validating the new internal coordinates .... (new redundants).... done
Calculating the B-matrix                .... done
Calculating the G,G- and P matrices     .... done
Transforming gradient to internals      .... done
Projecting the internal gradient        .... done
Number of atoms                         ....   9
Number of internal coordinates          ....  38
Current Energy                          ....  -552.826937379 Eh
Current gradient norm                   ....     0.063853949 Eh/bohr
Maximum allowed component of the step   ....  0.300
Current trust radius                    ....  0.300
Evaluating the initial hessian          ....  (Almloef) done
Projecting the Hessian                  .... done
Forming the augmented Hessian           .... done
Diagonalizing the augmented Hessian     .... done
Last element of RFO vector              ....  0.998908223
Lowest eigenvalues of augmented Hessian:
 -0.000812762  0.017459781  0.018013861  0.023468215  0.024040727
Length of the computed step             ....  0.046766825
The final length of the internal step   ....  0.046766825
Converting the step to cartesian space:
 Initial RMS(Int)=    0.0075865808
Transforming coordinates:
 Iter   0:  RMS(Cart)=    0.0092515670 RMS(Int)=    2.4966520039
 Iter   1:  RMS(Cart)=    0.0000323383 RMS(Int)=    0.0000207717
 Iter   2:  RMS(Cart)=    0.0000003551 RMS(Int)=    0.0000002560
 Iter   3:  RMS(Cart)=    0.0000000036 RMS(Int)=    0.0000000028
Imposing constraints:
 Iter   0:  RMS(Cart)=    0.0000000455 RMS(Int)=    0.0000000202
CONVERGED
done
Storing new coordinates                 .... done

                                .--------------------.
          ----------------------|Geometry convergence|-------------------------
          Item                value                   Tolerance       Converged
          ---------------------------------------------------------------------
          RMS gradient        0.0028198792            0.0001000000      NO
          MAX gradient        0.0117363313            0.0003000000      NO
          RMS step            0.0075865808            0.0020000000      NO
          MAX step            0.0313480746            0.0040000000      NO
          ........................................................
          Max(Bonds)      0.0166      Max(Angles)    0.39
          Max(Dihed)        0.01      Max(Improp)    0.00
          ---------------------------------------------------------------------

The optimization has not yet converged - more geometry cycles are needed


    ---------------------------------------------------------------------------
                         Redundant Internal Coordinates
                            (Angstroem and degrees)

        Definition                    Value    dE/dq     Step     New-Value
    ----------------------------------------------------------------------------
     1. B(C   1,C   0)                1.4088  0.022077  0.0000    1.4088 C 
     2. B(C   2,C   1)                1.4077 -0.014528  0.0000    1.4077 C 
     3. B(H   3,C   1)                1.0936 -0.003895  0.0058    1.0994   
     4. B(C   4,C   2)                1.4028  0.016589  0.0000    1.4028 C 
     5. B(H   5,C   2)                1.0991  0.000035 -0.0001    1.0991   
     6. B(S   6,C   0)                1.7695  0.013849 -0.0000    1.7695 C 
     7. B(S   6,C   4)                1.7518  0.009337  0.0000    1.7518 C 
     8. B(H   7,C   0)                1.0800 -0.011393  0.0161    1.0961   
     9. B(H   8,C   4)                1.0800 -0.011736  0.0166    1.0966   
    10. A(S   6,C   0,H   7)          119.26 -0.000194    0.29    119.54   
    11. A(C   1,C   0,H   7)          130.68  0.003309   -0.29    130.40   
    12. A(C   1,C   0,S   6)          110.06 -0.003116   -0.00    110.06 C 
    13. A(C   0,C   1,C   2)          113.73  0.002745   -0.00    113.73 C 
    14. A(C   2,C   1,H   3)          122.75 -0.003775    0.39    123.14   
    15. A(C   0,C   1,H   3)          123.52  0.001030   -0.39    123.13   
    16. A(C   4,C   2,H   5)          122.93 -0.000111   -0.12    122.81   
    17. A(C   1,C   2,C   4)          113.29  0.001683   -0.00    113.29 C 
    18. A(C   1,C   2,H   5)          123.78 -0.001572    0.12    123.90   
    19. A(C   2,C   4,S   6)          111.11  0.000834   -0.00    111.11 C 
    20. A(C   2,C   4,H   8)          128.47 -0.001012    0.10    128.56   
    21. A(S   6,C   4,H   8)          120.42  0.000178   -0.10    120.33   
    22. A(C   0,S   6,C   4)           91.82 -0.002146    0.00     91.82 C 
    23. D(C   2,C   1,C   0,S   6)      0.00  0.000001   -0.00      0.00 C 
    24. D(H   3,C   1,C   0,H   7)     -0.00 -0.000000    0.00     -0.00   
    25. D(C   2,C   1,C   0,H   7)    179.99 -0.000002    0.01    180.00   
    26. D(H   3,C   1,C   0,S   6)   -179.99  0.000003   -0.01   -180.00   
    27. D(H   5,C   2,C   1,C   0)   -180.00  0.000001   -0.00   -180.00   
    28. D(C   4,C   2,C   1,C   0)     -0.01 -0.000003    0.00     -0.01 C 
    29. D(C   4,C   2,C   1,H   3)    179.99 -0.000005    0.01    180.00   
    30. D(H   5,C   2,C   1,H   3)     -0.00 -0.000001    0.00     -0.00   
    31. D(S   6,C   4,C   2,C   1)      0.01  0.000005    0.00      0.01 C 
    32. D(S   6,C   4,C   2,H   5)    180.00  0.000000    0.00    180.00   
    33. D(H   8,C   4,C   2,C   1)   -180.00  0.000003   -0.01   -180.00   
    34. D(H   8,C   4,C   2,H   5)     -0.00 -0.000001   -0.00     -0.00   
    35. D(C   4,S   6,C   0,C   1)      0.00  0.000002   -0.00      0.00 C 
    36. D(C   4,S   6,C   0,H   7)   -179.99  0.000004   -0.01   -180.00   
    37. D(C   0,S   6,C   4,C   2)     -0.00 -0.000003    0.00     -0.00 C 
    38. D(C   0,S   6,C   4,H   8)    180.00 -0.000002    0.01    180.00   
    ----------------------------------------------------------------------------

         *************************************************************
         *                GEOMETRY OPTIMIZATION CYCLE   2            *
         *************************************************************
---------------------------------
CARTESIAN COORDINATES (ANGSTROEM)
---------------------------------
  C     -2.561854    0.030322    0.001987
  C     -2.643247    1.436725   -0.002270
  C     -1.389361    2.076663   -0.004591
  H     -3.597068    1.983372   -0.003684
  C     -0.309626    1.181055   -0.002069
  H     -1.258059    3.167846   -0.007986
  S     -0.867389   -0.479599    0.003089
  H     -3.354158   -0.727101    0.004514
  H      0.763944    1.404556   -0.003064

----------------------------
CARTESIAN COORDINATES (A.U.)
----------------------------
  NO LB      ZA    FRAG     MASS         X           Y           Z
   0 C     6.0000    0    12.011   -4.841202    0.057301    0.003756
   1 C     6.0000    0    12.011   -4.995014    2.715018   -0.004289
   2 C     6.0000    0    12.011   -2.625513    3.924325   -0.008676
   3 H     1.0000    0     1.008   -6.797474    3.748029   -0.006962
   4 C     6.0000    0    12.011   -0.585109    2.231870   -0.003910
   5 H     1.0000    0     1.008   -2.377387    5.986361   -0.015092
   6 S    16.0000    0    32.060   -1.639128   -0.906311    0.005837
   7 H     1.0000    0     1.008   -6.338440   -1.374022    0.008530
   8 H     1.0000    0     1.008    1.443645    2.654225   -0.005790

--------------------------------
INTERNAL COORDINATES (ANGSTROEM)
--------------------------------
 C      0   0   0     0.000000000000     0.00000000     0.00000000
 C      1   0   0     1.408762678914     0.00000000     0.00000000
 C      2   1   0     1.407748426259   113.72606178     0.00000000
 H      2   1   3     1.099362603042   123.12982235   179.99786862
 C      3   2   1     1.402836047217   113.28693200     0.00000000
 H      3   2   1     1.099059621407   123.89964555   179.99782286
 S      5   3   2     1.751826775052   111.10926881     0.00000000
 H      1   2   3     1.096103036630   130.39860338   180.00103950
 H      5   3   2     1.096588584014   128.56495945   179.99857401

---------------------------
INTERNAL COORDINATES (A.U.)
---------------------------
 C      0   0   0     0.000000000000     0.00000000     0.00000000
 C      1   0   0     2.662175650836     0.00000000     0.00000000
 C      2   1   0     2.660258991087   113.72606178     0.00000000
 H      2   1   3     2.077494241624   123.12982235   179.99786862
 C      3   2   1     2.650975940033   113.28693200     0.00000000
 H      3   2   1     2.076921689311   123.89964555   179.99782286
 S      5   3   2     3.310472838918   111.10926881     0.00000000
 H      1   2   3     2.071334553790   130.39860338   180.00103950
 H      5   3   2     2.072252105370   128.56495945   179.99857401

 One Electron integrals                  ... done
 Pre-screening matrix                    ... done

Diagonalization of the overlap matrix:
Smallest eigenvalue                        ... 1.142e-03
Time for diagonalization                   ...    0.001 sec
Threshold for overlap eigenvalues          ... 1.000e-08
Number of eigenvalues below threshold      ... 0
Time for construction of square roots      ...    0.005 sec
Total time needed                          ...    0.006 sec

-------------------
DFT GRID GENERATION
-------------------

General Integration Accuracy     IntAcc      ...  4.340
Radial Grid Type                 RadialGrid  ... Gauss-Chebyshev
Angular Grid (max. acc.)         AngularGrid ... Lebedev-194
Angular grid pruning method      GridPruning ... 3 (G Style)
Weight generation scheme         WeightScheme... Becke
Basis function cutoff            BFCut       ...    1.0000e-11
Integration weight cutoff        WCut        ...    1.0000e-14
Grids for H and He will be reduced by one unit

# of grid points (after initial pruning)     ...  22812 (   0.0 sec)
# of grid points (after weights+screening)   ...  21676 (   0.0 sec)
nearest neighbour list constructed           ...    0.0 sec
Grid point re-assignment to atoms done       ...    0.0 sec
Grid point division into batches done        ...    0.0 sec
Reduced shell lists constructed in    0.1 sec

Total number of grid points                  ...    21676
Total number of batches                      ...      344
Average number of points per batch           ...       63
Average number of grid points per atom       ...     2408
Average number of shells per batch           ...    33.51 (76.15%)
Average number of basis functions per batch  ...    73.08 (77.74%)
Average number of large shells per batch     ...    28.35 (84.62%)
Average number of large basis fcns per batch ...    61.01 (83.48%)
Maximum spatial batch extension              ...  18.08, 18.52, 22.17 au
Average spatial batch extension              ...   3.41,  3.53,  4.20 au

Time for grid setup =    0.115 sec

--------------
SCF ITERATIONS
--------------
ITER       Energy         Delta-E        Max-DP      RMS-DP      [F,P]     Damp
               ***  Starting incremental Fock matrix formation  ***
                      *** Initiating the SOSCF procedure ***
                      *** Re-Reading the Fockian *** 
                      *** Removing any level shift *** 
ITER      Energy       Delta-E        Grad      Rot      Max-DP    RMS-DP
  0   -552.81328583 -552.8132858338  0.001519  0.001519  0.005882  0.000265
               *** Restarting incremental Fock matrix formation ***
  1   -552.81335924  -0.0000734045  0.000512  0.001817  0.002327  0.000096
  2   -552.81335083   0.0000084096  0.001120  0.001472  0.001443  0.000060
  3   -552.81336433  -0.0000135040  0.000161  0.000843  0.000641  0.000032
  4   -552.81336348   0.0000008540  0.000358  0.000618  0.000535  0.000022
  5   -552.81336463  -0.0000011546  0.000038  0.000089  0.000120  0.000009
  6   -552.81336460   0.0000000346  0.000047  0.000097  0.000094  0.000005
  7   -552.81336466  -0.0000000653  0.000026  0.000121  0.000094  0.000004
  8   -552.81336464   0.0000000191  0.000052  0.000083  0.000071  0.000003
  9   -552.81336467  -0.0000000279  0.000003  0.000013  0.000017  0.000001
 10   -552.81336468  -0.0000000033  0.000006  0.000009  0.000010  0.000000
                  ***Gradient check signals convergence***
              ***Rediagonalizing the Fockian in SOSCF/NRSCF***

               *****************************************************
               *                     SUCCESS                       *
               *           SCF CONVERGED AFTER  11 CYCLES          *
               *****************************************************

Setting up the final grid:

General Integration Accuracy     IntAcc      ...  5.010
Radial Grid Type                 RadialGrid  ... Gauss-Chebyshev
Angular Grid (max. acc.)         AngularGrid ... Lebedev-434
Angular grid pruning method      GridPruning ... 3 (G Style)
Weight generation scheme         WeightScheme... Becke
Basis function cutoff            BFCut       ...    1.0000e-11
Integration weight cutoff        WCut        ...    1.0000e-14
Grids for H and He will be reduced by one unit

# of grid points (after initial pruning)     ...  81300 (   0.0 sec)
# of grid points (after weights+screening)   ...  76769 (   0.1 sec)
nearest neighbour list constructed           ...    0.0 sec
Grid point re-assignment to atoms done       ...    0.0 sec
Grid point division into batches done        ...    0.4 sec
Reduced shell lists constructed in    0.6 sec

Total number of grid points                  ...    76769
Total number of batches                      ...     1204
Average number of points per batch           ...       63
Average number of grid points per atom       ...     8530
Average number of shells per batch           ...    31.29 (71.11%)
Average number of basis functions per batch  ...    67.84 (72.17%)
Average number of large shells per batch     ...    25.99 (83.05%)
Average number of large basis fcns per batch ...    55.49 (81.79%)
Maximum spatial batch extension              ...  15.78, 21.23, 22.26 au
Average spatial batch extension              ...   2.33,  2.38,  2.62 au

Final grid set up in    0.7 sec
Final integration                            ... done (   0.4 sec)
Change in XC energy                          ...    -0.000113480
Integrated number of electrons               ...    43.999998958
Previous integrated no of electrons          ...    44.000218217
Total Energy       :         -552.81347815 Eh          -15042.81950 eV
  Last Energy change         ...    1.7726e-09  Tolerance :   1.0000e-08
  Last MAX-Density change    ...    3.1689e-06  Tolerance :   1.0000e-07
             **** THE GBW FILE WAS UPDATED (DPP2T_TT_Input_Thiophene_2_Optimize_Monomer.gbw) ****
             **** DENSITY FILE WAS UPDATED (DPP2T_TT_Input_Thiophene_2_Optimize_Monomer.scfp) ****
             **** ENERGY FILE WAS UPDATED (DPP2T_TT_Input_Thiophene_2_Optimize_Monomer.en.tmp) ****
             **** THE GBW FILE WAS UPDATED (DPP2T_TT_Input_Thiophene_2_Optimize_Monomer.gbw) ****
             **** DENSITY FILE WAS UPDATED (DPP2T_TT_Input_Thiophene_2_Optimize_Monomer.scfp) ****
Total SCF time: 0 days 0 hours 0 min 4 sec 


-------------------------------------------------------------------------------
                          DFT DISPERSION CORRECTION                            
                                                                               
                              DFTD3 V3.1  Rev 1                                
                          USING Becke-Johnson damping                          
-------------------------------------------------------------------------------
-------------------------   ----------------
Dispersion correction           -0.013880399
-------------------------   ----------------


-------------------------   --------------------
FINAL SINGLE POINT ENERGY      -552.827358553532
-------------------------   --------------------

------------------------------------------------------------------------------
                         ORCA SCF GRADIENT CALCULATION
------------------------------------------------------------------------------

Gradient of the Kohn-Sham DFT energy:
Kohn-Sham wavefunction type      ... RKS
Hartree-Fock exchange scaling    ...    0.000
Number of operators              ...    1
Number of atoms                  ...    9
Basis set dimensions             ...   94
Integral neglect threshold       ... 2.5e-11
Integral primitive cutoff        ... 2.5e-12

Nuclear repulsion gradient       ... done
One Electron Gradient            ... done
Pre-screening matrix             ... done
RI-J gradient                    ... done
Exchange-correlation gradient    ... done
Dispersion correction            ... done

------------------
CARTESIAN GRADIENT
------------------

   1   C   :   -0.016434086   -0.017606307    0.000057209
   2   C   :    0.014291528    0.026369708   -0.000079106
   3   C   :   -0.025710485    0.004467366   -0.000015248
   4   H   :    0.000832902    0.001402861   -0.000004411
   5   C   :    0.015514010   -0.001657948    0.000011728
   6   H   :   -0.000501811    0.000063901   -0.000001265
   7   S   :    0.011226590   -0.012501081    0.000030981
   8   H   :    0.000888338   -0.000931612    0.000001912
   9   H   :   -0.000106987    0.000393113   -0.000001799

Difference to translation invariance:
           :    0.0000000000   -0.0000000000   -0.0000000000

Norm of the cartesian gradient     ...    0.0518763444
RMS gradient                       ...    0.0099836071
MAX gradient                       ...    0.0263697079

-------
TIMINGS
-------

Total SCF gradient time            ...        1.680 sec

One electron gradient       ....       0.018 sec  (  1.1%)
Prescreening matrices       ....       0.034 sec  (  2.0%)
RI-J Coulomb gradient       ....       0.238 sec  ( 14.2%)
XC gradient                 ....       1.280 sec  ( 76.2%)
------------------------------------------------------------------------------
                         ORCA GEOMETRY RELAXATION STEP
------------------------------------------------------------------------------

Reading the OPT-File                    .... done
Getting information on internals        .... done
Copying old internal coords+grads       .... done
Making the new internal coordinates     .... (new redundants).... done
Validating the new internal coordinates .... (new redundants).... done
Calculating the B-matrix                .... done
Calculating the G,G- and P matrices     .... done
Transforming gradient to internals      .... done
Projecting the internal gradient        .... done
Number of atoms                         ....   9
Number of internal coordinates          ....  38
Current Energy                          ....  -552.827358554 Eh
Current gradient norm                   ....     0.051876344 Eh/bohr
Maximum allowed component of the step   ....  0.300
Current trust radius                    ....  0.300
Updating the Hessian (BFGS)             .... done
Forming the augmented Hessian           .... done
Diagonalizing the augmented Hessian     .... done
Last element of RFO vector              ....  0.999947560
Lowest eigenvalues of augmented Hessian:
 -0.000032285  0.017459795  0.018013864  0.023468213  0.024040731
Length of the computed step             ....  0.010241482
The final length of the internal step   ....  0.010241482
Converting the step to cartesian space:
 Initial RMS(Int)=    0.0016613878
Transforming coordinates:
 Iter   0:  RMS(Cart)=    0.0027616242 RMS(Int)=    1.0192614608
 Iter   1:  RMS(Cart)=    0.0000067336 RMS(Int)=    0.0000059361
 Iter   2:  RMS(Cart)=    0.0000000341 RMS(Int)=    0.0000000215
Imposing constraints:
 Iter   0:  RMS(Cart)=    0.0000000415 RMS(Int)=    0.0000000185
CONVERGED
done
Storing new coordinates                 .... done

                                .--------------------.
          ----------------------|Geometry convergence|-------------------------
          Item                value                   Tolerance       Converged
          ---------------------------------------------------------------------
          Energy change      -0.0004211750            0.0000050000      NO
          RMS gradient        0.0005182104            0.0001000000      NO
          MAX gradient        0.0016947998            0.0003000000      NO
          RMS step            0.0016613878            0.0020000000      YES
          MAX step            0.0053742642            0.0040000000      NO
          ........................................................
          Max(Bonds)      0.0006      Max(Angles)    0.31
          Max(Dihed)        0.00      Max(Improp)    0.00
          ---------------------------------------------------------------------

The optimization has not yet converged - more geometry cycles are needed


    ---------------------------------------------------------------------------
                         Redundant Internal Coordinates
                            (Angstroem and degrees)

        Definition                    Value    dE/dq     Step     New-Value
    ----------------------------------------------------------------------------
     1. B(C   1,C   0)                1.4088  0.021910 -0.0000    1.4088 C 
     2. B(C   2,C   1)                1.4077 -0.014296  0.0000    1.4077 C 
     3. B(H   3,C   1)                1.0994 -0.000025  0.0003    1.0996   
     4. B(C   4,C   2)                1.4028  0.016605  0.0000    1.4028 C 
     5. B(H   5,C   2)                1.0991  0.000003 -0.0000    1.0991   
     6. B(S   6,C   0)                1.7695  0.013997  0.0000    1.7695 C 
     7. B(S   6,C   4)                1.7518  0.009252  0.0000    1.7518 C 
     8. B(H   7,C   0)                1.0961  0.000002  0.0006    1.0967   
     9. B(H   8,C   4)                1.0966 -0.000025  0.0006    1.0972   
    10. A(S   6,C   0,H   7)          119.54  0.000319    0.24    119.78   
    11. A(C   1,C   0,H   7)          130.40  0.002985   -0.24    130.16   
    12. A(C   1,C   0,S   6)          110.06 -0.003304    0.00    110.06 C 
    13. A(C   0,C   1,C   2)          113.73  0.002725    0.00    113.73 C 
    14. A(C   2,C   1,H   3)          123.14 -0.003057    0.31    123.45   
    15. A(C   0,C   1,H   3)          123.13  0.000332   -0.31    122.82   
    16. A(C   4,C   2,H   5)          122.81 -0.000444   -0.10    122.72   
    17. A(C   1,C   2,C   4)          113.29  0.001938    0.00    113.29 C 
    18. A(C   1,C   2,H   5)          123.90 -0.001494    0.10    124.00   
    19. A(C   2,C   4,S   6)          111.11  0.000485   -0.00    111.11 C 
    20. A(C   2,C   4,H   8)          128.56 -0.000664    0.08    128.64   
    21. A(S   6,C   4,H   8)          120.33  0.000178   -0.08    120.25   
    22. A(C   0,S   6,C   4)           91.82 -0.001844    0.00     91.82 C 
    23. D(C   2,C   1,C   0,S   6)      0.00  0.000001   -0.00      0.00 C 
    24. D(H   3,C   1,C   0,H   7)     -0.00 -0.000000   -0.00     -0.00   
    25. D(C   2,C   1,C   0,H   7)   -180.00  0.000002   -0.00   -180.00   
    26. D(H   3,C   1,C   0,S   6)    180.00 -0.000001    0.00    180.00   
    27. D(H   5,C   2,C   1,C   0)    180.00 -0.000001    0.00    180.00   
    28. D(C   4,C   2,C   1,C   0)     -0.01 -0.000003   -0.00     -0.01 C 
    29. D(C   4,C   2,C   1,H   3)    180.00 -0.000002   -0.00    180.00   
    30. D(H   5,C   2,C   1,H   3)     -0.00  0.000000    0.00      0.00   
    31. D(S   6,C   4,C   2,C   1)      0.01  0.000004    0.00      0.01 C 
    32. D(S   6,C   4,C   2,H   5)   -180.00  0.000002   -0.00   -180.00   
    33. D(H   8,C   4,C   2,C   1)    180.00  0.000001    0.00    180.00   
    34. D(H   8,C   4,C   2,H   5)     -0.00 -0.000001    0.00     -0.00   
    35. D(C   4,S   6,C   0,C   1)      0.00  0.000001    0.00      0.00 C 
    36. D(C   4,S   6,C   0,H   7)   -180.00  0.000001    0.00   -180.00   
    37. D(C   0,S   6,C   4,C   2)     -0.00 -0.000003   -0.00     -0.00 C 
    38. D(C   0,S   6,C   4,H   8)   -180.00  0.000001   -0.00   -180.00   
    ----------------------------------------------------------------------------

         *************************************************************
         *                GEOMETRY OPTIMIZATION CYCLE   3            *
         *************************************************************
---------------------------------
CARTESIAN COORDINATES (ANGSTROEM)
---------------------------------
  C     -2.561177    0.030536    0.001985
  C     -2.642872    1.436922   -0.002276
  C     -1.389123    2.077128   -0.004606
  H     -3.599952    1.978353   -0.003670
  C     -0.309196    1.181751   -0.002087
  H     -1.256238    3.168112   -0.007974
  S     -0.866603   -0.479022    0.003079
  H     -3.356915   -0.724139    0.004521
  H      0.765256    1.404198   -0.003047

----------------------------
CARTESIAN COORDINATES (A.U.)
----------------------------
  NO LB      ZA    FRAG     MASS         X           Y           Z
   0 C     6.0000    0    12.011   -4.839923    0.057705    0.003751
   1 C     6.0000    0    12.011   -4.994304    2.715388   -0.004302
   2 C     6.0000    0    12.011   -2.625062    3.925203   -0.008705
   3 H     1.0000    0     1.008   -6.802924    3.738546   -0.006934
   4 C     6.0000    0    12.011   -0.584295    2.233186   -0.003944
   5 H     1.0000    0     1.008   -2.373945    5.986864   -0.015068
   6 S    16.0000    0    32.060   -1.637641   -0.905221    0.005819
   7 H     1.0000    0     1.008   -6.343649   -1.368424    0.008544
   8 H     1.0000    0     1.008    1.446124    2.653551   -0.005757

--------------------------------
INTERNAL COORDINATES (ANGSTROEM)
--------------------------------
 C      0   0   0     0.000000000000     0.00000000     0.00000000
 C      1   0   0     1.408762678790     0.00000000     0.00000000
 C      2   1   0     1.407748426271   113.72606177     0.00000000
 H      2   1   3     1.099615297479   122.82189973   179.99801047
 C      3   2   1     1.402836047350   113.28693200     0.00000000
 H      3   2   1     1.099052084050   123.99509986   179.99985197
 S      5   3   2     1.751826775142   111.10926881     0.00000000
 H      1   2   3     1.096694573097   130.15854726   180.00028209
 H      5   3   2     1.097237289744   128.64048295   180.00109521

---------------------------
INTERNAL COORDINATES (A.U.)
---------------------------
 C      0   0   0     0.000000000000     0.00000000     0.00000000
 C      1   0   0     2.662175650602     0.00000000     0.00000000
 C      2   1   0     2.660258991110   113.72606177     0.00000000
 H      2   1   3     2.077971764905   122.82189973   179.99801047
 C      3   2   1     2.650975940284   113.28693200     0.00000000
 H      3   2   1     2.076907445770   123.99509986   179.99985197
 S      5   3   2     3.310472839089   111.10926881     0.00000000
 H      1   2   3     2.072452395711   130.15854726   180.00028209
 H      5   3   2     2.073477981542   128.64048295   180.00109521

 One Electron integrals                  ... done
 Pre-screening matrix                    ... done

Diagonalization of the overlap matrix:
Smallest eigenvalue                        ... 1.143e-03
Time for diagonalization                   ...    0.001 sec
Threshold for overlap eigenvalues          ... 1.000e-08
Number of eigenvalues below threshold      ... 0
Time for construction of square roots      ...    0.005 sec
Total time needed                          ...    0.006 sec

-------------------
DFT GRID GENERATION
-------------------

General Integration Accuracy     IntAcc      ...  4.340
Radial Grid Type                 RadialGrid  ... Gauss-Chebyshev
Angular Grid (max. acc.)         AngularGrid ... Lebedev-194
Angular grid pruning method      GridPruning ... 3 (G Style)
Weight generation scheme         WeightScheme... Becke
Basis function cutoff            BFCut       ...    1.0000e-11
Integration weight cutoff        WCut        ...    1.0000e-14
Grids for H and He will be reduced by one unit

# of grid points (after initial pruning)     ...  22812 (   0.0 sec)
# of grid points (after weights+screening)   ...  21677 (   0.0 sec)
nearest neighbour list constructed           ...    0.0 sec
Grid point re-assignment to atoms done       ...    0.0 sec
Grid point division into batches done        ...    0.0 sec
Reduced shell lists constructed in    0.1 sec

Total number of grid points                  ...    21677
Total number of batches                      ...      343
Average number of points per batch           ...       63
Average number of grid points per atom       ...     2409
Average number of shells per batch           ...    33.51 (76.15%)
Average number of basis functions per batch  ...    73.05 (77.71%)
Average number of large shells per batch     ...    28.43 (84.84%)
Average number of large basis fcns per batch ...    61.24 (83.84%)
Maximum spatial batch extension              ...  18.08, 18.52, 22.17 au
Average spatial batch extension              ...   3.45,  3.56,  4.26 au

Time for grid setup =    0.330 sec

--------------
SCF ITERATIONS
--------------
ITER       Energy         Delta-E        Max-DP      RMS-DP      [F,P]     Damp
               ***  Starting incremental Fock matrix formation  ***
                      *** Initiating the SOSCF procedure ***
                      *** Re-Reading the Fockian *** 
                      *** Removing any level shift *** 
ITER      Energy       Delta-E        Grad      Rot      Max-DP    RMS-DP
  0   -552.81338827 -552.8133882667  0.000218  0.000218  0.000960  0.000050
               *** Restarting incremental Fock matrix formation ***
  1   -552.81339058  -0.0000023095  0.000059  0.000130  0.000242  0.000014
  2   -552.81339060  -0.0000000229  0.000090  0.000196  0.000263  0.000009
  3   -552.81339067  -0.0000000719  0.000054  0.000164  0.000139  0.000008
  4   -552.81339069  -0.0000000231  0.000039  0.000082  0.000137  0.000004
  5   -552.81339070  -0.0000000067  0.000030  0.000056  0.000058  0.000004
  6   -552.81339071  -0.0000000090  0.000017  0.000060  0.000056  0.000003
  7   -552.81339071  -0.0000000037  0.000019  0.000032  0.000027  0.000002
  8   -552.81339072  -0.0000000025  0.000003  0.000006  0.000010  0.000001
  9   -552.81339071   0.0000000016  0.000003  0.000006  0.000008  0.000000
                  ***Gradient check signals convergence***
              ***Rediagonalizing the Fockian in SOSCF/NRSCF***

               *****************************************************
               *                     SUCCESS                       *
               *           SCF CONVERGED AFTER  10 CYCLES          *
               *****************************************************

Setting up the final grid:

General Integration Accuracy     IntAcc      ...  5.010
Radial Grid Type                 RadialGrid  ... Gauss-Chebyshev
Angular Grid (max. acc.)         AngularGrid ... Lebedev-434
Angular grid pruning method      GridPruning ... 3 (G Style)
Weight generation scheme         WeightScheme... Becke
Basis function cutoff            BFCut       ...    1.0000e-11
Integration weight cutoff        WCut        ...    1.0000e-14
Grids for H and He will be reduced by one unit

# of grid points (after initial pruning)     ...  81300 (   0.0 sec)
# of grid points (after weights+screening)   ...  76769 (   0.1 sec)
nearest neighbour list constructed           ...    0.0 sec
Grid point re-assignment to atoms done       ...    0.0 sec
Grid point division into batches done        ...    0.4 sec
Reduced shell lists constructed in    0.6 sec

Total number of grid points                  ...    76769
Total number of batches                      ...     1205
Average number of points per batch           ...       63
Average number of grid points per atom       ...     8530
Average number of shells per batch           ...    31.29 (71.11%)
Average number of basis functions per batch  ...    67.84 (72.17%)
Average number of large shells per batch     ...    25.99 (83.06%)
Average number of large basis fcns per batch ...    55.47 (81.76%)
Maximum spatial batch extension              ...  15.23, 21.23, 22.26 au
Average spatial batch extension              ...   2.33,  2.38,  2.61 au

Final grid set up in    0.7 sec
Final integration                            ... done (   0.4 sec)
Change in XC energy                          ...    -0.000114752
Integrated number of electrons               ...    43.999998969
Previous integrated no of electrons          ...    44.000203679
Total Energy       :         -552.81350547 Eh          -15042.82025 eV
  Last Energy change         ...   -2.1291e-09  Tolerance :   1.0000e-08
  Last MAX-Density change    ...    4.2607e-06  Tolerance :   1.0000e-07
             **** THE GBW FILE WAS UPDATED (DPP2T_TT_Input_Thiophene_2_Optimize_Monomer.gbw) ****
             **** DENSITY FILE WAS UPDATED (DPP2T_TT_Input_Thiophene_2_Optimize_Monomer.scfp) ****
             **** ENERGY FILE WAS UPDATED (DPP2T_TT_Input_Thiophene_2_Optimize_Monomer.en.tmp) ****
             **** THE GBW FILE WAS UPDATED (DPP2T_TT_Input_Thiophene_2_Optimize_Monomer.gbw) ****
             **** DENSITY FILE WAS UPDATED (DPP2T_TT_Input_Thiophene_2_Optimize_Monomer.scfp) ****
Total SCF time: 0 days 0 hours 0 min 6 sec 


[...]

Setting up the final grid:

General Integration Accuracy     IntAcc      ...  5.010
Radial Grid Type                 RadialGrid  ... Gauss-Chebyshev
Angular Grid (max. acc.)         AngularGrid ... Lebedev-434
Angular grid pruning method      GridPruning ... 3 (G Style)
Weight generation scheme         WeightScheme... Becke
Basis function cutoff            BFCut       ...    1.0000e-11
Integration weight cutoff        WCut        ...    1.0000e-14
Grids for H and He will be reduced by one unit

# of grid points (after initial pruning)     ...  81300 (   0.0 sec)
# of grid points (after weights+screening)   ...  76772 (   0.1 sec)
nearest neighbour list constructed           ...    0.0 sec
Grid point re-assignment to atoms done       ...    0.0 sec
Grid point division into batches done        ...    0.4 sec
Reduced shell lists constructed in    0.6 sec

Total number of grid points                  ...    76772
Total number of batches                      ...     1205
Average number of points per batch           ...       63
Average number of grid points per atom       ...     8530
Average number of shells per batch           ...    31.27 (71.08%)
Average number of basis functions per batch  ...    67.79 (72.12%)
Average number of large shells per batch     ...    25.99 (83.10%)
Average number of large basis fcns per batch ...    55.50 (81.86%)
Maximum spatial batch extension              ...  18.19, 21.23, 22.26 au
Average spatial batch extension              ...   2.33,  2.38,  2.61 au

Final grid set up in    0.7 sec
Final integration                            ... done (   0.6 sec)
Change in XC energy                          ...    -0.000117103
Integrated number of electrons               ...    43.999998994
Previous integrated no of electrons          ...    44.000177457

----------------
TOTAL SCF ENERGY
----------------

Total Energy       :         -552.81353235 Eh          -15042.82098 eV

Components:
Nuclear Repulsion  :          198.93826549 Eh            5413.38542 eV
Electronic Energy  :         -751.75179784 Eh          -20456.20639 eV
One Electron Energy:        -1151.69479538 Eh          -31339.20864 eV
Two Electron Energy:          399.94299755 Eh           10883.00224 eV

Virial components:
Potential Energy   :        -1102.52496256 Eh          -30001.22946 eV
Kinetic Energy     :          549.71143022 Eh           14958.40849 eV
Virial Ratio       :            2.00564315


DFT components:
N(Alpha)           :       21.999999497166 electrons
N(Beta)            :       21.999999497166 electrons
N(Total)           :       43.999998994333 electrons
E(X)               :      -47.096889855078 Eh       
E(C)               :       -1.706508116577 Eh       
E(XC)              :      -48.803397971655 Eh       
DFET-embed. en.    :        0.000000000000 Eh       

---------------
SCF CONVERGENCE
---------------

  Last Energy change         ...   -5.0975e-09  Tolerance :   1.0000e-08
  Last MAX-Density change    ...    6.2081e-06  Tolerance :   1.0000e-07
  Last RMS-Density change    ...    3.4230e-07  Tolerance :   5.0000e-09
  Last Orbital Gradient      ...    1.5493e-06  Tolerance :   1.0000e-05
  Last Orbital Rotation      ...    5.7480e-06  Tolerance :   1.0000e-05

             **** THE GBW FILE WAS UPDATED (DPP2T_TT_Input_Thiophene_2_Optimize_Monomer.gbw) ****
             **** DENSITY FILE WAS UPDATED (DPP2T_TT_Input_Thiophene_2_Optimize_Monomer.scfp) ****
             **** ENERGY FILE WAS UPDATED (DPP2T_TT_Input_Thiophene_2_Optimize_Monomer.en.tmp) ****
             **** THE GBW FILE WAS UPDATED (DPP2T_TT_Input_Thiophene_2_Optimize_Monomer.gbw) ****
             **** DENSITY FILE WAS UPDATED (DPP2T_TT_Input_Thiophene_2_Optimize_Monomer.scfp) ****
----------------
ORBITAL ENERGIES
----------------

  NO   OCC          E(Eh)            E(eV) 
   0   2.0000     -88.120089     -2397.8695 
   1   2.0000      -9.943781      -270.5840 
   2   2.0000      -9.942587      -270.5516 
   3   2.0000      -9.923511      -270.0325 
   4   2.0000      -9.922771      -270.0123 
   5   2.0000      -7.715694      -209.9547 
   6   2.0000      -5.742633      -156.2650 
   7   2.0000      -5.738234      -156.1453 
   8   2.0000      -5.735469      -156.0701 
   9   2.0000      -0.792009       -21.5517 
  10   2.0000      -0.664701       -18.0874 
  11   2.0000      -0.642179       -17.4746 
  12   2.0000      -0.507332       -13.8052 
  13   2.0000      -0.492773       -13.4090 
  14   2.0000      -0.460513       -12.5312 
  15   2.0000      -0.366472        -9.9722 
  16   2.0000      -0.356044        -9.6884 
  17   2.0000      -0.344840        -9.3836 
  18   2.0000      -0.336667        -9.1612 
  19   2.0000      -0.309474        -8.4212 
  20   2.0000      -0.230235        -6.2650 
  21   2.0000      -0.209545        -5.7020 
  22   0.0000      -0.054878        -1.4933 
  23   0.0000       0.005671         0.1543 
  24   0.0000       0.019487         0.5303 
  25   0.0000       0.048855         1.3294 
  26   0.0000       0.064699         1.7605 
  27   0.0000       0.091259         2.4833 
  28   0.0000       0.115227         3.1355 
  29   0.0000       0.118354         3.2206 
  30   0.0000       0.219234         5.9657 
  31   0.0000       0.275175         7.4879 
  32   0.0000       0.309305         8.4166 
  33   0.0000       0.344086         9.3631 
  34   0.0000       0.358738         9.7618 
  35   0.0000       0.377882        10.2827 
  36   0.0000       0.392956        10.6929 
  37   0.0000       0.394223        10.7274 
  38   0.0000       0.440585        11.9889 
  39   0.0000       0.464174        12.6308 
  40   0.0000       0.474880        12.9222 
  41   0.0000       0.497149        13.5281 
  42   0.0000       0.525437        14.2979 
  43   0.0000       0.538616        14.6565 
  44   0.0000       0.574543        15.6341 
  45   0.0000       0.578579        15.7439 
  46   0.0000       0.601878        16.3779 
  47   0.0000       0.627434        17.0733 
  48   0.0000       0.648348        17.6424 
  49   0.0000       0.649679        17.6787 
  50   0.0000       0.652848        17.7649 
  51   0.0000       0.674100        18.3432 
  52   0.0000       0.694150        18.8888 
  53   0.0000       0.705587        19.2000 
  54   0.0000       0.720212        19.5980 
  55   0.0000       0.753397        20.5010 
  56   0.0000       0.837316        22.7845 
  57   0.0000       0.897822        24.4310 
  58   0.0000       1.058662        28.8077 
  59   0.0000       1.064298        28.9610 
  60   0.0000       1.094701        29.7883 
  61   0.0000       1.116975        30.3944 
  62   0.0000       1.187262        32.3070 
  63   0.0000       1.196118        32.5480 
  64   0.0000       1.208925        32.8965 
  65   0.0000       1.444061        39.2949 
  66   0.0000       1.498604        40.7791 
  67   0.0000       1.556637        42.3582 
  68   0.0000       1.583056        43.0771 
  69   0.0000       1.622793        44.1584 
  70   0.0000       1.676945        45.6320 
  71   0.0000       1.698067        46.2068 
  72   0.0000       1.707129        46.4533 
  73   0.0000       1.825428        49.6724 
  74   0.0000       1.851904        50.3929 
  75   0.0000       1.855885        50.5012 
  76   0.0000       1.890300        51.4377 
  77   0.0000       1.931593        52.5613 
  78   0.0000       1.942289        52.8524 
  79   0.0000       1.988729        54.1161 
  80   0.0000       2.044399        55.6309 
  81   0.0000       2.066348        56.2282 
  82   0.0000       2.222719        60.4833 
  83   0.0000       2.251108        61.2558 
  84   0.0000       2.271754        61.8176 
  85   0.0000       2.346713        63.8573 
  86   0.0000       2.418278        65.8047 
  87   0.0000       2.546228        69.2864 
  88   0.0000       2.581156        70.2368 
  89   0.0000       2.612517        71.0902 
  90   0.0000       2.621575        71.3367 
  91   0.0000       2.925412        79.6045 
  92   0.0000       2.945198        80.1429 
  93   0.0000       3.300728        89.8174 

                    ********************************
                    * MULLIKEN POPULATION ANALYSIS *
                    ********************************

-----------------------
MULLIKEN ATOMIC CHARGES
-----------------------
   0 C :   -0.134881
   1 C :    0.015000
   2 C :    0.015512
   3 H :    0.017804
   4 C :   -0.133002
   5 H :    0.017907
   6 S :    0.089195
   7 H :    0.056306
   8 H :    0.056158
Sum of atomic charges:    0.0000000

--------------------------------
MULLIKEN REDUCED ORBITAL CHARGES
--------------------------------
  0 C s       :     3.205702  s :     3.205702
      pz      :     1.121712  p :     2.898971
      px      :     0.837384
      py      :     0.939875
      dz2     :     0.002751  d :     0.030207
      dxz     :     0.003263
      dyz     :     0.004914
      dx2y2   :     0.008929
      dxy     :     0.010349
  1 C s       :     3.158646  s :     3.158646
      pz      :     1.021146  p :     2.794296
      px      :     0.877261
      py      :     0.895889
      dz2     :     0.002466  d :     0.032057
      dxz     :     0.003749
      dyz     :     0.005700
      dx2y2   :     0.010288
      dxy     :     0.009853
  2 C s       :     3.157798  s :     3.157798
      pz      :     1.023595  p :     2.794500
      px      :     0.937858
      py      :     0.833047
      dz2     :     0.002466  d :     0.032190
      dxz     :     0.006697
      dyz     :     0.002766
      dx2y2   :     0.010160
      dxy     :     0.010101
  3 H s       :     0.959873  s :     0.959873
      pz      :     0.005344  p :     0.022324
      px      :     0.011207
      py      :     0.005773
  4 C s       :     3.196800  s :     3.196800
      pz      :     1.117466  p :     2.905128
      px      :     0.930567
      py      :     0.857095
      dz2     :     0.002783  d :     0.031074
      dxz     :     0.002990
      dyz     :     0.005605
      dx2y2   :     0.012067
      dxy     :     0.007629
  5 H s       :     0.959748  s :     0.959748
      pz      :     0.005362  p :     0.022344
      px      :     0.003675
      py      :     0.013307
  6 S s       :     5.858477  s :     5.858477
      pz      :     3.624279  p :     9.948061
      px      :     3.070608
      py      :     3.253174
      dz2     :     0.011378  d :     0.104267
      dxz     :     0.020350
      dyz     :     0.013443
      dx2y2   :     0.034050
      dxy     :     0.025046
  7 H s       :     0.921162  s :     0.921162
      pz      :     0.005836  p :     0.022532
      px      :     0.008623
      py      :     0.008074
  8 H s       :     0.921398  s :     0.921398
      pz      :     0.005772  p :     0.022444
      px      :     0.013273
      py      :     0.003399


                     *******************************
                     * LOEWDIN POPULATION ANALYSIS *
                     *******************************

----------------------
LOEWDIN ATOMIC CHARGES
----------------------
   0 C :   -0.196742
   1 C :   -0.074586
   2 C :   -0.077021
   3 H :    0.036717
   4 C :   -0.199795
   5 H :    0.037101
   6 S :    0.411067
   7 H :    0.031574
   8 H :    0.031685

-------------------------------
LOEWDIN REDUCED ORBITAL CHARGES
-------------------------------
  0 C s       :     2.958536  s :     2.958536
      pz      :     1.113299  p :     3.165095
      px      :     0.984047
      py      :     1.067749
      dz2     :     0.005436  d :     0.073111
      dxz     :     0.006187
      dyz     :     0.009902
      dx2y2   :     0.025392
      dxy     :     0.026193
  1 C s       :     2.881499  s :     2.881499
      pz      :     1.010543  p :     3.105987
      px      :     1.044434
      py      :     1.051009
      dz2     :     0.006120  d :     0.087100
      dxz     :     0.006992
      dyz     :     0.012475
      dx2y2   :     0.032346
      dxy     :     0.029166
  2 C s       :     2.880008  s :     2.880008
      pz      :     1.013078  p :     3.109401
      px      :     1.051925
      py      :     1.044397
      dz2     :     0.006172  d :     0.087612
      dxz     :     0.014829
      dyz     :     0.004689
      dx2y2   :     0.029086
      dxy     :     0.032837
  3 H s       :     0.896428  s :     0.896428
      pz      :     0.014831  p :     0.066855
      px      :     0.034410
      py      :     0.017614
  4 C s       :     2.953390  s :     2.953390
      pz      :     1.109015  p :     3.170774
      px      :     1.063620
      py      :     0.998139
      dz2     :     0.005585  d :     0.075631
      dxz     :     0.005104
      dyz     :     0.011862
      dx2y2   :     0.030685
      dxy     :     0.022396
  5 H s       :     0.896005  s :     0.896005
      pz      :     0.014902  p :     0.066894
      px      :     0.010986
      py      :     0.041006
  6 S s       :     5.537455  s :     5.537455
      pz      :     3.579479  p :     9.925534
      px      :     3.068309
      py      :     3.277745
      dz2     :     0.014323  d :     0.125945
      dxz     :     0.023951
      dyz     :     0.013815
      dx2y2   :     0.043866
      dxy     :     0.029991
  7 H s       :     0.895520  s :     0.895520
      pz      :     0.017596  p :     0.072906
      px      :     0.030284
      py      :     0.025026
  8 H s       :     0.895715  s :     0.895715
      pz      :     0.017449  p :     0.072600
      px      :     0.042729
      py      :     0.012422


                      *****************************
                      * MAYER POPULATION ANALYSIS *
                      *****************************

  NA   - Mulliken gross atomic population
  ZA   - Total nuclear charge
  QA   - Mulliken gross atomic charge
  VA   - Mayer's total valence
  BVA  - Mayer's bonded valence
  FA   - Mayer's free valence

  ATOM       NA         ZA         QA         VA         BVA        FA
  0 C      6.1349     6.0000    -0.1349     3.8075     3.8075     0.0000
  1 C      5.9850     6.0000     0.0150     3.9086     3.9086     0.0000
  2 C      5.9845     6.0000     0.0155     3.9114     3.9114     0.0000
  3 H      0.9822     1.0000     0.0178     0.9865     0.9865     0.0000
  4 C      6.1330     6.0000    -0.1330     3.8127     3.8127    -0.0000
  5 H      0.9821     1.0000     0.0179     0.9864     0.9864     0.0000
  6 S     15.9108    16.0000     0.0892     2.5572     2.5572    -0.0000
  7 H      0.9437     1.0000     0.0563     0.9928     0.9928     0.0000
  8 H      0.9438     1.0000     0.0562     0.9922     0.9922    -0.0000

  Mayer bond orders larger than 0.100000
B(  0-C ,  1-C ) :   1.5234 B(  0-C ,  4-C ) :   0.1184 B(  0-C ,  6-S ) :   1.1798 
B(  0-C ,  7-H ) :   0.9640 B(  1-C ,  2-C ) :   1.3158 B(  1-C ,  3-H ) :   0.9811 
B(  2-C ,  4-C ) :   1.5227 B(  2-C ,  5-H ) :   0.9817 B(  4-C ,  6-S ) :   1.1883 
B(  4-C ,  8-H ) :   0.9622 

-------
TIMINGS
-------

Total SCF time: 0 days 0 hours 0 min 4 sec 

Total time                  ....       4.024 sec
Sum of individual times     ....       3.653 sec  ( 90.8%)

Fock matrix formation       ....       2.538 sec  ( 63.1%)
  Split-RI-J                ....       0.848 sec  ( 33.4% of F)
  XC integration            ....       1.516 sec  ( 59.7% of F)
    Basis function eval.    ....       0.396 sec  ( 26.1% of XC)
    Density eval.           ....       0.152 sec  ( 10.0% of XC)
    XC-Functional eval.     ....       0.160 sec  ( 10.6% of XC)
    XC-Potential eval.      ....       0.211 sec  ( 13.9% of XC)
Diagonalization             ....       0.001 sec  (  0.0%)
Density matrix formation    ....       0.000 sec  (  0.0%)
Population analysis         ....       0.070 sec  (  1.7%)
Initial guess               ....       0.003 sec  (  0.1%)
Orbital Transformation      ....       0.000 sec  (  0.0%)
Orbital Orthonormalization  ....       0.000 sec  (  0.0%)
DIIS solution               ....       0.000 sec  (  0.0%)
SOSCF solution              ....       0.211 sec  (  5.2%)
Grid generation             ....       0.830 sec  ( 20.6%)


-------------------------------------------------------------------------------
                          DFT DISPERSION CORRECTION                            
                                                                               
                              DFTD3 V3.1  Rev 1                                
                          USING Becke-Johnson damping                          
-------------------------------------------------------------------------------
The BP86 functional is recognized
Active option DFTDOPT                   ...         4   

molecular C6(AA) [au] = 1461.806795 


            DFT-D V3
 parameters
 s6 scaling factor         :     1.0000 
 a1 scaling factor         :     0.3946 
 s8 scaling factor         :     3.2822 
 a2 scaling factor         :     4.8516 
 ad hoc parameters k1-k3   :    16.0000     1.3333    -4.0000 

 Edisp/kcal,au: -8.710321844568  -0.013880779933 
 E6   /kcal   :  -2.998095496 
 E8   /kcal   :  -5.712226349 
 % E8         :  65.579968809 

-------------------------   ----------------
Dispersion correction           -0.013880780
-------------------------   ----------------


-------------------------   --------------------
FINAL SINGLE POINT ENERGY      -552.827413125569
-------------------------   --------------------

                                *** OPTIMIZATION RUN DONE ***

                            ***************************************
                            *     ORCA property calculations      *
                            ***************************************

                                    ---------------------
                                    Active property flags
                                    ---------------------
   (+) Dipole Moment


------------------------------------------------------------------------------
                       ORCA ELECTRIC PROPERTIES CALCULATION
------------------------------------------------------------------------------

Dipole Moment Calculation                       ... on
Quadrupole Moment Calculation                   ... off
Polarizability Calculation                      ... off
GBWName                                         ... DPP2T_TT_Input_Thiophene_2_Optimize_Monomer.gbw
Electron density file                           ... DPP2T_TT_Input_Thiophene_2_Optimize_Monomer.scfp
The origin for moment calculation is the CENTER OF MASS  = (-2.652289,  1.063685  0.000096)

-------------
DIPOLE MOMENT
-------------
                                X             Y             Z
Electronic contribution:      1.66884      -3.23085       0.00938
Nuclear contribution   :     -1.74166       3.37998      -0.00980
                        -----------------------------------------
Total Dipole Moment    :     -0.07282       0.14913      -0.00042
                        -----------------------------------------
Magnitude (a.u.)       :      0.16596
Magnitude (Debye)      :      0.42184



--------------------
Rotational spectrum 
--------------------
 
Rotational constants in cm-1:     0.260582     0.172515     0.103797 
Rotational constants in MHz :  7812.058354  5171.869479  3111.766078 

 Dipole components along the rotational axes: 
x,y,z [a.u.] :     0.165907     0.004207     0.000018 
x,y,z [Debye]:     0.421701     0.010692     0.000045 

 

Timings for individual modules:

Sum of individual times         ...       37.304 sec (=   0.622 min)
GTO integral calculation        ...        1.111 sec (=   0.019 min)   3.0 %
SCF iterations                  ...       28.650 sec (=   0.477 min)  76.8 %
SCF Gradient evaluation         ...        7.177 sec (=   0.120 min)  19.2 %
Geometry relaxation             ...        0.367 sec (=   0.006 min)   1.0 %
                             ****ORCA TERMINATED NORMALLY****
TOTAL RUN TIME: 0 days 0 hours 0 minutes 38 seconds 927 msec
