
                                 *****************
                                 * O   R   C   A *
                                 *****************

           --- An Ab Initio, DFT and Semiempirical electronic structure package ---

                  #######################################################
                  #                        -***-                        #
                  #          Department of theory and spectroscopy      #
                  #               Directorship: Frank Neese             #
                  #        Max Planck Institute fuer Kohlenforschung    #
                  #                Kaiser Wilhelm Platz 1               #
                  #                 D-45470 Muelheim/Ruhr               #
                  #                      Germany                        #
                  #                                                     #
                  #                  All rights reserved                #
                  #                        -***-                        #
                  #######################################################


                         Program Version 4.2.0 -  RELEASE  -


 With contributions from (in alphabetic order):
   Daniel Aravena         : Magnetic Suceptibility
   Michael Atanasov       : Ab Initio Ligand Field Theory (pilot matlab implementation)
   Alexander A. Auer      : GIAO ZORA, VPT2
   Ute Becker             : Parallelization
   Giovanni Bistoni       : ED, misc. LED, open-shell LED, HFLED
   Martin Brehm           : Molecular dynamics
   Dmytro Bykov           : SCF Hessian
   Vijay G. Chilkuri      : MRCI spin determinant printing, contributions to CSF-ICE
   Dipayan Datta          : RHF DLPNO-CCSD density
   Achintya Kumar Dutta   : EOM-CC, STEOM-CC
   Dmitry Ganyushin       : Spin-Orbit,Spin-Spin,Magnetic field MRCI
   Miquel Garcia          : C-PCM Hessian, Gaussian charge scheme
   Yang Guo               : DLPNO-NEVPT2, CIM, IAO-localization
   Andreas Hansen         : Spin unrestricted coupled pair/coupled cluster methods
   Benjamin Helmich-Paris : CASSCF linear response (MC-RPA)
   Lee Huntington         : MR-EOM, pCC
   Robert Izsak           : Overlap fitted RIJCOSX, COSX-SCS-MP3, EOM
   Christian Kollmar      : KDIIS, OOCD, Brueckner-CCSD(T), CCSD density
   Simone Kossmann        : Meta GGA functionals, TD-DFT gradient, OOMP2, MP2 Hessian
   Martin Krupicka        : AUTO-CI
   Lucas Lang             : DCDCAS
   Dagmar Lenk            : GEPOL surface, SMD
   Dimitrios Liakos       : Extrapolation schemes; Compound Job, initial MDCI parallelization
   Dimitrios Manganas     : Further ROCIS development; embedding schemes
   Dimitrios Pantazis     : SARC Basis sets
   Taras Petrenko         : DFT Hessian,TD-DFT gradient, ASA, ECA, R-Raman, ABS, FL, XAS/XES, NRVS
   Peter Pinski           : DLPNO-MP2, DLPNO-MP2 Gradient
   Christoph Reimann      : Effective Core Potentials
   Marius Retegan         : Local ZFS, SOC
   Christoph Riplinger    : Optimizer, TS searches, QM/MM, DLPNO-CCSD(T), (RO)-DLPNO pert. Triples
   Tobias Risthaus        : Range-separated hybrids, TD-DFT gradient, RPA, STAB
   Michael Roemelt        : Original ROCIS implementation
   Masaaki Saitow         : Open-shell DLPNO-CCSD energy and density
   Barbara Sandhoefer     : DKH picture change effects
   Avijit Sen             : IP-ROCIS
   Kantharuban Sivalingam : CASSCF convergence, NEVPT2, FIC-MRCI
   Bernardo de Souza      : ESD, SOC TD-DFT
   Georgi Stoychev        : AutoAux, RI-MP2 NMR
   Willem Van den Heuvel  : Paramagnetic NMR
   Boris Wezisla          : Elementary symmetry handling
   Frank Wennmohs         : Technical directorship


 We gratefully acknowledge several colleagues who have allowed us to
 interface, adapt or use parts of their codes:
   Stefan Grimme, W. Hujo, H. Kruse,             : VdW corrections, initial TS optimization,
                  C. Bannwarth                     DFT functionals, gCP, sTDA/sTD-DF
   Ed Valeev, F. Pavosevic, A. Kumar             : LibInt (2-el integral package), F12 methods
   Garnet Chan, S. Sharma, J. Yang, R. Olivares  : DMRG
   Ulf Ekstrom                                   : XCFun DFT Library
   Mihaly Kallay                                 : mrcc  (arbitrary order and MRCC methods)
   Andreas Klamt, Michael Diedenhofen            : otool_cosmo (COSMO solvation model)
   Jiri Pittner, Ondrej Demel                    : Mk-CCSD
   Frank Weinhold                                : gennbo (NPA and NBO analysis)
   Christopher J. Cramer and Donald G. Truhlar   : smd solvation model
   Lars Goerigk                                  : TD-DFT with DH, B97 family of functionals
   V. Asgeirsson, H. Jonsson                     : NEB implementation
   FAccTs GmbH                                   : IRC, NEB, NEB-TS, Multilevel, MM, QM/MM, CI optimization
   S Lehtola, MJT Oliveira, MAL Marques          : LibXC Library


 Your calculation uses the libint2 library for the computation of 2-el integrals
 For citations please refer to: http://libint.valeyev.net

 Your ORCA version has been built with support for libXC version: 4.2.3
 For citations please refer to: https://tddft.org/programs/libxc/

 This ORCA versions uses:
   CBLAS   interface :  Fast vector & matrix operations
   LAPACKE interface :  Fast linear algebra routines
   SCALAPACK package :  Parallel linear algebra routines


Your calculation utilizes the atom-pairwise dispersion correction
with the Becke-Johnson damping scheme (D3BJ)
Cite in your paper:
S.Grimme, S.Ehrlich, L.Goerigk, J Comput Chem, (2011), 32, 1456–1465 
S.Grimme, J.Antony, S.Ehrlich and H.Krieg, J.Chem.Phys., 132, (2010), 154104 
   

----- Orbital basis set information -----
Your calculation utilizes the basis: def2-SVP
   F. Weigend and R. Ahlrichs, Phys. Chem. Chem. Phys. 7, 3297 (2005).

----- AuxJ basis set information -----
Your calculation utilizes the auxiliary basis: def2/J
   F. Weigend, Phys. Chem. Chem. Phys. 8, 1057 (2006).

================================================================================
                                        WARNINGS
                       Please study these warnings very carefully!
================================================================================


WARNING: Geometry Optimization
  ===> : Switching off AutoStart
         For restart on a previous wavefunction, please use MOREAD

INFO   : the flag for use of LIBINT has been found!

================================================================================
                                       INPUT FILE
================================================================================
NAME = DPP2F_TT_Input_Dimethyl_Diketopyrrolopyrrole_1_Optimize_Monomer_Hydrogenated.inp
|  1> ! RI BP86 def2-SVP def2/J D3BJ TIGHTSCF  Opt Grid3 FinalGrid5
|  2> %maxcore 3000
|  3> %geom
|  4> optimizehydrogens true
|  5> end
|  6> 
|  7> 
|  8> *xyz 0 1
|  9> C	-2.564469	0.419883	-0.036996
| 10> C	-1.674264	-0.668830	0.006847
| 11> N	-1.804855	1.584548	-0.063035
| 12> C	-0.338131	-0.158830	0.007240
| 13> C	-0.380049	1.297260	-0.037815
| 14> C	-2.269124	2.951625	-0.110075
| 15> H	-2.861340	3.151576	-1.027199
| 16> H	-1.363275	3.588272	-0.117722
| 17> H	-2.884428	3.205720	0.777982
| 18> C	-1.629714	-2.129499	0.050959
| 19> N	-0.199733	-2.415178	0.075993
| 20> C	0.553014	-1.251581	0.050901
| 21> O	0.462225	2.194947	-0.054494
| 22> O	-2.471861	-3.018616	0.067340
| 23> C	0.278182	-3.776589	0.124333
| 24> H	-0.619770	-4.424577	0.131854
| 25> H	0.871486	-3.969936	1.042159
| 26> H	0.896465	-4.025108	-0.763213
| 27> H	-3.204475	0.456876	0.853473
| 28> H	-3.182618	0.415694	-0.943519
| 29> H	1.171359	-1.245176	0.957467
| 30> H	1.193114	-1.286343	-0.839783
| 31> **                         ****END OF INPUT****
================================================================================

                       *****************************
                       * Geometry Optimization Run *
                       *****************************

Geometry optimization settings:
Update method            Update   .... BFGS
Choice of coordinates    CoordSys .... Z-matrix Internals
Initial Hessian          InHess   .... Almoef's Model

Convergence Tolerances:
Energy Change            TolE     ....  5.0000e-06 Eh
Max. Gradient            TolMAXG  ....  3.0000e-04 Eh/bohr
RMS Gradient             TolRMSG  ....  1.0000e-04 Eh/bohr
Max. Displacement        TolMAXD  ....  4.0000e-03 bohr
RMS Displacement         TolRMSD  ....  2.0000e-03 bohr
Strict Convergence                ....  False
------------------------------------------------------------------------------
                        ORCA OPTIMIZATION COORDINATE SETUP
------------------------------------------------------------------------------

The optimization will be done in new redundant internal coordinates
Making redundant internal coordinates   ...  (new redundants) done
Evaluating the initial hessian          ...  (Almloef) done
Evaluating the coordinates              ...  done
Calculating the B-matrix                .... done
Calculating the G-matrix                .... done
Diagonalizing the G-matrix              .... done
Imposing constraints:
 Iter   0:  RMS(Cart)=    0.0000000000 RMS(Int)=    0.0000000000
CONVERGED
The first mode is                       ....   61
The number of degrees of freedom        ....   60
Storing new coordinates                 .... done

    -----------------------------------------------------------------
                    Redundant Internal Coordinates


    -----------------------------------------------------------------
         Definition                    Initial Value    Approx d2E/dq
    -----------------------------------------------------------------
      1. B(C   1,C   0)                  1.4070         0.586944 C 
      2. B(N   2,C   0)                  1.3907         0.558094 C 
      3. B(C   3,C   1)                  1.4302         0.539100 C 
      4. B(C   4,N   2)                  1.4537         0.442840 C 
      5. B(C   4,C   3)                  1.4574         0.487778 C 
      6. B(C   5,N   2)                  1.4445         0.458017 C 
      7. B(H   6,C   5)                  1.1099         0.334748   
      8. B(H   7,C   5)                  1.1072         0.338023   
      9. B(H   8,C   5)                  1.1099         0.334753   
     10. B(C   9,C   1)                  1.4620         0.479562 C 
     11. B(N  10,C   9)                  1.4585         0.435174 C 
     12. B(C  11,C   3)                  1.4107         0.578989 C 
     13. B(C  11,N  10)                  1.3861         0.567716 C 
     14. B(O  12,C   4)                  1.2311         1.003299 C 
     15. B(O  13,C   9)                  1.2247         1.026889 C 
     16. B(C  14,N  10)                  1.4437         0.459463 C 
     17. B(H  15,C  14)                  1.1074         0.337843   
     18. B(H  16,C  14)                  1.1099         0.334759   
     19. B(H  17,C  14)                  1.1099         0.334772   
     20. B(H  18,C   0)                  1.0972         0.350663   
     21. B(H  19,C   0)                  1.0972         0.350664   
     22. B(H  20,C  11)                  1.0974         0.350462   
     23. B(H  21,C  11)                  1.0974         0.350462   
     24. A(C   1,C   0,H  18)          111.7060         0.348094   
     25. A(N   2,C   0,H  19)          107.1840         0.343048   
     26. A(C   1,C   0,H  19)          112.2861         0.348095   
     27. A(C   1,C   0,N   2)          107.6382         0.419056 C 
     28. A(N   2,C   0,H  18)          107.7915         0.343048   
     29. A(H  18,C   0,H  19)          110.0002         0.288428   
     30. A(C   0,C   1,C   3)          108.3712         0.419197 C 
     31. A(C   0,C   1,C   9)          142.4935         0.410565 C 
     32. A(C   3,C   1,C   9)          109.1353         0.404436 C 
     33. A(C   0,N   2,C   4)          111.6857         0.396119 C 
     34. A(C   4,N   2,C   5)          120.1725         0.382685 C 
     35. A(C   0,N   2,C   5)          128.1418         0.398471 C 
     36. A(C   1,C   3,C   4)          109.2327         0.405651 C 
     37. A(C   1,C   3,C  11)          108.2971         0.418178 C 
     38. A(C   4,C   3,C  11)          142.4702         0.410809 C 
     39. A(C   3,C   4,O  12)          135.1763         0.450451 C 
     40. A(N   2,C   4,O  12)          121.7516         0.439720 C 
     41. A(N   2,C   4,C   3)          103.0721         0.389371 C 
     42. A(N   2,C   5,H   6)          111.6479         0.329394   
     43. A(N   2,C   5,H   7)          106.3465         0.329925   
     44. A(N   2,C   5,H   8)          111.6411         0.329395   
     45. A(H   7,C   5,H   8)          109.1141         0.284710   
     46. A(H   6,C   5,H   7)          109.1018         0.284709   
     47. A(H   6,C   5,H   8)          108.9125         0.284279   
     48. A(C   1,C   9,N  10)          103.0671         0.387038 C 
     49. A(C   1,C   9,O  13)          134.8087         0.450963 C 
     50. A(N  10,C   9,O  13)          122.1242         0.440179 C 
     51. A(C   9,N  10,C  11)          111.5755         0.396094 C 
     52. A(C   9,N  10,C  14)          120.6553         0.381735 C 
     53. A(C  11,N  10,C  14)          127.7691         0.399892 C 
     54. A(H  20,C  11,H  21)          110.0002         0.288376   
     55. A(C   3,C  11,H  20)          112.1472         0.347262   
     56. A(N  10,C  11,H  20)          107.2147         0.343999   
     57. A(C   3,C  11,N  10)          107.9250         0.419314 C 
     58. A(C   3,C  11,H  21)          111.5850         0.347262   
     59. A(N  10,C  11,H  21)          107.7506         0.343999   
     60. A(H  16,C  14,H  17)          108.9362         0.284283   
     61. A(N  10,C  14,H  15)          106.4757         0.330067   
     62. A(N  10,C  14,H  16)          111.6502         0.329568   
     63. A(H  15,C  14,H  16)          109.0215         0.284687   
     64. A(N  10,C  14,H  17)          111.6419         0.329570   
     65. A(H  15,C  14,H  17)          109.0344         0.284689   
     66. D(C   9,C   1,C   0,H  18)     61.9025         0.025734   
     67. D(C   3,C   1,C   0,H  18)   -118.1607         0.025734   
     68. D(C   9,C   1,C   0,H  19)    -62.2219         0.025734   
     69. D(C   3,C   1,C   0,N   2)     -0.0183         0.025734 C 
     70. D(C   3,C   1,C   0,H  19)    117.7149         0.025734   
     71. D(C   9,C   1,C   0,N   2)   -179.9551         0.025734 C 
     72. D(C   4,N   2,C   0,H  18)    120.6741         0.027011   
     73. D(C   4,N   2,C   0,H  19)   -120.9520         0.027011   
     74. D(C   4,N   2,C   0,C   1)      0.0360         0.027011 C 
     75. D(C   5,N   2,C   0,H  19)     59.0144         0.027011   
     76. D(C   5,N   2,C   0,C   1)   -179.9976         0.027011 C 
     77. D(C   5,N   2,C   0,H  18)    -59.3595         0.027011   
     78. D(C  11,C   3,C   1,C   0)   -179.9865         0.019856 C 
     79. D(C   4,C   3,C   1,C   0)     -0.0055         0.019856 C 
     80. D(C   4,C   3,C   1,C   9)    179.9538         0.019856 C 
     81. D(C  11,C   3,C   1,C   9)     -0.0272         0.019856 C 
     82. D(C   3,C   4,N   2,C   0)     -0.0379         0.015443 C 
     83. D(O  12,C   4,C   3,C   1)    179.9536         0.016200 C 
     84. D(O  12,C   4,N   2,C   0)   -179.9783         0.015443 C 
     85. D(O  12,C   4,N   2,C   5)      0.0523         0.015443 C 
     86. D(N   2,C   4,C   3,C   1)      0.0255         0.016200 C 
     87. D(C   3,C   4,N   2,C   5)    179.9927         0.015443 C 
     88. D(N   2,C   4,C   3,C  11)    179.9958         0.016200 C 
     89. D(O  12,C   4,C   3,C  11)     -0.0760         0.016200 C 
     90. D(H   6,C   5,N   2,C   0)    -61.1311         0.017905   
     91. D(H   6,C   5,N   2,C   4)    118.8328         0.017905   
     92. D(H   7,C   5,N   2,C   0)    179.9663         0.017905   
     93. D(H   7,C   5,N   2,C   4)     -0.0698         0.017905   
     94. D(H   8,C   5,N   2,C   0)     61.0525         0.017905   
     95. D(H   8,C   5,N   2,C   4)   -118.9836         0.017905   
     96. D(N  10,C   9,C   1,C   0)    179.9284         0.015658 C 
     97. D(N  10,C   9,C   1,C   3)     -0.0081         0.015658 C 
     98. D(O  13,C   9,C   1,C   0)     -0.0429         0.015658 C 
     99. D(O  13,C   9,C   1,C   3)   -179.9794         0.015658 C 
    100. D(C  11,N  10,C   9,C   1)      0.0422         0.014914 C 
    101. D(C  11,N  10,C   9,O  13)   -179.9819         0.014914 C 
    102. D(C  14,N  10,C   9,C   1)    179.8991         0.014914 C 
    103. D(C  14,N  10,C   9,O  13)     -0.1250         0.014914 C 
    104. D(N  10,C  11,C   3,C   1)      0.0533         0.025005 C 
    105. D(N  10,C  11,C   3,C   4)   -179.9173         0.025005 C 
    106. D(H  20,C  11,C   3,C   1)   -117.8181         0.025005   
    107. D(H  20,C  11,N  10,C   9)    120.9385         0.028011   
    108. D(H  21,C  11,C   3,C   1)    118.2543         0.025005   
    109. D(H  21,C  11,C   3,C   4)    -61.7162         0.025005   
    110. D(C   3,C  11,N  10,C   9)     -0.0605         0.028011 C 
    111. D(H  20,C  11,C   3,C   4)     62.2114         0.025005   
    112. D(C   3,C  11,N  10,C  14)   -179.9048         0.028011 C 
    113. D(H  20,C  11,N  10,C  14)    -58.9058         0.028011   
    114. D(H  21,C  11,N  10,C   9)   -120.6927         0.028011   
    115. D(H  21,C  11,N  10,C  14)     59.4630         0.028011   
    116. D(H  15,C  14,N  10,C   9)      0.1555         0.018020   
    117. D(H  15,C  14,N  10,C  11)    179.9872         0.018020   
    118. D(H  16,C  14,N  10,C   9)   -118.7307         0.018020   
    119. D(H  16,C  14,N  10,C  11)     61.1010         0.018020   
    120. D(H  17,C  14,N  10,C   9)    119.0528         0.018020   
    121. D(H  17,C  14,N  10,C  11)    -61.1155         0.018020   
    -----------------------------------------------------------------

Number of atoms                         .... 22
Number of degrees of freedom            .... 121

         *************************************************************
         *                GEOMETRY OPTIMIZATION CYCLE   1            *
         *************************************************************
---------------------------------
CARTESIAN COORDINATES (ANGSTROEM)
---------------------------------
  C     -2.564469    0.419883   -0.036996
  C     -1.674264   -0.668830    0.006847
  N     -1.804855    1.584548   -0.063035
  C     -0.338131   -0.158830    0.007240
  C     -0.380049    1.297260   -0.037815
  C     -2.269124    2.951625   -0.110075
  H     -2.861340    3.151576   -1.027199
  H     -1.363275    3.588272   -0.117722
  H     -2.884428    3.205720    0.777982
  C     -1.629714   -2.129499    0.050959
  N     -0.199733   -2.415178    0.075993
  C      0.553014   -1.251581    0.050901
  O      0.462225    2.194947   -0.054494
  O     -2.471861   -3.018616    0.067340
  C      0.278182   -3.776589    0.124333
  H     -0.619770   -4.424577    0.131854
  H      0.871486   -3.969936    1.042159
  H      0.896465   -4.025108   -0.763213
  H     -3.204475    0.456876    0.853473
  H     -3.182618    0.415694   -0.943519
  H      1.171359   -1.245176    0.957467
  H      1.193114   -1.286343   -0.839783

----------------------------
CARTESIAN COORDINATES (A.U.)
----------------------------
  NO LB      ZA    FRAG     MASS         X           Y           Z
   0 C     6.0000    0    12.011   -4.846144    0.793464   -0.069912
   1 C     6.0000    0    12.011   -3.163900   -1.263906    0.012939
   2 N     7.0000    0    14.007   -3.410682    2.994362   -0.119119
   3 C     6.0000    0    12.011   -0.638975   -0.300145    0.013682
   4 C     6.0000    0    12.011   -0.718189    2.451466   -0.071460
   5 C     6.0000    0    12.011   -4.288023    5.577763   -0.208012
   6 H     1.0000    0     1.008   -5.407149    5.955616   -1.941125
   7 H     1.0000    0     1.008   -2.576216    6.780851   -0.222462
   8 H     1.0000    0     1.008   -5.450779    6.057933    1.470173
   9 C     6.0000    0    12.011   -3.079713   -4.024170    0.096299
  10 N     7.0000    0    14.007   -0.377441   -4.564025    0.143606
  11 C     6.0000    0    12.011    1.045045   -2.365145    0.096189
  12 O     8.0000    0    15.999    0.873479    4.147849   -0.102979
  13 O     8.0000    0    15.999   -4.671140   -5.704358    0.127254
  14 C     6.0000    0    12.011    0.525688   -7.136719    0.234955
  15 H     1.0000    0     1.008   -1.171196   -8.361239    0.249168
  16 H     1.0000    0     1.008    1.646870   -7.502092    1.969395
  17 H     1.0000    0     1.008    1.694073   -7.606352   -1.442264
  18 H     1.0000    0     1.008   -6.055580    0.863371    1.612830
  19 H     1.0000    0     1.008   -6.014276    0.785548   -1.782993
  20 H     1.0000    0     1.008    2.213548   -2.353042    1.809350
  21 H     1.0000    0     1.008    2.254659   -2.430836   -1.586960

--------------------------------
INTERNAL COORDINATES (ANGSTROEM)
--------------------------------
 C      0   0   0     0.000000000000     0.00000000     0.00000000
 C      1   0   0     1.407012134647     0.00000000     0.00000000
 N      1   2   0     1.390732188720   107.63824582     0.00000000
 C      2   1   3     1.430157875249   108.37123308     0.00000000
 C      3   1   2     1.453699618553   111.68572735     0.03604005
 C      3   1   2     1.444526908676   128.14176704   180.00243549
 H      6   3   1     1.109872346008   111.64787214   298.86890917
 H      6   3   1     1.107221879308   106.34650768   179.96629545
 H      6   3   1     1.109868693445   111.64111641    61.05254638
 C      2   1   3     1.462013850347   142.49348670   180.04488640
 N     10   2   1     1.458452896928   103.06713693   179.92839414
 C     11  10   2     1.386079230377   111.57547004     0.04217979
 O      5   3   1     1.231074989627   121.75159243   180.02172123
 O     10   2   1     1.224748523763   134.80870681   359.95711404
 C     11  10   2     1.443668734075   120.65526934   179.89910632
 H     15  11  10     1.107367512567   106.47568612     0.15554670
 H     15  11  10     1.109863624551   111.65017576   241.26929147
 H     15  11  10     1.109852901769   111.64185168   119.05277233
 H      1   2   3     1.097228874049   111.70599660   241.85765041
 H      1   2   3     1.097228182035   112.28611784   117.73318017
 H     12  11  10     1.097384834689   107.21467918   120.93852937
 H     12  11  10     1.097385253455   107.75061943   239.30731842

---------------------------
INTERNAL COORDINATES (A.U.)
---------------------------
 C      0   0   0     0.000000000000     0.00000000     0.00000000
 C      1   0   0     2.658867601586     0.00000000     0.00000000
 N      1   2   0     2.628102962310   107.63824582     0.00000000
 C      2   1   3     2.702606712492   108.37123308     0.00000000
 C      3   1   2     2.747094160050   111.68572735     0.03604005
 C      3   1   2     2.729760250478   128.14176704   180.00243549
 H      6   3   1     2.097354777568   111.64787214   298.86890917
 H      6   3   1     2.092346121378   106.34650768   179.96629545
 H      6   3   1     2.097347875225   111.64111641    61.05254638
 C      2   1   3     2.762805781155   142.49348670   180.04488640
 N     10   2   1     2.756076554418   103.06713693   179.92839414
 C     11  10   2     2.619310145329   111.57547004     0.04217979
 O      5   3   1     2.326394580716   121.75159243   180.02172123
 O     10   2   1     2.314439292836   134.80870681   359.95711404
 C     11  10   2     2.728138535507   120.65526934   179.89910632
 H     15  11  10     2.092621328353   106.47568612     0.15554670
 H     15  11  10     2.097338296402   111.65017576   241.26929147
 H     15  11  10     2.097318033282   111.64185168   119.05277233
 H      1   2   3     2.073462078183   111.70599660   241.85765041
 H      1   2   3     2.073460770466   112.28611784   117.73318017
 H     12  11  10     2.073756801081   107.21467918   120.93852937
 H     12  11  10     2.073757592433   107.75061943   239.30731842

---------------------
BASIS SET INFORMATION
---------------------
There are 4 groups of distinct atoms

 Group   1 Type C   : 7s4p1d contracted to 3s2p1d pattern {511/31/1}
 Group   2 Type N   : 7s4p1d contracted to 3s2p1d pattern {511/31/1}
 Group   3 Type H   : 4s1p contracted to 2s1p pattern {31/1}
 Group   4 Type O   : 7s4p1d contracted to 3s2p1d pattern {511/31/1}

Atom   0C    basis set group =>   1
Atom   1C    basis set group =>   1
Atom   2N    basis set group =>   2
Atom   3C    basis set group =>   1
Atom   4C    basis set group =>   1
Atom   5C    basis set group =>   1
Atom   6H    basis set group =>   3
Atom   7H    basis set group =>   3
Atom   8H    basis set group =>   3
Atom   9C    basis set group =>   1
Atom  10N    basis set group =>   2
Atom  11C    basis set group =>   1
Atom  12O    basis set group =>   4
Atom  13O    basis set group =>   4
Atom  14C    basis set group =>   1
Atom  15H    basis set group =>   3
Atom  16H    basis set group =>   3
Atom  17H    basis set group =>   3
Atom  18H    basis set group =>   3
Atom  19H    basis set group =>   3
Atom  20H    basis set group =>   3
Atom  21H    basis set group =>   3
---------------------------------
AUXILIARY/J BASIS SET INFORMATION
---------------------------------
There are 4 groups of distinct atoms

 Group   1 Type C   : 12s5p4d2f1g contracted to 6s4p3d1f1g pattern {711111/2111/211/2/1}
 Group   2 Type N   : 12s5p4d2f1g contracted to 6s4p3d1f1g pattern {711111/2111/211/2/1}
 Group   3 Type H   : 5s2p1d contracted to 3s1p1d pattern {311/2/1}
 Group   4 Type O   : 12s5p4d2f1g contracted to 6s4p3d1f1g pattern {711111/2111/211/2/1}

Atom   0C    basis set group =>   1
Atom   1C    basis set group =>   1
Atom   2N    basis set group =>   2
Atom   3C    basis set group =>   1
Atom   4C    basis set group =>   1
Atom   5C    basis set group =>   1
Atom   6H    basis set group =>   3
Atom   7H    basis set group =>   3
Atom   8H    basis set group =>   3
Atom   9C    basis set group =>   1
Atom  10N    basis set group =>   2
Atom  11C    basis set group =>   1
Atom  12O    basis set group =>   4
Atom  13O    basis set group =>   4
Atom  14C    basis set group =>   1
Atom  15H    basis set group =>   3
Atom  16H    basis set group =>   3
Atom  17H    basis set group =>   3
Atom  18H    basis set group =>   3
Atom  19H    basis set group =>   3
Atom  20H    basis set group =>   3
Atom  21H    basis set group =>   3
------------------------------------------------------------------------------
                           ORCA GTO INTEGRAL CALCULATION
                           -- RI-GTO INTEGRALS CHOSEN --
------------------------------------------------------------------------------

                         BASIS SET STATISTICS AND STARTUP INFO

Gaussian basis set:
 # of primitive gaussian shells          ...  194
 # of primitive gaussian functions       ...  358
 # of contracted shells                  ...  102
 # of contracted basis functions         ...  218
 Highest angular momentum                ...    2
 Maximum contraction depth               ...    5
Auxiliary gaussian basis set:
 # of primitive gaussian shells          ...  368
 # of primitive gaussian functions       ... 1000
 # of contracted shells                  ...  230
 # of contracted aux-basis functions     ...  698
 Highest angular momentum                ...    4
 Maximum contraction depth               ...    7
Ratio of auxiliary to basis functions    ...  3.20
Integral package used                  ... LIBINT
 One Electron integrals                  ... done
 Ordering auxiliary basis shells         ... done
 Integral threshhold             Thresh  ...  2.500e-11
 Primitive cut-off               TCut    ...  2.500e-12
 Pre-screening matrix                    ... done
 Shell pair data                         ... 
 Ordering of the shell pairs             ... done (   0.001 sec) 4629 of 5253 pairs
 Determination of significant pairs      ... done (   0.000 sec)
 Creation of shell pair data             ... done (   0.001 sec)
 Storage of shell pair data              ... done (   0.006 sec)
 Shell pair data done in (   0.007 sec)
 Computing two index integrals           ... done
 Cholesky decomposition of the V-matrix  ... done


Timings:
 Total evaluation time                   ...   0.248 sec (  0.004 min)
 One electron matrix time                ...   0.114 sec (  0.002 min) = 45.7%
 Schwartz matrix evaluation time         ...   0.073 sec (  0.001 min) = 29.5%
 Two index repulsion integral time       ...   0.016 sec (  0.000 min) =  6.4%
 Cholesky decomposition of V             ...   0.020 sec (  0.000 min) =  8.1%
 Three index repulsion integral time     ...   0.000 sec (  0.000 min) =  0.0%

-------------------------------------------------------------------------------
                                 ORCA SCF
-------------------------------------------------------------------------------

------------
SCF SETTINGS
------------
Hamiltonian:
 Density Functional     Method          .... DFT(GTOs)
 Exchange Functional    Exchange        .... B88
   X-Alpha parameter    XAlpha          ....  0.666667
   Becke's b parameter  XBeta           ....  0.004200
 Correlation Functional Correlation     .... P86
 LDA part of GGA corr.  LDAOpt          .... PW91-LDA
 Gradients option       PostSCFGGA      .... off
   Density functional embedding theory  .... OFF
 RI-approximation to the Coulomb term is turned on
   Number of auxiliary basis functions  .... 698


General Settings:
 Integral files         IntName         .... DPP2F_TT_Input_Dimethyl_Diketopyrrolopyrrole_1_Optimize_Monomer_Hydrogenated
 Hartree-Fock type      HFTyp           .... RHF
 Total Charge           Charge          ....    0
 Multiplicity           Mult            ....    1
 Number of Electrons    NEL             ....   88
 Basis Dimension        Dim             ....  218
 Nuclear Repulsion      ENuc            ....    705.1947154164 Eh

Convergence Acceleration:
 DIIS                   CNVDIIS         .... on
   Start iteration      DIISMaxIt       ....    12
   Startup error        DIISStart       ....  0.200000
   # of expansion vecs  DIISMaxEq       ....     5
   Bias factor          DIISBfac        ....   1.050
   Max. coefficient     DIISMaxC        ....  10.000
 Newton-Raphson         CNVNR           .... off
 SOSCF                  CNVSOSCF        .... on
   Start iteration      SOSCFMaxIt      ....   150
   Startup grad/error   SOSCFStart      ....  0.003300
 Level Shifting         CNVShift        .... on
   Level shift para.    LevelShift      ....    0.2500
   Turn off err/grad.   ShiftErr        ....    0.0010
 Zerner damping         CNVZerner       .... off
 Static damping         CNVDamp         .... on
   Fraction old density DampFac         ....    0.7000
   Max. Damping (<1)    DampMax         ....    0.9800
   Min. Damping (>=0)   DampMin         ....    0.0000
   Turn off err/grad.   DampErr         ....    0.1000
 Fernandez-Rico         CNVRico         .... off

SCF Procedure:
 Maximum # iterations   MaxIter         ....   125
 SCF integral mode      SCFMode         .... Direct
   Integral package                     .... LIBINT
 Reset frequency        DirectResetFreq ....    20
 Integral Threshold     Thresh          ....  2.500e-11 Eh
 Primitive CutOff       TCut            ....  2.500e-12 Eh

Convergence Tolerance:
 Convergence Check Mode ConvCheckMode   .... Total+1el-Energy
 Convergence forced     ConvForced      .... 0
 Energy Change          TolE            ....  1.000e-08 Eh
 1-El. energy change                    ....  1.000e-05 Eh
 Orbital Gradient       TolG            ....  1.000e-05
 Orbital Rotation angle TolX            ....  1.000e-05
 DIIS Error             TolErr          ....  5.000e-07


Diagonalization of the overlap matrix:
Smallest eigenvalue                        ... 4.739e-04
Time for diagonalization                   ...    0.015 sec
Threshold for overlap eigenvalues          ... 1.000e-08
Number of eigenvalues below threshold      ... 0
Time for construction of square roots      ...    0.009 sec
Total time needed                          ...    0.024 sec

-------------------
DFT GRID GENERATION
-------------------

General Integration Accuracy     IntAcc      ...  4.340
Radial Grid Type                 RadialGrid  ... Gauss-Chebyshev
Angular Grid (max. acc.)         AngularGrid ... Lebedev-194
Angular grid pruning method      GridPruning ... 3 (G Style)
Weight generation scheme         WeightScheme... Becke
Basis function cutoff            BFCut       ...    1.0000e-11
Integration weight cutoff        WCut        ...    1.0000e-14
Grids for H and He will be reduced by one unit

# of grid points (after initial pruning)     ...  54876 (   0.0 sec)
# of grid points (after weights+screening)   ...  49799 (   0.1 sec)
nearest neighbour list constructed           ...    0.0 sec
Grid point re-assignment to atoms done       ...    0.0 sec
Grid point division into batches done        ...    0.1 sec
Reduced shell lists constructed in    0.4 sec

Total number of grid points                  ...    49799
Total number of batches                      ...      792
Average number of points per batch           ...       62
Average number of grid points per atom       ...     2264
Average number of shells per batch           ...    61.56 (60.35%)
Average number of basis functions per batch  ...   127.95 (58.69%)
Average number of large shells per batch     ...    45.08 (73.24%)
Average number of large basis fcns per batch ...    93.00 (72.68%)
Maximum spatial batch extension              ...  19.38, 21.40, 19.55 au
Average spatial batch extension              ...   2.87,  2.83,  2.88 au

Time for grid setup =    0.532 sec

------------------------------
INITIAL GUESS: MODEL POTENTIAL
------------------------------
Loading Hartree-Fock densities                     ... done
Calculating cut-offs                               ... done
Setting up the integral package                    ... done
Initializing the effective Hamiltonian             ... done
Starting the Coulomb interaction                   ... done (   0.2 sec)
Reading the grid                                   ... done
Mapping shells                                     ... done
Starting the XC term evaluation                    ... done (   0.4 sec)
  promolecular density results
     # of electrons  =     87.991613190
     EX              =    -73.726254780
     EC              =     -3.253577027
     EX+EC           =    -76.979831807
Transforming the Hamiltonian                       ... done (   0.0 sec)
Diagonalizing the Hamiltonian                      ... done (   0.0 sec)
Back transforming the eigenvectors                 ... done (   0.0 sec)
Now organizing SCF variables                       ... done
                      ------------------
                      INITIAL GUESS DONE (   1.2 sec)
                      ------------------
--------------
SCF ITERATIONS
--------------
ITER       Energy         Delta-E        Max-DP      RMS-DP      [F,P]     Damp
               ***  Starting incremental Fock matrix formation  ***
  0   -570.1196378997   0.000000000000 0.11194085  0.00323737  0.2548870 0.7000
  1   -570.2655715870  -0.145933687309 0.05740379  0.00184022  0.0730005 0.7000
                               ***Turning on DIIS***
  2   -570.3063180624  -0.040746475408 0.05386864  0.00223444  0.0259443 0.0000
  3   -570.3914215804  -0.085103517912 0.03803538  0.00122782  0.0353194 0.0000
  4   -570.4035314797  -0.012109899309 0.01375893  0.00044177  0.0269060 0.0000
                      *** Initiating the SOSCF procedure ***
                           *** Shutting down DIIS ***
                      *** Re-Reading the Fockian *** 
                      *** Removing any level shift *** 
ITER      Energy       Delta-E        Grad      Rot      Max-DP    RMS-DP
  5   -570.40664902  -0.0031175431  0.000837  0.000837  0.002991  0.000112
               *** Restarting incremental Fock matrix formation ***
  6   -570.40672714  -0.0000781216  0.000971  0.003889  0.005185  0.000139
  7   -570.40660789   0.0001192522  0.002669  0.005757  0.004435  0.000096
  8   -570.40674479  -0.0001368976  0.000125  0.001013  0.000585  0.000018
  9   -570.40674422   0.0000005675  0.000210  0.000417  0.000397  0.000011
 10   -570.40674527  -0.0000010478  0.000036  0.000187  0.000250  0.000006
 11   -570.40674508   0.0000001886  0.000077  0.000196  0.000188  0.000004
 12   -570.40674531  -0.0000002273  0.000030  0.000151  0.000197  0.000004
 13   -570.40674520   0.0000001049  0.000060  0.000099  0.000141  0.000003
 14   -570.40674534  -0.0000001357  0.000004  0.000023  0.000022  0.000001
 15   -570.40674534   0.0000000038  0.000010  0.000025  0.000023  0.000000
 16   -570.40674534  -0.0000000076  0.000004  0.000017  0.000015  0.000000
 17   -570.40674535  -0.0000000076  0.000005  0.000009  0.000009  0.000000
                  ***Gradient check signals convergence***
              ***Rediagonalizing the Fockian in SOSCF/NRSCF***

               *****************************************************
               *                     SUCCESS                       *
               *           SCF CONVERGED AFTER  18 CYCLES          *
               *****************************************************

Setting up the final grid:

General Integration Accuracy     IntAcc      ...  5.010
Radial Grid Type                 RadialGrid  ... Gauss-Chebyshev
Angular Grid (max. acc.)         AngularGrid ... Lebedev-434
Angular grid pruning method      GridPruning ... 3 (G Style)
Weight generation scheme         WeightScheme... Becke
Basis function cutoff            BFCut       ...    1.0000e-11
Integration weight cutoff        WCut        ...    1.0000e-14
Grids for H and He will be reduced by one unit

# of grid points (after initial pruning)     ... 195368 (   0.1 sec)
# of grid points (after weights+screening)   ... 175358 (   0.5 sec)
nearest neighbour list constructed           ...    0.0 sec
Grid point re-assignment to atoms done       ...    0.0 sec
Grid point division into batches done        ...    0.9 sec
Reduced shell lists constructed in    1.8 sec

Total number of grid points                  ...   175358
Total number of batches                      ...     2752
Average number of points per batch           ...       63
Average number of grid points per atom       ...     7971
Average number of shells per batch           ...    56.89 (55.78%)
Average number of basis functions per batch  ...   117.31 (53.81%)
Average number of large shells per batch     ...    40.84 (71.78%)
Average number of large basis fcns per batch ...    83.58 (71.24%)
Maximum spatial batch extension              ...  19.80, 21.52, 22.01 au
Average spatial batch extension              ...   1.93,  1.94,  1.93 au

Final grid set up in    2.4 sec
Final integration                            ... done (   1.6 sec)
Change in XC energy                          ...    -0.000320238
Integrated number of electrons               ...    87.999987538
Previous integrated no of electrons          ...    87.998349382

----------------
TOTAL SCF ENERGY
----------------

Total Energy       :         -570.40706558 Eh          -15521.56536 eV

Components:
Nuclear Repulsion  :          705.19471542 Eh           19189.32377 eV
Electronic Energy  :        -1275.60178100 Eh          -34710.88913 eV
One Electron Energy:        -2173.35334664 Eh          -59139.95118 eV
Two Electron Energy:          897.75156564 Eh           24429.06205 eV

Virial components:
Potential Energy   :        -1135.11625814 Eh          -30888.08370 eV
Kinetic Energy     :          564.70919256 Eh           15366.51835 eV
Virial Ratio       :            2.01008992


DFT components:
N(Alpha)           :       43.999993769004 electrons
N(Beta)            :       43.999993769004 electrons
N(Total)           :       87.999987538007 electrons
E(X)               :      -74.906805937726 Eh       
E(C)               :       -3.259587187561 Eh       
E(XC)              :      -78.166393125287 Eh       
DFET-embed. en.    :        0.000000000000 Eh       

---------------
SCF CONVERGENCE
---------------

  Last Energy change         ...    8.0262e-09  Tolerance :   1.0000e-08
  Last MAX-Density change    ...    1.9680e-06  Tolerance :   1.0000e-07
  Last RMS-Density change    ...    5.6807e-08  Tolerance :   5.0000e-09
  Last Orbital Gradient      ...    4.5890e-07  Tolerance :   1.0000e-05
  Last Orbital Rotation      ...    1.1466e-06  Tolerance :   1.0000e-05

             **** THE GBW FILE WAS UPDATED (DPP2F_TT_Input_Dimethyl_Diketopyrrolopyrrole_1_Optimize_Monomer_Hydrogenated.gbw) ****
             **** DENSITY FILE WAS UPDATED (DPP2F_TT_Input_Dimethyl_Diketopyrrolopyrrole_1_Optimize_Monomer_Hydrogenated.scfp) ****
             **** ENERGY FILE WAS UPDATED (DPP2F_TT_Input_Dimethyl_Diketopyrrolopyrrole_1_Optimize_Monomer_Hydrogenated.en.tmp) ****
             **** THE GBW FILE WAS UPDATED (DPP2F_TT_Input_Dimethyl_Diketopyrrolopyrrole_1_Optimize_Monomer_Hydrogenated.gbw) ****
             **** DENSITY FILE WAS UPDATED (DPP2F_TT_Input_Dimethyl_Diketopyrrolopyrrole_1_Optimize_Monomer_Hydrogenated.scfp) ****
----------------
ORBITAL ENERGIES
----------------

  NO   OCC          E(Eh)            E(eV) 
   0   2.0000     -18.751455      -510.2530 
   1   2.0000     -18.750265      -510.2207 
   2   2.0000     -14.046810      -382.2331 
   3   2.0000     -14.046540      -382.2258 
   4   2.0000     -10.013834      -272.4903 
   5   2.0000     -10.013101      -272.4703 
   6   2.0000      -9.967292      -271.2238 
   7   2.0000      -9.966736      -271.2087 
   8   2.0000      -9.954151      -270.8662 
   9   2.0000      -9.953435      -270.8467 
  10   2.0000      -9.945079      -270.6194 
  11   2.0000      -9.944976      -270.6166 
  12   2.0000      -0.944266       -25.6948 
  13   2.0000      -0.937151       -25.5012 
  14   2.0000      -0.884156       -24.0591 
  15   2.0000      -0.872431       -23.7400 
  16   2.0000      -0.761550       -20.7228 
  17   2.0000      -0.702294       -19.1104 
  18   2.0000      -0.666442       -18.1348 
  19   2.0000      -0.643839       -17.5197 
  20   2.0000      -0.609495       -16.5852 
  21   2.0000      -0.535928       -14.5833 
  22   2.0000      -0.534417       -14.5422 
  23   2.0000      -0.481025       -13.0893 
  24   2.0000      -0.472787       -12.8652 
  25   2.0000      -0.452512       -12.3135 
  26   2.0000      -0.450176       -12.2499 
  27   2.0000      -0.441975       -12.0267 
  28   2.0000      -0.433910       -11.8073 
  29   2.0000      -0.388146       -10.5620 
  30   2.0000      -0.386144       -10.5075 
  31   2.0000      -0.384841       -10.4721 
  32   2.0000      -0.375242       -10.2109 
  33   2.0000      -0.366375        -9.9696 
  34   2.0000      -0.347473        -9.4552 
  35   2.0000      -0.347318        -9.4510 
  36   2.0000      -0.346557        -9.4303 
  37   2.0000      -0.345064        -9.3897 
  38   2.0000      -0.341432        -9.2908 
  39   2.0000      -0.243071        -6.6143 
  40   2.0000      -0.225392        -6.1332 
  41   2.0000      -0.215459        -5.8629 
  42   2.0000      -0.213298        -5.8041 
  43   2.0000      -0.209171        -5.6918 
  44   0.0000      -0.105383        -2.8676 
  45   0.0000       0.001179         0.0321 
  46   0.0000       0.031992         0.8705 
  47   0.0000       0.032250         0.8776 
  48   0.0000       0.036546         0.9945 
  49   0.0000       0.073672         2.0047 
  50   0.0000       0.078181         2.1274 
  51   0.0000       0.081357         2.2138 
  52   0.0000       0.100425         2.7327 
  53   0.0000       0.103793         2.8244 
  54   0.0000       0.110531         3.0077 
  55   0.0000       0.112053         3.0491 
  56   0.0000       0.113489         3.0882 
  57   0.0000       0.117573         3.1993 
  58   0.0000       0.118179         3.2158 
  59   0.0000       0.141919         3.8618 
  60   0.0000       0.166582         4.5329 
  61   0.0000       0.170585         4.6419 
  62   0.0000       0.185718         5.0537 
  63   0.0000       0.211110         5.7446 
  64   0.0000       0.224992         6.1223 
  65   0.0000       0.251784         6.8514 
  66   0.0000       0.260571         7.0905 
  67   0.0000       0.288916         7.8618 
  68   0.0000       0.306007         8.3269 
  69   0.0000       0.348554         9.4846 
  70   0.0000       0.376627        10.2485 
  71   0.0000       0.390573        10.6280 
  72   0.0000       0.393442        10.7061 
  73   0.0000       0.395789        10.7700 
  74   0.0000       0.396200        10.7811 
  75   0.0000       0.424097        11.5403 
  76   0.0000       0.430706        11.7201 
  77   0.0000       0.438546        11.9334 
  78   0.0000       0.451705        12.2915 
  79   0.0000       0.475616        12.9422 
  80   0.0000       0.485198        13.2029 
  81   0.0000       0.508651        13.8411 
  82   0.0000       0.518362        14.1053 
  83   0.0000       0.527361        14.3502 
  84   0.0000       0.539624        14.6839 
  85   0.0000       0.550814        14.9884 
  86   0.0000       0.564384        15.3577 
  87   0.0000       0.565205        15.3800 
  88   0.0000       0.573090        15.5946 
  89   0.0000       0.576610        15.6903 
  90   0.0000       0.598302        16.2806 
  91   0.0000       0.602428        16.3929 
  92   0.0000       0.602921        16.4063 
  93   0.0000       0.606917        16.5151 
  94   0.0000       0.616523        16.7765 
  95   0.0000       0.618155        16.8208 
  96   0.0000       0.619027        16.8446 
  97   0.0000       0.630232        17.1495 
  98   0.0000       0.639915        17.4130 
  99   0.0000       0.648292        17.6409 
 100   0.0000       0.661506        18.0005 
 101   0.0000       0.705167        19.1886 
 102   0.0000       0.705496        19.1975 
 103   0.0000       0.723949        19.6997 
 104   0.0000       0.728271        19.8173 
 105   0.0000       0.757251        20.6059 
 106   0.0000       0.786579        21.4039 
 107   0.0000       0.808924        22.0119 
 108   0.0000       0.847341        23.0573 
 109   0.0000       0.848124        23.0786 
 110   0.0000       0.855101        23.2685 
 111   0.0000       0.902782        24.5660 
 112   0.0000       0.922533        25.1034 
 113   0.0000       0.954523        25.9739 
 114   0.0000       0.972094        26.4520 
 115   0.0000       0.997257        27.1367 
 116   0.0000       1.032432        28.0939 
 117   0.0000       1.058510        28.8035 
 118   0.0000       1.069672        29.1072 
 119   0.0000       1.080986        29.4151 
 120   0.0000       1.096641        29.8411 
 121   0.0000       1.113240        30.2928 
 122   0.0000       1.129581        30.7375 
 123   0.0000       1.142495        31.0889 
 124   0.0000       1.177168        32.0324 
 125   0.0000       1.283537        34.9268 
 126   0.0000       1.309486        35.6329 
 127   0.0000       1.325483        36.0682 
 128   0.0000       1.337503        36.3953 
 129   0.0000       1.346933        36.6519 
 130   0.0000       1.374402        37.3994 
 131   0.0000       1.388278        37.7770 
 132   0.0000       1.427972        38.8571 
 133   0.0000       1.434110        39.0241 
 134   0.0000       1.438322        39.1387 
 135   0.0000       1.441072        39.2136 
 136   0.0000       1.476101        40.1668 
 137   0.0000       1.516444        41.2645 
 138   0.0000       1.535207        41.7751 
 139   0.0000       1.540998        41.9327 
 140   0.0000       1.562577        42.5199 
 141   0.0000       1.576929        42.9104 
 142   0.0000       1.577694        42.9312 
 143   0.0000       1.621972        44.1361 
 144   0.0000       1.640601        44.6430 
 145   0.0000       1.678081        45.6629 
 146   0.0000       1.679880        45.7119 
 147   0.0000       1.680475        45.7280 
 148   0.0000       1.683345        45.8061 
 149   0.0000       1.718558        46.7643 
 150   0.0000       1.728562        47.0366 
 151   0.0000       1.748966        47.5918 
 152   0.0000       1.751665        47.6652 
 153   0.0000       1.758161        47.8420 
 154   0.0000       1.764643        48.0184 
 155   0.0000       1.770742        48.1843 
 156   0.0000       1.771499        48.2049 
 157   0.0000       1.802305        49.0432 
 158   0.0000       1.840883        50.0930 
 159   0.0000       1.847872        50.2832 
 160   0.0000       1.868102        50.8336 
 161   0.0000       1.894810        51.5604 
 162   0.0000       1.910429        51.9854 
 163   0.0000       1.910823        51.9961 
 164   0.0000       1.955805        53.2202 
 165   0.0000       1.986218        54.0477 
 166   0.0000       1.995044        54.2879 
 167   0.0000       2.005824        54.5813 
 168   0.0000       2.042223        55.5717 
 169   0.0000       2.047576        55.7174 
 170   0.0000       2.056784        55.9679 
 171   0.0000       2.138655        58.1958 
 172   0.0000       2.161964        58.8300 
 173   0.0000       2.189401        59.5766 
 174   0.0000       2.196093        59.7587 
 175   0.0000       2.239623        60.9432 
 176   0.0000       2.242887        61.0321 
 177   0.0000       2.244755        61.0829 
 178   0.0000       2.256048        61.3902 
 179   0.0000       2.260827        61.5202 
 180   0.0000       2.307056        62.7782 
 181   0.0000       2.309514        62.8451 
 182   0.0000       2.315564        63.0097 
 183   0.0000       2.366263        64.3893 
 184   0.0000       2.421268        65.8861 
 185   0.0000       2.489395        67.7399 
 186   0.0000       2.498241        67.9806 
 187   0.0000       2.521099        68.6026 
 188   0.0000       2.553303        69.4789 
 189   0.0000       2.558765        69.6275 
 190   0.0000       2.594456        70.5987 
 191   0.0000       2.598463        70.7078 
 192   0.0000       2.600713        70.7690 
 193   0.0000       2.611794        71.0705 
 194   0.0000       2.660740        72.4024 
 195   0.0000       2.670152        72.6585 
 196   0.0000       2.677985        72.8717 
 197   0.0000       2.683512        73.0221 
 198   0.0000       2.750384        74.8418 
 199   0.0000       2.753997        74.9401 
 200   0.0000       2.792059        75.9758 
 201   0.0000       2.816207        76.6329 
 202   0.0000       2.821227        76.7695 
 203   0.0000       2.845491        77.4298 
 204   0.0000       2.894327        78.7587 
 205   0.0000       2.904448        79.0340 
 206   0.0000       2.913665        79.2849 
 207   0.0000       2.984131        81.2023 
 208   0.0000       2.987980        81.3071 
 209   0.0000       3.035181        82.5915 
 210   0.0000       3.081598        83.8545 
 211   0.0000       3.087689        84.0203 
 212   0.0000       3.125249        85.0423 
 213   0.0000       3.132513        85.2400 
 214   0.0000       3.375937        91.8639 
 215   0.0000       3.421719        93.1097 
 216   0.0000       3.557130        96.7944 
 217   0.0000       3.561164        96.9042 

                    ********************************
                    * MULLIKEN POPULATION ANALYSIS *
                    ********************************

-----------------------
MULLIKEN ATOMIC CHARGES
-----------------------
   0 C :    0.331968
   1 C :   -0.221601
   2 N :   -0.368091
   3 C :   -0.218212
   4 C :    0.149400
   5 C :    0.065315
   6 H :    0.039170
   7 H :    0.069147
   8 H :    0.039226
   9 C :    0.149727
  10 N :   -0.368359
  11 C :    0.332036
  12 O :   -0.192967
  13 O :   -0.185063
  14 C :    0.066040
  15 H :    0.068201
  16 H :    0.039269
  17 H :    0.039331
  18 H :    0.041930
  19 H :    0.041707
  20 H :    0.040814
  21 H :    0.041012
Sum of atomic charges:   -0.0000000

--------------------------------
MULLIKEN REDUCED ORBITAL CHARGES
--------------------------------
  0 C s       :     2.734752  s :     2.734752
      pz      :     0.995715  p :     2.877097
      px      :     1.010144
      py      :     0.871239
      dz2     :     0.007734  d :     0.056183
      dxz     :     0.012060
      dyz     :     0.011466
      dx2y2   :     0.010482
      dxy     :     0.014441
  1 C s       :     3.252869  s :     3.252869
      pz      :     1.020388  p :     2.929603
      px      :     0.974265
      py      :     0.934950
      dz2     :     0.003134  d :     0.039129
      dxz     :     0.006916
      dyz     :     0.005742
      dx2y2   :     0.012233
      dxy     :     0.011105
  2 N s       :     3.474270  s :     3.474270
      pz      :     1.628688  p :     3.867151
      px      :     1.133955
      py      :     1.104508
      dz2     :     0.002359  d :     0.026671
      dxz     :     0.003716
      dyz     :     0.004227
      dx2y2   :     0.008171
      dxy     :     0.008198
  3 C s       :     3.251537  s :     3.251537
      pz      :     1.019993  p :     2.927501
      px      :     0.975305
      py      :     0.932203
      dz2     :     0.003134  d :     0.039174
      dxz     :     0.006899
      dyz     :     0.005777
      dx2y2   :     0.012241
      dxy     :     0.011122
  4 C s       :     3.018601  s :     3.018601
      pz      :     0.902810  p :     2.726114
      px      :     0.837947
      py      :     0.985357
      dz2     :     0.005644  d :     0.105885
      dxz     :     0.018696
      dyz     :     0.013198
      dx2y2   :     0.047210
      dxy     :     0.021138
  5 C s       :     3.011633  s :     3.011633
      pz      :     1.012707  p :     2.885891
      px      :     1.027491
      py      :     0.845692
      dz2     :     0.006099  d :     0.037162
      dxz     :     0.007591
      dyz     :     0.007784
      dx2y2   :     0.007663
      dxy     :     0.008026
  6 H s       :     0.939373  s :     0.939373
      pz      :     0.010643  p :     0.021457
      px      :     0.007350
      py      :     0.003464
  7 H s       :     0.907893  s :     0.907893
      pz      :     0.005011  p :     0.022960
      px      :     0.012512
      py      :     0.005437
  8 H s       :     0.939319  s :     0.939319
      pz      :     0.010261  p :     0.021455
      px      :     0.007517
      py      :     0.003676
  9 C s       :     3.018281  s :     3.018281
      pz      :     0.901851  p :     2.725509
      px      :     0.838958
      py      :     0.984700
      dz2     :     0.005642  d :     0.106483
      dxz     :     0.018810
      dyz     :     0.013231
      dx2y2   :     0.047660
      dxy     :     0.021141
 10 N s       :     3.473583  s :     3.473583
      pz      :     1.629895  p :     3.868095
      px      :     1.134984
      py      :     1.103217
      dz2     :     0.002361  d :     0.026681
      dxz     :     0.003700
      dyz     :     0.004251
      dx2y2   :     0.008170
      dxy     :     0.008199
 11 C s       :     2.734502  s :     2.734502
      pz      :     0.995448  p :     2.877081
      px      :     1.010343
      py      :     0.871290
      dz2     :     0.007743  d :     0.056382
      dxz     :     0.012100
      dyz     :     0.011586
      dx2y2   :     0.010526
      dxy     :     0.014426
 12 O s       :     3.720013  s :     3.720013
      pz      :     1.430602  p :     4.456227
      px      :     1.539652
      py      :     1.485973
      dz2     :     0.001896  d :     0.016726
      dxz     :     0.002460
      dyz     :     0.002684
      dx2y2   :     0.003843
      dxy     :     0.005842
 13 O s       :     3.714753  s :     3.714753
      pz      :     1.427810  p :     4.453265
      px      :     1.535778
      py      :     1.489677
      dz2     :     0.001923  d :     0.017044
      dxz     :     0.002534
      dyz     :     0.002722
      dx2y2   :     0.003939
      dxy     :     0.005927
 14 C s       :     3.011311  s :     3.011311
      pz      :     1.013065  p :     2.885391
      px      :     1.024565
      py      :     0.847761
      dz2     :     0.006110  d :     0.037258
      dxz     :     0.007720
      dyz     :     0.007720
      dx2y2   :     0.007501
      dxy     :     0.008207
 15 H s       :     0.908987  s :     0.908987
      pz      :     0.005021  p :     0.022813
      px      :     0.012235
      py      :     0.005557
 16 H s       :     0.939274  s :     0.939274
      pz      :     0.010657  p :     0.021457
      px      :     0.007342
      py      :     0.003458
 17 H s       :     0.939215  s :     0.939215
      pz      :     0.010261  p :     0.021454
      px      :     0.007524
      py      :     0.003670
 18 H s       :     0.935792  s :     0.935792
      pz      :     0.010678  p :     0.022278
      px      :     0.007590
      py      :     0.004010
 19 H s       :     0.936042  s :     0.936042
      pz      :     0.010886  p :     0.022251
      px      :     0.007365
      py      :     0.004000
 20 H s       :     0.936961  s :     0.936961
      pz      :     0.010873  p :     0.022225
      px      :     0.007356
      py      :     0.003995
 21 H s       :     0.936736  s :     0.936736
      pz      :     0.010668  p :     0.022252
      px      :     0.007580
      py      :     0.004005


                     *******************************
                     * LOEWDIN POPULATION ANALYSIS *
                     *******************************

----------------------
LOEWDIN ATOMIC CHARGES
----------------------
   0 C :    0.030571
   1 C :   -0.047628
   2 N :   -0.044993
   3 C :   -0.046909
   4 C :    0.049267
   5 C :    0.010281
   6 H :    0.026113
   7 H :    0.043009
   8 H :    0.026165
   9 C :    0.048253
  10 N :   -0.046402
  11 C :    0.029426
  12 O :   -0.197568
  13 O :   -0.191066
  14 C :    0.010669
  15 H :    0.042984
  16 H :    0.026187
  17 H :    0.026252
  18 H :    0.051665
  19 H :    0.051638
  20 H :    0.051019
  21 H :    0.051067

-------------------------------
LOEWDIN REDUCED ORBITAL CHARGES
-------------------------------
  0 C s       :     2.794088  s :     2.794088
      pz      :     1.053736  p :     3.031872
      px      :     1.019834
      py      :     0.958301
      dz2     :     0.019911  d :     0.143469
      dxz     :     0.033391
      dyz     :     0.023578
      dx2y2   :     0.025425
      dxy     :     0.041164
  1 C s       :     2.870261  s :     2.870261
      pz      :     0.975280  p :     3.072879
      px      :     1.049583
      py      :     1.048017
      dz2     :     0.008296  d :     0.104488
      dxz     :     0.013111
      dyz     :     0.011262
      dx2y2   :     0.038343
      dxy     :     0.033477
  2 N s       :     3.090787  s :     3.090787
      pz      :     1.568198  p :     3.890765
      px      :     1.176086
      py      :     1.146481
      dz2     :     0.004998  d :     0.063440
      dxz     :     0.006378
      dyz     :     0.007297
      dx2y2   :     0.023709
      dxy     :     0.021059
  3 C s       :     2.870033  s :     2.870033
      pz      :     0.975059  p :     3.072262
      px      :     1.049246
      py      :     1.047958
      dz2     :     0.008292  d :     0.104614
      dxz     :     0.013040
      dyz     :     0.011348
      dx2y2   :     0.038335
      dxy     :     0.033599
  4 C s       :     2.844907  s :     2.844907
      pz      :     0.900435  p :     2.855327
      px      :     0.935977
      py      :     1.018914
      dz2     :     0.013755  d :     0.250499
      dxz     :     0.037674
      dyz     :     0.025666
      dx2y2   :     0.120884
      dxy     :     0.052520
  5 C s       :     2.842305  s :     2.842305
      pz      :     1.071333  p :     3.051953
      px      :     1.072528
      py      :     0.908092
      dz2     :     0.015853  d :     0.095461
      dxz     :     0.021010
      dyz     :     0.018279
      dx2y2   :     0.018439
      dxy     :     0.021880
  6 H s       :     0.910410  s :     0.910410
      pz      :     0.032093  p :     0.063477
      px      :     0.020259
      py      :     0.011125
  7 H s       :     0.887462  s :     0.887462
      pz      :     0.011767  p :     0.069528
      px      :     0.038562
      py      :     0.019199
  8 H s       :     0.910365  s :     0.910365
      pz      :     0.030737  p :     0.063470
      px      :     0.020904
      py      :     0.011830
  9 C s       :     2.845482  s :     2.845482
      pz      :     0.899785  p :     2.854299
      px      :     0.936065
      py      :     1.018449
      dz2     :     0.013797  d :     0.251966
      dxz     :     0.037879
      dyz     :     0.025737
      dx2y2   :     0.121998
      dxy     :     0.052555
 10 N s       :     3.090138  s :     3.090138
      pz      :     1.569402  p :     3.892727
      px      :     1.176572
      py      :     1.146753
      dz2     :     0.005007  d :     0.063537
      dxz     :     0.006352
      dyz     :     0.007374
      dx2y2   :     0.023715
      dxy     :     0.021090
 11 C s       :     2.793798  s :     2.793798
      pz      :     1.053457  p :     3.032686
      px      :     1.020306
      py      :     0.958923
      dz2     :     0.019968  d :     0.144090
      dxz     :     0.033541
      dyz     :     0.023851
      dx2y2   :     0.025557
      dxy     :     0.041174
 12 O s       :     3.558379  s :     3.558379
      pz      :     1.434983  p :     4.609805
      px      :     1.607518
      py      :     1.567304
      dz2     :     0.004138  d :     0.029384
      dxz     :     0.003237
      dyz     :     0.003511
      dx2y2   :     0.005825
      dxy     :     0.012674
 13 O s       :     3.553912  s :     3.553912
      pz      :     1.431627  p :     4.607224
      px      :     1.605034
      py      :     1.570563
      dz2     :     0.004197  d :     0.029931
      dxz     :     0.003342
      dyz     :     0.003567
      dx2y2   :     0.005983
      dxy     :     0.012842
 14 C s       :     2.841944  s :     2.841944
      pz      :     1.071411  p :     3.051663
      px      :     1.070531
      py      :     0.909721
      dz2     :     0.015887  d :     0.095724
      dxz     :     0.021369
      dyz     :     0.018076
      dx2y2   :     0.017998
      dxy     :     0.022394
 15 H s       :     0.888098  s :     0.888098
      pz      :     0.011772  p :     0.068919
      px      :     0.037563
      py      :     0.019584
 16 H s       :     0.910351  s :     0.910351
      pz      :     0.032149  p :     0.063462
      px      :     0.020245
      py      :     0.011069
 17 H s       :     0.910296  s :     0.910296
      pz      :     0.030736  p :     0.063453
      px      :     0.020945
      py      :     0.011772
 18 H s       :     0.881083  s :     0.881083
      pz      :     0.032418  p :     0.067251
      px      :     0.022904
      py      :     0.011929
 19 H s       :     0.881111  s :     0.881111
      pz      :     0.033042  p :     0.067251
      px      :     0.022212
      py      :     0.011997
 20 H s       :     0.881747  s :     0.881747
      pz      :     0.033004  p :     0.067233
      px      :     0.022230
      py      :     0.011999
 21 H s       :     0.881696  s :     0.881696
      pz      :     0.032387  p :     0.067237
      px      :     0.022915
      py      :     0.011934


                      *****************************
                      * MAYER POPULATION ANALYSIS *
                      *****************************

  NA   - Mulliken gross atomic population
  ZA   - Total nuclear charge
  QA   - Mulliken gross atomic charge
  VA   - Mayer's total valence
  BVA  - Mayer's bonded valence
  FA   - Mayer's free valence

  ATOM       NA         ZA         QA         VA         BVA        FA
  0 C      5.6680     6.0000     0.3320     3.7718     3.7718    -0.0000
  1 C      6.2216     6.0000    -0.2216     4.0209     4.0209    -0.0000
  2 N      7.3681     7.0000    -0.3681     3.3165     3.3165    -0.0000
  3 C      6.2182     6.0000    -0.2182     4.0182     4.0182    -0.0000
  4 C      5.8506     6.0000     0.1494     4.1610     4.1610    -0.0000
  5 C      5.9347     6.0000     0.0653     3.9126     3.9126     0.0000
  6 H      0.9608     1.0000     0.0392     0.9879     0.9879     0.0000
  7 H      0.9309     1.0000     0.0691     1.0360     1.0360     0.0000
  8 H      0.9608     1.0000     0.0392     0.9879     0.9879    -0.0000
  9 C      5.8503     6.0000     0.1497     4.1646     4.1646    -0.0000
 10 N      7.3684     7.0000    -0.3684     3.3159     3.3159    -0.0000
 11 C      5.6680     6.0000     0.3320     3.7710     3.7710    -0.0000
 12 O      8.1930     8.0000    -0.1930     2.3785     2.3785    -0.0000
 13 O      8.1851     8.0000    -0.1851     2.3863     2.3863     0.0000
 14 C      5.9340     6.0000     0.0660     3.9151     3.9151    -0.0000
 15 H      0.9318     1.0000     0.0682     1.0339     1.0339     0.0000
 16 H      0.9607     1.0000     0.0393     0.9879     0.9879    -0.0000
 17 H      0.9607     1.0000     0.0393     0.9878     0.9878    -0.0000
 18 H      0.9581     1.0000     0.0419     0.9911     0.9911    -0.0000
 19 H      0.9583     1.0000     0.0417     0.9914     0.9914    -0.0000
 20 H      0.9592     1.0000     0.0408     0.9915     0.9915    -0.0000
 21 H      0.9590     1.0000     0.0410     0.9912     0.9912     0.0000

  Mayer bond orders larger than 0.100000
B(  0-C ,  1-C ) :   1.0862 B(  0-C ,  2-N ) :   1.0100 B(  0-C , 18-H ) :   0.8556 
B(  0-C , 19-H ) :   0.8563 B(  1-C ,  3-C ) :   1.6760 B(  1-C ,  9-C ) :   0.9641 
B(  2-N ,  4-C ) :   1.0500 B(  2-N ,  5-C ) :   0.9972 B(  2-N , 12-O ) :   0.1105 
B(  3-C ,  4-C ) :   0.9684 B(  3-C , 11-C ) :   1.0818 B(  4-C , 12-O ) :   2.1007 
B(  5-C ,  6-H ) :   0.9641 B(  5-C ,  7-H ) :   0.9431 B(  5-C ,  8-H ) :   0.9642 
B(  9-C , 10-N ) :   1.0454 B(  9-C , 13-O ) :   2.1109 B( 10-N , 11-C ) :   1.0137 
B( 10-N , 13-O ) :   0.1109 B( 10-N , 14-C ) :   0.9981 B( 11-C , 20-H ) :   0.8565 
B( 11-C , 21-H ) :   0.8560 B( 14-C , 15-H ) :   0.9446 B( 14-C , 16-H ) :   0.9638 
B( 14-C , 17-H ) :   0.9639 

-------
TIMINGS
-------

Total SCF time: 0 days 0 hours 0 min 23 sec 

Total time                  ....      23.242 sec
Sum of individual times     ....      22.533 sec  ( 97.0%)

Fock matrix formation       ....      18.800 sec  ( 80.9%)
  Split-RI-J                ....       7.579 sec  ( 40.3% of F)
  XC integration            ....      10.362 sec  ( 55.1% of F)
    Basis function eval.    ....       3.740 sec  ( 36.1% of XC)
    Density eval.           ....       1.969 sec  ( 19.0% of XC)
    XC-Functional eval.     ....       1.123 sec  ( 10.8% of XC)
    XC-Potential eval.      ....       2.418 sec  ( 23.3% of XC)
Diagonalization             ....       0.033 sec  (  0.1%)
Density matrix formation    ....       0.011 sec  (  0.0%)
Population analysis         ....       0.025 sec  (  0.1%)
Initial guess               ....       0.670 sec  (  2.9%)
Orbital Transformation      ....       0.000 sec  (  0.0%)
Orbital Orthonormalization  ....       0.000 sec  (  0.0%)
DIIS solution               ....       0.036 sec  (  0.2%)
SOSCF solution              ....       0.047 sec  (  0.2%)
Grid generation             ....       2.912 sec  ( 12.5%)


-------------------------------------------------------------------------------
                          DFT DISPERSION CORRECTION                            
                                                                               
                              DFTD3 V3.1  Rev 1                                
                          USING Becke-Johnson damping                          
-------------------------------------------------------------------------------
The BP86 functional is recognized
Active option DFTDOPT                   ...         4   

molecular C6(AA) [au] = 4776.271655 


            DFT-D V3
 parameters
 s6 scaling factor         :     1.0000 
 a1 scaling factor         :     0.3946 
 s8 scaling factor         :     3.2822 
 a2 scaling factor         :     4.8516 
 ad hoc parameters k1-k3   :    16.0000     1.3333    -4.0000 

 Edisp/kcal,au: -22.645886590113  -0.036088513577 
 E6   /kcal   :  -8.651623826 
 E8   /kcal   : -13.994262764 
 % E8         :  61.796047190 

-------------------------   ----------------
Dispersion correction           -0.036088514
-------------------------   ----------------


-------------------------   --------------------
FINAL SINGLE POINT ENERGY      -570.443154094457
-------------------------   --------------------

------------------------------------------------------------------------------
                         ORCA SCF GRADIENT CALCULATION
------------------------------------------------------------------------------

Gradient of the Kohn-Sham DFT energy:
Kohn-Sham wavefunction type      ... RKS
Hartree-Fock exchange scaling    ...    0.000
Number of operators              ...    1
Number of atoms                  ...   22
Basis set dimensions             ...  218
Integral neglect threshold       ... 2.5e-11
Integral primitive cutoff        ... 2.5e-12

Nuclear repulsion gradient       ... done
One Electron Gradient            ... done
Pre-screening matrix             ... done
RI-J gradient                    ... done
Exchange-correlation gradient    ... done
Dispersion correction            ... done

------------------
CARTESIAN GRADIENT
------------------

   1   C   :    0.059497980   -0.020463202    0.001549012
   2   C   :   -0.087205343    0.008418262   -0.000736730
   3   N   :   -0.062527703   -0.025294409   -0.000475988
   4   C   :    0.084107391   -0.003098188    0.000591345
   5   C   :    0.021171163   -0.032067398    0.001020241
   6   C   :    0.001692741    0.007110919   -0.000207042
   7   H   :    0.001425744   -0.000831767    0.000899123
   8   H   :   -0.000242463    0.000187419   -0.000005842
   9   H   :    0.001434224   -0.000888748   -0.000803368
  10   C   :   -0.026471201    0.024397497   -0.000943586
  11   N   :    0.066203993    0.026305531    0.000434555
  12   C   :   -0.059986059    0.015313483   -0.001326035
  13   O   :   -0.004901114    0.013039410   -0.000359372
  14   O   :    0.009248978   -0.006453417    0.000245703
  15   C   :   -0.000437116   -0.006640440    0.000227291
  16   H   :    0.000243840   -0.000188956    0.000006220
  17   H   :   -0.001491828    0.000822378   -0.000928365
  18   H   :   -0.001499209    0.000881622    0.000822016
  19   H   :    0.016430296    0.005801720   -0.006499430
  20   H   :    0.016399884    0.007289981    0.006444541
  21   H   :   -0.016509737   -0.007509600   -0.006414343
  22   H   :   -0.016584463   -0.006132097    0.006460053

Difference to translation invariance:
           :   -0.0000000000    0.0000000000   -0.0000000000

Norm of the cartesian gradient     ...    0.1918935488
RMS gradient                       ...    0.0236204630
MAX gradient                       ...    0.0872053430

-------
TIMINGS
-------

Total SCF gradient time            ...        9.014 sec

One electron gradient       ....       0.165 sec  (  1.8%)
Prescreening matrices       ....       0.097 sec  (  1.1%)
RI-J Coulomb gradient       ....       1.758 sec  ( 19.5%)
XC gradient                 ....       6.870 sec  ( 76.2%)
------------------------------------------------------------------------------
                         ORCA GEOMETRY RELAXATION STEP
------------------------------------------------------------------------------

Reading the OPT-File                    .... done
Getting information on internals        .... done
Copying old internal coords+grads       .... done
Making the new internal coordinates     .... (new redundants).... done
Validating the new internal coordinates .... (new redundants).... done
Calculating the B-matrix                .... done
Calculating the G,G- and P matrices     .... done
Transforming gradient to internals      .... done
Projecting the internal gradient        .... done
Number of atoms                         ....  22
Number of internal coordinates          .... 121
Current Energy                          ....  -570.443154094 Eh
Current gradient norm                   ....     0.191893549 Eh/bohr
Maximum allowed component of the step   ....  0.300
Current trust radius                    ....  0.300
Evaluating the initial hessian          ....  (Almloef) done
Projecting the Hessian                  .... done
Forming the augmented Hessian           .... done
Diagonalizing the augmented Hessian     .... done
Last element of RFO vector              ....  0.986073626
Lowest eigenvalues of augmented Hessian:
 -0.005949997  0.017904897  0.018020117  0.069943994  0.070216757
Length of the computed step             ....  0.168658159
The final length of the internal step   ....  0.168658159
Converting the step to cartesian space:
 Initial RMS(Int)=    0.0153325599
Transforming coordinates:
 Iter   0:  RMS(Cart)=    0.0200748254 RMS(Int)=    0.0152501790
 Iter   1:  RMS(Cart)=    0.0004428563 RMS(Int)=    0.0003208439
 Iter   2:  RMS(Cart)=    0.0000126592 RMS(Int)=    0.0000095248
 Iter   3:  RMS(Cart)=    0.0000004960 RMS(Int)=    0.0000003748
 Iter   4:  RMS(Cart)=    0.0000000168 RMS(Int)=    0.0000000124
Imposing constraints:
 Iter   0:  RMS(Cart)=    0.0000032940 RMS(Int)=    0.0000007601
 Iter   1:  RMS(Cart)=    0.0000005862 RMS(Int)=    0.0000004087
 Iter   2:  RMS(Cart)=    0.0000001873 RMS(Int)=    0.0000002505
 Iter   3:  RMS(Cart)=    0.0000000981 RMS(Int)=    0.0000001575
 Iter   4:  RMS(Cart)=    0.0000000593 RMS(Int)=    0.0000000997
CONVERGED
done
Storing new coordinates                 .... done

                                .--------------------.
          ----------------------|Geometry convergence|-------------------------
          Item                value                   Tolerance       Converged
          ---------------------------------------------------------------------
          RMS gradient        0.0034674619            0.0001000000      NO
          MAX gradient        0.0147226143            0.0003000000      NO
          RMS step            0.0153325599            0.0020000000      NO
          MAX step            0.0470068965            0.0040000000      NO
          ........................................................
          Max(Bonds)      0.0219      Max(Angles)    2.69
          Max(Dihed)        2.27      Max(Improp)    0.00
          ---------------------------------------------------------------------

The optimization has not yet converged - more geometry cycles are needed


    ---------------------------------------------------------------------------
                         Redundant Internal Coordinates
                            (Angstroem and degrees)

        Definition                    Value    dE/dq     Step     New-Value
    ----------------------------------------------------------------------------
     1. B(C   1,C   0)                1.4070 -0.056788 -0.0000    1.4070 C 
     2. B(N   2,C   0)                1.3907 -0.043245  0.0000    1.3907 C 
     3. B(C   3,C   1)                1.4302  0.036562 -0.0000    1.4302 C 
     4. B(C   4,N   2)                1.4537  0.017227  0.0000    1.4537 C 
     5. B(C   4,C   3)                1.4574 -0.014231  0.0000    1.4574 C 
     6. B(C   5,N   2)                1.4445  0.003897  0.0000    1.4445 C 
     7. B(H   6,C   5)                1.1099 -0.001653  0.0026    1.1124   
     8. B(H   7,C   5)                1.1072 -0.000091  0.0001    1.1074   
     9. B(H   8,C   5)                1.1099 -0.001641  0.0025    1.1124   
    10. B(C   9,C   1)                1.4620 -0.011945 -0.0000    1.4620 C 
    11. B(N  10,C   9)                1.4585  0.019754  0.0000    1.4585 C 
    12. B(C  11,C   3)                1.4107 -0.053301  0.0000    1.4107 C 
    13. B(C  11,N  10)                1.3861 -0.046702  0.0000    1.3861 C 
    14. B(O  12,C   4)                1.2311  0.006160 -0.0000    1.2311 C 
    15. B(O  13,C   9)                1.2247 -0.001672 -0.0000    1.2247 C 
    16. B(C  14,N  10)                1.4437  0.003783  0.0000    1.4437 C 
    17. B(H  15,C  14)                1.1074 -0.000088  0.0001    1.1075   
    18. B(H  16,C  14)                1.1099 -0.001708  0.0027    1.1125   
    19. B(H  17,C  14)                1.1099 -0.001690  0.0026    1.1125   
    20. B(H  18,C   0)                1.0972 -0.014663  0.0218    1.1190   
    21. B(H  19,C   0)                1.0972 -0.014591  0.0217    1.1189   
    22. B(H  20,C  11)                1.0974 -0.014645  0.0217    1.1191   
    23. B(H  21,C  11)                1.0974 -0.014723  0.0219    1.1192   
    24. A(C   1,C   0,H  18)          111.71 -0.004775   -0.41    111.29   
    25. A(N   2,C   0,H  19)          107.18 -0.014529    2.11    109.29   
    26. A(C   1,C   0,H  19)          112.29 -0.003824   -0.59    111.70   
    27. A(C   1,C   0,N   2)          107.64  0.026643    0.00    107.64 C 
    28. A(N   2,C   0,H  18)          107.79 -0.013538    1.84    109.64   
    29. A(H  18,C   0,H  19)          110.00  0.009417   -2.65    107.35   
    30. A(C   0,C   1,C   3)          108.37 -0.007105    0.00    108.37 C 
    31. A(C   0,C   1,C   9)          142.49  0.017173    0.00    142.49 C 
    32. A(C   3,C   1,C   9)          109.14 -0.010068    0.00    109.14 C 
    33. A(C   0,N   2,C   4)          111.69 -0.004056    0.00    111.69 C 
    34. A(C   4,N   2,C   5)          120.17 -0.005309   -0.00    120.17 C 
    35. A(C   0,N   2,C   5)          128.14  0.009366   -0.00    128.14 C 
    36. A(C   1,C   3,C   4)          109.23 -0.009202    0.00    109.23 C 
    37. A(C   1,C   3,C  11)          108.30 -0.007614    0.00    108.30 C 
    38. A(C   4,C   3,C  11)          142.47  0.016816   -0.00    142.47 C 
    39. A(C   3,C   4,O  12)          135.18  0.017679   -0.00    135.18 C 
    40. A(N   2,C   4,O  12)          121.75 -0.011400    0.00    121.75 C 
    41. A(N   2,C   4,C   3)          103.07 -0.006279    0.00    103.07 C 
    42. A(N   2,C   5,H   6)          111.65 -0.000876    0.15    111.80   
    43. A(N   2,C   5,H   7)          106.35  0.000625   -0.09    106.26   
    44. A(N   2,C   5,H   8)          111.64 -0.000886    0.15    111.79   
    45. A(H   7,C   5,H   8)          109.11  0.000013    0.02    109.13   
    46. A(H   6,C   5,H   7)          109.10  0.000009    0.02    109.12   
    47. A(H   6,C   5,H   8)          108.91  0.001118   -0.24    108.67   
    48. A(C   1,C   9,N  10)          103.07 -0.005689   -0.00    103.07 C 
    49. A(C   1,C   9,O  13)          134.81  0.015755   -0.00    134.81 C 
    50. A(N  10,C   9,O  13)          122.12 -0.010066   -0.00    122.12 C 
    51. A(C   9,N  10,C  11)          111.58 -0.004802    0.00    111.58 C 
    52. A(C   9,N  10,C  14)          120.66 -0.003345   -0.00    120.66 C 
    53. A(C  11,N  10,C  14)          127.77  0.008147   -0.00    127.77 C 
    54. A(H  20,C  11,H  21)          110.00  0.009668   -2.69    107.31   
    55. A(C   3,C  11,H  20)          112.15 -0.004113   -0.62    111.53   
    56. A(N  10,C  11,H  20)          107.21 -0.015095    2.14    109.36   
    57. A(C   3,C  11,N  10)          107.93  0.028173    0.00    107.93 C 
    58. A(C   3,C  11,H  21)          111.58 -0.004997   -0.45    111.13   
    59. A(N  10,C  11,H  21)          107.75 -0.014225    1.91    109.66   
    60. A(H  16,C  14,H  17)          108.94  0.001147   -0.25    108.69   
    61. A(N  10,C  14,H  15)          106.48  0.000621   -0.09    106.39   
    62. A(N  10,C  14,H  16)          111.65 -0.000876    0.15    111.80   
[...]
                    ********************************

-----------------------
MULLIKEN ATOMIC CHARGES
-----------------------
   0 C :    0.272349
   1 C :   -0.203703
   2 N :   -0.345096
   3 C :   -0.200886
   4 C :    0.155839
   5 C :    0.063131
   6 H :    0.040259
   7 H :    0.069054
   8 H :    0.040259
   9 C :    0.156071
  10 N :   -0.344999
  11 C :    0.272485
  12 O :   -0.190939
  13 O :   -0.183000
  14 C :    0.063877
  15 H :    0.068119
  16 H :    0.040375
  17 H :    0.040392
  18 H :    0.047055
  19 H :    0.047100
  20 H :    0.046152
  21 H :    0.046108
Sum of atomic charges:    0.0000000

--------------------------------
MULLIKEN REDUCED ORBITAL CHARGES
--------------------------------
  0 C s       :     2.795166  s :     2.795166
      pz      :     1.013371  p :     2.876875
      px      :     0.988715
      py      :     0.874790
      dz2     :     0.006485  d :     0.055610
      dxz     :     0.012440
      dyz     :     0.011548
      dx2y2   :     0.010701
      dxy     :     0.014436
  1 C s       :     3.242486  s :     3.242486
      pz      :     1.019155  p :     2.922048
      px      :     0.979797
      py      :     0.923096
      dz2     :     0.003150  d :     0.039169
      dxz     :     0.007091
      dyz     :     0.005722
      dx2y2   :     0.012201
      dxy     :     0.011005
  2 N s       :     3.465573  s :     3.465573
      pz      :     1.624597  p :     3.853147
      px      :     1.128931
      py      :     1.099619
      dz2     :     0.002378  d :     0.026377
      dxz     :     0.003577
      dyz     :     0.004188
      dx2y2   :     0.008084
      dxy     :     0.008150
  3 C s       :     3.241417  s :     3.241417
      pz      :     1.018532  p :     2.920242
      px      :     0.981183
      py      :     0.920527
      dz2     :     0.003150  d :     0.039227
      dxz     :     0.007083
      dyz     :     0.005760
      dx2y2   :     0.012212
      dxy     :     0.011022
  4 C s       :     3.016240  s :     3.016240
      pz      :     0.901518  p :     2.722011
      px      :     0.836353
      py      :     0.984140
      dz2     :     0.005656  d :     0.105910
      dxz     :     0.018694
      dyz     :     0.013166
      dx2y2   :     0.047201
      dxy     :     0.021193
  5 C s       :     3.013977  s :     3.013977
      pz      :     1.015039  p :     2.885812
      px      :     1.027352
      py      :     0.843421
      dz2     :     0.006027  d :     0.037081
      dxz     :     0.007475
      dyz     :     0.007841
      dx2y2   :     0.007723
      dxy     :     0.008015
  6 H s       :     0.938394  s :     0.938394
      pz      :     0.010599  p :     0.021346
      px      :     0.007328
      py      :     0.003419
  7 H s       :     0.908005  s :     0.908005
      pz      :     0.005017  p :     0.022941
      px      :     0.012513
      py      :     0.005411
  8 H s       :     0.938395  s :     0.938395
      pz      :     0.010219  p :     0.021346
      px      :     0.007491
      py      :     0.003635
  9 C s       :     3.016007  s :     3.016007
      pz      :     0.900477  p :     2.721416
      px      :     0.837346
      py      :     0.983594
      dz2     :     0.005653  d :     0.106506
      dxz     :     0.018805
      dyz     :     0.013201
      dx2y2   :     0.047653
      dxy     :     0.021193
 10 N s       :     3.464753  s :     3.464753
      pz      :     1.625624  p :     3.853869
      px      :     1.130002
      py      :     1.098244
      dz2     :     0.002380  d :     0.026377
      dxz     :     0.003558
      dyz     :     0.004210
      dx2y2   :     0.008083
      dxy     :     0.008146
 11 C s       :     2.794912  s :     2.794912
      pz      :     1.013315  p :     2.876801
      px      :     0.988785
      py      :     0.874702
      dz2     :     0.006481  d :     0.055802
      dxz     :     0.012479
      dyz     :     0.011681
      dx2y2   :     0.010743
      dxy     :     0.014418
 12 O s       :     3.720637  s :     3.720637
      pz      :     1.428041  p :     4.453559
      px      :     1.536882
      py      :     1.488637
      dz2     :     0.001897  d :     0.016743
      dxz     :     0.002490
      dyz     :     0.002666
      dx2y2   :     0.003845
      dxy     :     0.005846
 13 O s       :     3.715396  s :     3.715396
      pz      :     1.425227  p :     4.450542
      px      :     1.533004
      py      :     1.492311
      dz2     :     0.001924  d :     0.017062
      dxz     :     0.002564
      dyz     :     0.002703
      dx2y2   :     0.003941
      dxy     :     0.005930
 14 C s       :     3.013712  s :     3.013712
      pz      :     1.015462  p :     2.885237
      px      :     1.024347
      py      :     0.845428
      dz2     :     0.006035  d :     0.037174
      dxz     :     0.007603
      dyz     :     0.007775
      dx2y2   :     0.007561
      dxy     :     0.008200
 15 H s       :     0.909088  s :     0.909088
      pz      :     0.005027  p :     0.022793
      px      :     0.012235
      py      :     0.005531
 16 H s       :     0.938282  s :     0.938282
      pz      :     0.010612  p :     0.021343
      px      :     0.007320
      py      :     0.003410
 17 H s       :     0.938266  s :     0.938266
      pz      :     0.010217  p :     0.021341
      px      :     0.007497
      py      :     0.003627
 18 H s       :     0.931508  s :     0.931508
      pz      :     0.010279  p :     0.021437
      px      :     0.007756
      py      :     0.003402
 19 H s       :     0.931467  s :     0.931467
      pz      :     0.010425  p :     0.021433
      px      :     0.007560
      py      :     0.003449
 20 H s       :     0.932435  s :     0.932435
      pz      :     0.010416  p :     0.021413
      px      :     0.007552
      py      :     0.003445
 21 H s       :     0.932476  s :     0.932476
      pz      :     0.010267  p :     0.021416
      px      :     0.007755
      py      :     0.003394


                     *******************************
                     * LOEWDIN POPULATION ANALYSIS *
                     *******************************

----------------------
LOEWDIN ATOMIC CHARGES
----------------------
   0 C :    0.022784
   1 C :   -0.049882
   2 N :   -0.044399
   3 C :   -0.049018
   4 C :    0.052251
   5 C :    0.009401
   6 H :    0.026810
   7 H :    0.042528
   8 H :    0.026806
   9 C :    0.051331
  10 N :   -0.045794
  11 C :    0.021610
  12 O :   -0.194529
  13 O :   -0.187992
  14 C :    0.009785
  15 H :    0.042481
  16 H :    0.026908
  17 H :    0.026920
  18 H :    0.053331
  19 H :    0.053315
  20 H :    0.052677
  21 H :    0.052677

-------------------------------
LOEWDIN REDUCED ORBITAL CHARGES
-------------------------------
  0 C s       :     2.802258  s :     2.802258
      pz      :     1.058925  p :     3.032791
      px      :     1.013844
      py      :     0.960022
      dz2     :     0.016347  d :     0.142167
      dxz     :     0.034487
      dyz     :     0.024224
      dx2y2   :     0.026069
      dxy     :     0.041040
  1 C s       :     2.869813  s :     2.869813
      pz      :     0.977440  p :     3.075416
      px      :     1.050556
      py      :     1.047420
      dz2     :     0.008330  d :     0.104653
      dxz     :     0.013476
      dyz     :     0.011311
      dx2y2   :     0.038231
      dxy     :     0.033305
  2 N s       :     3.090167  s :     3.090167
      pz      :     1.568242  p :     3.890995
      px      :     1.175234
      py      :     1.147518
      dz2     :     0.005022  d :     0.063238
      dxz     :     0.006221
      dyz     :     0.007283
      dx2y2   :     0.023506
      dxy     :     0.021206
  3 C s       :     2.869601  s :     2.869601
      pz      :     0.976978  p :     3.074625
      px      :     1.050246
      py      :     1.047401
      dz2     :     0.008326  d :     0.104792
      dxz     :     0.013420
      dyz     :     0.011401
      dx2y2   :     0.038224
      dxy     :     0.033422
  4 C s       :     2.844683  s :     2.844683
      pz      :     0.898594  p :     2.852906
      px      :     0.935206
      py      :     1.019105
      dz2     :     0.013756  d :     0.250160
      dxz     :     0.037482
      dyz     :     0.025548
      dx2y2   :     0.120665
      dxy     :     0.052710
  5 C s       :     2.843518  s :     2.843518
      pz      :     1.072346  p :     3.052098
      px      :     1.072723
      py      :     0.907029
      dz2     :     0.015611  d :     0.094983
      dxz     :     0.020716
      dyz     :     0.018347
      dx2y2   :     0.018574
      dxy     :     0.021735
  6 H s       :     0.910105  s :     0.910105
      pz      :     0.031876  p :     0.063085
      px      :     0.020204
      py      :     0.011005
  7 H s       :     0.887949  s :     0.887949
      pz      :     0.011824  p :     0.069523
      px      :     0.038663
      py      :     0.019036
  8 H s       :     0.910116  s :     0.910116
      pz      :     0.030523  p :     0.063078
      px      :     0.020832
      py      :     0.011722
  9 C s       :     2.845259  s :     2.845259
      pz      :     0.897858  p :     2.851796
      px      :     0.935286
      py      :     1.018652
      dz2     :     0.013798  d :     0.251614
      dxz     :     0.037677
      dyz     :     0.025621
      dx2y2   :     0.121784
      dxy     :     0.052734
 10 N s       :     3.089541  s :     3.089541
      pz      :     1.569331  p :     3.892932
      px      :     1.175767
      py      :     1.147834
      dz2     :     0.005032  d :     0.063322
      dxz     :     0.006188
      dyz     :     0.007357
      dx2y2   :     0.023511
      dxy     :     0.021232
 11 C s       :     2.801960  s :     2.801960
      pz      :     1.058749  p :     3.033631
      px      :     1.014304
      py      :     0.960578
      dz2     :     0.016360  d :     0.142798
      dxz     :     0.034634
      dyz     :     0.024553
      dx2y2   :     0.026195
      dxy     :     0.041057
 12 O s       :     3.558635  s :     3.558635
      pz      :     1.432070  p :     4.606504
      px      :     1.605293
      py      :     1.569142
      dz2     :     0.004141  d :     0.029390
      dxz     :     0.003270
      dyz     :     0.003483
      dx2y2   :     0.005817
      dxy     :     0.012680
 13 O s       :     3.554171  s :     3.554171
      pz      :     1.428696  p :     4.603884
      px      :     1.602826
      py      :     1.572362
      dz2     :     0.004199  d :     0.029937
      dxz     :     0.003376
      dyz     :     0.003537
      dx2y2   :     0.005977
      dxy     :     0.012848
 14 C s       :     2.843203  s :     2.843203
      pz      :     1.072459  p :     3.051782
      px      :     1.070682
      py      :     0.908641
      dz2     :     0.015636  d :     0.095230
      dxz     :     0.021072
      dyz     :     0.018135
      dx2y2   :     0.018128
      dxy     :     0.022259
 15 H s       :     0.888602  s :     0.888602
      pz      :     0.011829  p :     0.068917
      px      :     0.037664
      py      :     0.019424
 16 H s       :     0.910036  s :     0.910036
      pz      :     0.031922  p :     0.063056
      px      :     0.020194
      py      :     0.010940
 17 H s       :     0.910032  s :     0.910032
      pz      :     0.030515  p :     0.063048
      px      :     0.020877
      py      :     0.011657
 18 H s       :     0.883318  s :     0.883318
      pz      :     0.029767  p :     0.063351
      px      :     0.023337
      py      :     0.010247
 19 H s       :     0.883323  s :     0.883323
      pz      :     0.030196  p :     0.063361
      px      :     0.022666
      py      :     0.010499
 20 H s       :     0.883984  s :     0.883984
      pz      :     0.030154  p :     0.063339
      px      :     0.022675
      py      :     0.010510
 21 H s       :     0.883996  s :     0.883996
      pz      :     0.029710  p :     0.063327
      px      :     0.023367
      py      :     0.010250


                      *****************************
                      * MAYER POPULATION ANALYSIS *
                      *****************************

  NA   - Mulliken gross atomic population
  ZA   - Total nuclear charge
  QA   - Mulliken gross atomic charge
  VA   - Mayer's total valence
  BVA  - Mayer's bonded valence
  FA   - Mayer's free valence

  ATOM       NA         ZA         QA         VA         BVA        FA
  0 C      5.7277     6.0000     0.2723     3.7947     3.7947    -0.0000
  1 C      6.2037     6.0000    -0.2037     4.0076     4.0076     0.0000
  2 N      7.3451     7.0000    -0.3451     3.3147     3.3147    -0.0000
  3 C      6.2009     6.0000    -0.2009     4.0050     4.0050     0.0000
  4 C      5.8442     6.0000     0.1558     4.1573     4.1573     0.0000
  5 C      5.9369     6.0000     0.0631     3.9110     3.9110     0.0000
  6 H      0.9597     1.0000     0.0403     0.9873     0.9873    -0.0000
  7 H      0.9309     1.0000     0.0691     1.0355     1.0355    -0.0000
  8 H      0.9597     1.0000     0.0403     0.9873     0.9873    -0.0000
  9 C      5.8439     6.0000     0.1561     4.1608     4.1608    -0.0000
 10 N      7.3450     7.0000    -0.3450     3.3141     3.3141     0.0000
 11 C      5.7275     6.0000     0.2725     3.7939     3.7939     0.0000
 12 O      8.1909     8.0000    -0.1909     2.3794     2.3794     0.0000
 13 O      8.1830     8.0000    -0.1830     2.3872     2.3872    -0.0000
 14 C      5.9361     6.0000     0.0639     3.9134     3.9134    -0.0000
 15 H      0.9319     1.0000     0.0681     1.0334     1.0334    -0.0000
 16 H      0.9596     1.0000     0.0404     0.9873     0.9873     0.0000
 17 H      0.9596     1.0000     0.0404     0.9872     0.9872    -0.0000
 18 H      0.9529     1.0000     0.0471     0.9853     0.9853    -0.0000
 19 H      0.9529     1.0000     0.0471     0.9853     0.9853    -0.0000
 20 H      0.9538     1.0000     0.0462     0.9853     0.9853    -0.0000
 21 H      0.9539     1.0000     0.0461     0.9853     0.9853    -0.0000

  Mayer bond orders larger than 0.100000
B(  0-C ,  1-C ) :   1.0886 B(  0-C ,  2-N ) :   1.0293 B(  0-C , 18-H ) :   0.8552 
B(  0-C , 19-H ) :   0.8552 B(  1-C ,  3-C ) :   1.6745 B(  1-C ,  9-C ) :   0.9637 
B(  2-N ,  4-C ) :   1.0453 B(  2-N ,  5-C ) :   0.9965 B(  2-N , 12-O ) :   0.1057 
B(  3-C ,  4-C ) :   0.9678 B(  3-C , 11-C ) :   1.0843 B(  4-C , 12-O ) :   2.1009 
B(  5-C ,  6-H ) :   0.9644 B(  5-C ,  7-H ) :   0.9438 B(  5-C ,  8-H ) :   0.9644 
B(  9-C , 10-N ) :   1.0405 B(  9-C , 13-O ) :   2.1113 B( 10-N , 11-C ) :   1.0334 
B( 10-N , 13-O ) :   0.1060 B( 10-N , 14-C ) :   0.9974 B( 11-C , 20-H ) :   0.8552 
B( 11-C , 21-H ) :   0.8553 B( 14-C , 15-H ) :   0.9452 B( 14-C , 16-H ) :   0.9641 
B( 14-C , 17-H ) :   0.9642 

-------
TIMINGS
-------

Total SCF time: 0 days 0 hours 0 min 12 sec 

Total time                  ....      12.546 sec
Sum of individual times     ....      12.125 sec  ( 96.6%)

Fock matrix formation       ....       9.126 sec  ( 72.7%)
  Split-RI-J                ....       3.149 sec  ( 34.5% of F)
  XC integration            ....       5.366 sec  ( 58.8% of F)
    Basis function eval.    ....       1.901 sec  ( 35.4% of XC)
    Density eval.           ....       0.909 sec  ( 16.9% of XC)
    XC-Functional eval.     ....       0.454 sec  (  8.5% of XC)
    XC-Potential eval.      ....       1.128 sec  ( 21.0% of XC)
Diagonalization             ....       0.005 sec  (  0.0%)
Density matrix formation    ....       0.005 sec  (  0.0%)
Population analysis         ....       0.023 sec  (  0.2%)
Initial guess               ....       0.006 sec  (  0.0%)
Orbital Transformation      ....       0.000 sec  (  0.0%)
Orbital Orthonormalization  ....       0.003 sec  (  0.0%)
DIIS solution               ....       0.001 sec  (  0.0%)
SOSCF solution              ....       0.026 sec  (  0.2%)
Grid generation             ....       2.933 sec  ( 23.4%)


-------------------------------------------------------------------------------
                          DFT DISPERSION CORRECTION                            
                                                                               
                              DFTD3 V3.1  Rev 1                                
                          USING Becke-Johnson damping                          
-------------------------------------------------------------------------------
The BP86 functional is recognized
Active option DFTDOPT                   ...         4   

molecular C6(AA) [au] = 4777.217790 


            DFT-D V3
 parameters
 s6 scaling factor         :     1.0000 
 a1 scaling factor         :     0.3946 
 s8 scaling factor         :     3.2822 
 a2 scaling factor         :     4.8516 
 ad hoc parameters k1-k3   :    16.0000     1.3333    -4.0000 

 Edisp/kcal,au: -22.557490732333  -0.035947645826 
 E6   /kcal   :  -8.614531780 
 E8   /kcal   : -13.942958952 
 % E8         :  61.810771055 

-------------------------   ----------------
Dispersion correction           -0.035947646
-------------------------   ----------------


-------------------------   --------------------
FINAL SINGLE POINT ENERGY      -570.449033406382
-------------------------   --------------------

                                *** OPTIMIZATION RUN DONE ***

                            ***************************************
                            *     ORCA property calculations      *
                            ***************************************

                                    ---------------------
                                    Active property flags
                                    ---------------------
   (+) Dipole Moment


------------------------------------------------------------------------------
                       ORCA ELECTRIC PROPERTIES CALCULATION
------------------------------------------------------------------------------

Dipole Moment Calculation                       ... on
Quadrupole Moment Calculation                   ... off
Polarizability Calculation                      ... off
GBWName                                         ... DPP2F_TT_Input_Dimethyl_Diketopyrrolopyrrole_1_Optimize_Monomer_Hydrogenated.gbw
Electron density file                           ... DPP2F_TT_Input_Dimethyl_Diketopyrrolopyrrole_1_Optimize_Monomer_Hydrogenated.scfp
The origin for moment calculation is the CENTER OF MASS  = (-1.895501, -0.782827  0.012738)

-------------
DIPOLE MOMENT
-------------
                                X             Y             Z
Electronic contribution:     -0.05862      -0.03010      -0.00292
Nuclear contribution   :      0.04499       0.01111       0.00416
                        -----------------------------------------
Total Dipole Moment    :     -0.01363      -0.01899       0.00124
                        -----------------------------------------
Magnitude (a.u.)       :      0.02341
Magnitude (Debye)      :      0.05950



--------------------
Rotational spectrum 
--------------------
 
Rotational constants in cm-1:     0.070736     0.021290     0.016570 
Rotational constants in MHz :  2120.613374   638.259246   496.748107 

 Dipole components along the rotational axes: 
x,y,z [a.u.] :    -0.017360    -0.015679     0.000841 
x,y,z [Debye]:    -0.044126    -0.039853     0.002137 

 

Timings for individual modules:

Sum of individual times         ...      147.390 sec (=   2.457 min)
GTO integral calculation        ...        1.735 sec (=   0.029 min)   1.2 %
SCF iterations                  ...       99.722 sec (=   1.662 min)  67.7 %
SCF Gradient evaluation         ...       45.301 sec (=   0.755 min)  30.7 %
Geometry relaxation             ...        0.632 sec (=   0.011 min)   0.4 %
                             ****ORCA TERMINATED NORMALLY****
TOTAL RUN TIME: 0 days 0 hours 2 minutes 28 seconds 891 msec
