
                                 *****************
                                 * O   R   C   A *
                                 *****************

           --- An Ab Initio, DFT and Semiempirical electronic structure package ---

                  #######################################################
                  #                        -***-                        #
                  #          Department of theory and spectroscopy      #
                  #               Directorship: Frank Neese             #
                  #        Max Planck Institute fuer Kohlenforschung    #
                  #                Kaiser Wilhelm Platz 1               #
                  #                 D-45470 Muelheim/Ruhr               #
                  #                      Germany                        #
                  #                                                     #
                  #                  All rights reserved                #
                  #                        -***-                        #
                  #######################################################


                         Program Version 4.2.0 -  RELEASE  -


 With contributions from (in alphabetic order):
   Daniel Aravena         : Magnetic Suceptibility
   Michael Atanasov       : Ab Initio Ligand Field Theory (pilot matlab implementation)
   Alexander A. Auer      : GIAO ZORA, VPT2
   Ute Becker             : Parallelization
   Giovanni Bistoni       : ED, misc. LED, open-shell LED, HFLED
   Martin Brehm           : Molecular dynamics
   Dmytro Bykov           : SCF Hessian
   Vijay G. Chilkuri      : MRCI spin determinant printing, contributions to CSF-ICE
   Dipayan Datta          : RHF DLPNO-CCSD density
   Achintya Kumar Dutta   : EOM-CC, STEOM-CC
   Dmitry Ganyushin       : Spin-Orbit,Spin-Spin,Magnetic field MRCI
   Miquel Garcia          : C-PCM Hessian, Gaussian charge scheme
   Yang Guo               : DLPNO-NEVPT2, CIM, IAO-localization
   Andreas Hansen         : Spin unrestricted coupled pair/coupled cluster methods
   Benjamin Helmich-Paris : CASSCF linear response (MC-RPA)
   Lee Huntington         : MR-EOM, pCC
   Robert Izsak           : Overlap fitted RIJCOSX, COSX-SCS-MP3, EOM
   Christian Kollmar      : KDIIS, OOCD, Brueckner-CCSD(T), CCSD density
   Simone Kossmann        : Meta GGA functionals, TD-DFT gradient, OOMP2, MP2 Hessian
   Martin Krupicka        : AUTO-CI
   Lucas Lang             : DCDCAS
   Dagmar Lenk            : GEPOL surface, SMD
   Dimitrios Liakos       : Extrapolation schemes; Compound Job, initial MDCI parallelization
   Dimitrios Manganas     : Further ROCIS development; embedding schemes
   Dimitrios Pantazis     : SARC Basis sets
   Taras Petrenko         : DFT Hessian,TD-DFT gradient, ASA, ECA, R-Raman, ABS, FL, XAS/XES, NRVS
   Peter Pinski           : DLPNO-MP2, DLPNO-MP2 Gradient
   Christoph Reimann      : Effective Core Potentials
   Marius Retegan         : Local ZFS, SOC
   Christoph Riplinger    : Optimizer, TS searches, QM/MM, DLPNO-CCSD(T), (RO)-DLPNO pert. Triples
   Tobias Risthaus        : Range-separated hybrids, TD-DFT gradient, RPA, STAB
   Michael Roemelt        : Original ROCIS implementation
   Masaaki Saitow         : Open-shell DLPNO-CCSD energy and density
   Barbara Sandhoefer     : DKH picture change effects
   Avijit Sen             : IP-ROCIS
   Kantharuban Sivalingam : CASSCF convergence, NEVPT2, FIC-MRCI
   Bernardo de Souza      : ESD, SOC TD-DFT
   Georgi Stoychev        : AutoAux, RI-MP2 NMR
   Willem Van den Heuvel  : Paramagnetic NMR
   Boris Wezisla          : Elementary symmetry handling
   Frank Wennmohs         : Technical directorship


 We gratefully acknowledge several colleagues who have allowed us to
 interface, adapt or use parts of their codes:
   Stefan Grimme, W. Hujo, H. Kruse,             : VdW corrections, initial TS optimization,
                  C. Bannwarth                     DFT functionals, gCP, sTDA/sTD-DF
   Ed Valeev, F. Pavosevic, A. Kumar             : LibInt (2-el integral package), F12 methods
   Garnet Chan, S. Sharma, J. Yang, R. Olivares  : DMRG
   Ulf Ekstrom                                   : XCFun DFT Library
   Mihaly Kallay                                 : mrcc  (arbitrary order and MRCC methods)
   Andreas Klamt, Michael Diedenhofen            : otool_cosmo (COSMO solvation model)
   Jiri Pittner, Ondrej Demel                    : Mk-CCSD
   Frank Weinhold                                : gennbo (NPA and NBO analysis)
   Christopher J. Cramer and Donald G. Truhlar   : smd solvation model
   Lars Goerigk                                  : TD-DFT with DH, B97 family of functionals
   V. Asgeirsson, H. Jonsson                     : NEB implementation
   FAccTs GmbH                                   : IRC, NEB, NEB-TS, Multilevel, MM, QM/MM, CI optimization
   S Lehtola, MJT Oliveira, MAL Marques          : LibXC Library


 Your calculation uses the libint2 library for the computation of 2-el integrals
 For citations please refer to: http://libint.valeyev.net

 Your ORCA version has been built with support for libXC version: 4.2.3
 For citations please refer to: https://tddft.org/programs/libxc/

 This ORCA versions uses:
   CBLAS   interface :  Fast vector & matrix operations
   LAPACKE interface :  Fast linear algebra routines
   SCALAPACK package :  Parallel linear algebra routines


Your calculation utilizes the atom-pairwise dispersion correction
with the Becke-Johnson damping scheme (D3BJ)
Cite in your paper:
S.Grimme, S.Ehrlich, L.Goerigk, J Comput Chem, (2011), 32, 1456–1465 
S.Grimme, J.Antony, S.Ehrlich and H.Krieg, J.Chem.Phys., 132, (2010), 154104 
   

----- Orbital basis set information -----
Your calculation utilizes the basis: def2-SVP
   F. Weigend and R. Ahlrichs, Phys. Chem. Chem. Phys. 7, 3297 (2005).

----- AuxJ basis set information -----
Your calculation utilizes the auxiliary basis: def2/J
   F. Weigend, Phys. Chem. Chem. Phys. 8, 1057 (2006).

================================================================================
                                        WARNINGS
                       Please study these warnings very carefully!
================================================================================


WARNING: Geometry Optimization
  ===> : Switching off AutoStart
         For restart on a previous wavefunction, please use MOREAD

INFO   : the flag for use of LIBINT has been found!

================================================================================
                                       INPUT FILE
================================================================================
NAME = DPP2F_TT_Input_Thienothiophene_3_Optimize_Monomer_Hydrogenated.inp
|  1> ! RI BP86 def2-SVP def2/J D3BJ TIGHTSCF  Opt Grid3 FinalGrid5
|  2> %maxcore 3000
|  3> %geom
|  4> optimizehydrogens true
|  5> end
|  6> 
|  7> 
|  8> *xyz 0 1
|  9> C	-0.375146	-1.545159	0.047435
| 10> C	-1.007997	-0.295266	0.003242
| 11> C	-0.051328	0.745179	-0.015015
| 12> H	-1.645416	-0.202059	0.891639
| 13> S	1.389801	-1.434167	0.067844
| 14> C	1.300809	0.309961	0.014968
| 15> S	-0.140659	2.489066	-0.067038
| 16> C	1.624459	2.600332	-0.048481
| 17> C	2.257232	1.350443	-0.003620
| 18> H	-1.620960	-0.244314	-0.905559
| 19> H	2.870561	1.299503	0.904941
| 20> H	2.894313	1.257330	-0.892275
| 21> H	-0.648728	-2.090847	0.958897
| 22> H	1.891046	3.191098	0.836560
| 23> H	-0.641703	-2.135762	-0.837732
| 24> H	1.897928	3.145882	-0.960051
| 25> **                         ****END OF INPUT****
================================================================================

                       *****************************
                       * Geometry Optimization Run *
                       *****************************

Geometry optimization settings:
Update method            Update   .... BFGS
Choice of coordinates    CoordSys .... Z-matrix Internals
Initial Hessian          InHess   .... Almoef's Model

Convergence Tolerances:
Energy Change            TolE     ....  5.0000e-06 Eh
Max. Gradient            TolMAXG  ....  3.0000e-04 Eh/bohr
RMS Gradient             TolRMSG  ....  1.0000e-04 Eh/bohr
Max. Displacement        TolMAXD  ....  4.0000e-03 bohr
RMS Displacement         TolRMSD  ....  2.0000e-03 bohr
Strict Convergence                ....  False
------------------------------------------------------------------------------
                        ORCA OPTIMIZATION COORDINATE SETUP
------------------------------------------------------------------------------

The optimization will be done in new redundant internal coordinates
Making redundant internal coordinates   ...  (new redundants) done
Evaluating the initial hessian          ...  (Almloef) done
Evaluating the coordinates              ...  done
Calculating the B-matrix                .... done
Calculating the G-matrix                .... done
Diagonalizing the G-matrix              .... done
Imposing constraints:
 Iter   0:  RMS(Cart)=    0.0000000000 RMS(Int)=    0.0000000000
CONVERGED
The first mode is                       ....   51
The number of degrees of freedom        ....   42
Storing new coordinates                 .... done

    -----------------------------------------------------------------
                    Redundant Internal Coordinates


    -----------------------------------------------------------------
         Definition                    Initial Value    Approx d2E/dq
    -----------------------------------------------------------------
      1. B(C   1,C   0)                  1.4017         0.598571 C 
      2. B(C   2,C   1)                  1.4135         0.573051 C 
      3. B(H   3,C   1)                  1.0974         0.350470   
      4. B(S   4,C   0)                  1.7686         0.419326 C 
      5. B(C   5,C   2)                  1.4208         0.558016 C 
      6. B(C   5,S   4)                  1.7472         0.453546 C 
      7. B(S   6,C   2)                  1.7469         0.453961 C 
      8. B(C   7,S   6)                  1.7687         0.419068 C 
      9. B(C   8,C   5)                  1.4134         0.573336 C 
     10. B(C   8,C   7)                  1.4017         0.598610 C 
     11. B(H   9,C   1)                  1.0974         0.350471   
     12. B(H  10,C   8)                  1.0974         0.350464   
     13. B(H  11,C   8)                  1.0974         0.350464   
     14. B(H  12,C   0)                  1.0970         0.350972   
     15. B(H  13,C   7)                  1.0970         0.350980   
     16. B(H  14,C   0)                  1.0970         0.350972   
     17. B(H  15,C   7)                  1.0970         0.350981   
     18. A(C   1,C   0,H  14)          110.1779         0.349299   
     19. A(C   1,C   0,H  12)          110.9266         0.349299   
     20. A(H  12,C   0,H  14)          110.0002         0.288507   
     21. A(S   4,C   0,H  12)          105.6950         0.346013   
     22. A(S   4,C   0,H  14)          106.5944         0.346013   
     23. A(C   1,C   0,S   4)          113.2646         0.424328 C 
     24. A(C   0,C   1,H   3)          108.2081         0.349215   
     25. A(C   0,C   1,C   2)          110.5603         0.425283 C 
     26. A(C   2,C   1,H   9)          109.4610         0.346661   
     27. A(C   0,C   1,H   9)          108.6452         0.349215   
     28. A(C   2,C   1,H   3)          109.9413         0.346661   
     29. A(H   3,C   1,H   9)          110.0020         0.288378   
     30. A(C   1,C   2,S   6)          134.4709         0.427056 C 
     31. A(C   5,C   2,S   6)          110.7985         0.425027 C 
     32. A(C   1,C   2,C   5)          114.7306         0.419985 C 
     33. A(C   0,S   4,C   5)           90.6571         0.426026 C 
     34. A(C   2,C   5,C   8)          114.7219         0.420022 C 
     35. A(S   4,C   5,C   8)          134.4908         0.427024 C 
     36. A(C   2,C   5,S   4)          110.7873         0.424958 C 
     37. A(C   2,S   6,C   7)           90.6563         0.426049 C 
     38. A(H  13,C   7,H  15)          110.0002         0.288509   
     39. A(S   6,C   7,H  13)          106.5509         0.345979   
     40. A(S   6,C   7,C   8)          113.2515         0.424286 C 
     41. A(C   8,C   7,H  13)          110.1631         0.349304   
     42. A(S   6,C   7,H  15)          105.7447         0.345979   
     43. A(C   8,C   7,H  15)          110.9483         0.349304   
     44. A(C   5,C   8,H  11)          109.9398         0.346689   
     45. A(C   7,C   8,H  11)          108.1696         0.349218   
     46. A(H  10,C   8,H  11)          110.0018         0.288376   
     47. A(C   7,C   8,H  10)          108.6754         0.349218   
     48. A(C   5,C   8,C   7)          110.5719         0.425325 C 
     49. A(C   5,C   8,H  10)          109.4594         0.346689   
     50. D(H   9,C   1,C   0,H  14)      0.9071         0.028826   
     51. D(H   9,C   1,C   0,H  12)   -121.1421         0.028826   
     52. D(C   2,C   1,C   0,H  14)   -119.2319         0.028826   
     53. D(C   2,C   1,C   0,H  12)    118.7189         0.028826   
     54. D(H   3,C   1,C   0,S   4)   -120.3978         0.028826   
     55. D(H   3,C   1,C   0,H  14)    120.3145         0.028826   
     56. D(H   3,C   1,C   0,H  12)     -1.7347         0.028826   
     57. D(C   2,C   1,C   0,S   4)      0.0559         0.028826 C 
     58. D(H   9,C   1,C   0,S   4)    120.1948         0.028826   
     59. D(S   6,C   2,C   1,H   9)     60.3384         0.024469   
     60. D(C   5,C   2,C   1,C   0)     -0.0203         0.024469 C 
     61. D(C   5,C   2,C   1,H   9)   -119.6692         0.024469   
     62. D(S   6,C   2,C   1,H   3)    -60.6000         0.024469   
     63. D(C   5,C   2,C   1,H   3)    119.3924         0.024469   
     64. D(S   6,C   2,C   1,C   0)    179.9873         0.024469 C 
     65. D(C   5,S   4,C   0,C   1)     -0.0596         0.004346 C 
     66. D(C   5,S   4,C   0,H  12)   -121.7043         0.004346   
     67. D(C   5,S   4,C   0,H  14)    121.2664         0.004346   
     68. D(C   8,C   5,C   2,C   1)    179.9854         0.021324 C 
     69. D(S   4,C   5,C   2,C   1)     -0.0240         0.021324 C 
     70. D(S   4,C   5,C   2,S   6)    179.9702         0.021324 C 
     71. D(C   2,C   5,S   4,C   0)      0.0461         0.004521 C 
     72. D(C   8,C   5,S   4,C   0)   -179.9660         0.004521 C 
     73. D(C   8,C   5,C   2,S   6)     -0.0204         0.021324 C 
     74. D(C   7,S   6,C   2,C   1)   -179.9827         0.004527 C 
     75. D(C   7,S   6,C   2,C   5)      0.0246         0.004527 C 
     76. D(C   8,C   7,S   6,C   2)     -0.0244         0.004342 C 
     77. D(H  13,C   7,S   6,C   2)   -121.2942         0.004342   
     78. D(H  15,C   7,S   6,C   2)    121.6731         0.004342   
     79. D(C   7,C   8,C   5,C   2)      0.0022         0.024494 C 
     80. D(C   7,C   8,C   5,S   4)   -179.9854         0.024494 C 
     81. D(H  10,C   8,C   5,C   2)    119.6946         0.024494   
     82. D(H  11,C   8,C   7,H  13)   -120.3351         0.028830   
     83. D(H  11,C   8,C   5,C   2)   -119.3691         0.024494   
     84. D(H  11,C   8,C   5,S   4)     60.6433         0.024494   
     85. D(C   5,C   8,C   7,S   6)      0.0171         0.028830 C 
     86. D(C   5,C   8,C   7,H  13)    119.2304         0.028830   
     87. D(C   5,C   8,C   7,H  15)   -118.7159         0.028830   
     88. D(H  10,C   8,C   7,S   6)   -120.1461         0.028830   
     89. D(H  10,C   8,C   7,H  13)     -0.9328         0.028830   
     90. D(H  10,C   8,C   7,H  15)    121.1209         0.028830   
     91. D(H  10,C   8,C   5,S   4)    -60.2930         0.024494   
     92. D(H  11,C   8,C   7,S   6)    120.4516         0.028830   
     93. D(H  11,C   8,C   7,H  15)      1.7186         0.028830   
    -----------------------------------------------------------------

Number of atoms                         .... 16
Number of degrees of freedom            .... 93

         *************************************************************
         *                GEOMETRY OPTIMIZATION CYCLE   1            *
         *************************************************************
---------------------------------
CARTESIAN COORDINATES (ANGSTROEM)
---------------------------------
  C     -0.375146   -1.545159    0.047435
  C     -1.007997   -0.295266    0.003242
  C     -0.051328    0.745179   -0.015015
  H     -1.645416   -0.202059    0.891639
  S      1.389801   -1.434167    0.067844
  C      1.300809    0.309961    0.014968
  S     -0.140659    2.489066   -0.067038
  C      1.624459    2.600332   -0.048481
  C      2.257232    1.350443   -0.003620
  H     -1.620960   -0.244314   -0.905559
  H      2.870561    1.299503    0.904941
  H      2.894313    1.257330   -0.892275
  H     -0.648728   -2.090847    0.958897
  H      1.891046    3.191098    0.836560
  H     -0.641703   -2.135762   -0.837732
  H      1.897928    3.145882   -0.960051

----------------------------
CARTESIAN COORDINATES (A.U.)
----------------------------
  NO LB      ZA    FRAG     MASS         X           Y           Z
   0 C     6.0000    0    12.011   -0.708923   -2.919927    0.089639
   1 C     6.0000    0    12.011   -1.904838   -0.557972    0.006126
   2 C     6.0000    0    12.011   -0.096996    1.408184   -0.028374
   3 H     1.0000    0     1.008   -3.109386   -0.381836    1.684954
   4 S    16.0000    0    32.060    2.626343   -2.710183    0.128207
   5 C     6.0000    0    12.011    2.458173    0.585741    0.028285
   6 S    16.0000    0    32.060   -0.265807    4.703653   -0.126683
   7 C     6.0000    0    12.011    3.069783    4.913915   -0.091616
   8 C     6.0000    0    12.011    4.265550    2.551967   -0.006841
   9 H     1.0000    0     1.008   -3.063170   -0.461687   -1.711259
  10 H     1.0000    0     1.008    5.424574    2.455705    1.710091
  11 H     1.0000    0     1.008    5.469459    2.376009   -1.686155
  12 H     1.0000    0     1.008   -1.225918   -3.951128    1.812053
  13 H     1.0000    0     1.008    3.573559    6.030301    1.580869
  14 H     1.0000    0     1.008   -1.212643   -4.036005   -1.583084
  15 H     1.0000    0     1.008    3.586564    5.944855   -1.814233

--------------------------------
INTERNAL COORDINATES (ANGSTROEM)
--------------------------------
 C      0   0   0     0.000000000000     0.00000000     0.00000000
 C      1   0   0     1.401672544105     0.00000000     0.00000000
 C      2   1   0     1.413532699174   110.56032105     0.00000000
 H      2   1   3     1.097378583725   108.20809042   239.54637531
 S      1   2   3     1.768551289659   113.26459082     0.05586464
 C      3   2   1     1.420770268053   114.73062526     0.00000000
 S      3   2   1     1.746948278816   134.47088653   179.98726444
 C      7   3   2     1.768718756312    90.65626028   180.01727609
 C      8   7   3     1.401654982929   113.25147520   359.97560442
 H      2   1   3     1.097378240751   108.64518033   120.13894775
 H      9   8   7     1.097383450104   108.67540374   239.85394285
 H      9   8   7     1.097383224017   108.16956799   120.45158758
 H      1   2   3     1.096989280491   110.92663948   118.71893207
 H      8   7   3     1.096982528122   106.55087324   238.70582092
 H      1   2   3     1.096989132010   110.17793547   240.76813159
 H      8   7   3     1.096982206492   105.74469417   121.67305584

---------------------------
INTERNAL COORDINATES (A.U.)
---------------------------
 C      0   0   0     0.000000000000     0.00000000     0.00000000
 C      1   0   0     2.648777237796     0.00000000     0.00000000
 C      2   1   0     2.671189682782   110.56032105     0.00000000
 H      2   1   3     2.073744988471   108.20809042   239.54637531
 S      1   2   3     3.342077591248   113.26459082     0.05586464
 C      3   2   1     2.684866705837   114.73062526     0.00000000
 S      3   2   1     3.301253817088   134.47088653   179.98726444
 C      7   3   2     3.342394057359    90.65626028   180.01727609
 C      8   7   3     2.648744051983   113.25147520   359.97560442
 H      2   1   3     2.073744340344   108.64518033   120.13894775
 H      9   8   7     2.073754184594   108.67540374   239.85394285
 H      9   8   7     2.073753757353   108.16956799   120.45158758
 H      1   2   3     2.073009311975   110.92663948   118.71893207
 H      8   7   3     2.072996551848   106.55087324   238.70582092
 H      1   2   3     2.073009031386   110.17793547   240.76813159
 H      8   7   3     2.072995944055   105.74469417   121.67305584

---------------------
BASIS SET INFORMATION
---------------------
There are 3 groups of distinct atoms

 Group   1 Type C   : 7s4p1d contracted to 3s2p1d pattern {511/31/1}
 Group   2 Type H   : 4s1p contracted to 2s1p pattern {31/1}
 Group   3 Type S   : 10s7p1d contracted to 4s3p1d pattern {5311/511/1}

Atom   0C    basis set group =>   1
Atom   1C    basis set group =>   1
Atom   2C    basis set group =>   1
Atom   3H    basis set group =>   2
Atom   4S    basis set group =>   3
Atom   5C    basis set group =>   1
Atom   6S    basis set group =>   3
Atom   7C    basis set group =>   1
Atom   8C    basis set group =>   1
Atom   9H    basis set group =>   2
Atom  10H    basis set group =>   2
Atom  11H    basis set group =>   2
Atom  12H    basis set group =>   2
Atom  13H    basis set group =>   2
Atom  14H    basis set group =>   2
Atom  15H    basis set group =>   2
---------------------------------
AUXILIARY/J BASIS SET INFORMATION
---------------------------------
There are 3 groups of distinct atoms

 Group   1 Type C   : 12s5p4d2f1g contracted to 6s4p3d1f1g pattern {711111/2111/211/2/1}
 Group   2 Type H   : 5s2p1d contracted to 3s1p1d pattern {311/2/1}
 Group   3 Type S   : 14s5p5d2f1g contracted to 8s4p3d1f1g pattern {71111111/2111/311/2/1}

Atom   0C    basis set group =>   1
Atom   1C    basis set group =>   1
Atom   2C    basis set group =>   1
Atom   3H    basis set group =>   2
Atom   4S    basis set group =>   3
Atom   5C    basis set group =>   1
Atom   6S    basis set group =>   3
Atom   7C    basis set group =>   1
Atom   8C    basis set group =>   1
Atom   9H    basis set group =>   2
Atom  10H    basis set group =>   2
Atom  11H    basis set group =>   2
Atom  12H    basis set group =>   2
Atom  13H    basis set group =>   2
Atom  14H    basis set group =>   2
Atom  15H    basis set group =>   2
------------------------------------------------------------------------------
                           ORCA GTO INTEGRAL CALCULATION
                           -- RI-GTO INTEGRALS CHOSEN --
------------------------------------------------------------------------------

                         BASIS SET STATISTICS AND STARTUP INFO

Gaussian basis set:
 # of primitive gaussian shells          ...  148
 # of primitive gaussian functions       ...  272
 # of contracted shells                  ...   76
 # of contracted basis functions         ...  160
 Highest angular momentum                ...    2
 Maximum contraction depth               ...    5
Auxiliary gaussian basis set:
 # of primitive gaussian shells          ...  262
 # of primitive gaussian functions       ...  702
 # of contracted shells                  ...  164
 # of contracted aux-basis functions     ...  484
 Highest angular momentum                ...    4
 Maximum contraction depth               ...    7
Ratio of auxiliary to basis functions    ...  3.02
Integral package used                  ... LIBINT
 One Electron integrals                  ... done
 Ordering auxiliary basis shells         ... done
 Integral threshhold             Thresh  ...  2.500e-11
 Primitive cut-off               TCut    ...  2.500e-12
 Pre-screening matrix                    ... done
 Shell pair data                         ... 
 Ordering of the shell pairs             ... done (   0.001 sec) 2753 of 2926 pairs
 Determination of significant pairs      ... done (   0.000 sec)
 Creation of shell pair data             ... done (   0.001 sec)
 Storage of shell pair data              ... done (   0.006 sec)
 Shell pair data done in (   0.007 sec)
 Computing two index integrals           ... done
 Cholesky decomposition of the V-matrix  ... done


Timings:
 Total evaluation time                   ...   0.315 sec (  0.005 min)
 One electron matrix time                ...   0.025 sec (  0.000 min) =  8.1%
 Schwartz matrix evaluation time         ...   0.109 sec (  0.002 min) = 34.6%
 Two index repulsion integral time       ...   0.013 sec (  0.000 min) =  4.1%
 Cholesky decomposition of V             ...   0.137 sec (  0.002 min) = 43.4%
 Three index repulsion integral time     ...   0.000 sec (  0.000 min) =  0.0%

-------------------------------------------------------------------------------
                                 ORCA SCF
-------------------------------------------------------------------------------

------------
SCF SETTINGS
------------
Hamiltonian:
 Density Functional     Method          .... DFT(GTOs)
 Exchange Functional    Exchange        .... B88
   X-Alpha parameter    XAlpha          ....  0.666667
   Becke's b parameter  XBeta           ....  0.004200
 Correlation Functional Correlation     .... P86
 LDA part of GGA corr.  LDAOpt          .... PW91-LDA
 Gradients option       PostSCFGGA      .... off
   Density functional embedding theory  .... OFF
 RI-approximation to the Coulomb term is turned on
   Number of auxiliary basis functions  .... 484


General Settings:
 Integral files         IntName         .... DPP2F_TT_Input_Thienothiophene_3_Optimize_Monomer_Hydrogenated
 Hartree-Fock type      HFTyp           .... RHF
 Total Charge           Charge          ....    0
 Multiplicity           Mult            ....    1
 Number of Electrons    NEL             ....   76
 Basis Dimension        Dim             ....  160
 Nuclear Repulsion      ENuc            ....    530.8245088959 Eh

Convergence Acceleration:
 DIIS                   CNVDIIS         .... on
   Start iteration      DIISMaxIt       ....    12
   Startup error        DIISStart       ....  0.200000
   # of expansion vecs  DIISMaxEq       ....     5
   Bias factor          DIISBfac        ....   1.050
   Max. coefficient     DIISMaxC        ....  10.000
 Newton-Raphson         CNVNR           .... off
 SOSCF                  CNVSOSCF        .... on
   Start iteration      SOSCFMaxIt      ....   150
   Startup grad/error   SOSCFStart      ....  0.003300
 Level Shifting         CNVShift        .... on
   Level shift para.    LevelShift      ....    0.2500
   Turn off err/grad.   ShiftErr        ....    0.0010
 Zerner damping         CNVZerner       .... off
 Static damping         CNVDamp         .... on
   Fraction old density DampFac         ....    0.7000
   Max. Damping (<1)    DampMax         ....    0.9800
   Min. Damping (>=0)   DampMin         ....    0.0000
   Turn off err/grad.   DampErr         ....    0.1000
 Fernandez-Rico         CNVRico         .... off

SCF Procedure:
 Maximum # iterations   MaxIter         ....   125
 SCF integral mode      SCFMode         .... Direct
   Integral package                     .... LIBINT
 Reset frequency        DirectResetFreq ....    20
 Integral Threshold     Thresh          ....  2.500e-11 Eh
 Primitive CutOff       TCut            ....  2.500e-12 Eh

Convergence Tolerance:
 Convergence Check Mode ConvCheckMode   .... Total+1el-Energy
 Convergence forced     ConvForced      .... 0
 Energy Change          TolE            ....  1.000e-08 Eh
 1-El. energy change                    ....  1.000e-05 Eh
 Orbital Gradient       TolG            ....  1.000e-05
 Orbital Rotation angle TolX            ....  1.000e-05
 DIIS Error             TolErr          ....  5.000e-07


Diagonalization of the overlap matrix:
Smallest eigenvalue                        ... 6.411e-04
Time for diagonalization                   ...    0.102 sec
Threshold for overlap eigenvalues          ... 1.000e-08
Number of eigenvalues below threshold      ... 0
Time for construction of square roots      ...    0.008 sec
Total time needed                          ...    0.110 sec

-------------------
DFT GRID GENERATION
-------------------

General Integration Accuracy     IntAcc      ...  4.340
Radial Grid Type                 RadialGrid  ... Gauss-Chebyshev
Angular Grid (max. acc.)         AngularGrid ... Lebedev-194
Angular grid pruning method      GridPruning ... 3 (G Style)
Weight generation scheme         WeightScheme... Becke
Basis function cutoff            BFCut       ...    1.0000e-11
Integration weight cutoff        WCut        ...    1.0000e-14
Grids for H and He will be reduced by one unit

# of grid points (after initial pruning)     ...  39076 (   0.0 sec)
# of grid points (after weights+screening)   ...  35893 (   0.1 sec)
nearest neighbour list constructed           ...    0.0 sec
Grid point re-assignment to atoms done       ...    0.0 sec
Grid point division into batches done        ...    0.1 sec
Reduced shell lists constructed in    0.3 sec

Total number of grid points                  ...    35893
Total number of batches                      ...      570
Average number of points per batch           ...       62
Average number of grid points per atom       ...     2243
Average number of shells per batch           ...    51.58 (67.87%)
Average number of basis functions per batch  ...   108.39 (67.74%)
Average number of large shells per batch     ...    41.26 (80.00%)
Average number of large basis fcns per batch ...    85.45 (78.84%)
Maximum spatial batch extension              ...  20.57, 19.95, 18.04 au
Average spatial batch extension              ...   3.21,  3.14,  3.01 au

Time for grid setup =    0.446 sec

------------------------------
INITIAL GUESS: MODEL POTENTIAL
------------------------------
Loading Hartree-Fock densities                     ... done
Calculating cut-offs                               ... done
Setting up the integral package                    ... done
Initializing the effective Hamiltonian             ... done
Starting the Coulomb interaction                   ... done (   0.1 sec)
Reading the grid                                   ... done
Mapping shells                                     ... done
Starting the XC term evaluation                    ... done (   0.4 sec)
  promolecular density results
     # of electrons  =     75.993299409
     EX              =    -83.452217964
     EC              =     -3.034006060
     EX+EC           =    -86.486224024
Transforming the Hamiltonian                       ... done (   0.0 sec)
Diagonalizing the Hamiltonian                      ... done (   0.0 sec)
Back transforming the eigenvectors                 ... done (   0.0 sec)
Now organizing SCF variables                       ... done
                      ------------------
                      INITIAL GUESS DONE (   1.0 sec)
                      ------------------
--------------
SCF ITERATIONS
--------------
ITER       Energy         Delta-E        Max-DP      RMS-DP      [F,P]     Damp
               ***  Starting incremental Fock matrix formation  ***
  0  -1029.2364816428   0.000000000000 0.07404776  0.00268357  0.1616398 0.7000
  1  -1029.3320278495  -0.095546206695 0.04166995  0.00171606  0.0735187 0.7000
                               ***Turning on DIIS***
  2  -1029.3603525513  -0.028324701789 0.07501868  0.00247282  0.0182989 0.0000
  3  -1029.4078837567  -0.047531205382 0.02598418  0.00133215  0.0442357 0.0000
  4  -1029.4212062492  -0.013322492478 0.01842597  0.00046136  0.0073961 0.0000
                      *** Initiating the SOSCF procedure ***
                           *** Shutting down DIIS ***
                      *** Re-Reading the Fockian *** 
                      *** Removing any level shift *** 
ITER      Energy       Delta-E        Grad      Rot      Max-DP    RMS-DP
  5  -1029.42197957  -0.0007733183  0.000658  0.000658  0.003990  0.000148
               *** Restarting incremental Fock matrix formation ***
  6  -1029.42202978  -0.0000502136  0.000287  0.000930  0.002827  0.000097
  7  -1029.42202729   0.0000024933  0.000452  0.000775  0.000798  0.000038
  8  -1029.42203479  -0.0000075039  0.000102  0.000476  0.000485  0.000020
  9  -1029.42203457   0.0000002202  0.000103  0.000174  0.000226  0.000009
 10  -1029.42203506  -0.0000004874  0.000018  0.000049  0.000210  0.000007
 11  -1029.42203504   0.0000000164  0.000024  0.000070  0.000074  0.000003
 12  -1029.42203507  -0.0000000250  0.000017  0.000103  0.000091  0.000003
 13  -1029.42203505   0.0000000203  0.000035  0.000072  0.000066  0.000002
                  ***Gradient check signals convergence***
              ***Rediagonalizing the Fockian in SOSCF/NRSCF***

               *****************************************************
               *                     SUCCESS                       *
               *           SCF CONVERGED AFTER  14 CYCLES          *
               *****************************************************

Setting up the final grid:

General Integration Accuracy     IntAcc      ...  5.010
Radial Grid Type                 RadialGrid  ... Gauss-Chebyshev
Angular Grid (max. acc.)         AngularGrid ... Lebedev-434
Angular grid pruning method      GridPruning ... 3 (G Style)
Weight generation scheme         WeightScheme... Becke
Basis function cutoff            BFCut       ...    1.0000e-11
Integration weight cutoff        WCut        ...    1.0000e-14
Grids for H and He will be reduced by one unit

# of grid points (after initial pruning)     ... 141204 (   0.0 sec)
# of grid points (after weights+screening)   ... 128345 (   0.3 sec)
nearest neighbour list constructed           ...    0.0 sec
Grid point re-assignment to atoms done       ...    0.0 sec
Grid point division into batches done        ...    0.9 sec
Reduced shell lists constructed in    1.7 sec

Total number of grid points                  ...   128345
Total number of batches                      ...     2010
Average number of points per batch           ...       63
Average number of grid points per atom       ...     8022
Average number of shells per batch           ...    48.10 (63.29%)
Average number of basis functions per batch  ...   100.47 (62.79%)
Average number of large shells per batch     ...    37.81 (78.61%)
Average number of large basis fcns per batch ...    77.59 (77.23%)
Maximum spatial batch extension              ...  18.24, 16.33, 21.39 au
Average spatial batch extension              ...   2.12,  2.08,  2.03 au

Final grid set up in    2.0 sec
Final integration                            ... done (   1.4 sec)
Change in XC energy                          ...    -0.000403839
Integrated number of electrons               ...    75.999993018
Previous integrated no of electrons          ...    75.998877852

----------------
TOTAL SCF ENERGY
----------------

Total Energy       :        -1029.42243890 Eh          -28012.00867 eV

Components:
Nuclear Repulsion  :          530.82450890 Eh           14444.46923 eV
Electronic Energy  :        -1560.24694780 Eh          -42456.47790 eV
One Electron Energy:        -2468.34164624 Eh          -67166.99090 eV
Two Electron Energy:          908.09469844 Eh           24710.51300 eV

Virial components:
Potential Energy   :        -2055.11884957 Eh          -55922.62695 eV
Kinetic Energy     :         1025.69641066 Eh           27910.61828 eV
Virial Ratio       :            2.00363268


DFT components:
N(Alpha)           :       37.999996508780 electrons
N(Beta)            :       37.999996508780 electrons
N(Total)           :       75.999993017560 electrons
E(X)               :      -84.214656139060 Eh       
E(C)               :       -3.029796085544 Eh       
E(XC)              :      -87.244452224604 Eh       
DFET-embed. en.    :        0.000000000000 Eh       

---------------
SCF CONVERGENCE
---------------

  Last Energy change         ...   -1.7233e-08  Tolerance :   1.0000e-08
  Last MAX-Density change    ...    2.0186e-05  Tolerance :   1.0000e-07
  Last RMS-Density change    ...    7.4177e-07  Tolerance :   5.0000e-09
  Last Orbital Gradient      ...    2.1979e-06  Tolerance :   1.0000e-05
  Last Orbital Rotation      ...    7.0651e-06  Tolerance :   1.0000e-05

             **** THE GBW FILE WAS UPDATED (DPP2F_TT_Input_Thienothiophene_3_Optimize_Monomer_Hydrogenated.gbw) ****
             **** DENSITY FILE WAS UPDATED (DPP2F_TT_Input_Thienothiophene_3_Optimize_Monomer_Hydrogenated.scfp) ****
             **** ENERGY FILE WAS UPDATED (DPP2F_TT_Input_Thienothiophene_3_Optimize_Monomer_Hydrogenated.en.tmp) ****
             **** THE GBW FILE WAS UPDATED (DPP2F_TT_Input_Thienothiophene_3_Optimize_Monomer_Hydrogenated.gbw) ****
             **** DENSITY FILE WAS UPDATED (DPP2F_TT_Input_Thienothiophene_3_Optimize_Monomer_Hydrogenated.scfp) ****
----------------
ORBITAL ENERGIES
----------------

  NO   OCC          E(Eh)            E(eV) 
   0   2.0000     -88.078752     -2396.7447 
   1   2.0000     -88.078733     -2396.7442 
   2   2.0000      -9.932203      -270.2690 
   3   2.0000      -9.932187      -270.2685 
   4   2.0000      -9.926051      -270.1016 
   5   2.0000      -9.925898      -270.0974 
   6   2.0000      -9.918106      -269.8854 
   7   2.0000      -9.918076      -269.8846 
   8   2.0000      -7.677170      -208.9064 
   9   2.0000      -7.677153      -208.9060 
  10   2.0000      -5.705348      -155.2504 
  11   2.0000      -5.705334      -155.2500 
  12   2.0000      -5.700977      -155.1315 
  13   2.0000      -5.700970      -155.1313 
  14   2.0000      -5.693408      -154.9255 
  15   2.0000      -5.693400      -154.9253 
  16   2.0000      -0.823012       -22.3953 
  17   2.0000      -0.775881       -21.1128 
  18   2.0000      -0.697686       -18.9850 
  19   2.0000      -0.655658       -17.8414 
  20   2.0000      -0.643059       -17.4985 
  21   2.0000      -0.550647       -14.9839 
  22   2.0000      -0.508098       -13.8260 
  23   2.0000      -0.478560       -13.0223 
  24   2.0000      -0.459674       -12.5084 
  25   2.0000      -0.446757       -12.1569 
  26   2.0000      -0.424358       -11.5474 
  27   2.0000      -0.390549       -10.6274 
  28   2.0000      -0.370574       -10.0838 
  29   2.0000      -0.339166        -9.2292 
  30   2.0000      -0.335067        -9.1176 
  31   2.0000      -0.318892        -8.6775 
  32   2.0000      -0.316349        -8.6083 
  33   2.0000      -0.302452        -8.2301 
  34   2.0000      -0.280338        -7.6284 
  35   2.0000      -0.271323        -7.3831 
  36   2.0000      -0.209323        -5.6960 
  37   2.0000      -0.135589        -3.6896 
  38   0.0000      -0.025376        -0.6905 
  39   0.0000       0.005709         0.1553 
  40   0.0000       0.010328         0.2810 
  41   0.0000       0.037056         1.0083 
  42   0.0000       0.040289         1.0963 
  43   0.0000       0.051921         1.4128 
  44   0.0000       0.058696         1.5972 
  45   0.0000       0.060267         1.6399 
  46   0.0000       0.107474         2.9245 
  47   0.0000       0.107941         2.9372 
  48   0.0000       0.141044         3.8380 
  49   0.0000       0.160280         4.3614 
  50   0.0000       0.161835         4.4037 
  51   0.0000       0.185479         5.0471 
  52   0.0000       0.233640         6.3577 
  53   0.0000       0.244590         6.6556 
  54   0.0000       0.259464         7.0604 
  55   0.0000       0.330335         8.9889 
  56   0.0000       0.336994         9.1701 
  57   0.0000       0.360521         9.8103 
  58   0.0000       0.378890        10.3101 
  59   0.0000       0.387738        10.5509 
  60   0.0000       0.390658        10.6304 
  61   0.0000       0.396931        10.8010 
  62   0.0000       0.428918        11.6714 
  63   0.0000       0.439493        11.9592 
  64   0.0000       0.443239        12.0611 
  65   0.0000       0.482847        13.1389 
  66   0.0000       0.485858        13.2209 
  67   0.0000       0.512708        13.9515 
  68   0.0000       0.519376        14.1329 
  69   0.0000       0.527723        14.3601 
  70   0.0000       0.532991        14.5034 
  71   0.0000       0.560837        15.2612 
  72   0.0000       0.575288        15.6544 
  73   0.0000       0.580079        15.7848 
  74   0.0000       0.596168        16.2226 
  75   0.0000       0.610581        16.6148 
  76   0.0000       0.616958        16.7883 
  77   0.0000       0.622006        16.9256 
  78   0.0000       0.622793        16.9471 
  79   0.0000       0.627998        17.0887 
  80   0.0000       0.640083        17.4175 
  81   0.0000       0.642733        17.4896 
  82   0.0000       0.654477        17.8092 
  83   0.0000       0.656204        17.8562 
  84   0.0000       0.659773        17.9533 
  85   0.0000       0.674912        18.3653 
  86   0.0000       0.676695        18.4138 
  87   0.0000       0.705803        19.2059 
  88   0.0000       0.711455        19.3597 
  89   0.0000       0.750605        20.4250 
  90   0.0000       0.755453        20.5569 
  91   0.0000       0.757250        20.6058 
  92   0.0000       0.763946        20.7880 
  93   0.0000       0.802664        21.8416 
  94   0.0000       0.828609        22.5476 
  95   0.0000       0.909518        24.7492 
  96   0.0000       0.912536        24.8314 
  97   0.0000       0.998005        27.1571 
  98   0.0000       1.000393        27.2221 
  99   0.0000       1.022947        27.8358 
 100   0.0000       1.050579        28.5877 
 101   0.0000       1.059003        28.8169 
 102   0.0000       1.130309        30.7573 
 103   0.0000       1.152024        31.3482 
 104   0.0000       1.163642        31.6643 
 105   0.0000       1.199821        32.6488 
 106   0.0000       1.241967        33.7956 
 107   0.0000       1.260749        34.3067 
 108   0.0000       1.341661        36.5084 
 109   0.0000       1.342291        36.5256 
 110   0.0000       1.463875        39.8341 
 111   0.0000       1.480744        40.2931 
 112   0.0000       1.501755        40.8648 
 113   0.0000       1.524574        41.4858 
 114   0.0000       1.584866        43.1264 
 115   0.0000       1.607156        43.7329 
 116   0.0000       1.658515        45.1305 
 117   0.0000       1.670996        45.4701 
 118   0.0000       1.682499        45.7831 
 119   0.0000       1.693968        46.0952 
 120   0.0000       1.726752        46.9873 
 121   0.0000       1.749991        47.6197 
 122   0.0000       1.750140        47.6237 
 123   0.0000       1.812712        49.3264 
 124   0.0000       1.812978        49.3337 
 125   0.0000       1.818875        49.4941 
 126   0.0000       1.850451        50.3533 
 127   0.0000       1.851741        50.3884 
 128   0.0000       1.859427        50.5976 
 129   0.0000       1.902600        51.7724 
 130   0.0000       1.952918        53.1416 
 131   0.0000       1.955646        53.2158 
 132   0.0000       1.959737        53.3272 
 133   0.0000       1.982900        53.9574 
 134   0.0000       2.010415        54.7062 
 135   0.0000       2.071479        56.3678 
 136   0.0000       2.144372        58.3513 
 137   0.0000       2.183470        59.4152 
 138   0.0000       2.202588        59.9355 
 139   0.0000       2.205409        60.0122 
 140   0.0000       2.210585        60.1531 
 141   0.0000       2.235399        60.8283 
 142   0.0000       2.240907        60.9782 
 143   0.0000       2.346084        63.8402 
 144   0.0000       2.404664        65.4342 
 145   0.0000       2.444659        66.5226 
 146   0.0000       2.581711        70.2519 
 147   0.0000       2.610211        71.0275 
 148   0.0000       2.623202        71.3810 
 149   0.0000       2.636739        71.7493 
 150   0.0000       2.645273        71.9815 
 151   0.0000       2.682534        72.9955 
 152   0.0000       2.757960        75.0479 
 153   0.0000       2.777808        75.5880 
 154   0.0000       2.801888        76.2433 
 155   0.0000       2.839969        77.2795 
 156   0.0000       2.891484        78.6813 
 157   0.0000       2.961591        80.5890 
 158   0.0000       2.972958        80.8983 
 159   0.0000       2.978939        81.0610 

                    ********************************
                    * MULLIKEN POPULATION ANALYSIS *
                    ********************************

-----------------------
MULLIKEN ATOMIC CHARGES
-----------------------
   0 C :   -0.108575
   1 C :    0.150267
   2 C :   -0.210851
   3 H :    0.030054
   4 S :   -0.022297
   5 C :   -0.210623
   6 S :   -0.022284
   7 C :   -0.108569
   8 C :    0.150129
   9 H :    0.030079
  10 H :    0.030056
  11 H :    0.030071
  12 H :    0.065760
  13 H :    0.065484
  14 H :    0.065507
  15 H :    0.065793
Sum of atomic charges:   -0.0000000

--------------------------------
MULLIKEN REDUCED ORBITAL CHARGES
--------------------------------
  0 C s       :     3.013747  s :     3.013747
      pz      :     1.071800  p :     3.053784
      px      :     0.888841
      py      :     1.093142
      dz2     :     0.005899  d :     0.041044
      dxz     :     0.006878
      dyz     :     0.010063
      dx2y2   :     0.010922
      dxy     :     0.007282
  1 C s       :     2.799626  s :     2.799626
      pz      :     1.003337  p :     3.007251
      px      :     1.059592
      py      :     0.944321
      dz2     :     0.006188  d :     0.042856
      dxz     :     0.011429
      dyz     :     0.006640
      dx2y2   :     0.008201
      dxy     :     0.010399
  2 C s       :     3.090806  s :     3.090806
      pz      :     1.111346  p :     3.075102
      px      :     1.029574
      py      :     0.934182
      dz2     :     0.003322  d :     0.044943
      dxz     :     0.007933
      dyz     :     0.008231
      dx2y2   :     0.014638
      dxy     :     0.010818
  3 H s       :     0.946523  s :     0.946523
      pz      :     0.010103  p :     0.023423
      px      :     0.008159
      py      :     0.005161
  4 S s       :     5.890801  s :     5.890801
      pz      :     3.853051  p :    10.031946
      px      :     3.116207
      py      :     3.062688
      dz2     :     0.011427  d :     0.099550
      dxz     :     0.010951
      dyz     :     0.016664
      dx2y2   :     0.044774
      dxy     :     0.015734
  5 C s       :     3.090693  s :     3.090693
      pz      :     1.111360  p :     3.074991
      px      :     1.029447
      py      :     0.934184
      dz2     :     0.003322  d :     0.044938
      dxz     :     0.007933
      dyz     :     0.008228
      dx2y2   :     0.014637
      dxy     :     0.010817
  6 S s       :     5.890815  s :     5.890815
      pz      :     3.853007  p :    10.031912
      px      :     3.116274
      py      :     3.062631
      dz2     :     0.011427  d :     0.099557
      dxz     :     0.010943
      dyz     :     0.016673
      dx2y2   :     0.044776
      dxy     :     0.015738
  7 C s       :     3.013798  s :     3.013798
      pz      :     1.071805  p :     3.053732
      px      :     0.888806
      py      :     1.093121
      dz2     :     0.005898  d :     0.041039
      dxz     :     0.006874
      dyz     :     0.010064
      dx2y2   :     0.010921
      dxy     :     0.007282
  8 C s       :     2.799614  s :     2.799614
      pz      :     1.003326  p :     3.007392
      px      :     1.059694
      py      :     0.944371
      dz2     :     0.006189  d :     0.042865
      dxz     :     0.011431
      dyz     :     0.006642
      dx2y2   :     0.008204
      dxy     :     0.010400
  9 H s       :     0.946521  s :     0.946521
      pz      :     0.010382  p :     0.023400
      px      :     0.007950
      py      :     0.005068
 10 H s       :     0.946547  s :     0.946547
      pz      :     0.010379  p :     0.023397
      px      :     0.007952
      py      :     0.005066
 11 H s       :     0.946501  s :     0.946501
      pz      :     0.010105  p :     0.023428
      px      :     0.008158
      py      :     0.005165
 12 H s       :     0.912078  s :     0.912078
      pz      :     0.010692  p :     0.022162
      px      :     0.004523
      py      :     0.006947
 13 H s       :     0.912325  s :     0.912325
      pz      :     0.010330  p :     0.022191
      px      :     0.004453
      py      :     0.007409
 14 H s       :     0.912307  s :     0.912307
      pz      :     0.010331  p :     0.022186
      px      :     0.004449
      py      :     0.007406
 15 H s       :     0.912051  s :     0.912051
      pz      :     0.010694  p :     0.022156
      px      :     0.004517
      py      :     0.006945


                     *******************************
                     * LOEWDIN POPULATION ANALYSIS *
                     *******************************

----------------------
LOEWDIN ATOMIC CHARGES
----------------------
   0 C :   -0.136623
   1 C :   -0.069846
   2 C :   -0.213190
   3 H :    0.041564
   4 S :    0.274729
   5 C :   -0.213142
   6 S :    0.274777
   7 C :   -0.136549
   8 C :   -0.069874
   9 H :    0.041375
  10 H :    0.041351
  11 H :    0.041602
  12 H :    0.030743
  13 H :    0.031184
  14 H :    0.031170
  15 H :    0.030732

-------------------------------
LOEWDIN REDUCED ORBITAL CHARGES
-------------------------------
  0 C s       :     2.863384  s :     2.863384
      pz      :     1.095806  p :     3.171638
      px      :     1.001404
      py      :     1.074428
      dz2     :     0.015670  d :     0.101601
      dxz     :     0.014058
      dyz     :     0.026344
      dx2y2   :     0.028185
      dxy     :     0.017345
  1 C s       :     2.794904  s :     2.794904
      pz      :     1.052803  p :     3.157631
      px      :     1.058776
      py      :     1.046052
      dz2     :     0.017094  d :     0.117311
      dxz     :     0.032696
      dyz     :     0.013214
      dx2y2   :     0.021241
      dxy     :     0.033067
  2 C s       :     2.918327  s :     2.918327
      pz      :     1.093255  p :     3.184574
      px      :     1.064630
      py      :     1.026689
      dz2     :     0.007699  d :     0.110289
      dxz     :     0.015966
      dyz     :     0.016693
      dx2y2   :     0.039224
      dxy     :     0.030707
  3 H s       :     0.890994  s :     0.890994
      pz      :     0.030807  p :     0.067442
      px      :     0.023045
      py      :     0.013591
  4 S s       :     5.522019  s :     5.522019
      pz      :     3.808609  p :    10.078094
      px      :     3.150795
      py      :     3.118690
      dz2     :     0.014959  d :     0.125158
      dxz     :     0.011932
      dyz     :     0.019984
      dx2y2   :     0.060285
      dxy     :     0.017999
  5 C s       :     2.918323  s :     2.918323
      pz      :     1.093276  p :     3.184542
      px      :     1.064619
      py      :     1.026648
      dz2     :     0.007699  d :     0.110277
      dxz     :     0.015967
      dyz     :     0.016687
      dx2y2   :     0.039222
      dxy     :     0.030702
  6 S s       :     5.521984  s :     5.521984
      pz      :     3.808552  p :    10.078069
      px      :     3.150838
      py      :     3.118679
      dz2     :     0.014960  d :     0.125170
      dxz     :     0.011921
      dyz     :     0.019995
      dx2y2   :     0.060288
      dxy     :     0.018005
  7 C s       :     2.863406  s :     2.863406
      pz      :     1.095812  p :     3.171556
      px      :     1.001332
      py      :     1.074412
      dz2     :     0.015668  d :     0.101587
      dxz     :     0.014050
      dyz     :     0.026346
      dx2y2   :     0.028181
      dxy     :     0.017342
  8 C s       :     2.794877  s :     2.794877
      pz      :     1.052783  p :     3.157662
      px      :     1.058798
      py      :     1.046081
      dz2     :     0.017095  d :     0.117335
      dxz     :     0.032704
      dyz     :     0.013219
      dx2y2   :     0.021249
      dxy     :     0.033069
  9 H s       :     0.891264  s :     0.891264
      pz      :     0.031641  p :     0.067362
      px      :     0.022376
      py      :     0.013344
 10 H s       :     0.891291  s :     0.891291
      pz      :     0.031632  p :     0.067358
      px      :     0.022389
      py      :     0.013338
 11 H s       :     0.890952  s :     0.890952
      pz      :     0.030814  p :     0.067447
      px      :     0.023036
      py      :     0.013597
 12 H s       :     0.900002  s :     0.900002
      pz      :     0.032922  p :     0.069255
      px      :     0.015789
      py      :     0.020544
 13 H s       :     0.899575  s :     0.899575
      pz      :     0.031820  p :     0.069241
      px      :     0.015591
      py      :     0.021829
 14 H s       :     0.899600  s :     0.899600
      pz      :     0.031826  p :     0.069231
      px      :     0.015582
      py      :     0.021822
 15 H s       :     0.900025  s :     0.900025
      pz      :     0.032930  p :     0.069243
      px      :     0.015776
      py      :     0.020538


                      *****************************
                      * MAYER POPULATION ANALYSIS *
                      *****************************

  NA   - Mulliken gross atomic population
  ZA   - Total nuclear charge
  QA   - Mulliken gross atomic charge
  VA   - Mayer's total valence
  BVA  - Mayer's bonded valence
  FA   - Mayer's free valence

  ATOM       NA         ZA         QA         VA         BVA        FA
  0 C      6.1086     6.0000    -0.1086     4.0581     4.0581     0.0000
  1 C      5.8497     6.0000     0.1503     4.1181     4.1181     0.0000
  2 C      6.2109     6.0000    -0.2109     4.1334     4.1334    -0.0000
  3 H      0.9699     1.0000     0.0301     0.9795     0.9795     0.0000
  4 S     16.0223    16.0000    -0.0223     2.2125     2.2125    -0.0000
  5 C      6.2106     6.0000    -0.2106     4.1335     4.1335    -0.0000
  6 S     16.0223    16.0000    -0.0223     2.2126     2.2126     0.0000
  7 C      6.1086     6.0000    -0.1086     4.0581     4.0581     0.0000
  8 C      5.8499     6.0000     0.1501     4.1183     4.1183     0.0000
  9 H      0.9699     1.0000     0.0301     0.9793     0.9793     0.0000
 10 H      0.9699     1.0000     0.0301     0.9793     0.9793     0.0000
 11 H      0.9699     1.0000     0.0301     0.9795     0.9795     0.0000
 12 H      0.9342     1.0000     0.0658     0.9724     0.9724     0.0000
 13 H      0.9345     1.0000     0.0655     0.9722     0.9722     0.0000
 14 H      0.9345     1.0000     0.0655     0.9722     0.9722     0.0000
 15 H      0.9342     1.0000     0.0658     0.9723     0.9723     0.0000

  Mayer bond orders larger than 0.100000
B(  0-C ,  1-C ) :   1.1159 B(  0-C ,  4-S ) :   0.9939 B(  0-C , 12-H ) :   0.9323 
B(  0-C , 14-H ) :   0.9316 B(  1-C ,  2-C ) :   1.1656 B(  1-C ,  3-H ) :   0.8809 
B(  1-C ,  9-H ) :   0.8822 B(  2-C ,  4-S ) :   0.1096 B(  2-C ,  5-C ) :   1.6732 
B(  2-C ,  6-S ) :   1.0157 B(  4-S ,  5-C ) :   1.0155 B(  5-C ,  6-S ) :   0.1097 
B(  5-C ,  8-C ) :   1.1658 B(  6-S ,  7-C ) :   0.9939 B(  7-C ,  8-C ) :   1.1159 
B(  7-C , 13-H ) :   0.9315 B(  7-C , 15-H ) :   0.9323 B(  8-C , 10-H ) :   0.8821 
B(  8-C , 11-H ) :   0.8809 

-------
TIMINGS
-------

Total SCF time: 0 days 0 hours 0 min 17 sec 

Total time                  ....      17.348 sec
Sum of individual times     ....      16.960 sec  ( 97.8%)

Fock matrix formation       ....      13.683 sec  ( 78.9%)
  Split-RI-J                ....       4.915 sec  ( 35.9% of F)
  XC integration            ....       8.086 sec  ( 59.1% of F)
    Basis function eval.    ....       2.819 sec  ( 34.9% of XC)
    Density eval.           ....       1.560 sec  ( 19.3% of XC)
    XC-Functional eval.     ....       0.831 sec  ( 10.3% of XC)
    XC-Potential eval.      ....       2.087 sec  ( 25.8% of XC)
Diagonalization             ....       0.025 sec  (  0.1%)
Density matrix formation    ....       0.005 sec  (  0.0%)
Population analysis         ....       0.190 sec  (  1.1%)
Initial guess               ....       0.572 sec  (  3.3%)
Orbital Transformation      ....       0.000 sec  (  0.0%)
Orbital Orthonormalization  ....       0.000 sec  (  0.0%)
DIIS solution               ....       0.028 sec  (  0.2%)
SOSCF solution              ....       0.035 sec  (  0.2%)
Grid generation             ....       2.421 sec  ( 14.0%)


-------------------------------------------------------------------------------
                          DFT DISPERSION CORRECTION                            
                                                                               
                              DFTD3 V3.1  Rev 1                                
                          USING Becke-Johnson damping                          
-------------------------------------------------------------------------------
The BP86 functional is recognized
Active option DFTDOPT                   ...         4   

molecular C6(AA) [au] = 3972.009477 


            DFT-D V3
 parameters
 s6 scaling factor         :     1.0000 
 a1 scaling factor         :     0.3946 
 s8 scaling factor         :     3.2822 
 a2 scaling factor         :     4.8516 
 ad hoc parameters k1-k3   :    16.0000     1.3333    -4.0000 

 Edisp/kcal,au: -20.325103323990  -0.032390110422 
 E6   /kcal   :  -7.030309695 
 E8   /kcal   : -13.294793629 
 % E8         :  65.410706246 

-------------------------   ----------------
Dispersion correction           -0.032390110
-------------------------   ----------------


-------------------------   --------------------
FINAL SINGLE POINT ENERGY     -1029.454829013634
-------------------------   --------------------

------------------------------------------------------------------------------
                         ORCA SCF GRADIENT CALCULATION
------------------------------------------------------------------------------

Gradient of the Kohn-Sham DFT energy:
Kohn-Sham wavefunction type      ... RKS
Hartree-Fock exchange scaling    ...    0.000
Number of operators              ...    1
Number of atoms                  ...   16
Basis set dimensions             ...  160
Integral neglect threshold       ... 2.5e-11
Integral primitive cutoff        ... 2.5e-12

Nuclear repulsion gradient       ... done
One Electron Gradient            ... done
Pre-screening matrix             ... done
RI-J gradient                    ... done
Exchange-correlation gradient    ... done
Dispersion correction            ... done

------------------
CARTESIAN GRADIENT
------------------

   1   C   :   -0.016318386    0.093270593   -0.002492840
   2   C   :    0.076232601   -0.052747451    0.001886710
   3   C   :   -0.098741376   -0.018887100   -0.001282777
   4   H   :    0.015537205   -0.006983333   -0.003297294
   5   S   :   -0.051056553    0.004173883   -0.000215744
   6   C   :    0.098858758    0.019046225    0.001290318
   7   S   :    0.050977218   -0.004287730    0.000254688
   8   C   :    0.016408739   -0.093265330    0.002362542
   9   C   :   -0.076357600    0.052695720   -0.001834273
  10   H   :    0.015431918   -0.005767410    0.003998727
  11   H   :   -0.015423973    0.005721862   -0.004007327
  12   H   :   -0.015562796    0.007025291    0.003282763
  13   H   :    0.003956749    0.010485051   -0.001259311
  14   H   :   -0.002410090   -0.011510254   -0.000774230
  15   H   :    0.002370078    0.011480620    0.000797622
  16   H   :   -0.003902494   -0.010450636    0.001290426

Difference to translation invariance:
           :    0.0000000000    0.0000000001   -0.0000000000

Norm of the cartesian gradient     ...    0.2496955904
RMS gradient                       ...    0.0360404541
MAX gradient                       ...    0.0988587581

-------
TIMINGS
-------

Total SCF gradient time            ...        8.095 sec

One electron gradient       ....       0.131 sec  (  1.6%)
Prescreening matrices       ....       0.111 sec  (  1.4%)
RI-J Coulomb gradient       ....       1.156 sec  ( 14.3%)
XC gradient                 ....       6.519 sec  ( 80.5%)
------------------------------------------------------------------------------
                         ORCA GEOMETRY RELAXATION STEP
------------------------------------------------------------------------------

Reading the OPT-File                    .... done
Getting information on internals        .... done
Copying old internal coords+grads       .... done
Making the new internal coordinates     .... (new redundants).... done
Validating the new internal coordinates .... (new redundants).... done
Calculating the B-matrix                .... done
Calculating the G,G- and P matrices     .... done
Transforming gradient to internals      .... done
Projecting the internal gradient        .... done
Number of atoms                         ....  16
Number of internal coordinates          ....  93
Current Energy                          .... -1029.454829014 Eh
Current gradient norm                   ....     0.249695590 Eh/bohr
Maximum allowed component of the step   ....  0.300
Current trust radius                    ....  0.300
Evaluating the initial hessian          ....  (Almloef) done
Projecting the Hessian                  .... done
Forming the augmented Hessian           .... done
Diagonalizing the augmented Hessian     .... done
Last element of RFO vector              ....  0.982421153
Lowest eigenvalues of augmented Hessian:
 -0.006981016  0.050888658  0.050895269  0.080538383  0.080549340
Length of the computed step             ....  0.190018307
The final length of the internal step   ....  0.190018307
Converting the step to cartesian space:
 Initial RMS(Int)=    0.0197039805
Transforming coordinates:
 Iter   0:  RMS(Cart)=    0.0250660470 RMS(Int)=    0.0196103764
 Iter   1:  RMS(Cart)=    0.0004333744 RMS(Int)=    0.0003166638
 Iter   2:  RMS(Cart)=    0.0000098237 RMS(Int)=    0.0000078294
 Iter   3:  RMS(Cart)=    0.0000003463 RMS(Int)=    0.0000002716
 Iter   4:  RMS(Cart)=    0.0000000092 RMS(Int)=    0.0000000068
Imposing constraints:
 Iter   0:  RMS(Cart)=    0.0000167677 RMS(Int)=    0.0000011160
 Iter   1:  RMS(Cart)=    0.0000010059 RMS(Int)=    0.0000003006
 Iter   2:  RMS(Cart)=    0.0000001025 RMS(Int)=    0.0000001219
 Iter   3:  RMS(Cart)=    0.0000000348 RMS(Int)=    0.0000000501
CONVERGED
done
Storing new coordinates                 .... done

                                .--------------------.
          ----------------------|Geometry convergence|-------------------------
          Item                value                   Tolerance       Converged
          ---------------------------------------------------------------------
          RMS gradient        0.0041576272            0.0001000000      NO
          MAX gradient        0.0122897844            0.0003000000      NO
          RMS step            0.0197039805            0.0020000000      NO
          MAX step            0.0516669524            0.0040000000      NO
          ........................................................
          Max(Bonds)      0.0182      Max(Angles)    2.96
          Max(Dihed)        1.99      Max(Improp)    0.00
          ---------------------------------------------------------------------

The optimization has not yet converged - more geometry cycles are needed


    ---------------------------------------------------------------------------
                         Redundant Internal Coordinates
                            (Angstroem and degrees)

        Definition                    Value    dE/dq     Step     New-Value
    ----------------------------------------------------------------------------
     1. B(C   1,C   0)                1.4017 -0.111616  0.0000    1.4017 C 
     2. B(C   2,C   1)                1.4135 -0.065653  0.0000    1.4135 C 
     3. B(H   3,C   1)                1.0974 -0.012288  0.0182    1.1156   
     4. B(S   4,C   0)                1.7686 -0.039208 -0.0000    1.7686 C 
     5. B(C   5,C   2)                1.4208  0.025100  0.0000    1.4208 C 
     6. B(C   5,S   4)                1.7472 -0.019449 -0.0000    1.7472 C 
     7. B(S   6,C   2)                1.7469 -0.019552  0.0000    1.7469 C 
     8. B(C   7,S   6)                1.7687 -0.039147  0.0000    1.7687 C 
     9. B(C   8,C   5)                1.4134 -0.065761 -0.0000    1.4134 C 
    10. B(C   8,C   7)                1.4017 -0.111635 -0.0000    1.4017 C 
    11. B(H   9,C   1)                1.0974 -0.012199  0.0181    1.1154   
    12. B(H  10,C   8)                1.0974 -0.012204  0.0181    1.1155   
    13. B(H  11,C   8)                1.0974 -0.012290  0.0182    1.1156   
    14. B(H  12,C   0)                1.0970 -0.007249  0.0107    1.1077   
    15. B(H  13,C   7)                1.0970 -0.007409  0.0110    1.1079   
    16. B(H  14,C   0)                1.0970 -0.007401  0.0109    1.1079   
    17. B(H  15,C   7)                1.0970 -0.007242  0.0107    1.1077   
    18. A(C   1,C   0,H  14)          110.18 -0.010358    1.19    111.37   
    19. A(C   1,C   0,H  12)          110.93 -0.008575    0.83    111.75   
    20. A(H  12,C   0,H  14)          110.00  0.009351   -2.43    107.57   
    21. A(S   4,C   0,H  12)          105.69 -0.007252    0.27    105.96   
    22. A(S   4,C   0,H  14)          106.59 -0.005858   -0.04    106.56   
    23. A(C   1,C   0,S   4)          113.26  0.023231   -0.00    113.26 C 
    24. A(C   0,C   1,H   3)          108.21 -0.010297    1.69    109.89   
    25. A(C   0,C   1,C   2)          110.56  0.017465    0.00    110.56 C 
    26. A(C   2,C   1,H   9)          109.46 -0.003878   -0.03    109.43   
    27. A(C   0,C   1,H   9)          108.65 -0.009527    1.47    110.12   
    28. A(C   2,C   1,H   3)          109.94 -0.003316   -0.17    109.77   
    29. A(H   3,C   1,H   9)          110.00  0.009576   -2.96    107.04   
    30. A(C   1,C   2,S   6)          134.47  0.028770   -0.00    134.47 C 
    31. A(C   5,C   2,S   6)          110.80 -0.021711    0.00    110.80 C 
    32. A(C   1,C   2,C   5)          114.73 -0.007059    0.00    114.73 C 
    33. A(C   0,S   4,C   5)           90.66 -0.011896   -0.00     90.66 C 
    34. A(C   2,C   5,C   8)          114.72 -0.007073    0.00    114.72 C 
    35. A(S   4,C   5,C   8)          134.49  0.028814   -0.00    134.49 C 
    36. A(C   2,C   5,S   4)          110.79 -0.021741   -0.00    110.79 C 
    37. A(C   2,S   6,C   7)           90.66 -0.011909    0.00     90.66 C 
    38. A(H  13,C   7,H  15)          110.00  0.009345   -2.43    107.57   
    39. A(S   6,C   7,H  13)          106.55 -0.005880   -0.02    106.53   
    40. A(S   6,C   7,C   8)          113.25  0.023185    0.00    113.25 C 
    41. A(C   8,C   7,H  13)          110.16 -0.010363    1.20    111.36   
    42. A(S   6,C   7,H  15)          105.74 -0.007195    0.25    106.00   
    43. A(C   8,C   7,H  15)          110.95 -0.008554    0.82    111.77   
    44. A(C   5,C   8,H  11)          109.94 -0.003301   -0.17    109.76   
    45. A(C   7,C   8,H  11)          108.17 -0.010355    1.70    109.87   
    46. A(H  10,C   8,H  11)          110.00  0.009585   -2.96    107.04   
    47. A(C   7,C   8,H  10)          108.68 -0.009495    1.46    110.13   
    48. A(C   5,C   8,C   7)          110.57  0.017508    0.00    110.57 C 
    49. A(C   5,C   8,H  10)          109.46 -0.003920   -0.02    109.44   
    50. D(H   9,C   1,C   0,H  14)      0.91 -0.000807    0.11      1.01   
    51. D(H   9,C   1,C   0,H  12)   -121.14  0.000195    1.82   -119.33   
    52. D(C   2,C   1,C   0,H  14)   -119.23 -0.000660   -0.79   -120.02   
    53. D(C   2,C   1,C   0,H  12)    118.72  0.000342    0.92    119.64   
    54. D(H   3,C   1,C   0,S   4)   -120.40  0.000046   -0.85   -121.25   
    55. D(H   3,C   1,C   0,H  14)    120.31 -0.000638   -1.64    118.68   
    56. D(H   3,C   1,C   0,H  12)     -1.73  0.000363    0.07     -1.66   
    57. D(C   2,C   1,C   0,S   4)      0.06  0.000024    0.00      0.06 C 
    58. D(H   9,C   1,C   0,S   4)    120.19 -0.000123    0.89    121.09   
    59. D(S   6,C   2,C   1,H   9)     60.34  0.003468   -1.80     58.54   
    60. D(C   5,C   2,C   1,C   0)     -0.02 -0.000085   -0.00     -0.02 C 
    61. D(C   5,C   2,C   1,H   9)   -119.67  0.003306   -1.80   -121.47   
    62. D(S   6,C   2,C   1,H   3)    -60.60 -0.003819    1.98    -58.62   
    63. D(C   5,C   2,C   1,H   3)    119.39 -0.003982    1.98    121.37   
    64. D(S   6,C   2,C   1,C   0)    179.99  0.000077    0.00    179.99 C 
    65. D(C   5,S   4,C   0,C   1)     -0.06  0.000040    0.00     -0.06 C 
    66. D(C   5,S   4,C   0,H  12)   -121.70  0.001772   -1.21   -122.91   
    67. D(C   5,S   4,C   0,H  14)    121.27 -0.002716    1.46    122.73   
    68. D(C   8,C   5,C   2,C   1)    179.99 -0.000012    0.00    179.99 C 
    69. D(S   4,C   5,C   2,C   1)     -0.02  0.000124    0.00     -0.02 C 
    70. D(S   4,C   5,C   2,S   6)    179.97  0.000004   -0.00    179.97 C 
    71. D(C   2,C   5,S   4,C   0)      0.05 -0.000115   -0.00      0.05 C 
    72. D(C   8,C   5,S   4,C   0)   -179.97  0.000053    0.00   -179.97 C 
    73. D(C   8,C   5,C   2,S   6)     -0.02 -0.000133    0.00     -0.02 C 
    74. D(C   7,S   6,C   2,C   1)   -179.98 -0.000045    0.00   -179.98 C 
    75. D(C   7,S   6,C   2,C   5)      0.02  0.000112    0.00      0.02 C 
    76. D(C   8,C   7,S   6,C   2)     -0.02 -0.000090    0.00     -0.02 C 
    77. D(H  13,C   7,S   6,C   2)   -121.29  0.002738   -1.48   -122.78   
    78. D(H  15,C   7,S   6,C   2)    121.67 -0.001759    1.19    122.86   
    79. D(C   7,C   8,C   5,C   2)      0.00  0.000072   -0.00      0.00 C 
    80. D(C   7,C   8,C   5,S   4)   -179.99 -0.000099    0.00   -179.99 C 
    81. D(H  10,C   8,C   5,C   2)    119.69 -0.003274    1.79    121.48   
    82. D(H  11,C   8,C   7,H  13)   -120.34  0.000612    1.66   -118.67   
    83. D(H  11,C   8,C   5,C   2)   -119.37  0.004009   -1.99   -121.36   
    84. D(H  11,C   8,C   5,S   4)     60.64  0.003838   -1.99     58.65   
    85. D(C   5,C   8,C   7,S   6)      0.02  0.000028    0.00      0.02 C 
    86. D(C   5,C   8,C   7,H  13)    119.23  0.000636    0.81    120.04   
    87. D(C   5,C   8,C   7,H  15)   -118.72 -0.000365   -0.90   -119.61   
    88. D(H  10,C   8,C   7,S   6)   -120.15  0.000171   -0.89   -121.04   
    89. D(H  10,C   8,C   7,H  13)     -0.93  0.000780   -0.09     -1.02   
    90. D(H  10,C   8,C   7,H  15)    121.12 -0.000222   -1.79    119.33   
    91. D(H  10,C   8,C   5,S   4)    -60.29 -0.003445    1.79    -58.50   
    92. D(H  11,C   8,C   7,S   6)    120.45  0.000003    0.85    121.30   
    93. D(H  11,C   8,C   7,H  15)      1.72 -0.000390   -0.04      1.67   
    ----------------------------------------------------------------------------

         *************************************************************
         *                GEOMETRY OPTIMIZATION CYCLE   2            *
         *************************************************************
---------------------------------
CARTESIAN COORDINATES (ANGSTROEM)
---------------------------------
  C     -0.370136   -1.547581    0.046872
  C     -1.006015   -0.299183    0.003904
  C     -0.051858    0.743566   -0.014378
  H     -1.674571   -0.183065    0.889367
  S      1.394553   -1.432367    0.066108
  C      1.301340    0.311575    0.014382
  S     -0.145409    2.487266   -0.065251
  C      1.619450    2.602755   -0.047868
  C      2.255251    1.354360   -0.004231
  H     -1.650563   -0.228092   -0.903678
  H      2.900112    1.283498    0.903162
  H      2.923563    1.238135   -0.889874
  H     -0.647957   -2.118760    0.954386
  H      1.885956    3.222346    0.831110
  H     -0.636398   -2.166716   -0.832494
  H      1.896893    3.173482   -0.955761

----------------------------
CARTESIAN COORDINATES (A.U.)
----------------------------
  NO LB      ZA    FRAG     MASS         X           Y           Z
   0 C     6.0000    0    12.011   -0.699456   -2.924504    0.088576
   1 C     6.0000    0    12.011   -1.901093   -0.565373    0.007377
   2 C     6.0000    0    12.011   -0.097997    1.405136   -0.027171
   3 H     1.0000    0     1.008   -3.164481   -0.345942    1.680660
   4 S    16.0000    0    32.060    2.635324   -2.706782    0.124926
   5 C     6.0000    0    12.011    2.459177    0.588791    0.027178
   6 S    16.0000    0    32.060   -0.274782    4.700251   -0.123307
   7 C     6.0000    0    12.011    3.060317    4.918494   -0.090457
   8 C     6.0000    0    12.011    4.261807    2.559370   -0.007996
   9 H     1.0000    0     1.008   -3.119113   -0.431031   -1.707704
  10 H     1.0000    0     1.008    5.480418    2.425461    1.706729
  11 H     1.0000    0     1.008    5.524733    2.339736   -1.681619
  12 H     1.0000    0     1.008   -1.224462   -4.003876    1.803527
  13 H     1.0000    0     1.008    3.563941    6.089352    1.570571
  14 H     1.0000    0     1.008   -1.202617   -4.094500   -1.573186
  15 H     1.0000    0     1.008    3.584609    5.997012   -1.806126

--------------------------------
INTERNAL COORDINATES (ANGSTROEM)
--------------------------------
 C      0   0   0     0.000000000000     0.00000000     0.00000000
 C      1   0   0     1.401672545409     0.00000000     0.00000000
 C      2   1   0     1.413532698246   110.56032075     0.00000000
 H      2   1   3     1.115569553265   109.89205498   238.69212403
 S      1   2   3     1.768551288597   113.26459124     0.05586658
 C      3   2   1     1.420770270353   114.73062520     0.00000000
 S      3   2   1     1.746948279459   134.47088661   179.98726620
 C      7   3   2     1.768718757661    90.65626027   180.01727199
 C      8   7   3     1.401654982601   113.25147533   359.97560550
 H      2   1   3     1.115437584537   110.11158787   121.03383311
 H      9   8   7     1.115450108724   110.12959242   238.95787234
 H      9   8   7     1.115577450806   109.86594311   121.30704336
 H      1   2   3     1.107705211824   111.75202147   119.64405662
 H      8   7   3     1.107935542857   106.51884497   237.22603077
 H      1   2   3     1.107929792924   111.36810913   239.98003442
 H      8   7   3     1.107688490400   105.99246205   122.86203937

---------------------------
INTERNAL COORDINATES (A.U.)
---------------------------
 C      0   0   0     0.000000000000     0.00000000     0.00000000
 C      1   0   0     2.648777240259     0.00000000     0.00000000
 C      2   1   0     2.671189681028   110.56032075     0.00000000
 H      2   1   3     2.108120939011   109.89205498   238.69212403
 S      1   2   3     3.342077589242   113.26459124     0.05586658
 C      3   2   1     2.684866710185   114.73062520     0.00000000
 S      3   2   1     3.301253818303   134.47088661   179.98726620
 C      7   3   2     3.342394059908    90.65626027   180.01727199
 C      8   7   3     2.648744051362   113.25147533   359.97560550
 H      2   1   3     2.107871554258   110.11158787   121.03383311
 H      9   8   7     2.107895221541   110.12959242   238.95787234
 H      9   8   7     2.108135863201   109.86594311   121.30704336
 H      1   2   3     2.093259487464   111.75202147   119.64405662
 H      8   7   3     2.093694750037   106.51884497   237.22603077
 H      1   2   3     2.093683884238   111.36810913   239.98003442
 H      8   7   3     2.093227888553   105.99246205   122.86203937

 One Electron integrals                  ... done
 Pre-screening matrix                    ... done

Diagonalization of the overlap matrix:
Smallest eigenvalue                        ... 6.641e-04
Time for diagonalization                   ...    0.003 sec
Threshold for overlap eigenvalues          ... 1.000e-08
Number of eigenvalues below threshold      ... 0
Time for construction of square roots      ...    0.007 sec
Total time needed                          ...    0.010 sec

-------------------
DFT GRID GENERATION
-------------------

General Integration Accuracy     IntAcc      ...  4.340
Radial Grid Type                 RadialGrid  ... Gauss-Chebyshev
Angular Grid (max. acc.)         AngularGrid ... Lebedev-194
Angular grid pruning method      GridPruning ... 3 (G Style)
Weight generation scheme         WeightScheme... Becke
Basis function cutoff            BFCut       ...    1.0000e-11
Integration weight cutoff        WCut        ...    1.0000e-14
Grids for H and He will be reduced by one unit

# of grid points (after initial pruning)     ...  39076 (   0.0 sec)
# of grid points (after weights+screening)   ...  35934 (   0.1 sec)
nearest neighbour list constructed           ...    0.0 sec
Grid point re-assignment to atoms done       ...    0.0 sec
Grid point division into batches done        ...    0.1 sec
Reduced shell lists constructed in    0.3 sec

Total number of grid points                  ...    35934
Total number of batches                      ...      568
Average number of points per batch           ...       63
Average number of grid points per atom       ...     2246
Average number of shells per batch           ...    51.46 (67.70%)
Average number of basis functions per batch  ...   108.12 (67.58%)
Average number of large shells per batch     ...    41.18 (80.03%)
Average number of large basis fcns per batch ...    85.28 (78.88%)
Maximum spatial batch extension              ...  20.58, 20.76, 19.32 au
Average spatial batch extension              ...   3.21,  3.12,  2.97 au

Time for grid setup =    0.382 sec

--------------
SCF ITERATIONS
--------------
ITER       Energy         Delta-E        Max-DP      RMS-DP      [F,P]     Damp
               ***  Starting incremental Fock matrix formation  ***
  0  -1029.4267503123   0.000000000000 0.00616333  0.00016037  0.0059972 0.7000
                      *** Initiating the SOSCF procedure ***
                      *** Re-Reading the Fockian *** 
                      *** Removing any level shift *** 
ITER      Energy       Delta-E        Grad      Rot      Max-DP    RMS-DP
  1  -1029.42690080  -0.0001504856  0.000892  0.000892  0.015871  0.000441
               *** Restarting incremental Fock matrix formation ***
  2  -1029.42724703  -0.0003462305  0.000447  0.001347  0.002749  0.000096
  3  -1029.42724032   0.0000067095  0.000652  0.000668  0.001346  0.000051
  4  -1029.42725841  -0.0000180879  0.000077  0.000187  0.000296  0.000020
  5  -1029.42725826   0.0000001468  0.000118  0.000102  0.000208  0.000010
  6  -1029.42725874  -0.0000004798  0.000013  0.000076  0.000107  0.000003
  7  -1029.42725874   0.0000000033  0.000029  0.000101  0.000103  0.000002
  8  -1029.42725874  -0.0000000064  0.000021  0.000062  0.000075  0.000002
  9  -1029.42725874   0.0000000040  0.000013  0.000034  0.000042  0.000001
 10  -1029.42725874  -0.0000000057  0.000006  0.000015  0.000025  0.000001
 11  -1029.42725875  -0.0000000024  0.000006  0.000008  0.000013  0.000001
                  ***Gradient check signals convergence***
              ***Rediagonalizing the Fockian in SOSCF/NRSCF***

               *****************************************************
               *                     SUCCESS                       *
               *           SCF CONVERGED AFTER  12 CYCLES          *
               *****************************************************

Setting up the final grid:

General Integration Accuracy     IntAcc      ...  5.010
Radial Grid Type                 RadialGrid  ... Gauss-Chebyshev
Angular Grid (max. acc.)         AngularGrid ... Lebedev-434
Angular grid pruning method      GridPruning ... 3 (G Style)
Weight generation scheme         WeightScheme... Becke
Basis function cutoff            BFCut       ...    1.0000e-11
Integration weight cutoff        WCut        ...    1.0000e-14
Grids for H and He will be reduced by one unit

# of grid points (after initial pruning)     ... 141204 (   0.0 sec)
# of grid points (after weights+screening)   ... 128412 (   0.3 sec)
nearest neighbour list constructed           ...    0.0 sec
Grid point re-assignment to atoms done       ...    0.0 sec
[...]
  73   0.0000       0.572517        15.5790 
  74   0.0000       0.590941        16.0803 
  75   0.0000       0.593825        16.1588 
  76   0.0000       0.603830        16.4310 
  77   0.0000       0.604823        16.4581 
  78   0.0000       0.619823        16.8662 
  79   0.0000       0.626099        17.0370 
  80   0.0000       0.633613        17.2415 
  81   0.0000       0.636529        17.3208 
  82   0.0000       0.652016        17.7423 
  83   0.0000       0.654714        17.8157 
  84   0.0000       0.659132        17.9359 
  85   0.0000       0.670088        18.2340 
  86   0.0000       0.671630        18.2760 
  87   0.0000       0.706456        19.2236 
  88   0.0000       0.709535        19.3074 
  89   0.0000       0.748841        20.3770 
  90   0.0000       0.752795        20.4846 
  91   0.0000       0.753693        20.5090 
  92   0.0000       0.766925        20.8691 
  93   0.0000       0.800918        21.7941 
  94   0.0000       0.822211        22.3735 
  95   0.0000       0.897889        24.4328 
  96   0.0000       0.915862        24.9219 
  97   0.0000       0.983334        26.7579 
  98   0.0000       0.999761        27.2049 
  99   0.0000       1.018455        27.7136 
 100   0.0000       1.051770        28.6201 
 101   0.0000       1.059630        28.8340 
 102   0.0000       1.139497        31.0073 
 103   0.0000       1.151399        31.3312 
 104   0.0000       1.167199        31.7611 
 105   0.0000       1.199124        32.6298 
 106   0.0000       1.259217        34.2650 
 107   0.0000       1.261439        34.3255 
 108   0.0000       1.320273        35.9265 
 109   0.0000       1.322495        35.9869 
 110   0.0000       1.464414        39.8487 
 111   0.0000       1.470909        40.0255 
 112   0.0000       1.476385        40.1745 
 113   0.0000       1.522887        41.4399 
 114   0.0000       1.560833        42.4724 
 115   0.0000       1.598060        43.4854 
 116   0.0000       1.630046        44.3558 
 117   0.0000       1.675488        45.5924 
 118   0.0000       1.692749        46.0620 
 119   0.0000       1.698432        46.2167 
 120   0.0000       1.702357        46.3235 
 121   0.0000       1.742887        47.4264 
 122   0.0000       1.750926        47.6451 
 123   0.0000       1.809808        49.2474 
 124   0.0000       1.816212        49.4217 
 125   0.0000       1.828932        49.7678 
 126   0.0000       1.834283        49.9134 
 127   0.0000       1.871589        50.9285 
 128   0.0000       1.887356        51.3576 
 129   0.0000       1.904148        51.8145 
 130   0.0000       1.905190        51.8429 
 131   0.0000       1.905671        51.8559 
 132   0.0000       1.958460        53.2924 
 133   0.0000       1.979837        53.8741 
 134   0.0000       2.015677        54.8494 
 135   0.0000       2.043512        55.6068 
 136   0.0000       2.127608        57.8952 
 137   0.0000       2.154198        58.6187 
 138   0.0000       2.170547        59.0636 
 139   0.0000       2.179676        59.3120 
 140   0.0000       2.182767        59.3961 
 141   0.0000       2.203813        59.9688 
 142   0.0000       2.228613        60.6436 
 143   0.0000       2.336988        63.5927 
 144   0.0000       2.413639        65.6784 
 145   0.0000       2.437494        66.3276 
 146   0.0000       2.548873        69.3584 
 147   0.0000       2.572825        70.0101 
 148   0.0000       2.574180        70.0470 
 149   0.0000       2.577357        70.1335 
 150   0.0000       2.625118        71.4331 
 151   0.0000       2.644180        71.9518 
 152   0.0000       2.739840        74.5548 
 153   0.0000       2.741592        74.6025 
 154   0.0000       2.774356        75.4941 
 155   0.0000       2.811138        76.4949 
 156   0.0000       2.883309        78.4588 
 157   0.0000       2.989963        81.3610 
 158   0.0000       2.992687        81.4351 
 159   0.0000       3.000628        81.6513 

                    ********************************
                    * MULLIKEN POPULATION ANALYSIS *
                    ********************************

-----------------------
MULLIKEN ATOMIC CHARGES
-----------------------
   0 C :   -0.093421
   1 C :    0.103343
   2 C :   -0.189909
   3 H :    0.031866
   4 S :   -0.014833
   5 C :   -0.189661
   6 S :   -0.014832
   7 C :   -0.093410
   8 C :    0.103190
   9 H :    0.031741
  10 H :    0.031688
  11 H :    0.031905
  12 H :    0.065518
  13 H :    0.065619
  14 H :    0.065636
  15 H :    0.065560
Sum of atomic charges:   -0.0000000

--------------------------------
MULLIKEN REDUCED ORBITAL CHARGES
--------------------------------
  0 C s       :     3.010460  s :     3.010460
      pz      :     1.081735  p :     3.042689
      px      :     0.888798
      py      :     1.072156
      dz2     :     0.005109  d :     0.040272
      dxz     :     0.006764
      dyz     :     0.010250
      dx2y2   :     0.010947
      dxy     :     0.007201
  1 C s       :     2.852220  s :     2.852220
      pz      :     1.023488  p :     3.002381
      px      :     1.033092
      py      :     0.945802
      dz2     :     0.005010  d :     0.042056
      dxz     :     0.011606
      dyz     :     0.006724
      dx2y2   :     0.008269
      dxy     :     0.010447
  2 C s       :     3.078454  s :     3.078454
      pz      :     1.107399  p :     3.066621
      px      :     1.033966
      py      :     0.925256
      dz2     :     0.003348  d :     0.044834
      dxz     :     0.008060
      dyz     :     0.008244
      dx2y2   :     0.014447
      dxy     :     0.010735
  3 H s       :     0.945849  s :     0.945849
      pz      :     0.009798  p :     0.022285
      px      :     0.008087
      py      :     0.004400
  4 S s       :     5.886917  s :     5.886917
      pz      :     3.851450  p :    10.028285
      px      :     3.113936
      py      :     3.062899
      dz2     :     0.011505  d :     0.099630
      dxz     :     0.011119
      dyz     :     0.016661
      dx2y2   :     0.044741
      dxy     :     0.015606
  5 C s       :     3.078332  s :     3.078332
      pz      :     1.107404  p :     3.066501
      px      :     1.033840
      py      :     0.925257
      dz2     :     0.003347  d :     0.044829
      dxz     :     0.008059
      dyz     :     0.008242
      dx2y2   :     0.014446
      dxy     :     0.010734
  6 S s       :     5.886937  s :     5.886937
      pz      :     3.851403  p :    10.028257
      px      :     3.114011
      py      :     3.062844
      dz2     :     0.011505  d :     0.099638
      dxz     :     0.011111
      dyz     :     0.016670
      dx2y2   :     0.044742
      dxy     :     0.015611
  7 C s       :     3.010511  s :     3.010511
      pz      :     1.081730  p :     3.042632
      px      :     0.888768
      py      :     1.072135
      dz2     :     0.005111  d :     0.040267
      dxz     :     0.006760
      dyz     :     0.010250
      dx2y2   :     0.010946
      dxy     :     0.007200
  8 C s       :     2.852232  s :     2.852232
      pz      :     1.023502  p :     3.002513
      px      :     1.033162
      py      :     0.945849
      dz2     :     0.005010  d :     0.042065
      dxz     :     0.011608
      dyz     :     0.006725
      dx2y2   :     0.008273
      dxy     :     0.010448
  9 H s       :     0.945974  s :     0.945974
      pz      :     0.010059  p :     0.022285
      px      :     0.007910
      py      :     0.004316
 10 H s       :     0.946027  s :     0.946027
      pz      :     0.010060  p :     0.022285
      px      :     0.007909
      py      :     0.004315
 11 H s       :     0.945808  s :     0.945808
      pz      :     0.009796  p :     0.022287
      px      :     0.008089
      py      :     0.004402
 12 H s       :     0.912971  s :     0.912971
      pz      :     0.010427  p :     0.021511
      px      :     0.004209
      py      :     0.006876
 13 H s       :     0.912873  s :     0.912873
      pz      :     0.010075  p :     0.021509
      px      :     0.004147
      py      :     0.007287
 14 H s       :     0.912855  s :     0.912855
      pz      :     0.010086  p :     0.021509
      px      :     0.004145
      py      :     0.007279
 15 H s       :     0.912929  s :     0.912929
      pz      :     0.010437  p :     0.021510
      px      :     0.004205
      py      :     0.006868


                     *******************************
                     * LOEWDIN POPULATION ANALYSIS *
                     *******************************

----------------------
LOEWDIN ATOMIC CHARGES
----------------------
   0 C :   -0.142389
   1 C :   -0.075784
   2 C :   -0.212330
   3 H :    0.042023
   4 S :    0.279587
   5 C :   -0.212276
   6 S :    0.279633
   7 C :   -0.142314
   8 C :   -0.075812
   9 H :    0.042056
  10 H :    0.042037
  11 H :    0.042052
  12 H :    0.033387
  13 H :    0.033378
  14 H :    0.033369
  15 H :    0.033383

-------------------------------
LOEWDIN REDUCED ORBITAL CHARGES
-------------------------------
  0 C s       :     2.868882  s :     2.868882
      pz      :     1.103396  p :     3.173287
      px      :     1.003102
      py      :     1.066789
      dz2     :     0.013311  d :     0.100220
      dxz     :     0.013935
      dyz     :     0.027175
      dx2y2   :     0.028274
      dxy     :     0.017524
  1 C s       :     2.804705  s :     2.804705
      pz      :     1.060066  p :     3.155429
      px      :     1.047324
      py      :     1.048039
      dz2     :     0.013732  d :     0.115650
      dxz     :     0.033458
      dyz     :     0.013538
      dx2y2   :     0.021659
      dxy     :     0.033263
  2 C s       :     2.917015  s :     2.917015
      pz      :     1.093178  p :     3.185325
      px      :     1.065389
      py      :     1.026758
      dz2     :     0.007711  d :     0.109990
      dxz     :     0.016218
      dyz     :     0.016763
      dx2y2   :     0.038697
      dxy     :     0.030602
  3 H s       :     0.894495  s :     0.894495
      pz      :     0.028362  p :     0.063482
      px      :     0.023183
      py      :     0.011937
  4 S s       :     5.521653  s :     5.521653
      pz      :     3.808135  p :    10.073674
      px      :     3.149372
      py      :     3.116166
      dz2     :     0.015004  d :     0.125087
      dxz     :     0.012239
      dyz     :     0.019902
      dx2y2   :     0.060190
      dxy     :     0.017752
  5 C s       :     2.917009  s :     2.917009
      pz      :     1.093195  p :     3.185288
      px      :     1.065377
      py      :     1.026716
      dz2     :     0.007711  d :     0.109978
      dxz     :     0.016218
      dyz     :     0.016757
      dx2y2   :     0.038695
      dxy     :     0.030596
  6 S s       :     5.521618  s :     5.521618
      pz      :     3.808076  p :    10.073649
      px      :     3.149417
      py      :     3.116157
      dz2     :     0.015005  d :     0.125099
      dxz     :     0.012230
      dyz     :     0.019913
      dx2y2   :     0.060192
      dxy     :     0.017759
  7 C s       :     2.868903  s :     2.868903
      pz      :     1.103396  p :     3.173206
      px      :     1.003033
      py      :     1.066777
      dz2     :     0.013316  d :     0.100205
      dxz     :     0.013925
      dyz     :     0.027173
      dx2y2   :     0.028271
      dxy     :     0.017520
  8 C s       :     2.804681  s :     2.804681
      pz      :     1.060057  p :     3.155457
      px      :     1.047333
      py      :     1.048067
      dz2     :     0.013732  d :     0.115673
      dxz     :     0.033465
      dyz     :     0.013542
      dx2y2   :     0.021668
      dxy     :     0.033267
  9 H s       :     0.894466  s :     0.894466
      pz      :     0.029243  p :     0.063479
      px      :     0.022581
      py      :     0.011654
 10 H s       :     0.894486  s :     0.894486
      pz      :     0.029247  p :     0.063477
      px      :     0.022580
      py      :     0.011650
 11 H s       :     0.894466  s :     0.894466
      pz      :     0.028354  p :     0.063482
      px      :     0.023189
      py      :     0.011939
 12 H s       :     0.899853  s :     0.899853
      pz      :     0.031115  p :     0.066760
      px      :     0.014902
      py      :     0.020742
 13 H s       :     0.899865  s :     0.899865
      pz      :     0.030010  p :     0.066757
      px      :     0.014621
      py      :     0.022126
 14 H s       :     0.899874  s :     0.899874
      pz      :     0.030048  p :     0.066757
      px      :     0.014611
      py      :     0.022098
 15 H s       :     0.899857  s :     0.899857
      pz      :     0.031157  p :     0.066760
      px      :     0.014888
      py      :     0.020715


                      *****************************
                      * MAYER POPULATION ANALYSIS *
                      *****************************

  NA   - Mulliken gross atomic population
  ZA   - Total nuclear charge
  QA   - Mulliken gross atomic charge
  VA   - Mayer's total valence
  BVA  - Mayer's bonded valence
  FA   - Mayer's free valence

  ATOM       NA         ZA         QA         VA         BVA        FA
  0 C      6.0934     6.0000    -0.0934     4.0287     4.0287    -0.0000
  1 C      5.8967     6.0000     0.1033     4.1179     4.1179     0.0000
  2 C      6.1899     6.0000    -0.1899     4.1220     4.1220     0.0000
  3 H      0.9681     1.0000     0.0319     0.9765     0.9765    -0.0000
  4 S     16.0148    16.0000    -0.0148     2.2180     2.2180    -0.0000
  5 C      6.1897     6.0000    -0.1897     4.1221     4.1221     0.0000
  6 S     16.0148    16.0000    -0.0148     2.2181     2.2181    -0.0000
  7 C      6.0934     6.0000    -0.0934     4.0287     4.0287    -0.0000
  8 C      5.8968     6.0000     0.1032     4.1181     4.1181    -0.0000
  9 H      0.9683     1.0000     0.0317     0.9765     0.9765     0.0000
 10 H      0.9683     1.0000     0.0317     0.9765     0.9765    -0.0000
 11 H      0.9681     1.0000     0.0319     0.9765     0.9765     0.0000
 12 H      0.9345     1.0000     0.0655     0.9718     0.9718    -0.0000
 13 H      0.9344     1.0000     0.0656     0.9718     0.9718    -0.0000
 14 H      0.9344     1.0000     0.0656     0.9717     0.9717     0.0000
 15 H      0.9344     1.0000     0.0656     0.9718     0.9718     0.0000

  Mayer bond orders larger than 0.100000
B(  0-C ,  1-C ) :   1.1112 B(  0-C ,  4-S ) :   0.9957 B(  0-C , 12-H ) :   0.9275 
B(  0-C , 14-H ) :   0.9275 B(  1-C ,  2-C ) :   1.1663 B(  1-C ,  3-H ) :   0.8809 
B(  1-C ,  9-H ) :   0.8809 B(  2-C ,  4-S ) :   0.1056 B(  2-C ,  5-C ) :   1.6629 
B(  2-C ,  6-S ) :   1.0184 B(  4-S ,  5-C ) :   1.0183 B(  5-C ,  6-S ) :   0.1057 
B(  5-C ,  8-C ) :   1.1665 B(  6-S ,  7-C ) :   0.9957 B(  7-C ,  8-C ) :   1.1112 
B(  7-C , 13-H ) :   0.9275 B(  7-C , 15-H ) :   0.9275 B(  8-C , 10-H ) :   0.8807 
B(  8-C , 11-H ) :   0.8810 

-------
TIMINGS
-------

Total SCF time: 0 days 0 hours 0 min 11 sec 

Total time                  ....      11.428 sec
Sum of individual times     ....      11.129 sec  ( 97.4%)

Fock matrix formation       ....       8.316 sec  ( 72.8%)
  Split-RI-J                ....       2.732 sec  ( 32.9% of F)
  XC integration            ....       5.071 sec  ( 61.0% of F)
    Basis function eval.    ....       1.887 sec  ( 37.2% of XC)
    Density eval.           ....       0.948 sec  ( 18.7% of XC)
    XC-Functional eval.     ....       0.456 sec  (  9.0% of XC)
    XC-Potential eval.      ....       1.145 sec  ( 22.6% of XC)
Diagonalization             ....       0.004 sec  (  0.0%)
Density matrix formation    ....       0.004 sec  (  0.0%)
Population analysis         ....       0.023 sec  (  0.2%)
Initial guess               ....       0.212 sec  (  1.9%)
Orbital Transformation      ....       0.000 sec  (  0.0%)
Orbital Orthonormalization  ....       0.007 sec  (  0.1%)
DIIS solution               ....       0.001 sec  (  0.0%)
SOSCF solution              ....       0.028 sec  (  0.2%)
Grid generation             ....       2.541 sec  ( 22.2%)


-------------------------------------------------------------------------------
                          DFT DISPERSION CORRECTION                            
                                                                               
                              DFTD3 V3.1  Rev 1                                
                          USING Becke-Johnson damping                          
-------------------------------------------------------------------------------
The BP86 functional is recognized
Active option DFTDOPT                   ...         4   

molecular C6(AA) [au] = 3973.559914 


            DFT-D V3
 parameters
 s6 scaling factor         :     1.0000 
 a1 scaling factor         :     0.3946 
 s8 scaling factor         :     3.2822 
 a2 scaling factor         :     4.8516 
 ad hoc parameters k1-k3   :    16.0000     1.3333    -4.0000 

 Edisp/kcal,au: -20.196052877748  -0.032184455468 
 E6   /kcal   :  -6.980250608 
 E8   /kcal   : -13.215802270 
 % E8         :  65.437550347 

-------------------------   ----------------
Dispersion correction           -0.032184455
-------------------------   ----------------


-------------------------   --------------------
FINAL SINGLE POINT ENERGY     -1029.462273577017
-------------------------   --------------------

                                *** OPTIMIZATION RUN DONE ***

                            ***************************************
                            *     ORCA property calculations      *
                            ***************************************

                                    ---------------------
                                    Active property flags
                                    ---------------------
   (+) Dipole Moment


------------------------------------------------------------------------------
                       ORCA ELECTRIC PROPERTIES CALCULATION
------------------------------------------------------------------------------

Dipole Moment Calculation                       ... on
Quadrupole Moment Calculation                   ... off
Polarizability Calculation                      ... off
GBWName                                         ... DPP2F_TT_Input_Thienothiophene_3_Optimize_Monomer_Hydrogenated.gbw
Electron density file                           ... DPP2F_TT_Input_Thienothiophene_3_Optimize_Monomer_Hydrogenated.scfp
The origin for moment calculation is the CENTER OF MASS  = ( 1.180371,  0.996877  0.000159)

-------------
DIPOLE MOMENT
-------------
                                X             Y             Z
Electronic contribution:     -0.00006      -0.00035       0.00379
Nuclear contribution   :      0.00003       0.00059      -0.00446
                        -----------------------------------------
Total Dipole Moment    :     -0.00003       0.00024      -0.00067
                        -----------------------------------------
Magnitude (a.u.)       :      0.00071
Magnitude (Debye)      :      0.00180



--------------------
Rotational spectrum 
--------------------
 
Rotational constants in cm-1:     0.098460     0.041608     0.029885 
Rotational constants in MHz :  2951.747568  1247.377290   895.918344 

 Dipole components along the rotational axes: 
x,y,z [a.u.] :     0.000257    -0.000040    -0.000660 
x,y,z [Debye]:     0.000654    -0.000102    -0.001678 

 

Timings for individual modules:

Sum of individual times         ...      120.899 sec (=   2.015 min)
GTO integral calculation        ...        1.939 sec (=   0.032 min)   1.6 %
SCF iterations                  ...       76.834 sec (=   1.281 min)  63.6 %
SCF Gradient evaluation         ...       40.660 sec (=   0.678 min)  33.6 %
Geometry relaxation             ...        1.466 sec (=   0.024 min)   1.2 %
                             ****ORCA TERMINATED NORMALLY****
TOTAL RUN TIME: 0 days 0 hours 2 minutes 3 seconds 282 msec
