
                                 *****************
                                 * O   R   C   A *
                                 *****************

           --- An Ab Initio, DFT and Semiempirical electronic structure package ---

                  #######################################################
                  #                        -***-                        #
                  #          Department of theory and spectroscopy      #
                  #               Directorship: Frank Neese             #
                  #        Max Planck Institute fuer Kohlenforschung    #
                  #                Kaiser Wilhelm Platz 1               #
                  #                 D-45470 Muelheim/Ruhr               #
                  #                      Germany                        #
                  #                                                     #
                  #                  All rights reserved                #
                  #                        -***-                        #
                  #######################################################


                         Program Version 4.2.0 -  RELEASE  -


 With contributions from (in alphabetic order):
   Daniel Aravena         : Magnetic Suceptibility
   Michael Atanasov       : Ab Initio Ligand Field Theory (pilot matlab implementation)
   Alexander A. Auer      : GIAO ZORA, VPT2
   Ute Becker             : Parallelization
   Giovanni Bistoni       : ED, misc. LED, open-shell LED, HFLED
   Martin Brehm           : Molecular dynamics
   Dmytro Bykov           : SCF Hessian
   Vijay G. Chilkuri      : MRCI spin determinant printing, contributions to CSF-ICE
   Dipayan Datta          : RHF DLPNO-CCSD density
   Achintya Kumar Dutta   : EOM-CC, STEOM-CC
   Dmitry Ganyushin       : Spin-Orbit,Spin-Spin,Magnetic field MRCI
   Miquel Garcia          : C-PCM Hessian, Gaussian charge scheme
   Yang Guo               : DLPNO-NEVPT2, CIM, IAO-localization
   Andreas Hansen         : Spin unrestricted coupled pair/coupled cluster methods
   Benjamin Helmich-Paris : CASSCF linear response (MC-RPA)
   Lee Huntington         : MR-EOM, pCC
   Robert Izsak           : Overlap fitted RIJCOSX, COSX-SCS-MP3, EOM
   Christian Kollmar      : KDIIS, OOCD, Brueckner-CCSD(T), CCSD density
   Simone Kossmann        : Meta GGA functionals, TD-DFT gradient, OOMP2, MP2 Hessian
   Martin Krupicka        : AUTO-CI
   Lucas Lang             : DCDCAS
   Dagmar Lenk            : GEPOL surface, SMD
   Dimitrios Liakos       : Extrapolation schemes; Compound Job, initial MDCI parallelization
   Dimitrios Manganas     : Further ROCIS development; embedding schemes
   Dimitrios Pantazis     : SARC Basis sets
   Taras Petrenko         : DFT Hessian,TD-DFT gradient, ASA, ECA, R-Raman, ABS, FL, XAS/XES, NRVS
   Peter Pinski           : DLPNO-MP2, DLPNO-MP2 Gradient
   Christoph Reimann      : Effective Core Potentials
   Marius Retegan         : Local ZFS, SOC
   Christoph Riplinger    : Optimizer, TS searches, QM/MM, DLPNO-CCSD(T), (RO)-DLPNO pert. Triples
   Tobias Risthaus        : Range-separated hybrids, TD-DFT gradient, RPA, STAB
   Michael Roemelt        : Original ROCIS implementation
   Masaaki Saitow         : Open-shell DLPNO-CCSD energy and density
   Barbara Sandhoefer     : DKH picture change effects
   Avijit Sen             : IP-ROCIS
   Kantharuban Sivalingam : CASSCF convergence, NEVPT2, FIC-MRCI
   Bernardo de Souza      : ESD, SOC TD-DFT
   Georgi Stoychev        : AutoAux, RI-MP2 NMR
   Willem Van den Heuvel  : Paramagnetic NMR
   Boris Wezisla          : Elementary symmetry handling
   Frank Wennmohs         : Technical directorship


 We gratefully acknowledge several colleagues who have allowed us to
 interface, adapt or use parts of their codes:
   Stefan Grimme, W. Hujo, H. Kruse,             : VdW corrections, initial TS optimization,
                  C. Bannwarth                     DFT functionals, gCP, sTDA/sTD-DF
   Ed Valeev, F. Pavosevic, A. Kumar             : LibInt (2-el integral package), F12 methods
   Garnet Chan, S. Sharma, J. Yang, R. Olivares  : DMRG
   Ulf Ekstrom                                   : XCFun DFT Library
   Mihaly Kallay                                 : mrcc  (arbitrary order and MRCC methods)
   Andreas Klamt, Michael Diedenhofen            : otool_cosmo (COSMO solvation model)
   Jiri Pittner, Ondrej Demel                    : Mk-CCSD
   Frank Weinhold                                : gennbo (NPA and NBO analysis)
   Christopher J. Cramer and Donald G. Truhlar   : smd solvation model
   Lars Goerigk                                  : TD-DFT with DH, B97 family of functionals
   V. Asgeirsson, H. Jonsson                     : NEB implementation
   FAccTs GmbH                                   : IRC, NEB, NEB-TS, Multilevel, MM, QM/MM, CI optimization
   S Lehtola, MJT Oliveira, MAL Marques          : LibXC Library


 Your calculation uses the libint2 library for the computation of 2-el integrals
 For citations please refer to: http://libint.valeyev.net

 Your ORCA version has been built with support for libXC version: 4.2.3
 For citations please refer to: https://tddft.org/programs/libxc/

 This ORCA versions uses:
   CBLAS   interface :  Fast vector & matrix operations
   LAPACKE interface :  Fast linear algebra routines
   SCALAPACK package :  Parallel linear algebra routines


Your calculation utilizes the atom-pairwise dispersion correction
with the Becke-Johnson damping scheme (D3BJ)
Cite in your paper:
S.Grimme, S.Ehrlich, L.Goerigk, J Comput Chem, (2011), 32, 1456–1465 
S.Grimme, J.Antony, S.Ehrlich and H.Krieg, J.Chem.Phys., 132, (2010), 154104 
   

----- Orbital basis set information -----
Your calculation utilizes the basis: def2-SVP
   F. Weigend and R. Ahlrichs, Phys. Chem. Chem. Phys. 7, 3297 (2005).

----- AuxJ basis set information -----
Your calculation utilizes the auxiliary basis: def2/J
   F. Weigend, Phys. Chem. Chem. Phys. 8, 1057 (2006).

================================================================================
                                        WARNINGS
                       Please study these warnings very carefully!
================================================================================


WARNING: Geometry Optimization
  ===> : Switching off AutoStart
         For restart on a previous wavefunction, please use MOREAD

INFO   : the flag for use of LIBINT has been found!

================================================================================
                                       INPUT FILE
================================================================================
NAME = DPP2F_T_Optimize_Monomer.inp
|  1> ! RI BP86 def2-SVP def2/J D3BJ TIGHTSCF  Opt Grid3 FinalGrid5
|  2> %maxcore 3000
|  3> %geom
|  4> Constraints
|  5> {D 1 0 60 66 0.0 C}
|  6> {D 10 11 18 19 0.0 C}
|  7> {D 23 22 24 25 0.0 C}
|  8> {D 30 31 34 35 0.0 C}
|  9> {D 36 38 41 43 0.0 C}
| 10> end
| 11> end
| 12> 
| 13> *xyz 0 1
| 14> C	-5.483162	2.403031	-0.023594
| 15> C	-5.172722	1.101761	-0.056764
| 16> C	-3.733942	0.952761	-0.037804
| 17> C	-3.158052	2.310611	0.005366
| 18> N	-4.300182	3.143581	0.010496
| 19> O	-1.986082	2.625341	0.030126
| 20> C	-3.436712	-0.351419	-0.056404
| 21> C	-5.762942	-0.245659	-0.100504
| 22> N	-4.631092	-1.083519	-0.100704
| 23> C	-4.177232	4.576371	0.049506
| 24> H	-3.125912	4.875521	0.088196
| 25> H	-4.676452	4.961101	0.943146
| 26> H	-4.620072	5.002591	-0.855074
| 27> C	-4.791952	-2.512169	-0.147334
| 28> H	-5.846332	-2.783869	-0.255644
| 29> H	-4.430102	-2.947169	0.788276
| 30> H	-4.251102	-2.915769	-1.007434
| 31> C	-2.113732	-0.886579	-0.025574
| 32> C	-1.681212	-2.203219	0.084566
| 33> C	-0.273852	-2.220419	0.076516
| 34> H	-2.294472	-3.084739	0.171726
| 35> C	0.153278	-0.911419	-0.021924
| 36> H	0.355278	-3.096469	0.149896
| 37> O	-0.962042	-0.112409	-0.093594
| 38> C	1.511838	-0.423199	-0.034004
| 39> C	1.965458	0.875841	-0.151624
| 40> C	3.399958	0.966251	-0.093884
| 41> H	1.303768	1.728541	-0.262514
| 42> C	4.001578	-0.263909	0.085506
| 43> H	3.955968	1.896011	-0.153304
| 44> S	2.828958	-1.508209	0.126516
| 45> C	5.403528	-0.568909	0.235016
| 46> C	5.979328	-1.739619	0.692146
| 47> C	7.376268	-1.553289	0.681016
| 48> H	5.452028	-2.625429	1.018046
| 49> C	7.642578	-0.281109	0.191666
| 50> H	8.105568	-2.278039	1.009606
| 51> O	6.415498	0.309291	-0.060024
| 52> C	-6.822332	2.890031	-0.015824
| 53> C	-7.355932	4.178681	-0.040554
| 54> C	-8.771372	4.087841	-0.016064
| 55> H	-6.801242	5.103041	-0.074834
| 56> C	-9.054222	2.750831	0.021436
| 57> H	-9.489702	4.895161	-0.026254
| 58> O	-7.909402	2.035391	0.024816
| 59> H	-9.967022	2.171551	0.047896
| 60> C	8.888228	0.368841	-0.018344
| 61> C	9.058708	1.695391	0.000526
| 62> C	10.458588	1.964871	-0.223184
| 63> C	11.160358	0.688891	-0.394704
| 64> N	10.121668	-0.251889	-0.264524
| 65> C	10.373138	-1.662149	-0.405994
| 66> H	9.638248	-2.109039	-1.080944
| 67> H	10.330568	-2.134049	0.579366
| 68> H	11.371708	-1.833439	-0.819554
| 69> C	8.385178	3.000631	0.180686
| 70> C	10.660788	3.278141	-0.195234
| 71> N	9.452078	3.914331	0.035626
| 72> H	11.587668	3.818441	-0.321054
| 73> O	7.213288	3.215751	0.407766
| 74> O	12.346708	0.531121	-0.597104
| 75> C	9.306938	5.343221	0.141916
| 76> H	8.254678	5.615171	0.258016
| 77> H	9.704738	5.812711	-0.762644
| 78> H	9.867968	5.693111	1.013466
| 79> O	-6.934552	-0.559769	-0.132204
| 80> **                         ****END OF INPUT****
================================================================================

                       *****************************
                       * Geometry Optimization Run *
                       *****************************

Geometry optimization settings:
Update method            Update   .... BFGS
Choice of coordinates    CoordSys .... Z-matrix Internals
Initial Hessian          InHess   .... Almoef's Model

Convergence Tolerances:
Energy Change            TolE     ....  5.0000e-06 Eh
Max. Gradient            TolMAXG  ....  3.0000e-04 Eh/bohr
RMS Gradient             TolRMSG  ....  1.0000e-04 Eh/bohr
Max. Displacement        TolMAXD  ....  4.0000e-03 bohr
RMS Displacement         TolRMSD  ....  2.0000e-03 bohr
Strict Convergence                ....  False
------------------------------------------------------------------------------
                        ORCA OPTIMIZATION COORDINATE SETUP
------------------------------------------------------------------------------

The optimization will be done in new redundant internal coordinates
Making redundant internal coordinates   ...  (new redundants) done
Evaluating the initial hessian          ...  (Almloef) done
Evaluating the coordinates              ...  
ORCA finished by error termination in GSTEP
Calling Command: /home/andrewk/orca_4_2_0_linux_x86-64_openmpi314/orca_gstep DPP2F_T_Optimize_Monomer.ginp.tmp 
[file orca_tools/qcmsg.cpp, line 458]: 
  .... aborting the run


                                 *****************
                                 * O   R   C   A *
                                 *****************

           --- An Ab Initio, DFT and Semiempirical electronic structure package ---

                  #######################################################
                  #                        -***-                        #
                  #          Department of theory and spectroscopy      #
                  #               Directorship: Frank Neese             #
                  #        Max Planck Institute fuer Kohlenforschung    #
                  #                Kaiser Wilhelm Platz 1               #
                  #                 D-45470 Muelheim/Ruhr               #
                  #                      Germany                        #
                  #                                                     #
                  #                  All rights reserved                #
                  #                        -***-                        #
                  #######################################################


                         Program Version 4.2.0 -  RELEASE  -


 With contributions from (in alphabetic order):
   Daniel Aravena         : Magnetic Suceptibility
   Michael Atanasov       : Ab Initio Ligand Field Theory (pilot matlab implementation)
   Alexander A. Auer      : GIAO ZORA, VPT2
   Ute Becker             : Parallelization
   Giovanni Bistoni       : ED, misc. LED, open-shell LED, HFLED
   Martin Brehm           : Molecular dynamics
   Dmytro Bykov           : SCF Hessian
   Vijay G. Chilkuri      : MRCI spin determinant printing, contributions to CSF-ICE
   Dipayan Datta          : RHF DLPNO-CCSD density
   Achintya Kumar Dutta   : EOM-CC, STEOM-CC
   Dmitry Ganyushin       : Spin-Orbit,Spin-Spin,Magnetic field MRCI
   Miquel Garcia          : C-PCM Hessian, Gaussian charge scheme
   Yang Guo               : DLPNO-NEVPT2, CIM, IAO-localization
   Andreas Hansen         : Spin unrestricted coupled pair/coupled cluster methods
   Benjamin Helmich-Paris : CASSCF linear response (MC-RPA)
   Lee Huntington         : MR-EOM, pCC
   Robert Izsak           : Overlap fitted RIJCOSX, COSX-SCS-MP3, EOM
   Christian Kollmar      : KDIIS, OOCD, Brueckner-CCSD(T), CCSD density
   Simone Kossmann        : Meta GGA functionals, TD-DFT gradient, OOMP2, MP2 Hessian
   Martin Krupicka        : AUTO-CI
   Lucas Lang             : DCDCAS
   Dagmar Lenk            : GEPOL surface, SMD
   Dimitrios Liakos       : Extrapolation schemes; Compound Job, initial MDCI parallelization
   Dimitrios Manganas     : Further ROCIS development; embedding schemes
   Dimitrios Pantazis     : SARC Basis sets
   Taras Petrenko         : DFT Hessian,TD-DFT gradient, ASA, ECA, R-Raman, ABS, FL, XAS/XES, NRVS
   Peter Pinski           : DLPNO-MP2, DLPNO-MP2 Gradient
   Christoph Reimann      : Effective Core Potentials
   Marius Retegan         : Local ZFS, SOC
   Christoph Riplinger    : Optimizer, TS searches, QM/MM, DLPNO-CCSD(T), (RO)-DLPNO pert. Triples
   Tobias Risthaus        : Range-separated hybrids, TD-DFT gradient, RPA, STAB
   Michael Roemelt        : Original ROCIS implementation
   Masaaki Saitow         : Open-shell DLPNO-CCSD energy and density
   Barbara Sandhoefer     : DKH picture change effects
   Avijit Sen             : IP-ROCIS
   Kantharuban Sivalingam : CASSCF convergence, NEVPT2, FIC-MRCI
   Bernardo de Souza      : ESD, SOC TD-DFT
   Georgi Stoychev        : AutoAux, RI-MP2 NMR
   Willem Van den Heuvel  : Paramagnetic NMR
   Boris Wezisla          : Elementary symmetry handling
   Frank Wennmohs         : Technical directorship


 We gratefully acknowledge several colleagues who have allowed us to
 interface, adapt or use parts of their codes:
   Stefan Grimme, W. Hujo, H. Kruse,             : VdW corrections, initial TS optimization,
                  C. Bannwarth                     DFT functionals, gCP, sTDA/sTD-DF
   Ed Valeev, F. Pavosevic, A. Kumar             : LibInt (2-el integral package), F12 methods
   Garnet Chan, S. Sharma, J. Yang, R. Olivares  : DMRG
   Ulf Ekstrom                                   : XCFun DFT Library
   Mihaly Kallay                                 : mrcc  (arbitrary order and MRCC methods)
   Andreas Klamt, Michael Diedenhofen            : otool_cosmo (COSMO solvation model)
   Jiri Pittner, Ondrej Demel                    : Mk-CCSD
   Frank Weinhold                                : gennbo (NPA and NBO analysis)
   Christopher J. Cramer and Donald G. Truhlar   : smd solvation model
   Lars Goerigk                                  : TD-DFT with DH, B97 family of functionals
   V. Asgeirsson, H. Jonsson                     : NEB implementation
   FAccTs GmbH                                   : IRC, NEB, NEB-TS, Multilevel, MM, QM/MM, CI optimization
   S Lehtola, MJT Oliveira, MAL Marques          : LibXC Library


 Your calculation uses the libint2 library for the computation of 2-el integrals
 For citations please refer to: http://libint.valeyev.net

 Your ORCA version has been built with support for libXC version: 4.2.3
 For citations please refer to: https://tddft.org/programs/libxc/

 This ORCA versions uses:
   CBLAS   interface :  Fast vector & matrix operations
   LAPACKE interface :  Fast linear algebra routines
   SCALAPACK package :  Parallel linear algebra routines


Your calculation utilizes the atom-pairwise dispersion correction
with the Becke-Johnson damping scheme (D3BJ)
Cite in your paper:
S.Grimme, S.Ehrlich, L.Goerigk, J Comput Chem, (2011), 32, 1456–1465 
S.Grimme, J.Antony, S.Ehrlich and H.Krieg, J.Chem.Phys., 132, (2010), 154104 
   

----- Orbital basis set information -----
Your calculation utilizes the basis: def2-SVP
   F. Weigend and R. Ahlrichs, Phys. Chem. Chem. Phys. 7, 3297 (2005).

----- AuxJ basis set information -----
Your calculation utilizes the auxiliary basis: def2/J
   F. Weigend, Phys. Chem. Chem. Phys. 8, 1057 (2006).

================================================================================
                                        WARNINGS
                       Please study these warnings very carefully!
================================================================================


WARNING: Geometry Optimization
  ===> : Switching off AutoStart
         For restart on a previous wavefunction, please use MOREAD

INFO   : the flag for use of LIBINT has been found!

================================================================================
                                       INPUT FILE
================================================================================
NAME = DPP2F_T_Optimize_Monomer.inp
|  1> ! RI BP86 def2-SVP def2/J D3BJ TIGHTSCF  Opt Grid3 FinalGrid5
|  2> %maxcore 3000
|  3> %geom
|  4> Constraints
|  5> {D 1 0 38 39 0.0 C}
|  6> {D 2 6 17 18 0.0 C}
|  7> {D 19 21 24 25 0.0 C}
|  8> {D 26 28 31 32 0.0 C}
|  9> {D 33 35 46 47 0.0 C}
| 10> end
| 11> end
| 12> 
| 13> *xyz 0 1
| 14> C	-5.483162	2.403031	-0.023594
| 15> C	-5.172722	1.101761	-0.056764
| 16> C	-3.733942	0.952761	-0.037804
| 17> C	-3.158052	2.310611	0.005366
| 18> N	-4.300182	3.143581	0.010496
| 19> O	-1.986082	2.625341	0.030126
| 20> C	-3.436712	-0.351419	-0.056404
| 21> C	-5.762942	-0.245659	-0.100504
| 22> N	-4.631092	-1.083519	-0.100704
| 23> C	-4.177232	4.576371	0.049506
| 24> H	-3.125912	4.875521	0.088196
| 25> H	-4.676452	4.961101	0.943146
| 26> H	-4.620072	5.002591	-0.855074
| 27> C	-4.791952	-2.512169	-0.147334
| 28> H	-5.846332	-2.783869	-0.255644
| 29> H	-4.430102	-2.947169	0.788276
| 30> H	-4.251102	-2.915769	-1.007434
| 31> C	-2.113732	-0.886579	-0.025574
| 32> C	-1.681212	-2.203219	0.084566
| 33> C	-0.273852	-2.220419	0.076516
| 34> H	-2.294472	-3.084739	0.171726
| 35> C	0.153278	-0.911419	-0.021924
| 36> H	0.355278	-3.096469	0.149896
| 37> O	-0.962042	-0.112409	-0.093594
| 38> C	1.511838	-0.423199	-0.034004
| 39> C	1.965458	0.875841	-0.151624
| 40> C	3.399958	0.966251	-0.093884
| 41> H	1.303768	1.728541	-0.262514
| 42> C	4.001578	-0.263909	0.085506
| 43> H	3.955968	1.896011	-0.153304
| 44> S	2.828958	-1.508209	0.126516
| 45> C	5.403528	-0.568909	0.235016
| 46> C	5.979328	-1.739619	0.692146
| 47> C	7.376268	-1.553289	0.681016
| 48> H	5.452028	-2.625429	1.018046
| 49> C	7.642578	-0.281109	0.191666
| 50> H	8.105568	-2.278039	1.009606
| 51> O	6.415498	0.309291	-0.060024
| 52> C	-6.822332	2.890031	-0.015824
| 53> C	-7.355932	4.178681	-0.040554
| 54> C	-8.771372	4.087841	-0.016064
| 55> H	-6.801242	5.103041	-0.074834
| 56> C	-9.054222	2.750831	0.021436
| 57> H	-9.489702	4.895161	-0.026254
| 58> O	-7.909402	2.035391	0.024816
| 59> H	-9.967022	2.171551	0.047896
| 60> C	8.888228	0.368841	-0.018344
| 61> C	9.058708	1.695391	0.000526
| 62> C	10.458588	1.964871	-0.223184
| 63> C	11.160358	0.688891	-0.394704
| 64> N	10.121668	-0.251889	-0.264524
| 65> C	10.373138	-1.662149	-0.405994
| 66> H	9.638248	-2.109039	-1.080944
| 67> H	10.330568	-2.134049	0.579366
| 68> H	11.371708	-1.833439	-0.819554
| 69> C	8.385178	3.000631	0.180686
| 70> C	10.660788	3.278141	-0.195234
| 71> N	9.452078	3.914331	0.035626
| 72> H	11.587668	3.818441	-0.321054
| 73> O	7.213288	3.215751	0.407766
| 74> O	12.346708	0.531121	-0.597104
| 75> C	9.306938	5.343221	0.141916
| 76> H	8.254678	5.615171	0.258016
| 77> H	9.704738	5.812711	-0.762644
| 78> H	9.867968	5.693111	1.013466
| 79> O	-6.934552	-0.559769	-0.132204
| 80> **                         ****END OF INPUT****
================================================================================

                       *****************************
                       * Geometry Optimization Run *
                       *****************************

Geometry optimization settings:
Update method            Update   .... BFGS
Choice of coordinates    CoordSys .... Z-matrix Internals
Initial Hessian          InHess   .... Almoef's Model

Convergence Tolerances:
Energy Change            TolE     ....  5.0000e-06 Eh
Max. Gradient            TolMAXG  ....  3.0000e-04 Eh/bohr
RMS Gradient             TolRMSG  ....  1.0000e-04 Eh/bohr
Max. Displacement        TolMAXD  ....  4.0000e-03 bohr
RMS Displacement         TolRMSD  ....  2.0000e-03 bohr
Strict Convergence                ....  False
------------------------------------------------------------------------------
                        ORCA OPTIMIZATION COORDINATE SETUP
------------------------------------------------------------------------------

The optimization will be done in new redundant internal coordinates
Making redundant internal coordinates   ...  (new redundants) done
Evaluating the initial hessian          ...  (Almloef) done
Evaluating the coordinates              ...  done
Calculating the B-matrix                .... done
Calculating the G-matrix                .... done
Diagonalizing the G-matrix              .... done
Imposing constraints:
 Iter   0:  RMS(Cart)=    3.1069324416 RMS(Int)=    2.4088274192
 Iter   1:  RMS(Cart)=    2.1083510998 RMS(Int)=    2.2786467444
 Iter   2:  RMS(Cart)=    1.8251256513 RMS(Int)=    2.2123732696
 Iter   3:  RMS(Cart)=    1.6657272757 RMS(Int)=    2.1674839519
 Iter   4:  RMS(Cart)=    1.5514346937 RMS(Int)=    2.1334964685
 Iter   5:  RMS(Cart)=    1.4610074397 RMS(Int)=    2.1064385946
 Iter   6:  RMS(Cart)=    1.3860065798 RMS(Int)=    2.0843196096
 Iter   7:  RMS(Cart)=    1.3221660017 RMS(Int)=    2.0659344265
 Iter   8:  RMS(Cart)=    1.2669279377 RMS(Int)=    2.0504629770
 Iter   9:  RMS(Cart)=    1.2185668988 RMS(Int)=    2.0373088701
 Iter  10:  RMS(Cart)=    1.1758274630 RMS(Int)=    2.0260221376
 Iter  11:  RMS(Cart)=    1.1377531256 RMS(Int)=    2.0162559194
 Iter  12:  RMS(Cart)=    1.1035942274 RMS(Int)=    2.0077390411
 Iter  13:  RMS(Cart)=    1.0727523072 RMS(Int)=    2.0002572308
 Iter  14:  RMS(Cart)=    1.0447432782 RMS(Int)=    1.9936396473
 Iter  15:  RMS(Cart)=    1.0191714894 RMS(Int)=    1.9877489612
 Iter  16:  RMS(Cart)=    0.9957107079 RMS(Int)=    1.9824739317
 Iter  17:  RMS(Cart)=    0.9740898117 RMS(Int)=    1.9777237918
 Iter  18:  RMS(Cart)=    0.9540818415 RMS(Int)=    1.9734239616
 Iter  19:  RMS(Cart)=    0.9354955176 RMS(Int)=    1.9695127525
 Iter  20:  RMS(Cart)=    0.9181686034 RMS(Int)=    1.9659388128
 Iter  21:  RMS(Cart)=    0.9019626679 RMS(Int)=    1.9626591359
 Iter  22:  RMS(Cart)=    0.8867589233 RMS(Int)=    1.9596374950
 Iter  23:  RMS(Cart)=    0.8724548910 RMS(Int)=    1.9568432068
 Iter  24:  RMS(Cart)=    0.8589617164 RMS(Int)=    1.9542501464
 Iter  25:  RMS(Cart)=    0.8462019890 RMS(Int)=    1.9518359596
 Iter  26:  RMS(Cart)=    0.8341079652 RMS(Int)=    1.9495814278
 Iter  27:  RMS(Cart)=    0.8226201082 RMS(Int)=    1.9474699540
 Iter  28:  RMS(Cart)=    0.8116858832 RMS(Int)=    1.9454871433
 Iter  29:  RMS(Cart)=    0.8012587578 RMS(Int)=    1.9436204599
 Iter  30:  RMS(Cart)=    0.7912973674 RMS(Int)=    1.9418589442
 Iter  31:  RMS(Cart)=    0.7817648161 RMS(Int)=    1.9401929792
 Iter  32:  RMS(Cart)=    0.7726280872 RMS(Int)=    1.9386140960
 Iter  33:  RMS(Cart)=    0.7638575451 RMS(Int)=    1.9371148110
 Iter  34:  RMS(Cart)=    0.7554265114 RMS(Int)=    1.9356884904
 Iter  35:  RMS(Cart)=    0.7473109033 RMS(Int)=    1.9343292345
 Iter  36:  RMS(Cart)=    0.7394889240 RMS(Int)=    1.9330317815
 Iter  37:  RMS(Cart)=    0.7319407959 RMS(Int)=    1.9317914248
 Iter  38:  RMS(Cart)=    0.7246485311 RMS(Int)=    1.9306039423
 Iter  39:  RMS(Cart)=    0.7175957318 RMS(Int)=    1.9294655374
 Iter  40:  RMS(Cart)=    0.7107674176 RMS(Int)=    1.9283727864
 Iter  41:  RMS(Cart)=    0.7041498741 RMS(Int)=    1.9273225948
 Iter  42:  RMS(Cart)=    0.6977305212 RMS(Int)=    1.9263121590
 Iter  43:  RMS(Cart)=    0.6914977972 RMS(Int)=    1.9253389327
 Iter  44:  RMS(Cart)=    0.6854410572 RMS(Int)=    1.9244005984
 Iter  45:  RMS(Cart)=    0.6795504830 RMS(Int)=    1.9234950426
 Iter  46:  RMS(Cart)=    0.6738170038 RMS(Int)=    1.9226203330
 Iter  47:  RMS(Cart)=    0.6682322261 RMS(Int)=    1.9217747003
 Iter  48:  RMS(Cart)=    0.6627883705 RMS(Int)=    1.9209565207
 Iter  49:  RMS(Cart)=    0.6574782166 RMS(Int)=    1.9201643011
 Iter  50:  RMS(Cart)=    0.6522950531 RMS(Int)=    1.9193966666
 Iter  51:  RMS(Cart)=    0.6472326332 RMS(Int)=    1.9186523481
 Iter  52:  RMS(Cart)=    0.6422851348 RMS(Int)=    1.9179301728
 Iter  53:  RMS(Cart)=    0.6374471247 RMS(Int)=    1.9172290546
 Iter  54:  RMS(Cart)=    0.6327135262 RMS(Int)=    1.9165479861
 Iter  55:  RMS(Cart)=    0.6280795906 RMS(Int)=    1.9158860318
 Iter  56:  RMS(Cart)=    0.6235408701 RMS(Int)=    1.9152423211
 Iter  57:  RMS(Cart)=    0.6190931948 RMS(Int)=    1.9146160428
 Iter  58:  RMS(Cart)=    0.6147326508 RMS(Int)=    1.9140064399
 Iter  59:  RMS(Cart)=    0.6104555607 RMS(Int)=    1.9134128051
 Iter  60:  RMS(Cart)=    0.6062584660 RMS(Int)=    1.9128344763
 Iter  61:  RMS(Cart)=    0.6021381107 RMS(Int)=    1.9122708333
 Iter  62:  RMS(Cart)=    0.5980914267 RMS(Int)=    1.9117212939
 Iter  63:  RMS(Cart)=    0.5941155202 RMS(Int)=    1.9111853111
 Iter  64:  RMS(Cart)=    0.5902076598 RMS(Int)=    1.9106623706
 Iter  65:  RMS(Cart)=    0.5863652644 RMS(Int)=    1.9101519876
 Iter  66:  RMS(Cart)=    0.5825858937 RMS(Int)=    1.9096537052
 Iter  67:  RMS(Cart)=    0.5788672381 RMS(Int)=    1.9091670919
 Iter  68:  RMS(Cart)=    0.5752071104 RMS(Int)=    1.9086917398
 Iter  69:  RMS(Cart)=    0.5716034375 RMS(Int)=    1.9082272631
 Iter  70:  RMS(Cart)=    0.5680542529 RMS(Int)=    1.9077732962
 Iter  71:  RMS(Cart)=    0.5645576903 RMS(Int)=    1.9073294924
 Iter  72:  RMS(Cart)=    0.5611119769 RMS(Int)=    1.9068955226
 Iter  73:  RMS(Cart)=    0.5577154276 RMS(Int)=    1.9064710743
 Iter  74:  RMS(Cart)=    0.5543664397 RMS(Int)=    1.9060558500
 Iter  75:  RMS(Cart)=    0.5510634881 RMS(Int)=    1.9056495667
 Iter  76:  RMS(Cart)=    0.5478051201 RMS(Int)=    1.9052519545
 Iter  77:  RMS(Cart)=    0.5445899518 RMS(Int)=    1.9048627561
 Iter  78:  RMS(Cart)=    0.5414166635 RMS(Int)=    1.9044817261
 Iter  79:  RMS(Cart)=    0.5382839962 RMS(Int)=    1.9041086296
 Iter  80:  RMS(Cart)=    0.5351907483 RMS(Int)=    1.9037432424
 Iter  81:  RMS(Cart)=    0.5321357721 RMS(Int)=    1.9033853497
 Iter  82:  RMS(Cart)=    0.5291179710 RMS(Int)=    1.9030347459
 Iter  83:  RMS(Cart)=    0.5261362965 RMS(Int)=    1.9026912340
 Iter  84:  RMS(Cart)=    0.5231897458 RMS(Int)=    1.9023546249
 Iter  85:  RMS(Cart)=    0.5202773592 RMS(Int)=    1.9020247372
 Iter  86:  RMS(Cart)=    0.5173982177 RMS(Int)=    1.9017013966
 Iter  87:  RMS(Cart)=    0.5145514412 RMS(Int)=    1.9013844356
 Iter  88:  RMS(Cart)=    0.5117361861 RMS(Int)=    1.9010736931
 Iter  89:  RMS(Cart)=    0.5089516437 RMS(Int)=    1.9007690140
 Iter  90:  RMS(Cart)=    0.5061970382 RMS(Int)=    1.9004702492
 Iter  91:  RMS(Cart)=    0.5034716251 RMS(Int)=    1.9001772545
 Iter  92:  RMS(Cart)=    0.5007746900 RMS(Int)=    1.8998898914
 Iter  93:  RMS(Cart)=    0.4981055465 RMS(Int)=    1.8996080260
 Iter  94:  RMS(Cart)=    0.4954635352 RMS(Int)=    1.8993315290
 Iter  95:  RMS(Cart)=    0.4928480223 RMS(Int)=    1.8990602758
 Iter  96:  RMS(Cart)=    0.4902583987 RMS(Int)=    1.8987941457
 Iter  97:  RMS(Cart)=    0.4876940781 RMS(Int)=    1.8985330221
 Iter  98:  RMS(Cart)=    0.4851544966 RMS(Int)=    1.8982767923
 Iter  99:  RMS(Cart)=    0.4826391114 RMS(Int)=    1.8980253471
 RMS(Cart) too big - taking linear step, building new B-matrix and trying again
Imposing constraints:
 Iter   0:  RMS(Cart)=    3.3608862167 RMS(Int)=    2.0463029213
 Iter   1:  RMS(Cart)=    2.1376258485 RMS(Int)=    1.9306280200
 Iter   2:  RMS(Cart)=    1.6718952534 RMS(Int)=    1.8704279100
 Iter   3:  RMS(Cart)=    1.4105372945 RMS(Int)=    1.8307491554
 Iter   4:  RMS(Cart)=    1.2316761546 RMS(Int)=    1.8017274865
 Iter   5:  RMS(Cart)=    1.0972130915 RMS(Int)=    1.7793257896
 Iter   6:  RMS(Cart)=    0.9909270610 RMS(Int)=    1.7614479588
 Iter   7:  RMS(Cart)=    0.9043516802 RMS(Int)=    1.7468328831
 Iter   8:  RMS(Cart)=    0.8324083754 RMS(Int)=    1.7346514290
 Iter   9:  RMS(Cart)=    0.7717489281 RMS(Int)=    1.7243280831
 Iter  10:  RMS(Cart)=    0.7200206315 RMS(Int)=    1.7154490962
 Iter  11:  RMS(Cart)=    0.6754967203 RMS(Int)=    1.7077096051
 Iter  12:  RMS(Cart)=    0.6368703287 RMS(Int)=    1.7008807402
 Iter  13:  RMS(Cart)=    0.6031297825 RMS(Int)=    1.6947880558
 Iter  14:  RMS(Cart)=    0.5734781613 RMS(Int)=    1.6892968553
 Iter  15:  RMS(Cart)=    0.5472788489 RMS(Int)=    1.6843019390
 Iter  16:  RMS(Cart)=    0.5240172966 RMS(Int)=    1.6797202937
 Iter  17:  RMS(Cart)=    0.5032734083 RMS(Int)=    1.6754857932
 Iter  18:  RMS(Cart)=    0.4847011499 RMS(Int)=    1.6715453033
 Iter  19:  RMS(Cart)=    0.4680132226 RMS(Int)=    1.6678557829
 Iter  20:  RMS(Cart)=    0.4529693716 RMS(Int)=    1.6643821039
 Iter  21:  RMS(Cart)=    0.4393673556 RMS(Int)=    1.6610953936
 Iter  22:  RMS(Cart)=    0.4270358939 RMS(Int)=    1.6579717646
 Iter  23:  RMS(Cart)=    0.4158291055 RMS(Int)=    1.6549913308
 Iter  24:  RMS(Cart)=    0.4056220867 RMS(Int)=    1.6521374414
 Iter  25:  RMS(Cart)=    0.3963073652 RMS(Int)=    1.6493960779
 Iter  26:  RMS(Cart)=    0.3877920370 RMS(Int)=    1.6467553776
 Iter  27:  RMS(Cart)=    0.3799954398 RMS(Int)=    1.6442052533
 Iter  28:  RMS(Cart)=    0.3728472494 RMS(Int)=    1.6417370885
 Iter  29:  RMS(Cart)=    0.3662859135 RMS(Int)=    1.6393434918
 Iter  30:  RMS(Cart)=    0.3602573569 RMS(Int)=    1.6370180967
 Iter  31:  RMS(Cart)=    0.3547139047 RMS(Int)=    1.6347553994
 Iter  32:  RMS(Cart)=    0.3496133823 RMS(Int)=    1.6325506244
 Iter  33:  RMS(Cart)=    0.3449183610 RMS(Int)=    1.6303996147
 Iter  34:  RMS(Cart)=    0.3405955211 RMS(Int)=    1.6282987405
 Iter  35:  RMS(Cart)=    0.3366151136 RMS(Int)=    1.6262448228
 Iter  36:  RMS(Cart)=    0.3329505025 RMS(Int)=    1.6242350700
 Iter  37:  RMS(Cart)=    0.3295777744 RMS(Int)=    1.6222670247
 Iter  38:  RMS(Cart)=    0.3264754046 RMS(Int)=    1.6203385181
 Iter  39:  RMS(Cart)=    0.3236239696 RMS(Int)=    1.6184476327
 Iter  40:  RMS(Cart)=    0.3210059005 RMS(Int)=    1.6165926690
 Iter  41:  RMS(Cart)=    0.3186052685 RMS(Int)=    1.6147721185
 Iter  42:  RMS(Cart)=    0.3164076000 RMS(Int)=    1.6129846397
 Iter  43:  RMS(Cart)=    0.3143997153 RMS(Int)=    1.6112290378
 Iter  44:  RMS(Cart)=    0.3125695878 RMS(Int)=    1.6095042474
 Iter  45:  RMS(Cart)=    0.3109062211 RMS(Int)=    1.6078093170
 Iter  46:  RMS(Cart)=    0.3093995415 RMS(Int)=    1.6061433961
 Iter  47:  RMS(Cart)=    0.3080403029 RMS(Int)=    1.6045057235
 Iter  48:  RMS(Cart)=    0.3068200034 RMS(Int)=    1.6028956175
 Iter  49:  RMS(Cart)=    0.3057308116 RMS(Int)=    1.6013124672
 Iter  50:  RMS(Cart)=    0.3047655015 RMS(Int)=    1.5997557244
 Iter  51:  RMS(Cart)=    0.3039173943 RMS(Int)=    1.5982248973
 Iter  52:  RMS(Cart)=    0.3031803070 RMS(Int)=    1.5967195442
 Iter  53:  RMS(Cart)=    0.3025485068 RMS(Int)=    1.5952392685
 Iter  54:  RMS(Cart)=    0.3020166699 RMS(Int)=    1.5937837136
 Iter  55:  RMS(Cart)=    0.3015798449 RMS(Int)=    1.5923525590
 Iter  56:  RMS(Cart)=    0.3012334201 RMS(Int)=    1.5909455163
 Iter  57:  RMS(Cart)=    0.3009730942 RMS(Int)=    1.5895623262
 Iter  58:  RMS(Cart)=    0.3007948494 RMS(Int)=    1.5882027553
 Iter  59:  RMS(Cart)=    0.3006949282 RMS(Int)=    1.5868665933
 Iter  60:  RMS(Cart)=    0.3006698111 RMS(Int)=    1.5855536507
 Iter  61:  RMS(Cart)=    0.3007161978 RMS(Int)=    1.5842637566
 Iter  62:  RMS(Cart)=    0.3008309895 RMS(Int)=    1.5829967566
 Iter  63:  RMS(Cart)=    0.3010112728 RMS(Int)=    1.5817525113
 Iter  64:  RMS(Cart)=    0.3012543050 RMS(Int)=    1.5805308942
 Iter  65:  RMS(Cart)=    0.3015575017 RMS(Int)=    1.5793317905
 Iter  66:  RMS(Cart)=    0.3019184240 RMS(Int)=    1.5781550958
 Iter  67:  RMS(Cart)=    0.3023347683 RMS(Int)=    1.5770007147
 Iter  68:  RMS(Cart)=    0.3028043557 RMS(Int)=    1.5758685598
 Iter  69:  RMS(Cart)=    0.3033251234 RMS(Int)=    1.5747585505
 Iter  70:  RMS(Cart)=    0.3038951163 RMS(Int)=    1.5736706120
 Iter  71:  RMS(Cart)=    0.3045124791 RMS(Int)=    1.5726046749
 Iter  72:  RMS(Cart)=    0.3051754496 RMS(Int)=    1.5715606739
 Iter  73:  RMS(Cart)=    0.3058823522 RMS(Int)=    1.5705385473
 Iter  74:  RMS(Cart)=    0.3066315921 RMS(Int)=    1.5695382361
 Iter  75:  RMS(Cart)=    0.3074216498 RMS(Int)=    1.5685596839
 Iter  76:  RMS(Cart)=    0.3082510759 RMS(Int)=    1.5676028357
 Iter  77:  RMS(Cart)=    0.3091184871 RMS(Int)=    1.5666676377
 Iter  78:  RMS(Cart)=    0.3100225613 RMS(Int)=    1.5657540370
 Iter  79:  RMS(Cart)=    0.3109620342 RMS(Int)=    1.5648619810
 Iter  80:  RMS(Cart)=    0.3119356955 RMS(Int)=    1.5639914166
 Iter  81:  RMS(Cart)=    0.3129423852 RMS(Int)=    1.5631422906
 Iter  82:  RMS(Cart)=    0.3139809913 RMS(Int)=    1.5623145488
 Iter  83:  RMS(Cart)=    0.3150504463 RMS(Int)=    1.5615081360
 Iter  84:  RMS(Cart)=    0.3161497246 RMS(Int)=    1.5607229956
 Iter  85:  RMS(Cart)=    0.3172778405 RMS(Int)=    1.5599590694
 Iter  86:  RMS(Cart)=    0.3184338452 RMS(Int)=    1.5592162971
 Iter  87:  RMS(Cart)=    0.3196168255 RMS(Int)=    1.5584946168
 Iter  88:  RMS(Cart)=    0.3208259011 RMS(Int)=    1.5577939641
 Iter  89:  RMS(Cart)=    0.3220602231 RMS(Int)=    1.5571142724
 Iter  90:  RMS(Cart)=    0.3233189724 RMS(Int)=    1.5564554725
 Iter  91:  RMS(Cart)=    0.3246013578 RMS(Int)=    1.5558174926
 Iter  92:  RMS(Cart)=    0.3259066148 RMS(Int)=    1.5552002584
 Iter  93:  RMS(Cart)=    0.3272340042 RMS(Int)=    1.5546036927
 Iter  94:  RMS(Cart)=    0.3285828104 RMS(Int)=    1.5540277154
 Iter  95:  RMS(Cart)=    0.3299523408 RMS(Int)=    1.5534722436
 Iter  96:  RMS(Cart)=    0.3313419243 RMS(Int)=    1.5529371916
 Iter  97:  RMS(Cart)=    0.3327509103 RMS(Int)=    1.5524224706
 Iter  98:  RMS(Cart)=    0.3341786678 RMS(Int)=    1.5519279891
 Iter  99:  RMS(Cart)=    0.3356245844 RMS(Int)=    1.5514536523
 RMS(Cart) too big - taking linear step, building new B-matrix and trying again
Imposing constraints:
 Iter   0:  RMS(Cart)=    2.6682867820 RMS(Int)=    1.8290946870
 Iter   1:  RMS(Cart)=    1.5986070585 RMS(Int)=    1.7342865453
 Iter   2:  RMS(Cart)=    1.1003087575 RMS(Int)=    1.6779987024
 Iter   3:  RMS(Cart)=    0.8179051668 RMS(Int)=    1.6373224424
 Iter   4:  RMS(Cart)=    0.6328078260 RMS(Int)=    1.6047111740
 Iter   5:  RMS(Cart)=    0.5010374821 RMS(Int)=    1.5769084494
 Iter   6:  RMS(Cart)=    0.4024756826 RMS(Int)=    1.5522079488
 Iter   7:  RMS(Cart)=    0.3264071413 RMS(Int)=    1.5295854756
 Iter   8:  RMS(Cart)=    0.2664813390 RMS(Int)=    1.5083646192
 Iter   9:  RMS(Cart)=    0.2186494992 RMS(Int)=    1.4880666315
 Iter  10:  RMS(Cart)=    0.1802090018 RMS(Int)=    1.4683342331
 Iter  11:  RMS(Cart)=    0.1493150043 RMS(Int)=    1.4488890373
 Iter  12:  RMS(Cart)=    0.1247073778 RMS(Int)=    1.4295059897
 Iter  13:  RMS(Cart)=    0.1055376325 RMS(Int)=    1.4099972688
 Iter  14:  RMS(Cart)=    0.0912299785 RMS(Int)=    1.3902019134
 Iter  15:  RMS(Cart)=    0.0813345466 RMS(Int)=    1.3699792023
 Iter  16:  RMS(Cart)=    0.0753694489 RMS(Int)=    1.3492046966
 Iter  17:  RMS(Cart)=    0.0727110342 RMS(Int)=    1.3277683286
 Iter  18:  RMS(Cart)=    0.0726073123 RMS(Int)=    1.3055741829
 Iter  19:  RMS(Cart)=    0.0742968921 RMS(Int)=    1.2825417499
 Iter  20:  RMS(Cart)=    0.0771286758 RMS(Int)=    1.2586084830
 Iter  21:  RMS(Cart)=    0.0806126929 RMS(Int)=    1.2337334545
 Iter  22:  RMS(Cart)=    0.0844104753 RMS(Int)=    1.2079018045
 Iter  23:  RMS(Cart)=    0.0883006903 RMS(Int)=    1.1811295049
 Iter  24:  RMS(Cart)=    0.0921439899 RMS(Int)=    1.1534677534
 Iter  25:  RMS(Cart)=    0.0958555688 RMS(Int)=    1.1250061176
 Iter  26:  RMS(Cart)=    0.0993860114 RMS(Int)=    1.0958734510
 Iter  27:  RMS(Cart)=    0.1027085871 RMS(Int)=    1.0662356920
 Iter  28:  RMS(Cart)=    0.1058110063 RMS(Int)=    1.0362900096
 Iter  29:  RMS(Cart)=    0.1086901108 RMS(Int)=    1.0062553611
 Iter  30:  RMS(Cart)=    0.1113484565 RMS(Int)=    0.9763602699
 Iter  31:  RMS(Cart)=    0.1137921074 RMS(Int)=    0.9468292964
 Iter  32:  RMS(Cart)=    0.1160292082 RMS(Int)=    0.9178700352
 Iter  33:  RMS(Cart)=    0.1180690587 RMS(Int)=    0.8896623800
 Iter  34:  RMS(Cart)=    0.1199215148 RMS(Int)=    0.8623512873
 Iter  35:  RMS(Cart)=    0.1215966021 RMS(Int)=    0.8360435172
 Iter  36:  RMS(Cart)=    0.1231042700 RMS(Int)=    0.8108080835
 Iter  37:  RMS(Cart)=    0.1244542382 RMS(Int)=    0.7866796082
 Iter  38:  RMS(Cart)=    0.1256559045 RMS(Int)=    0.7636635347
 Iter  39:  RMS(Cart)=    0.1267182927 RMS(Int)=    0.7417421754
 Iter  40:  RMS(Cart)=    0.1276500277 RMS(Int)=    0.7208807696
 Iter  41:  RMS(Cart)=    0.1284593272 RMS(Int)=    0.7010329934
 Iter  42:  RMS(Cart)=    0.1291540054 RMS(Int)=    0.6821456190
 Iter  43:  RMS(Cart)=    0.1297414819 RMS(Int)=    0.6641622221
 Iter  44:  RMS(Cart)=    0.1302287969 RMS(Int)=    0.6470259711
 Iter  45:  RMS(Cart)=    0.1306226264 RMS(Int)=    0.6306816081
 Iter  46:  RMS(Cart)=    0.1309292999 RMS(Int)=    0.6150767632
 Iter  47:  RMS(Cart)=    0.1311548170 RMS(Int)=    0.6001627447
 Iter  48:  RMS(Cart)=    0.1313048644 RMS(Int)=    0.5858949364
 Iter  49:  RMS(Cart)=    0.1313848321 RMS(Int)=    0.5722329113
 Iter  50:  RMS(Cart)=    0.1313998280 RMS(Int)=    0.5591403501
 Iter  51:  RMS(Cart)=    0.1313546925 RMS(Int)=    0.5465848310
 Iter  52:  RMS(Cart)=    0.1312540115 RMS(Int)=    0.5345375430
 Iter  53:  RMS(Cart)=    0.1311021286 RMS(Int)=    0.5229729572
 Iter  54:  RMS(Cart)=    0.1309031566 RMS(Int)=    0.5118684831
 Iter  55:  RMS(Cart)=    0.1306609882 RMS(Int)=    0.5012041270
 Iter  56:  RMS(Cart)=    0.1303793055 RMS(Int)=    0.4909621629
 Iter  57:  RMS(Cart)=    0.1300615893 RMS(Int)=    0.4811268247
 Iter  58:  RMS(Cart)=    0.1297111279 RMS(Int)=    0.4716840218
 Iter  59:  RMS(Cart)=    0.1293310248 RMS(Int)=    0.4626210811
 Iter  60:  RMS(Cart)=    0.1289242069 RMS(Int)=    0.4539265152
 Iter  61:  RMS(Cart)=    0.1284934311 RMS(Int)=    0.4455898163
 Iter  62:  RMS(Cart)=    0.1280412914 RMS(Int)=    0.4376012748
 Iter  63:  RMS(Cart)=    0.1275702260 RMS(Int)=    0.4299518213
 Iter  64:  RMS(Cart)=    0.1270825229 RMS(Int)=    0.4226328890
 Iter  65:  RMS(Cart)=    0.1265803266 RMS(Int)=    0.4156362969
 Iter  66:  RMS(Cart)=    0.1260656439 RMS(Int)=    0.4089541499
 Iter  67:  RMS(Cart)=    0.1255403496 RMS(Int)=    0.4025787558
 Iter  68:  RMS(Cart)=    0.1250061923 RMS(Int)=    0.3965025566
 Iter  69:  RMS(Cart)=    0.1244647999 RMS(Int)=    0.3907180725
 Iter  70:  RMS(Cart)=    0.1239176848 RMS(Int)=    0.3852178583
 Iter  71:  RMS(Cart)=    0.1233662494 RMS(Int)=    0.3799944695
 Iter  72:  RMS(Cart)=    0.1228117912 RMS(Int)=    0.3750404379
 Iter  73:  RMS(Cart)=    0.1222555079 RMS(Int)=    0.3703482549
 Iter  74:  RMS(Cart)=    0.1216985022 RMS(Int)=    0.3659103623
 Iter  75:  RMS(Cart)=    0.1211417866 RMS(Int)=    0.3617191481
 Iter  76:  RMS(Cart)=    0.1205862884 RMS(Int)=    0.3577669489
 Iter  77:  RMS(Cart)=    0.1200328543 RMS(Int)=    0.3540460550
 Iter  78:  RMS(Cart)=    0.1194822544 RMS(Int)=    0.3505487200
 Iter  79:  RMS(Cart)=    0.1189351870 RMS(Int)=    0.3472671734
 Iter  80:  RMS(Cart)=    0.1183922830 RMS(Int)=    0.3441936345
 Iter  81:  RMS(Cart)=    0.1178541094 RMS(Int)=    0.3413203286
 Iter  82:  RMS(Cart)=    0.1173211738 RMS(Int)=    0.3386395044
 Iter  83:  RMS(Cart)=    0.1167939278 RMS(Int)=    0.3361434515
 Iter  84:  RMS(Cart)=    0.1162727713 RMS(Int)=    0.3338245181
 Iter  85:  RMS(Cart)=    0.1157580553 RMS(Int)=    0.3316751295
 Iter  86:  RMS(Cart)=    0.1152500857 RMS(Int)=    0.3296878047
 Iter  87:  RMS(Cart)=    0.1147491268 RMS(Int)=    0.3278551733
 Iter  88:  RMS(Cart)=    0.1142554038 RMS(Int)=    0.3261699910
 Iter  89:  RMS(Cart)=    0.1137691060 RMS(Int)=    0.3246251540
 Iter  90:  RMS(Cart)=    0.1132903898 RMS(Int)=    0.3232137121
 Iter  91:  RMS(Cart)=    0.1128193813 RMS(Int)=    0.3219288808
 Iter  92:  RMS(Cart)=    0.1123561785 RMS(Int)=    0.3207640511
 Iter  93:  RMS(Cart)=    0.1119008541 RMS(Int)=    0.3197127990
 Iter  94:  RMS(Cart)=    0.1114534573 RMS(Int)=    0.3187688924
 Iter  95:  RMS(Cart)=    0.1060161944 RMS(Int)=    0.3178407586
 Iter  96:  RMS(Cart)=    0.1008868977 RMS(Int)=    0.3169206910
 Iter  97:  RMS(Cart)=    0.0964898547 RMS(Int)=    0.3160110387
 Iter  98:  RMS(Cart)=    0.0926776087 RMS(Int)=    0.3151135787
 Iter  99:  RMS(Cart)=    0.0893379581 RMS(Int)=    0.3142294441
 RMS(Cart) too big - taking linear step, building new B-matrix and trying again
Decreasing the constraint accuracy, check your results carefully!
Imposing constraints:
 Iter   0:  RMS(Cart)=    1.7695792166 RMS(Int)=    1.7083951014
 Iter   1:  RMS(Cart)=    1.0081877556 RMS(Int)=    1.6409382837
 Iter   2:  RMS(Cart)=    0.6083505946 RMS(Int)=    1.5936421279
 Iter   3:  RMS(Cart)=    0.3805601055 RMS(Int)=    1.5543975402
 Iter   4:  RMS(Cart)=    0.2409335155 RMS(Int)=    1.5185294335
 Iter   5:  RMS(Cart)=    0.1534909066 RMS(Int)=    1.4839344829
 Iter   6:  RMS(Cart)=    0.1025892908 RMS(Int)=    1.4495653152
 Iter   7:  RMS(Cart)=    0.0813253397 RMS(Int)=    1.4148887229
 Iter   8:  RMS(Cart)=    0.0808590309 RMS(Int)=    1.3796632613
 Iter   9:  RMS(Cart)=    0.0891186188 RMS(Int)=    1.3438352470
 Iter  10:  RMS(Cart)=    0.0988348304 RMS(Int)=    1.3074819415
 Iter  11:  RMS(Cart)=    0.1074978015 RMS(Int)=    1.2707735009
 Iter  12:  RMS(Cart)=    0.1145518221 RMS(Int)=    1.2339418257
 Iter  13:  RMS(Cart)=    0.1200605947 RMS(Int)=    1.1972520675
 Iter  14:  RMS(Cart)=    0.1242512552 RMS(Int)=    1.1609764628
 Iter  15:  RMS(Cart)=    0.1273678278 RMS(Int)=    1.1253719621
 Iter  16:  RMS(Cart)=    0.1296273338 RMS(Int)=    1.0906633934
 Iter  17:  RMS(Cart)=    0.1312103201 RMS(Int)=    1.0570331603
 Iter  18:  RMS(Cart)=    0.1322626820 RMS(Int)=    1.0246173401
 Iter  19:  RMS(Cart)=    0.1329006777 RMS(Int)=    0.9935070498
 Iter  20:  RMS(Cart)=    0.1332162972 RMS(Int)=    0.9637534154
 Iter  21:  RMS(Cart)=    0.1332820600 RMS(Int)=    0.9353744375
 Iter  22:  RMS(Cart)=    0.1331550225 RMS(Int)=    0.9083623504
 Iter  23:  RMS(Cart)=    0.1328800217 RMS(Int)=    0.8826905181
 Iter  24:  RMS(Cart)=    0.1324922643 RMS(Int)=    0.8583193457
 Iter  25:  RMS(Cart)=    0.1320193762 RMS(Int)=    0.8352010176
 Iter  26:  RMS(Cart)=    0.1314830204 RMS(Int)=    0.8132830948
 Iter  27:  RMS(Cart)=    0.1309001703 RMS(Int)=    0.7925111156
 Iter  28:  RMS(Cart)=    0.1302841132 RMS(Int)=    0.7728303901
 Iter  29:  RMS(Cart)=    0.1296452388 RMS(Int)=    0.7541871757
 Iter  30:  RMS(Cart)=    0.1289916597 RMS(Int)=    0.7365293996
 Iter  31:  RMS(Cart)=    0.1283297004 RMS(Int)=    0.7198070620
 Iter  32:  RMS(Cart)=    0.1276642802 RMS(Int)=    0.7039724238
 Iter  33:  RMS(Cart)=    0.1269992159 RMS(Int)=    0.6889800537
 Iter  34:  RMS(Cart)=    0.1263374586 RMS(Int)=    0.6747867904
 Iter  35:  RMS(Cart)=    0.1256812800 RMS(Int)=    0.6613516548
 Iter  36:  RMS(Cart)=    0.1250324186 RMS(Int)=    0.6486357395
 Iter  37:  RMS(Cart)=    0.1243921949 RMS(Int)=    0.6366020882
 Iter  38:  RMS(Cart)=    0.1237616009 RMS(Int)=    0.6252155777
 Iter  39:  RMS(Cart)=    0.1231413711 RMS(Int)=    0.6144428044
 Iter  40:  RMS(Cart)=    0.1225320376 RMS(Int)=    0.6042519813
 Iter  41:  RMS(Cart)=    0.1219339734 RMS(Int)=    0.5946128438
 Iter  42:  RMS(Cart)=    0.1213474267 RMS(Int)=    0.5854965649
 Iter  43:  RMS(Cart)=    0.1207725470 RMS(Int)=    0.5768756797
 Iter  44:  RMS(Cart)=    0.1202094065 RMS(Int)=    0.5687240170
 Iter  45:  RMS(Cart)=    0.1196580162 RMS(Int)=    0.5610166383
 Iter  46:  RMS(Cart)=    0.1191183386 RMS(Int)=    0.5537297820
 Iter  47:  RMS(Cart)=    0.1185902984 RMS(Int)=    0.5468408120
 Iter  48:  RMS(Cart)=    0.1180737898 RMS(Int)=    0.5403281709
 Iter  49:  RMS(Cart)=    0.1175686834 RMS(Int)=    0.5341713356
 Iter  50:  RMS(Cart)=    0.1170748310 RMS(Int)=    0.5283507754
 Iter  51:  RMS(Cart)=    0.1165920694 RMS(Int)=    0.5228479133
 Iter  52:  RMS(Cart)=    0.1161202239 RMS(Int)=    0.5176450872
 Iter  53:  RMS(Cart)=    0.1156591110 RMS(Int)=    0.5127255140
 Iter  54:  RMS(Cart)=    0.1152085399 RMS(Int)=    0.5080732542
 Iter  55:  RMS(Cart)=    0.1147683150 RMS(Int)=    0.5036731774
 Iter  56:  RMS(Cart)=    0.1143382366 RMS(Int)=    0.4995109294
 Iter  57:  RMS(Cart)=    0.1139181024 RMS(Int)=    0.4955728994
 Iter  58:  RMS(Cart)=    0.1135077087 RMS(Int)=    0.4918461885
 Iter  59:  RMS(Cart)=    0.1131068506 RMS(Int)=    0.4883185785
 Iter  60:  RMS(Cart)=    0.1127153231 RMS(Int)=    0.4849785023
 Iter  61:  RMS(Cart)=    0.1123329219 RMS(Int)=    0.4818150142
 Iter  62:  RMS(Cart)=    0.1119594432 RMS(Int)=    0.4788177614
 Iter  63:  RMS(Cart)=    0.1115946847 RMS(Int)=    0.4759769563
 Iter  64:  RMS(Cart)=    0.1086457416 RMS(Int)=    0.4732026296
 Iter  65:  RMS(Cart)=    0.1009913337 RMS(Int)=    0.4703315135
 Iter  66:  RMS(Cart)=    0.0948066776 RMS(Int)=    0.4674000145
 Iter  67:  RMS(Cart)=    0.0897312095 RMS(Int)=    0.4644356526
 Iter  68:  RMS(Cart)=    0.0855033857 RMS(Int)=    0.4614587186
 Iter  69:  RMS(Cart)=    0.0819322002 RMS(Int)=    0.4584838404
 Iter  70:  RMS(Cart)=    0.0788769369 RMS(Int)=    0.4555213260
 Iter  71:  RMS(Cart)=    0.0762328927 RMS(Int)=    0.4525782543
 Iter  72:  RMS(Cart)=    0.0739213302 RMS(Int)=    0.4496593318
 Iter  73:  RMS(Cart)=    0.0718823841 RMS(Int)=    0.4467675506
 Iter  74:  RMS(Cart)=    0.0700700237 RMS(Int)=    0.4439046846
 Iter  75:  RMS(Cart)=    0.0684484456 RMS(Int)=    0.4410716573
 Iter  76:  RMS(Cart)=    0.0669894689 RMS(Int)=    0.4382688118
 Iter  77:  RMS(Cart)=    0.0656706391 RMS(Int)=    0.4354961055
 Iter  78:  RMS(Cart)=    0.0644738372 RMS(Int)=    0.4327532493
 Iter  79:  RMS(Cart)=    0.0633842526 RMS(Int)=    0.4300398041
 Iter  80:  RMS(Cart)=    0.0623896213 RMS(Int)=    0.4273552483
 Iter  81:  RMS(Cart)=    0.0614796570 RMS(Int)=    0.4246990223
 Iter  82:  RMS(Cart)=    0.0606456255 RMS(Int)=    0.4220705577
 Iter  83:  RMS(Cart)=    0.0598800237 RMS(Int)=    0.4194692952
 Iter  84:  RMS(Cart)=    0.0591763372 RMS(Int)=    0.4168946954
 Iter  85:  RMS(Cart)=    0.0585288559 RMS(Int)=    0.4143462434
 Iter  86:  RMS(Cart)=    0.0579325331 RMS(Int)=    0.4118234514
 Iter  87:  RMS(Cart)=    0.0573828758 RMS(Int)=    0.4093258578
 Iter  88:  RMS(Cart)=    0.0568758603 RMS(Int)=    0.4068530261
 Iter  89:  RMS(Cart)=    0.0564078653 RMS(Int)=    0.4044045421
 Iter  90:  RMS(Cart)=    0.0559756180 RMS(Int)=    0.4019800119
 Iter  91:  RMS(Cart)=    0.0555761513 RMS(Int)=    0.3995790589
 Iter  92:  RMS(Cart)=    0.0552067680 RMS(Int)=    0.3972013218
 Iter  93:  RMS(Cart)=    0.0548650114 RMS(Int)=    0.3948464518
 Iter  94:  RMS(Cart)=    0.0545486400 RMS(Int)=    0.3925141112
 Iter  95:  RMS(Cart)=    0.0542556064 RMS(Int)=    0.3902039713
 Iter  96:  RMS(Cart)=    0.0539840384 RMS(Int)=    0.3879157111
 Iter  97:  RMS(Cart)=    0.0537322226 RMS(Int)=    0.3856490162
 Iter  98:  RMS(Cart)=    0.0534985901 RMS(Int)=    0.3834035774
 Iter  99:  RMS(Cart)=    0.0532817035 RMS(Int)=    0.3811790906
 RMS(Cart) too big - taking linear step, building new B-matrix and trying again
Decreasing the constraint accuracy, check your results carefully!
Imposing constraints:
 Iter   0:  RMS(Cart)=    1.0344838841 RMS(Int)=    1.6345897829
 Iter   1:  RMS(Cart)=    0.5620303693 RMS(Int)=    1.5810832170
 Iter   2:  RMS(Cart)=    0.3029252317 RMS(Int)=    1.5356593916
 Iter   3:  RMS(Cart)=    0.1609592486 RMS(Int)=    1.4932515956
 Iter   4:  RMS(Cart)=    0.0942616883 RMS(Int)=    1.4518425934
 Iter   5:  RMS(Cart)=    0.0837515906 RMS(Int)=    1.4106827470
 Iter   6:  RMS(Cart)=    0.0967350870 RMS(Int)=    1.3695973557
 Iter   7:  RMS(Cart)=    0.1111159615 RMS(Int)=    1.3286870805
 Iter   8:  RMS(Cart)=    0.1221337180 RMS(Int)=    1.2881787925
 Iter   9:  RMS(Cart)=    0.1298263818 RMS(Int)=    1.2483421394
 Iter  10:  RMS(Cart)=    0.1349777886 RMS(Int)=    1.2094404028
 Iter  11:  RMS(Cart)=    0.1383143891 RMS(Int)=    1.1717026481
 Iter  12:  RMS(Cart)=    0.1403863415 RMS(Int)=    1.1353104715
 Iter  13:  RMS(Cart)=    0.1415861860 RMS(Int)=    1.1003947626
 Iter  14:  RMS(Cart)=    0.1421878098 RMS(Int)=    1.0670388145
 Iter  15:  RMS(Cart)=    0.1423805944 RMS(Int)=    1.0352848538
 Iter  16:  RMS(Cart)=    0.1422950363 RMS(Int)=    1.0051418450
 Iter  17:  RMS(Cart)=    0.1420209735 RMS(Int)=    0.9765931808
 Iter  18:  RMS(Cart)=    0.1416202705 RMS(Int)=    0.9496035015
 Iter  19:  RMS(Cart)=    0.1411355650 RMS(Int)=    0.9241243383
 Iter  20:  RMS(Cart)=    0.1405962761 RMS(Int)=    0.9000985601
 Iter  21:  RMS(Cart)=    0.1400227257 RMS(Int)=    0.8774637492
 Iter  22:  RMS(Cart)=    0.1394289678 RMS(Int)=    0.8561546903
 Iter  23:  RMS(Cart)=    0.1388247305 RMS(Int)=    0.8361051632
 Iter  24:  RMS(Cart)=    0.1382167520 RMS(Int)=    0.8172492065
 Iter  25:  RMS(Cart)=    0.1376097005 RMS(Int)=    0.7995219900
 Iter  26:  RMS(Cart)=    0.1370068074 RMS(Int)=    0.7828604048
 Iter  27:  RMS(Cart)=    0.1364103056 RMS(Int)=    0.7672034503
 Iter  28:  RMS(Cart)=    0.1358217314 RMS(Int)=    0.7524924774
 Iter  29:  RMS(Cart)=    0.1352421342 RMS(Int)=    0.7386713297
 Iter  30:  RMS(Cart)=    0.1346722214 RMS(Int)=    0.7256864140
 Iter  31:  RMS(Cart)=    0.1341124592 RMS(Int)=    0.7134867197
 Iter  32:  RMS(Cart)=    0.1335631425 RMS(Int)=    0.7020238031
 Iter  33:  RMS(Cart)=    0.1330244440 RMS(Int)=    0.6912517457
 Iter  34:  RMS(Cart)=    0.1324964484 RMS(Int)=    0.6811270960
 Iter  35:  RMS(Cart)=    0.1319791762 RMS(Int)=    0.6716087977
 Iter  36:  RMS(Cart)=    0.1314726008 RMS(Int)=    0.6626581092
 Iter  37:  RMS(Cart)=    0.1309766605 RMS(Int)=    0.6542385182
 Iter  38:  RMS(Cart)=    0.1304912669 RMS(Int)=    0.6463156513
 Iter  39:  RMS(Cart)=    0.1300163116 RMS(Int)=    0.6388571821
 Iter  40:  RMS(Cart)=    0.1295516703 RMS(Int)=    0.6318327380
 Iter  41:  RMS(Cart)=    0.1290972066 RMS(Int)=    0.6252138075
 Iter  42:  RMS(Cart)=    0.1286527742 RMS(Int)=    0.6189736474
 Iter  43:  RMS(Cart)=    0.1282182193 RMS(Int)=    0.6130871925
 Iter  44:  RMS(Cart)=    0.1277933819 RMS(Int)=    0.6075309662
 Iter  45:  RMS(Cart)=    0.1273780970 RMS(Int)=    0.6022829943
 Iter  46:  RMS(Cart)=    0.1269721959 RMS(Int)=    0.5973227210
 Iter  47:  RMS(Cart)=    0.1265755071 RMS(Int)=    0.5926309273
 Iter  48:  RMS(Cart)=    0.1261878567 RMS(Int)=    0.5881896537
 Iter  49:  RMS(Cart)=    0.1258090695 RMS(Int)=    0.5839821247
 Iter  50:  RMS(Cart)=    0.1199875982 RMS(Int)=    0.5798080193
 Iter  51:  RMS(Cart)=    0.1095803702 RMS(Int)=    0.5754838196
 Iter  52:  RMS(Cart)=    0.1011924314 RMS(Int)=    0.5710579099
 Iter  53:  RMS(Cart)=    0.0943335234 RMS(Int)=    0.5665658711
 Iter  54:  RMS(Cart)=    0.0886520670 RMS(Int)=    0.5620337328
 Iter  55:  RMS(Cart)=    0.0838921122 RMS(Int)=    0.5574805255
 Iter  56:  RMS(Cart)=    0.0798644480 RMS(Int)=    0.5529202048
 Iter  57:  RMS(Cart)=    0.0764270402 RMS(Int)=    0.5483630672
 Iter  58:  RMS(Cart)=    0.0734716434 RMS(Int)=    0.5438167788
 Iter  59:  RMS(Cart)=    0.0709145365 RMS(Int)=    0.5392871149
 Iter  60:  RMS(Cart)=    0.0686900346 RMS(Int)=    0.5347784876
 Iter  61:  RMS(Cart)=    0.0667458943 RMS(Int)=    0.5302943218
 Iter  62:  RMS(Cart)=    0.0650400217 RMS(Int)=    0.5258373210
 Iter  63:  RMS(Cart)=    0.0635380877 RMS(Int)=    0.5214096555
 Iter  64:  RMS(Cart)=    0.0622117827 RMS(Int)=    0.5170130951
 Iter  65:  RMS(Cart)=    0.0610375235 RMS(Int)=    0.5126491029
 Iter  66:  RMS(Cart)=    0.0599954859 RMS(Int)=    0.5083189015
 Iter  67:  RMS(Cart)=    0.0590688724 RMS(Int)=    0.5040235203
 Iter  68:  RMS(Cart)=    0.0582433506 RMS(Int)=    0.4997638291
 Iter  69:  RMS(Cart)=    0.0575066184 RMS(Int)=    0.4955405629
 Iter  70:  RMS(Cart)=    0.0568480621 RMS(Int)=    0.4913543396
 Iter  71:  RMS(Cart)=    0.0562584849 RMS(Int)=    0.4872056745
 Iter  72:  RMS(Cart)=    0.0557298883 RMS(Int)=    0.4830949903
 Iter  73:  RMS(Cart)=    0.0552552945 RMS(Int)=    0.4790226260
 Iter  74:  RMS(Cart)=    0.0548285997 RMS(Int)=    0.4749888444
 Iter  75:  RMS(Cart)=    0.0544444529 RMS(Int)=    0.4709938378
 Iter  76:  RMS(Cart)=    0.0540981536 RMS(Int)=    0.4670377340
 Iter  77:  RMS(Cart)=    0.0537855656 RMS(Int)=    0.4631206009
 Iter  78:  RMS(Cart)=    0.0535030440 RMS(Int)=    0.4592424512
 Iter  79:  RMS(Cart)=    0.0532473718 RMS(Int)=    0.4554032468
 Iter  80:  RMS(Cart)=    0.0530157068 RMS(Int)=    0.4516029029
 Iter  81:  RMS(Cart)=    0.0528055343 RMS(Int)=    0.4478412913
 Iter  82:  RMS(Cart)=    0.0526146271 RMS(Int)=    0.4441182445
 Iter  83:  RMS(Cart)=    0.0524410103 RMS(Int)=    0.4404335588
 Iter  84:  RMS(Cart)=    0.0522829310 RMS(Int)=    0.4367869975
 Iter  85:  RMS(Cart)=    0.0521388312 RMS(Int)=    0.4331782941
 Iter  86:  RMS(Cart)=    0.0520073254 RMS(Int)=    0.4296071547
 Iter  87:  RMS(Cart)=    0.0518871794 RMS(Int)=    0.4260732614
 Iter  88:  RMS(Cart)=    0.0517772930 RMS(Int)=    0.4225762738
 Iter  89:  RMS(Cart)=    0.0516766842 RMS(Int)=    0.4191158323
 Iter  90:  RMS(Cart)=    0.0515844756 RMS(Int)=    0.4156915597
 Iter  91:  RMS(Cart)=    0.0514998824 RMS(Int)=    0.4123030634
 Iter  92:  RMS(Cart)=    0.0514222017 RMS(Int)=    0.4089499373
 Iter  93:  RMS(Cart)=    0.0513508033 RMS(Int)=    0.4056317637
 Iter  94:  RMS(Cart)=    0.0512851214 RMS(Int)=    0.4023481145
 Iter  95:  RMS(Cart)=    0.0512246476 RMS(Int)=    0.3990985535
 Iter  96:  RMS(Cart)=    0.0511689244 RMS(Int)=    0.3958826370
 Iter  97:  RMS(Cart)=    0.0511175396 RMS(Int)=    0.3926999155
 Iter  98:  RMS(Cart)=    0.0510701215 RMS(Int)=    0.3895499349
 Iter  99:  RMS(Cart)=    0.0510263342 RMS(Int)=    0.3864322376
 RMS(Cart) too big - taking linear step, building new B-matrix and trying again
Decreasing the constraint accuracy, check your results carefully!
Imposing constraints:
 Iter   0:  RMS(Cart)=    0.5582971996 RMS(Int)=    1.5795632360
 Iter   1:  RMS(Cart)=    0.2845528710 RMS(Int)=    1.5317717828
 Iter   2:  RMS(Cart)=    0.1405691880 RMS(Int)=    1.4868760229
 Iter   3:  RMS(Cart)=    0.0874853520 RMS(Int)=    1.4431211672
 Iter   4:  RMS(Cart)=    0.0931529589 RMS(Int)=    1.3999419025
 Iter   5:  RMS(Cart)=    0.1107529059 RMS(Int)=    1.3572933601
 Iter   6:  RMS(Cart)=    0.1246866115 RMS(Int)=    1.3153450979
 Iter   7:  RMS(Cart)=    0.1340030809 RMS(Int)=    1.2743347757
 Iter   8:  RMS(Cart)=    0.1399043443 RMS(Int)=    1.2344967945
 Iter   9:  RMS(Cart)=    0.1435216462 RMS(Int)=    1.1960294336
 Iter  10:  RMS(Cart)=    0.1456594217 RMS(Int)=    1.1590828933
 Iter  11:  RMS(Cart)=    0.1468503736 RMS(Int)=    1.1237586565
 Iter  12:  RMS(Cart)=    0.1474385292 RMS(Int)=    1.0901145166
 Iter  13:  RMS(Cart)=    0.1476439297 RMS(Int)=    1.0581718904
 Iter  14:  RMS(Cart)=    0.1476068454 RMS(Int)=    1.0279234774
 Iter  15:  RMS(Cart)=    0.1474166618 RMS(Int)=    0.9993402663
 Iter  16:  RMS(Cart)=    0.1471304055 RMS(Int)=    0.9723774729
 Iter  17:  RMS(Cart)=    0.1467845340 RMS(Int)=    0.9469793296
 Iter  18:  RMS(Cart)=    0.1464024163 RMS(Int)=    0.9230828200
 Iter  19:  RMS(Cart)=    0.1459990775 RMS(Int)=    0.9006205197
 Iter  20:  RMS(Cart)=    0.1455842115 RMS(Int)=    0.8795227182
 Iter  21:  RMS(Cart)=    0.1451640963 RMS(Int)=    0.8597189816
 Iter  22:  RMS(Cart)=    0.1447428151 RMS(Int)=    0.8411392878
 Iter  23:  RMS(Cart)=    0.1443230356 RMS(Int)=    0.8237148432
 Iter  24:  RMS(Cart)=    0.1439065099 RMS(Int)=    0.8073786583
 Iter  25:  RMS(Cart)=    0.1434943948 RMS(Int)=    0.7920659482
 Iter  26:  RMS(Cart)=    0.1430874580 RMS(Int)=    0.7777143993
 Iter  27:  RMS(Cart)=    0.1426862114 RMS(Int)=    0.7642643395
 Iter  28:  RMS(Cart)=    0.1422909975 RMS(Int)=    0.7516588345
 Iter  29:  RMS(Cart)=    0.1419020449 RMS(Int)=    0.7398437296
 Iter  30:  RMS(Cart)=    0.1415195052 RMS(Int)=    0.7287676503
 Iter  31:  RMS(Cart)=    0.1411434767 RMS(Int)=    0.7183819722
 Iter  32:  RMS(Cart)=    0.1407740201 RMS(Int)=    0.7086407673
 Iter  33:  RMS(Cart)=    0.1404111689 RMS(Int)=    0.6995007343
 Iter  34:  RMS(Cart)=    0.1400549364 RMS(Int)=    0.6909211146
 Iter  35:  RMS(Cart)=    0.1397053203 RMS(Int)=    0.6828636003
 Iter  36:  RMS(Cart)=    0.1393623061 RMS(Int)=    0.6752922359
 Iter  37:  RMS(Cart)=    0.1390258689 RMS(Int)=    0.6681733159
 Iter  38:  RMS(Cart)=    0.1386959757 RMS(Int)=    0.6614752793
 Iter  39:  RMS(Cart)=    0.1383725860 RMS(Int)=    0.6551686052
 Iter  40:  RMS(Cart)=    0.1380556531 RMS(Int)=    0.6492257066
 Iter  41:  RMS(Cart)=    0.1377451245 RMS(Int)=    0.6436208273
 Iter  42:  RMS(Cart)=    0.1374409427 RMS(Int)=    0.6383299400
 Iter  43:  RMS(Cart)=    0.1371430459 RMS(Int)=    0.6333306466
 Iter  44:  RMS(Cart)=    0.1297046562 RMS(Int)=    0.6283724813
 Iter  45:  RMS(Cart)=    0.1174012312 RMS(Int)=    0.6232561174
 Iter  46:  RMS(Cart)=    0.1073845138 RMS(Int)=    0.6180191017
 Iter  47:  RMS(Cart)=    0.0991332211 RMS(Int)=    0.6126907168
 Iter  48:  RMS(Cart)=    0.0922692628 RMS(Int)=    0.6072939512
 Iter  49:  RMS(Cart)=    0.0865126637 RMS(Int)=    0.6018470603
 Iter  50:  RMS(Cart)=    0.0816520082 RMS(Int)=    0.5963647449
 Iter  51:  RMS(Cart)=    0.0775247140 RMS(Int)=    0.5908590204
 Iter  52:  RMS(Cart)=    0.0740036366 RMS(Int)=    0.5853398525
 Iter  53:  RMS(Cart)=    0.0709878239 RMS(Int)=    0.5798156202
 Iter  54:  RMS(Cart)=    0.0683960320 RMS(Int)=    0.5742934539
 Iter  55:  RMS(Cart)=    0.0661621033 RMS(Int)=    0.5687794846
 Iter  56:  RMS(Cart)=    0.0642316206 RMS(Int)=    0.5632790280
 Iter  57:  RMS(Cart)=    0.0625594433 RMS(Int)=    0.5577967233
 Iter  58:  RMS(Cart)=    0.0611078618 RMS(Int)=    0.5523366387
 Iter  59:  RMS(Cart)=    0.0598451940 RMS(Int)=    0.5469023533
 Iter  60:  RMS(Cart)=    0.0587446965 RMS(Int)=    0.5414970216
 Iter  61:  RMS(Cart)=    0.0577837099 RMS(Int)=    0.5361234248
 Iter  62:  RMS(Cart)=    0.0569429753 RMS(Int)=    0.5307840140
 Iter  63:  RMS(Cart)=    0.0562060828 RMS(Int)=    0.5254809449
 Iter  64:  RMS(Cart)=    0.0555590198 RMS(Int)=    0.5202161080
 Iter  65:  RMS(Cart)=    0.0549897988 RMS(Int)=    0.5149911547
 Iter  66:  RMS(Cart)=    0.0544881474 RMS(Int)=    0.5098075194
 Iter  67:  RMS(Cart)=    0.0540452501 RMS(Int)=    0.5046664400
 Iter  68:  RMS(Cart)=    0.0536535300 RMS(Int)=    0.4995689753
 Iter  69:  RMS(Cart)=    0.0533064661 RMS(Int)=    0.4945160212
 Iter  70:  RMS(Cart)=    0.0529984379 RMS(Int)=    0.4895083250
 Iter  71:  RMS(Cart)=    0.0527245941 RMS(Int)=    0.4845464989
 Iter  72:  RMS(Cart)=    0.0524807412 RMS(Int)=    0.4796310316
 Iter  73:  RMS(Cart)=    0.0522632491 RMS(Int)=    0.4747622995
 Iter  74:  RMS(Cart)=    0.0520689702 RMS(Int)=    0.4699405768
 Iter  75:  RMS(Cart)=    0.0518951709 RMS(Int)=    0.4651660447
 Iter  76:  RMS(Cart)=    0.0517394735 RMS(Int)=    0.4604387998
 Iter  77:  RMS(Cart)=    0.0515998062 RMS(Int)=    0.4557588624
 Iter  78:  RMS(Cart)=    0.0514743606 RMS(Int)=    0.4511261830
 Iter  79:  RMS(Cart)=    0.0513615554 RMS(Int)=    0.4465406495
 Iter  80:  RMS(Cart)=    0.0512600055 RMS(Int)=    0.4420020931
 Iter  81:  RMS(Cart)=    0.0511684953 RMS(Int)=    0.4375102939
 Iter  82:  RMS(Cart)=    0.0510859561 RMS(Int)=    0.4330649864
 Iter  83:  RMS(Cart)=    0.0510114465 RMS(Int)=    0.4286658639
 Iter  84:  RMS(Cart)=    0.0509441358 RMS(Int)=    0.4243125829
 Iter  85:  RMS(Cart)=    0.0508832894 RMS(Int)=    0.4200047676
 Iter  86:  RMS(Cart)=    0.0508282568 RMS(Int)=    0.4157420131
 Iter  87:  RMS(Cart)=    0.0507784606 RMS(Int)=    0.4115238893
 Iter  88:  RMS(Cart)=    0.0507333874 RMS(Int)=    0.4073499436
 Iter  89:  RMS(Cart)=    0.0506925801 RMS(Int)=    0.4032197041
 Iter  90:  RMS(Cart)=    0.0506556308 RMS(Int)=    0.3991326819
 Iter  91:  RMS(Cart)=    0.0506221748 RMS(Int)=    0.3950883741
 Iter  92:  RMS(Cart)=    0.0505918856 RMS(Int)=    0.3910862654
 Iter  93:  RMS(Cart)=    0.0505644706 RMS(Int)=    0.3871258307
 Iter  94:  RMS(Cart)=    0.0505396668 RMS(Int)=    0.3832065364
 Iter  95:  RMS(Cart)=    0.0505172374 RMS(Int)=    0.3793278424
 Iter  96:  RMS(Cart)=    0.0504969695 RMS(Int)=    0.3754892037
 Iter  97:  RMS(Cart)=    0.0504786705 RMS(Int)=    0.3716900718
 Iter  98:  RMS(Cart)=    0.0504621668 RMS(Int)=    0.3679298956
 Iter  99:  RMS(Cart)=    0.0504473009 RMS(Int)=    0.3642081230
 RMS(Cart) too big - taking linear step, building new B-matrix and trying again
Imposing constraints:
 Iter   0:  RMS(Cart)=    0.2819761862 RMS(Int)=    1.5314976466
 Iter   1:  RMS(Cart)=    0.1371382229 RMS(Int)=    1.4859353574
 Iter   2:  RMS(Cart)=    0.0886669871 RMS(Int)=    1.4414551442
 Iter   3:  RMS(Cart)=    0.0980057066 RMS(Int)=    1.3976200424
 Iter   4:  RMS(Cart)=    0.1159153797 RMS(Int)=    1.3544398727
 Iter   5:  RMS(Cart)=    0.1291834049 RMS(Int)=    1.3120999602
 Iter   6:  RMS(Cart)=    0.1377122574 RMS(Int)=    1.2708304249
 Iter   7:  RMS(Cart)=    0.1429449746 RMS(Int)=    1.2308456249
 Iter   8:  RMS(Cart)=    0.1460677434 RMS(Int)=    1.1923192268
 Iter   9:  RMS(Cart)=    0.1478765479 RMS(Int)=    1.1553774633
 Iter  10:  RMS(Cart)=    0.1488757507 RMS(Int)=    1.1201013246
 Iter  11:  RMS(Cart)=    0.1493782146 RMS(Int)=    1.0865326397
 Iter  12:  RMS(Cart)=    0.1495763861 RMS(Int)=    1.0546813231
 Iter  13:  RMS(Cart)=    0.1495883066 RMS(Int)=    1.0245323953
 Iter  14:  RMS(Cart)=    0.1494863759 RMS(Int)=    0.9960521506
 Iter  15:  RMS(Cart)=    0.1493150679 RMS(Int)=    0.9691932741
 Iter  16:  RMS(Cart)=    0.1491017715 RMS(Int)=    0.9438989332
 Iter  17:  RMS(Cart)=    0.1488634095 RMS(Int)=    0.9201059646
 Iter  18:  RMS(Cart)=    0.1486104802 RMS(Int)=    0.8977473145
 Iter  19:  RMS(Cart)=    0.1483495271 RMS(Int)=    0.8767538808
 Iter  20:  RMS(Cart)=    0.1480846524 RMS(Int)=    0.8570558912
 Iter  21:  RMS(Cart)=    0.1478184458 RMS(Int)=    0.8385839242
 Iter  22:  RMS(Cart)=    0.1475525562 RMS(Int)=    0.8212696588
 Iter  23:  RMS(Cart)=    0.1472880451 RMS(Int)=    0.8050464196
 Iter  24:  RMS(Cart)=    0.1470256052 RMS(Int)=    0.7898495662
 Iter  25:  RMS(Cart)=    0.1467656963 RMS(Int)=    0.7756167655
 Iter  26:  RMS(Cart)=    0.1465086299 RMS(Int)=    0.7622881740
 Iter  27:  RMS(Cart)=    0.1462546224 RMS(Int)=    0.7498065524
 Iter  28:  RMS(Cart)=    0.1460038279 RMS(Int)=    0.7381173273
 Iter  29:  RMS(Cart)=    0.1457563596 RMS(Int)=    0.7271686129
 Iter  30:  RMS(Cart)=    0.1455123028 RMS(Int)=    0.7169112005
 Iter  31:  RMS(Cart)=    0.1452717232 RMS(Int)=    0.7072985249
 Iter  32:  RMS(Cart)=    0.1450346728 RMS(Int)=    0.6982866112
 Iter  33:  RMS(Cart)=    0.1448011927 RMS(Int)=    0.6898340073
 Iter  34:  RMS(Cart)=    0.1445713159 RMS(Int)=    0.6819017059
 Iter  35:  RMS(Cart)=    0.1443450685 RMS(Int)=    0.6744530575
 Iter  36:  RMS(Cart)=    0.1441224708 RMS(Int)=    0.6674536783
 Iter  37:  RMS(Cart)=    0.1439035381 RMS(Int)=    0.6608713537
 Iter  38:  RMS(Cart)=    0.1436882809 RMS(Int)=    0.6546759395
 Iter  39:  RMS(Cart)=    0.1434767056 RMS(Int)=    0.6488392619
 Iter  40:  RMS(Cart)=    0.1392959812 RMS(Int)=    0.6432196064
 Iter  41:  RMS(Cart)=    0.1247496361 RMS(Int)=    0.6374593035
 Iter  42:  RMS(Cart)=    0.1129103206 RMS(Int)=    0.6315776888
 Iter  43:  RMS(Cart)=    0.1031772067 RMS(Int)=    0.6255939431
 Iter  44:  RMS(Cart)=    0.0951116457 RMS(Int)=    0.6195259236
 Iter  45:  RMS(Cart)=    0.0883857264 RMS(Int)=    0.6133898010
 Iter  46:  RMS(Cart)=    0.0827489734 RMS(Int)=    0.6072000384
 Iter  47:  RMS(Cart)=    0.0780063196 RMS(Int)=    0.6009695046
 Iter  48:  RMS(Cart)=    0.0740032450 RMS(Int)=    0.5947096309
 Iter  49:  RMS(Cart)=    0.0706155610 RMS(Int)=    0.5884305710
 Iter  50:  RMS(Cart)=    0.0677422525 RMS(Int)=    0.5821413496
 Iter  51:  RMS(Cart)=    0.0653003643 RMS(Int)=    0.5758499942
 Iter  52:  RMS(Cart)=    0.0632212682 RMS(Int)=    0.5695636492
 Iter  53:  RMS(Cart)=    0.0614478768 RMS(Int)=    0.5632886752
 Iter  54:  RMS(Cart)=    0.0599325145 RMS(Int)=    0.5570307350
 Iter  55:  RMS(Cart)=    0.0586352566 RMS(Int)=    0.5507948672
 Iter  56:  RMS(Cart)=    0.0575226050 RMS(Int)=    0.5445855513
 Iter  57:  RMS(Cart)=    0.0565664170 RMS(Int)=    0.5384067642
 Iter  58:  RMS(Cart)=    0.0557430260 RMS(Int)=    0.5322620300
 Iter  59:  RMS(Cart)=    0.0550325143 RMS(Int)=    0.5261544643
 Iter  60:  RMS(Cart)=    0.0544181062 RMS(Int)=    0.5200868132
 Iter  61:  RMS(Cart)=    0.0538856619 RMS(Int)=    0.5140614885
 Iter  62:  RMS(Cart)=    0.0534232523 RMS(Int)=    0.5080805992
 Iter  63:  RMS(Cart)=    0.0530208035 RMS(Int)=    0.5021459795
 Iter  64:  RMS(Cart)=    0.0526697976 RMS(Int)=    0.4962592148
 Iter  65:  RMS(Cart)=    0.0523630234 RMS(Int)=    0.4904216643
 Iter  66:  RMS(Cart)=    0.0520943660 RMS(Int)=    0.4846344821
 Iter  67:  RMS(Cart)=    0.0518586317 RMS(Int)=    0.4788986366
 Iter  68:  RMS(Cart)=    0.0516514015 RMS(Int)=    0.4732149271
 Iter  69:  RMS(Cart)=    0.0514689076 RMS(Int)=    0.4675840001
 Iter  70:  RMS(Cart)=    0.0513079314 RMS(Int)=    0.4620063635
 Iter  71:  RMS(Cart)=    0.0511657172 RMS(Int)=    0.4564823997
 Iter  72:  RMS(Cart)=    0.0510399001 RMS(Int)=    0.4510123774
 Iter  73:  RMS(Cart)=    0.0509284464 RMS(Int)=    0.4455964629
 Iter  74:  RMS(Cart)=    0.0508296026 RMS(Int)=    0.4402347297
 Iter  75:  RMS(Cart)=    0.0507418534 RMS(Int)=    0.4349271677
 Iter  76:  RMS(Cart)=    0.0506638861 RMS(Int)=    0.4296736920
 Iter  77:  RMS(Cart)=    0.0505945608 RMS(Int)=    0.4244741499
 Iter  78:  RMS(Cart)=    0.0505328851 RMS(Int)=    0.4193283282
 Iter  79:  RMS(Cart)=    0.0504779933 RMS(Int)=    0.4142359595
 Iter  80:  RMS(Cart)=    0.0504291280 RMS(Int)=    0.4091967282
 Iter  81:  RMS(Cart)=    0.0503856253 RMS(Int)=    0.4042102754
 Iter  82:  RMS(Cart)=    0.0503469021 RMS(Int)=    0.3992762045
 Iter  83:  RMS(Cart)=    0.0503124448 RMS(Int)=    0.3943940848
 Iter  84:  RMS(Cart)=    0.0502818002 RMS(Int)=    0.3895634562
 Iter  85:  RMS(Cart)=    0.0502545675 RMS(Int)=    0.3847838324
 Iter  86:  RMS(Cart)=    0.0502303920 RMS(Int)=    0.3800547049
 Iter  87:  RMS(Cart)=    0.0502089587 RMS(Int)=    0.3753755456
 Iter  88:  RMS(Cart)=    0.0501899873 RMS(Int)=    0.3707458094
 Iter  89:  RMS(Cart)=    0.0501732287 RMS(Int)=    0.3661649376
 Iter  90:  RMS(Cart)=    0.0501584603 RMS(Int)=    0.3616323594
 Iter  91:  RMS(Cart)=    0.0501454835 RMS(Int)=    0.3571474944
 Iter  92:  RMS(Cart)=    0.0501341205 RMS(Int)=    0.3527097542
 Iter  93:  RMS(Cart)=    0.0501242121 RMS(Int)=    0.3483185448
 Iter  94:  RMS(Cart)=    0.0501156157 RMS(Int)=    0.3439732674
 Iter  95:  RMS(Cart)=    0.0501082030 RMS(Int)=    0.3396733203
 Iter  96:  RMS(Cart)=    0.0501018590 RMS(Int)=    0.3354180999
 Iter  97:  RMS(Cart)=    0.0500964801 RMS(Int)=    0.3312070024
 Iter  98:  RMS(Cart)=    0.0500919729 RMS(Int)=    0.3270394239
 Iter  99:  RMS(Cart)=    0.0500882534 RMS(Int)=    0.3229147625
 RMS(Cart) too big - taking linear step, building new B-matrix and trying again
Imposing constraints:
 Iter   0:  RMS(Cart)=    0.1383953980 RMS(Int)=    1.4859061111
 Iter   1:  RMS(Cart)=    0.0905845360 RMS(Int)=    1.4411820137
 Iter   2:  RMS(Cart)=    0.0999749749 RMS(Int)=    1.3969834026
 Iter   3:  RMS(Cart)=    0.1174766590 RMS(Int)=    1.3533554245
 Iter   4:  RMS(Cart)=    0.1303029570 RMS(Int)=    1.3104994011
 Iter   5:  RMS(Cart)=    0.1384630557 RMS(Int)=    1.2686549971
 Iter   6:  RMS(Cart)=    0.1434254160 RMS(Int)=    1.2280444155
 Iter   7:  RMS(Cart)=    0.1463719906 RMS(Int)=    1.1888492482
 Iter   8:  RMS(Cart)=    0.1480833231 RMS(Int)=    1.1512041945
 Iter   9:  RMS(Cart)=    0.1490460569 RMS(Int)=    1.1151991131
 Iter  10:  RMS(Cart)=    0.1495570284 RMS(Int)=    1.0808847476
 Iter  11:  RMS(Cart)=    0.1497956798 RMS(Int)=    1.0482796060
 Iter  12:  RMS(Cart)=    0.1498701337 RMS(Int)=    1.0173766911
 Iter  13:  RMS(Cart)=    0.1498455173 RMS(Int)=    0.9881494817
 Iter  14:  RMS(Cart)=    0.1497611124 RMS(Int)=    0.9605569539
 Iter  15:  RMS(Cart)=    0.1496406701 RMS(Int)=    0.9345476453
 Iter  16:  RMS(Cart)=    0.1494985987 RMS(Int)=    0.9100628636
 Iter  17:  RMS(Cart)=    0.1493436746 RMS(Int)=    0.8870391749
 Iter  18:  RMS(Cart)=    0.1491812709 RMS(Int)=    0.8654103101
 Iter  19:  RMS(Cart)=    0.1490146980 RMS(Int)=    0.8451086134
 Iter  20:  RMS(Cart)=    0.1488460116 RMS(Int)=    0.8260661353
 Iter  21:  RMS(Cart)=    0.1486765015 RMS(Int)=    0.8082154527
 Iter  22:  RMS(Cart)=    0.1485069882 RMS(Int)=    0.7914902808
 Iter  23:  RMS(Cart)=    0.1483380031 RMS(Int)=    0.7758259268
 Iter  24:  RMS(Cart)=    0.1481698984 RMS(Int)=    0.7611596214
 Iter  25:  RMS(Cart)=    0.1480029149 RMS(Int)=    0.7474307577
 Iter  26:  RMS(Cart)=    0.1478372229 RMS(Int)=    0.7345810573
 Iter  27:  RMS(Cart)=    0.1476729481 RMS(Int)=    0.7225546808
 Iter  28:  RMS(Cart)=    0.1475101873 RMS(Int)=    0.7112982940
 Iter  29:  RMS(Cart)=    0.1473490180 RMS(Int)=    0.7007610982
 Iter  30:  RMS(Cart)=    0.1471895049 RMS(Int)=    0.6908948340
 Iter  31:  RMS(Cart)=    0.1470317033 RMS(Int)=    0.6816537612
 Iter  32:  RMS(Cart)=    0.1468756618 RMS(Int)=    0.6729946214
 Iter  33:  RMS(Cart)=    0.1467214238 RMS(Int)=    0.6648765858
 Iter  34:  RMS(Cart)=    0.1465690282 RMS(Int)=    0.6572611914
 Iter  35:  RMS(Cart)=    0.1464185106 RMS(Int)=    0.6501122678
 Iter  36:  RMS(Cart)=    0.1462699030 RMS(Int)=    0.6433958571
 Iter  37:  RMS(Cart)=    0.1409773805 RMS(Int)=    0.6369453694
 Iter  38:  RMS(Cart)=    0.1252100842 RMS(Int)=    0.6304096771
 Iter  39:  RMS(Cart)=    0.1124399909 RMS(Int)=    0.6237836929
 Iter  40:  RMS(Cart)=    0.1020104324 RMS(Int)=    0.6170725708
 Iter  41:  RMS(Cart)=    0.0934384650 RMS(Int)=    0.6102862557
 Iter  42:  RMS(Cart)=    0.0863599548 RMS(Int)=    0.6034366413
 Iter  43:  RMS(Cart)=    0.0804942140 RMS(Int)=    0.5965360807
 Iter  44:  RMS(Cart)=    0.0756207045 RMS(Int)=    0.5895966162
 Iter  45:  RMS(Cart)=    0.0715633721 RMS(Int)=    0.5826295981
 Iter  46:  RMS(Cart)=    0.0681798925 RMS(Int)=    0.5756455145
 Iter  47:  RMS(Cart)=    0.0653541217 RMS(Int)=    0.5686539382
 Iter  48:  RMS(Cart)=    0.0629906586 RMS(Int)=    0.5616635346
 Iter  49:  RMS(Cart)=    0.0610108135 RMS(Int)=    0.5546821027
 Iter  50:  RMS(Cart)=    0.0593495295 RMS(Int)=    0.5477166312
 Iter  51:  RMS(Cart)=    0.0579529652 RMS(Int)=    0.5407733609
 Iter  52:  RMS(Cart)=    0.0567765503 RMS(Int)=    0.5338578475
 Iter  53:  RMS(Cart)=    0.0557833958 RMS(Int)=    0.5269750226
 Iter  54:  RMS(Cart)=    0.0549429793 RMS(Int)=    0.5201292510
 Iter  55:  RMS(Cart)=    0.0542300514 RMS(Int)=    0.5133243840
 Iter  56:  RMS(Cart)=    0.0536237240 RMS(Int)=    0.5065638079
 Iter  57:  RMS(Cart)=    0.0531067120 RMS(Int)=    0.4998504892
 Iter  58:  RMS(Cart)=    0.0526647017 RMS(Int)=    0.4931870146
 Iter  59:  RMS(Cart)=    0.0522858283 RMS(Int)=    0.4865756280
 Iter  60:  RMS(Cart)=    0.0519602438 RMS(Int)=    0.4800182643
 Iter  61:  RMS(Cart)=    0.0516797601 RMS(Int)=    0.4735165788
 Iter  62:  RMS(Cart)=    0.0514375565 RMS(Int)=    0.4670719753
 Iter  63:  RMS(Cart)=    0.0512279382 RMS(Int)=    0.4606856306
 Iter  64:  RMS(Cart)=    0.0510461394 RMS(Int)=    0.4543585165
 Iter  65:  RMS(Cart)=    0.0508881611 RMS(Int)=    0.4480914209
 Iter  66:  RMS(Cart)=    0.0507506383 RMS(Int)=    0.4418849655
 Iter  67:  RMS(Cart)=    0.0506307316 RMS(Int)=    0.4357396227
 Iter  68:  RMS(Cart)=    0.0505260380 RMS(Int)=    0.4296557305
 Iter  69:  RMS(Cart)=    0.0504345174 RMS(Int)=    0.4236335065
 Iter  70:  RMS(Cart)=    0.0503544329 RMS(Int)=    0.4176730599
 Iter  71:  RMS(Cart)=    0.0502843008 RMS(Int)=    0.4117744027
 Iter  72:  RMS(Cart)=    0.0502228503 RMS(Int)=    0.4059374603
 Iter  73:  RMS(Cart)=    0.0501689896 RMS(Int)=    0.4001620801
 Iter  74:  RMS(Cart)=    0.0501217777 RMS(Int)=    0.3944480403
 Iter  75:  RMS(Cart)=    0.0500804017 RMS(Int)=    0.3887950573
 Iter  76:  RMS(Cart)=    0.0500441573 RMS(Int)=    0.3832027923
 Iter  77:  RMS(Cart)=    0.0500124325 RMS(Int)=    0.3776708582
 Iter  78:  RMS(Cart)=    0.0499846946 RMS(Int)=    0.3721988243
 Iter  79:  RMS(Cart)=    0.0499604786 RMS(Int)=    0.3667862224
 Iter  80:  RMS(Cart)=    0.0499393775 RMS(Int)=    0.3614325505
 Iter  81:  RMS(Cart)=    0.0499210349 RMS(Int)=    0.3561372777
 Iter  82:  RMS(Cart)=    0.0499051376 RMS(Int)=    0.3508998476
 Iter  83:  RMS(Cart)=    0.0498914099 RMS(Int)=    0.3457196818
 Iter  84:  RMS(Cart)=    0.0498796091 RMS(Int)=    0.3405961832
 Iter  85:  RMS(Cart)=    0.0498695208 RMS(Int)=    0.3355287387
 Iter  86:  RMS(Cart)=    0.0498609555 RMS(Int)=    0.3305167216
 Iter  87:  RMS(Cart)=    0.0498537456 RMS(Int)=    0.3255594943
 Iter  88:  RMS(Cart)=    0.0498477424 RMS(Int)=    0.3206564099
 Iter  89:  RMS(Cart)=    0.0498428141 RMS(Int)=    0.3158068146
 Iter  90:  RMS(Cart)=    0.0498388437 RMS(Int)=    0.3110100490
 Iter  91:  RMS(Cart)=    0.0498357271 RMS(Int)=    0.3062654498
 Iter  92:  RMS(Cart)=    0.0498333717 RMS(Int)=    0.3015723512
 Iter  93:  RMS(Cart)=    0.0498316952 RMS(Int)=    0.2969300864
 Iter  94:  RMS(Cart)=    0.0498306241 RMS(Int)=    0.2923379880
 Iter  95:  RMS(Cart)=    0.0498300931 RMS(Int)=    0.2877953900
 Iter  96:  RMS(Cart)=    0.0498300438 RMS(Int)=    0.2833016278
 Iter  97:  RMS(Cart)=    0.0498304242 RMS(Int)=    0.2788560398
 Iter  98:  RMS(Cart)=    0.0498311876 RMS(Int)=    0.2744579674
 Iter  99:  RMS(Cart)=    0.0498322928 RMS(Int)=    0.2701067564
 RMS(Cart) too big - taking linear step, building new B-matrix and trying again
Imposing constraints:
 Iter   0:  RMS(Cart)=    0.0924198301 RMS(Int)=    1.4411285667
 Iter   1:  RMS(Cart)=    0.1007056004 RMS(Int)=    1.3966704978
 Iter   2:  RMS(Cart)=    0.1176085375 RMS(Int)=    1.3525913928
 Iter   3:  RMS(Cart)=    0.1300967756 RMS(Int)=    1.3091044154
 Iter   4:  RMS(Cart)=    0.1380430661 RMS(Int)=    1.2664662471
 Iter   5:  RMS(Cart)=    0.1428705076 RMS(Int)=    1.2249212779
 Iter   6:  RMS(Cart)=    0.1457393258 RMS(Int)=    1.1846763732
 Iter   7:  RMS(Cart)=    0.1474151704 RMS(Int)=    1.1458923218
 Iter   8:  RMS(Cart)=    0.1483731543 RMS(Int)=    1.1086840861
 Iter   9:  RMS(Cart)=    0.1489011853 RMS(Int)=    1.0731253530
 Iter  10:  RMS(Cart)=    0.1491719887 RMS(Int)=    1.0392548070
 Iter  11:  RMS(Cart)=    0.1492887818 RMS(Int)=    1.0070826805
 Iter  12:  RMS(Cart)=    0.1493131955 RMS(Int)=    0.9765968272
 Iter  13:  RMS(Cart)=    0.1492820651 RMS(Int)=    0.9477679882
 Iter  14:  RMS(Cart)=    0.1492174539 RMS(Int)=    0.9205541615
 Iter  15:  RMS(Cart)=    0.1491326168 RMS(Int)=    0.8949041240
 Iter  16:  RMS(Cart)=    0.1490355481 RMS(Int)=    0.8707602104
 Iter  17:  RMS(Cart)=    0.1489310923 RMS(Int)=    0.8480604772
 Iter  18:  RMS(Cart)=    0.1488222032 RMS(Int)=    0.8267403699
 Iter  19:  RMS(Cart)=    0.1487106959 RMS(Int)=    0.8067340017
 Iter  20:  RMS(Cart)=    0.1485976977 RMS(Int)=    0.7879751299
 Iter  21:  RMS(Cart)=    0.1484839184 RMS(Int)=    0.7703978996
 Iter  22:  RMS(Cart)=    0.1483698136 RMS(Int)=    0.7539374104
 Iter  23:  RMS(Cart)=    0.1482556836 RMS(Int)=    0.7385301456
 Iter  24:  RMS(Cart)=    0.1481417328 RMS(Int)=    0.7241142969
 Iter  25:  RMS(Cart)=    0.1480281062 RMS(Int)=    0.7106300069
 Iter  26:  RMS(Cart)=    0.1479149118 RMS(Int)=    0.6980195482
 Iter  27:  RMS(Cart)=    0.1478022340 RMS(Int)=    0.6862274507
 Iter  28:  RMS(Cart)=    0.1476901420 RMS(Int)=    0.6752005886
 Iter  29:  RMS(Cart)=    0.1475786949 RMS(Int)=    0.6648882337
 Iter  30:  RMS(Cart)=    0.1474679450 RMS(Int)=    0.6552420814
 Iter  31:  RMS(Cart)=    0.1473579397 RMS(Int)=    0.6462162532
 Iter  32:  RMS(Cart)=    0.1472487227 RMS(Int)=    0.6377672803
 Iter  33:  RMS(Cart)=    0.1471403347 RMS(Int)=    0.6298540709
 Iter  34:  RMS(Cart)=    0.1460361965 RMS(Int)=    0.6224156377
 Iter  35:  RMS(Cart)=    0.1280097569 RMS(Int)=    0.6149888661
 Iter  36:  RMS(Cart)=    0.1136058055 RMS(Int)=    0.6075303151
 Iter  37:  RMS(Cart)=    0.1020043258 RMS(Int)=    0.6000237520
 Iter  38:  RMS(Cart)=    0.0926071161 RMS(Int)=    0.5924671194
 Iter  39:  RMS(Cart)=    0.0849656756 RMS(Int)=    0.5848656088
 Iter  40:  RMS(Cart)=    0.0787356490 RMS(Int)=    0.5772279034
 Iter  41:  RMS(Cart)=    0.0736473396 RMS(Int)=    0.5695641175
 Iter  42:  RMS(Cart)=    0.0694861955 RMS(Int)=    0.5618846675
 Iter  43:  RMS(Cart)=    0.0660795887 RMS(Int)=    0.5541996636
 Iter  44:  RMS(Cart)=    0.0632876000 RMS(Int)=    0.5465185966
 Iter  45:  RMS(Cart)=    0.0609963682 RMS(Int)=    0.5388501935
 Iter  46:  RMS(Cart)=    0.0591131024 RMS(Int)=    0.5312023690
 Iter  47:  RMS(Cart)=    0.0575622010 RMS(Int)=    0.5235822313
 Iter  48:  RMS(Cart)=    0.0562821393 RMS(Int)=    0.5159961164
 Iter  49:  RMS(Cart)=    0.0552229240 RMS(Int)=    0.5084496389
 Iter  50:  RMS(Cart)=    0.0543439900 RMS(Int)=    0.5009477469
 Iter  51:  RMS(Cart)=    0.0536124570 RMS(Int)=    0.4934947808
 Iter  52:  RMS(Cart)=    0.0530016884 RMS(Int)=    0.4860945284
 Iter  53:  RMS(Cart)=    0.0524901047 RMS(Int)=    0.4787502792
 Iter  54:  RMS(Cart)=    0.0520602117 RMS(Int)=    0.4714648731
 Iter  55:  RMS(Cart)=    0.0516978104 RMS(Int)=    0.4642407465
 Iter  56:  RMS(Cart)=    0.0513913556 RMS(Int)=    0.4570799741
 Iter  57:  RMS(Cart)=    0.0511314393 RMS(Int)=    0.4499843062
 Iter  58:  RMS(Cart)=    0.0509103751 RMS(Int)=    0.4429552033
 Iter  59:  RMS(Cart)=    0.0507218640 RMS(Int)=    0.4359938669
 Iter  60:  RMS(Cart)=    0.0505607279 RMS(Int)=    0.4291012670
 Iter  61:  RMS(Cart)=    0.0504226948 RMS(Int)=    0.4222781671
 Iter  62:  RMS(Cart)=    0.0503042277 RMS(Int)=    0.4155251466
 Iter  63:  RMS(Cart)=    0.0502023873 RMS(Int)=    0.4088426210
 Iter  64:  RMS(Cart)=    0.0501147215 RMS(Int)=    0.4022308595
 Iter  65:  RMS(Cart)=    0.0500391771 RMS(Int)=    0.3956900013
 Iter  66:  RMS(Cart)=    0.0499740285 RMS(Int)=    0.3892200702
 Iter  67:  RMS(Cart)=    0.0499178197 RMS(Int)=    0.3828209872
 Iter  68:  RMS(Cart)=    0.0498693182 RMS(Int)=    0.3764925822
 Iter  69:  RMS(Cart)=    0.0498274770 RMS(Int)=    0.3702346043
 Iter  70:  RMS(Cart)=    0.0497914035 RMS(Int)=    0.3640467312
 Iter  71:  RMS(Cart)=    0.0497603345 RMS(Int)=    0.3579285775
 Iter  72:  RMS(Cart)=    0.0497336158 RMS(Int)=    0.3518797018
 Iter  73:  RMS(Cart)=    0.0497106846 RMS(Int)=    0.3458996141
 Iter  74:  RMS(Cart)=    0.0496910557 RMS(Int)=    0.3399877809
 Iter  75:  RMS(Cart)=    0.0496743100 RMS(Int)=    0.3341436313
 Iter  76:  RMS(Cart)=    0.0496600844 RMS(Int)=    0.3283665614
 Iter  77:  RMS(Cart)=    0.0496480637 RMS(Int)=    0.3226559389
[...]
      py      :     0.020230
 37 O s       :     3.436915  s :     3.436915
      pz      :     1.632516  p :     4.483002
      px      :     1.293413
      py      :     1.557073
      dz2     :     0.004206  d :     0.036717
      dxz     :     0.006585
      dyz     :     0.003501
      dx2y2   :     0.010978
      dxy     :     0.011447
 38 C s       :     2.855961  s :     2.855961
      pz      :     1.064341  p :     2.975226
      px      :     0.874795
      py      :     1.036089
      dz2     :     0.011363  d :     0.155057
      dxz     :     0.019848
      dyz     :     0.018915
      dx2y2   :     0.049376
      dxy     :     0.055556
 39 C s       :     2.876914  s :     2.876914
      pz      :     1.026379  p :     3.101988
      px      :     1.037702
      py      :     1.037907
      dz2     :     0.006294  d :     0.084578
      dxz     :     0.008983
      dyz     :     0.010146
      dx2y2   :     0.034422
      dxy     :     0.024733
 40 C s       :     2.877311  s :     2.877311
      pz      :     1.029245  p :     3.112352
      px      :     1.036393
      py      :     1.046714
      dz2     :     0.006397  d :     0.085980
      dxz     :     0.012207
      dyz     :     0.007281
      dx2y2   :     0.028808
      dxy     :     0.031287
 41 H s       :     0.892988  s :     0.892988
      pz      :     0.016386  p :     0.071298
      px      :     0.029613
      py      :     0.025300
 42 C s       :     2.886411  s :     2.886411
      pz      :     1.021799  p :     2.928191
      px      :     0.963094
      py      :     0.943298
      dz2     :     0.010003  d :     0.137410
      dxz     :     0.008200
      dyz     :     0.022998
      dx2y2   :     0.040152
      dxy     :     0.056056
 43 H s       :     0.891210  s :     0.891210
      pz      :     0.015271  p :     0.068278
      px      :     0.016589
      py      :     0.036417
 44 O s       :     3.442139  s :     3.442139
      pz      :     1.607615  p :     4.474546
      px      :     1.270701
      py      :     1.596229
      dz2     :     0.004109  d :     0.037351
      dxz     :     0.007336
      dyz     :     0.003227
      dx2y2   :     0.008266
      dxy     :     0.014413
 45 H s       :     0.894330  s :     0.894330
      pz      :     0.016344  p :     0.069852
      px      :     0.042676
      py      :     0.010831
 46 C s       :     2.841441  s :     2.841441
      pz      :     0.972313  p :     2.979783
      px      :     0.945749
      py      :     1.061721
      dz2     :     0.009446  d :     0.141818
      dxz     :     0.026126
      dyz     :     0.018302
      dx2y2   :     0.048811
      dxy     :     0.039134
 47 C s       :     2.851006  s :     2.851006
      pz      :     1.109337  p :     3.163811
      px      :     1.033825
      py      :     1.020649
      dz2     :     0.008619  d :     0.101642
      dxz     :     0.011294
      dyz     :     0.012113
      dx2y2   :     0.029115
      dxy     :     0.040500
 48 C s       :     2.854247  s :     2.854247
      pz      :     1.091233  p :     3.162169
      px      :     1.028592
      py      :     1.042344
      dz2     :     0.008703  d :     0.104981
      dxz     :     0.011129
      dyz     :     0.013881
      dx2y2   :     0.029208
      dxy     :     0.042060
 49 C s       :     2.844365  s :     2.844365
      pz      :     0.891453  p :     2.842744
      px      :     1.018873
      py      :     0.932418
      dz2     :     0.013992  d :     0.248711
      dxz     :     0.044147
      dyz     :     0.016419
      dx2y2   :     0.066854
      dxy     :     0.107300
 50 N s       :     3.091578  s :     3.091578
      pz      :     1.516896  p :     3.850877
      px      :     1.155321
      py      :     1.178660
      dz2     :     0.005081  d :     0.063470
      dxz     :     0.007995
      dyz     :     0.006063
      dx2y2   :     0.024053
      dxy     :     0.020278
 51 C s       :     2.842709  s :     2.842709
      pz      :     1.073892  p :     3.055466
      px      :     1.033084
      py      :     0.948490
      dz2     :     0.015925  d :     0.093922
      dxz     :     0.004688
      dyz     :     0.032500
      dx2y2   :     0.016428
      dxy     :     0.024380
 52 H s       :     0.905535  s :     0.905535
      pz      :     0.031849  p :     0.064129
      px      :     0.012693
      py      :     0.019587
 53 H s       :     0.905531  s :     0.905531
      pz      :     0.032304  p :     0.064145
      px      :     0.012734
      py      :     0.019107
 54 H s       :     0.886530  s :     0.886530
      pz      :     0.011844  p :     0.069219
      px      :     0.040934
      py      :     0.016441
 55 C s       :     2.845237  s :     2.845237
      pz      :     0.906427  p :     2.848431
      px      :     1.010858
      py      :     0.931145
      dz2     :     0.013818  d :     0.244236
      dxz     :     0.044307
      dyz     :     0.015234
      dx2y2   :     0.064444
      dxy     :     0.106432
 56 C s       :     2.868954  s :     2.868954
      pz      :     0.960664  p :     2.950661
      px      :     0.929005
      py      :     1.060993
      dz2     :     0.007840  d :     0.119229
      dxz     :     0.021443
      dyz     :     0.010785
      dx2y2   :     0.045865
      dxy     :     0.033296
 57 N s       :     3.097089  s :     3.097089
      pz      :     1.486031  p :     3.835906
      px      :     1.172634
      py      :     1.177241
      dz2     :     0.005037  d :     0.064904
      dxz     :     0.008790
      dyz     :     0.006108
      dx2y2   :     0.023624
      dxy     :     0.021346
 58 H s       :     0.894329  s :     0.894329
      pz      :     0.014525  p :     0.069174
      px      :     0.021867
      py      :     0.032781
 59 O s       :     3.553374  s :     3.553374
      pz      :     1.421736  p :     4.595040
      px      :     1.442073
      py      :     1.731231
      dz2     :     0.004005  d :     0.029098
      dxz     :     0.006764
      dyz     :     0.000131
      dx2y2   :     0.012044
      dxy     :     0.006154
 60 O s       :     3.554757  s :     3.554757
      pz      :     1.410232  p :     4.588013
      px      :     1.451137
      py      :     1.726644
      dz2     :     0.004175  d :     0.029931
      dxz     :     0.006806
      dyz     :     0.000199
      dx2y2   :     0.012066
      dxy     :     0.006686
 61 C s       :     2.843681  s :     2.843681
      pz      :     1.077423  p :     3.054116
      px      :     1.037523
      py      :     0.939170
      dz2     :     0.015893  d :     0.092581
      dxz     :     0.004557
      dyz     :     0.031481
      dx2y2   :     0.017549
      dxy     :     0.023101
 62 H s       :     0.888608  s :     0.888608
      pz      :     0.012013  p :     0.068838
      px      :     0.041648
      py      :     0.015177
 63 H s       :     0.903954  s :     0.903954
      pz      :     0.031315  p :     0.063629
      px      :     0.013017
      py      :     0.019298
 64 H s       :     0.904062  s :     0.904062
      pz      :     0.031968  p :     0.063574
      px      :     0.012672
      py      :     0.018934
 65 O s       :     3.555158  s :     3.555158
      pz      :     1.410356  p :     4.586009
      px      :     1.447413
      py      :     1.728239
      dz2     :     0.004183  d :     0.029949
      dxz     :     0.006982
      dyz     :     0.000049
      dx2y2   :     0.012670
      dxy     :     0.006066


                      *****************************
                      * MAYER POPULATION ANALYSIS *
                      *****************************

  NA   - Mulliken gross atomic population
  ZA   - Total nuclear charge
  QA   - Mulliken gross atomic charge
  VA   - Mayer's total valence
  BVA  - Mayer's bonded valence
  FA   - Mayer's free valence

  ATOM       NA         ZA         QA         VA         BVA        FA
  0 C      5.8724     6.0000     0.1276     3.7115     3.7115    -0.0000
  1 C      6.0383     6.0000    -0.0383     3.7259     3.7259    -0.0000
  2 C      6.0373     6.0000    -0.0373     3.7339     3.7339    -0.0000
  3 C      5.8566     6.0000     0.1434     4.0907     4.0907     0.0000
  4 N      7.2841     7.0000    -0.2841     3.3533     3.3533    -0.0000
  5 O      8.1705     8.0000    -0.1705     2.3889     2.3889    -0.0000
  6 C      5.8948     6.0000     0.1052     3.6960     3.6960     0.0000
  7 C      5.8689     6.0000     0.1311     4.1364     4.1364    -0.0000
  8 N      7.2817     7.0000    -0.2817     3.3423     3.3423    -0.0000
  9 C      5.9471     6.0000     0.0529     3.9168     3.9168     0.0000
 10 H      0.9313     1.0000     0.0687     1.0346     1.0346    -0.0000
 11 H      0.9462     1.0000     0.0538     0.9865     0.9865    -0.0000
 12 H      0.9462     1.0000     0.0538     0.9865     0.9865    -0.0000
 13 C      5.9473     6.0000     0.0527     3.9156     3.9156    -0.0000
 14 H      0.9316     1.0000     0.0684     1.0343     1.0343     0.0000
 15 H      0.9477     1.0000     0.0523     0.9866     0.9866    -0.0000
 16 H      0.9477     1.0000     0.0523     0.9866     0.9866    -0.0000
 17 C      5.8719     6.0000     0.1281     3.7938     3.7938    -0.0000
 18 C      6.0917     6.0000    -0.0917     3.7363     3.7363    -0.0000
 19 C      6.0698     6.0000    -0.0698     3.7348     3.7348     0.0000
 20 H      0.9986     1.0000     0.0014     1.0076     1.0076    -0.0000
 21 C      5.7939     6.0000     0.2061     3.9030     3.9030     0.0000
 22 H      0.9881     1.0000     0.0119     0.9947     0.9947    -0.0000
 23 O      8.1660     8.0000    -0.1660     2.4526     2.4526    -0.0000
 24 C      6.1202     6.0000    -0.1202     3.7931     3.7931     0.0000
 25 C      5.9855     6.0000     0.0145     3.8062     3.8062    -0.0000
 26 C      5.9832     6.0000     0.0168     3.8046     3.8046     0.0000
 27 H      0.9632     1.0000     0.0368     1.0532     1.0532    -0.0000
 28 C      6.1224     6.0000    -0.1224     3.7925     3.7925    -0.0000
 29 H      0.9632     1.0000     0.0368     1.0528     1.0528    -0.0000
 30 S     15.8676    16.0000     0.1324     2.4795     2.4795     0.0000
 31 C      5.7920     6.0000     0.2080     3.9030     3.9030    -0.0000
 32 C      6.0711     6.0000    -0.0711     3.7359     3.7359     0.0000
 33 C      6.0885     6.0000    -0.0885     3.7370     3.7370    -0.0000
 34 H      0.9873     1.0000     0.0127     0.9948     0.9948     0.0000
 35 C      5.8744     6.0000     0.1256     3.7984     3.7984     0.0000
 36 H      0.9975     1.0000     0.0025     1.0072     1.0072    -0.0000
 37 O      8.1660     8.0000    -0.1660     2.4528     2.4528     0.0000
 38 C      5.9239     6.0000     0.0761     3.8294     3.8294     0.0000
 39 C      6.0892     6.0000    -0.0892     3.7805     3.7805    -0.0000
 40 C      6.0197     6.0000    -0.0197     3.7606     3.7606    -0.0000
 41 H      0.9991     1.0000     0.0009     1.0092     1.0092    -0.0000
 42 C      5.8722     6.0000     0.1278     3.8101     3.8101     0.0000
 43 H      0.9806     1.0000     0.0194     0.9901     0.9901     0.0000
 44 O      8.1502     8.0000    -0.1502     2.4725     2.4725    -0.0000
 45 H      0.9576     1.0000     0.0424     0.9956     0.9956     0.0000
 46 C      5.8842     6.0000     0.1158     3.7121     3.7121    -0.0000
 47 C      6.0559     6.0000    -0.0559     3.7499     3.7499     0.0000
 48 C      6.0186     6.0000    -0.0186     3.7440     3.7440     0.0000
 49 C      5.8478     6.0000     0.1522     4.1298     4.1298     0.0000
 50 N      7.2827     7.0000    -0.2827     3.3316     3.3316    -0.0000
 51 C      5.9479     6.0000     0.0521     3.9169     3.9169    -0.0000
 52 H      0.9469     1.0000     0.0531     0.9865     0.9865    -0.0000
 53 H      0.9470     1.0000     0.0530     0.9866     0.9866    -0.0000
 54 H      0.9312     1.0000     0.0688     1.0328     1.0328    -0.0000
 55 C      5.8499     6.0000     0.1501     4.0886     4.0886    -0.0000
 56 C      5.9643     6.0000     0.0357     3.7584     3.7584     0.0000
 57 N      7.2685     7.0000    -0.2685     3.3620     3.3620    -0.0000
 58 H      0.9695     1.0000     0.0305     0.9957     0.9957     0.0000
 59 O      8.1703     8.0000    -0.1703     2.3865     2.3865     0.0000
 60 O      8.1715     8.0000    -0.1715     2.3938     2.3938    -0.0000
 61 C      5.9455     6.0000     0.0545     3.9075     3.9075    -0.0000
 62 H      0.9313     1.0000     0.0687     1.0327     1.0327    -0.0000
 63 H      0.9494     1.0000     0.0506     0.9872     0.9872     0.0000
 64 H      0.9487     1.0000     0.0513     0.9869     0.9869    -0.0000
 65 O      8.1644     8.0000    -0.1644     2.4046     2.4046    -0.0000

  Mayer bond orders larger than 0.100000
B(  0-C ,  1-C ) :   1.2736 B(  0-C ,  4-N ) :   1.2033 B(  0-C , 38-C ) :   1.1065 
B(  1-C ,  2-C ) :   1.2670 B(  1-C ,  7-C ) :   1.0018 B(  2-C ,  3-C ) :   1.0189 
B(  2-C ,  6-C ) :   1.2569 B(  3-C ,  4-N ) :   0.9688 B(  3-C ,  5-O ) :   2.0203 
B(  4-N ,  9-C ) :   0.9891 B(  6-C ,  8-N ) :   1.2082 B(  6-C , 17-C ) :   1.1072 
B(  7-C ,  8-N ) :   0.9523 B(  7-C , 65-O ) :   2.1114 B(  8-N , 13-C ) :   0.9899 
B(  9-C , 10-H ) :   0.9333 B(  9-C , 11-H ) :   0.9590 B(  9-C , 12-H ) :   0.9590 
B( 13-C , 14-H ) :   0.9348 B( 13-C , 15-H ) :   0.9596 B( 13-C , 16-H ) :   0.9596 
B( 17-C , 18-C ) :   1.3528 B( 17-C , 21-C ) :   0.1290 B( 17-C , 23-O ) :   1.1564 
B( 18-C , 19-C ) :   1.2412 B( 18-C , 20-H ) :   0.9984 B( 19-C , 21-C ) :   1.3793 
B( 19-C , 22-H ) :   0.9862 B( 21-C , 23-O ) :   1.1734 B( 21-C , 24-C ) :   1.1508 
B( 24-C , 25-C ) :   1.3987 B( 24-C , 28-C ) :   0.1083 B( 24-C , 30-S ) :   1.1080 
B( 25-C , 26-C ) :   1.2543 B( 25-C , 27-H ) :   0.9691 B( 26-C , 28-C ) :   1.3986 
B( 26-C , 29-H ) :   0.9691 B( 28-C , 30-S ) :   1.1066 B( 28-C , 31-C ) :   1.1511 
B( 31-C , 32-C ) :   1.3777 B( 31-C , 35-C ) :   0.1288 B( 31-C , 37-O ) :   1.1759 
B( 32-C , 33-C ) :   1.2431 B( 32-C , 34-H ) :   0.9863 B( 33-C , 35-C ) :   1.3557 
B( 33-C , 36-H ) :   0.9977 B( 35-C , 37-O ) :   1.1537 B( 35-C , 46-C ) :   1.1107 
B( 38-C , 39-C ) :   1.4022 B( 38-C , 42-C ) :   0.1061 B( 38-C , 44-O ) :   1.1861 
B( 39-C , 40-C ) :   1.2312 B( 39-C , 41-H ) :   0.9992 B( 40-C , 42-C ) :   1.4689 
B( 40-C , 43-H ) :   0.9847 B( 42-C , 44-O ) :   1.1629 B( 42-C , 45-H ) :   0.9923 
B( 46-C , 47-C ) :   1.2883 B( 46-C , 50-N ) :   1.1975 B( 47-C , 48-C ) :   1.2503 
B( 47-C , 55-C ) :   1.0268 B( 48-C , 49-C ) :   0.9913 B( 48-C , 56-C ) :   1.3765 
B( 49-C , 50-N ) :   0.9516 B( 49-C , 60-O ) :   2.1129 B( 50-N , 51-C ) :   0.9900 
B( 51-C , 52-H ) :   0.9599 B( 51-C , 53-H ) :   0.9598 B( 51-C , 54-H ) :   0.9360 
B( 55-C , 57-N ) :   0.9693 B( 55-C , 59-O ) :   2.0156 B( 56-C , 57-N ) :   1.2186 
B( 56-C , 58-H ) :   0.9738 B( 57-N , 61-C ) :   0.9799 B( 61-C , 62-H ) :   0.9462 
B( 61-C , 63-H ) :   0.9670 B( 61-C , 64-H ) :   0.9670 

-------
TIMINGS
-------

Total SCF time: 0 days 0 hours 1 min 38 sec 

Total time                  ....      98.845 sec
Sum of individual times     ....      97.420 sec  ( 98.6%)

Fock matrix formation       ....      72.767 sec  ( 73.6%)
  Split-RI-J                ....      44.828 sec  ( 61.6% of F)
  XC integration            ....      27.274 sec  ( 37.5% of F)
    Basis function eval.    ....      10.267 sec  ( 37.6% of XC)
    Density eval.           ....       6.715 sec  ( 24.6% of XC)
    XC-Functional eval.     ....       3.074 sec  ( 11.3% of XC)
    XC-Potential eval.      ....       5.828 sec  ( 21.4% of XC)
Diagonalization             ....       0.105 sec  (  0.1%)
Density matrix formation    ....       0.269 sec  (  0.3%)
Population analysis         ....       0.497 sec  (  0.5%)
Initial guess               ....       0.144 sec  (  0.1%)
Orbital Transformation      ....       0.000 sec  (  0.0%)
Orbital Orthonormalization  ....       0.108 sec  (  0.1%)
DIIS solution               ....       0.035 sec  (  0.0%)
SOSCF solution              ....       0.881 sec  (  0.9%)
Grid generation             ....      22.721 sec  ( 23.0%)


-------------------------------------------------------------------------------
                          DFT DISPERSION CORRECTION                            
                                                                               
                              DFTD3 V3.1  Rev 1                                
                          USING Becke-Johnson damping                          
-------------------------------------------------------------------------------
The BP86 functional is recognized
Active option DFTDOPT                   ...         4   

molecular C6(AA) [au] = 59432.583551 


            DFT-D V3
 parameters
 s6 scaling factor         :     1.0000 
 a1 scaling factor         :     0.3946 
 s8 scaling factor         :     3.2822 
 a2 scaling factor         :     4.8516 
 ad hoc parameters k1-k3   :    16.0000     1.3333    -4.0000 

 Edisp/kcal,au: -94.346955965691  -0.150351428626 
 E6   /kcal   : -35.044396046 
 E8   /kcal   : -59.302559920 
 % E8         :  62.855827528 

-------------------------   ----------------
Dispersion correction           -0.150351429
-------------------------   ----------------


-------------------------   --------------------
FINAL SINGLE POINT ENERGY     -2375.124489854789
-------------------------   --------------------

                                *** OPTIMIZATION RUN DONE ***

                            ***************************************
                            *     ORCA property calculations      *
                            ***************************************

                                    ---------------------
                                    Active property flags
                                    ---------------------
   (+) Dipole Moment


------------------------------------------------------------------------------
                       ORCA ELECTRIC PROPERTIES CALCULATION
------------------------------------------------------------------------------

Dipole Moment Calculation                       ... on
Quadrupole Moment Calculation                   ... off
Polarizability Calculation                      ... off
GBWName                                         ... DPP2F_T_Optimize_Monomer.gbw
Electron density file                           ... DPP2F_T_Optimize_Monomer.scfp
The origin for moment calculation is the CENTER OF MASS  = ( 2.909373,  1.479057  0.009336)

-------------
DIPOLE MOMENT
-------------
                                X             Y             Z
Electronic contribution:     -0.83690     -10.50894       0.07941
Nuclear contribution   :      0.18961      10.33035      -0.07668
                        -----------------------------------------
Total Dipole Moment    :     -0.64729      -0.17859       0.00273
                        -----------------------------------------
Magnitude (a.u.)       :      0.67148
Magnitude (Debye)      :      1.70677



--------------------
Rotational spectrum 
--------------------
 
Rotational constants in cm-1:     0.004553     0.000829     0.000702 
Rotational constants in MHz :   136.501160    24.861724    21.042755 

 Dipole components along the rotational axes: 
x,y,z [a.u.] :    -0.639884    -0.203555     0.000440 
x,y,z [Debye]:    -1.626455    -0.517396     0.001118 

 

Timings for individual modules:

Sum of individual times         ...     2831.340 sec (=  47.189 min)
GTO integral calculation        ...       16.453 sec (=   0.274 min)   0.6 %
SCF iterations                  ...     1837.416 sec (=  30.624 min)  64.9 %
SCF Gradient evaluation         ...      966.821 sec (=  16.114 min)  34.1 %
Geometry relaxation             ...       10.648 sec (=   0.177 min)   0.4 %
                             ****ORCA TERMINATED NORMALLY****
TOTAL RUN TIME: 0 days 0 hours 47 minutes 19 seconds 180 msec
