
                                 *****************
                                 * O   R   C   A *
                                 *****************

           --- An Ab Initio, DFT and Semiempirical electronic structure package ---

                  #######################################################
                  #                        -***-                        #
                  #          Department of theory and spectroscopy      #
                  #               Directorship: Frank Neese             #
                  #        Max Planck Institute fuer Kohlenforschung    #
                  #                Kaiser Wilhelm Platz 1               #
                  #                 D-45470 Muelheim/Ruhr               #
                  #                      Germany                        #
                  #                                                     #
                  #                  All rights reserved                #
                  #                        -***-                        #
                  #######################################################


                         Program Version 4.2.0 -  RELEASE  -


 With contributions from (in alphabetic order):
   Daniel Aravena         : Magnetic Suceptibility
   Michael Atanasov       : Ab Initio Ligand Field Theory (pilot matlab implementation)
   Alexander A. Auer      : GIAO ZORA, VPT2
   Ute Becker             : Parallelization
   Giovanni Bistoni       : ED, misc. LED, open-shell LED, HFLED
   Martin Brehm           : Molecular dynamics
   Dmytro Bykov           : SCF Hessian
   Vijay G. Chilkuri      : MRCI spin determinant printing, contributions to CSF-ICE
   Dipayan Datta          : RHF DLPNO-CCSD density
   Achintya Kumar Dutta   : EOM-CC, STEOM-CC
   Dmitry Ganyushin       : Spin-Orbit,Spin-Spin,Magnetic field MRCI
   Miquel Garcia          : C-PCM Hessian, Gaussian charge scheme
   Yang Guo               : DLPNO-NEVPT2, CIM, IAO-localization
   Andreas Hansen         : Spin unrestricted coupled pair/coupled cluster methods
   Benjamin Helmich-Paris : CASSCF linear response (MC-RPA)
   Lee Huntington         : MR-EOM, pCC
   Robert Izsak           : Overlap fitted RIJCOSX, COSX-SCS-MP3, EOM
   Christian Kollmar      : KDIIS, OOCD, Brueckner-CCSD(T), CCSD density
   Simone Kossmann        : Meta GGA functionals, TD-DFT gradient, OOMP2, MP2 Hessian
   Martin Krupicka        : AUTO-CI
   Lucas Lang             : DCDCAS
   Dagmar Lenk            : GEPOL surface, SMD
   Dimitrios Liakos       : Extrapolation schemes; Compound Job, initial MDCI parallelization
   Dimitrios Manganas     : Further ROCIS development; embedding schemes
   Dimitrios Pantazis     : SARC Basis sets
   Taras Petrenko         : DFT Hessian,TD-DFT gradient, ASA, ECA, R-Raman, ABS, FL, XAS/XES, NRVS
   Peter Pinski           : DLPNO-MP2, DLPNO-MP2 Gradient
   Christoph Reimann      : Effective Core Potentials
   Marius Retegan         : Local ZFS, SOC
   Christoph Riplinger    : Optimizer, TS searches, QM/MM, DLPNO-CCSD(T), (RO)-DLPNO pert. Triples
   Tobias Risthaus        : Range-separated hybrids, TD-DFT gradient, RPA, STAB
   Michael Roemelt        : Original ROCIS implementation
   Masaaki Saitow         : Open-shell DLPNO-CCSD energy and density
   Barbara Sandhoefer     : DKH picture change effects
   Avijit Sen             : IP-ROCIS
   Kantharuban Sivalingam : CASSCF convergence, NEVPT2, FIC-MRCI
   Bernardo de Souza      : ESD, SOC TD-DFT
   Georgi Stoychev        : AutoAux, RI-MP2 NMR
   Willem Van den Heuvel  : Paramagnetic NMR
   Boris Wezisla          : Elementary symmetry handling
   Frank Wennmohs         : Technical directorship


 We gratefully acknowledge several colleagues who have allowed us to
 interface, adapt or use parts of their codes:
   Stefan Grimme, W. Hujo, H. Kruse,             : VdW corrections, initial TS optimization,
                  C. Bannwarth                     DFT functionals, gCP, sTDA/sTD-DF
   Ed Valeev, F. Pavosevic, A. Kumar             : LibInt (2-el integral package), F12 methods
   Garnet Chan, S. Sharma, J. Yang, R. Olivares  : DMRG
   Ulf Ekstrom                                   : XCFun DFT Library
   Mihaly Kallay                                 : mrcc  (arbitrary order and MRCC methods)
   Andreas Klamt, Michael Diedenhofen            : otool_cosmo (COSMO solvation model)
   Jiri Pittner, Ondrej Demel                    : Mk-CCSD
   Frank Weinhold                                : gennbo (NPA and NBO analysis)
   Christopher J. Cramer and Donald G. Truhlar   : smd solvation model
   Lars Goerigk                                  : TD-DFT with DH, B97 family of functionals
   V. Asgeirsson, H. Jonsson                     : NEB implementation
   FAccTs GmbH                                   : IRC, NEB, NEB-TS, Multilevel, MM, QM/MM, CI optimization
   S Lehtola, MJT Oliveira, MAL Marques          : LibXC Library


 Your calculation uses the libint2 library for the computation of 2-el integrals
 For citations please refer to: http://libint.valeyev.net

 Your ORCA version has been built with support for libXC version: 4.2.3
 For citations please refer to: https://tddft.org/programs/libxc/

 This ORCA versions uses:
   CBLAS   interface :  Fast vector & matrix operations
   LAPACKE interface :  Fast linear algebra routines
   SCALAPACK package :  Parallel linear algebra routines


Your calculation utilizes the atom-pairwise dispersion correction
with the Becke-Johnson damping scheme (D3BJ)
Cite in your paper:
S.Grimme, S.Ehrlich, L.Goerigk, J Comput Chem, (2011), 32, 1456–1465 
S.Grimme, J.Antony, S.Ehrlich and H.Krieg, J.Chem.Phys., 132, (2010), 154104 
   

----- Orbital basis set information -----
Your calculation utilizes the basis: def2-SVP
   F. Weigend and R. Ahlrichs, Phys. Chem. Chem. Phys. 7, 3297 (2005).

----- AuxJ basis set information -----
Your calculation utilizes the auxiliary basis: def2/J
   F. Weigend, Phys. Chem. Chem. Phys. 8, 1057 (2006).

================================================================================
                                        WARNINGS
                       Please study these warnings very carefully!
================================================================================


WARNING: Geometry Optimization
  ===> : Switching off AutoStart
         For restart on a previous wavefunction, please use MOREAD

INFO   : the flag for use of LIBINT has been found!

================================================================================
                                       INPUT FILE
================================================================================
NAME = DPP2F_TT_Optimize_Monomer.inp
|  1> ! RI BP86 def2-SVP def2/J D3BJ TIGHTSCF  Opt Grid3 FinalGrid5
|  2> %maxcore 3000
|  3> %geom
|  4> Constraints
|  5> {D 1 0 60 66 0.0 C}
|  6> {D 10 11 18 19 0.0 C}
|  7> {D 23 22 24 25 0.0 C}
|  8> {D 30 31 34 35 0.0 C}
|  9> {D 36 38 41 43 0.0 C}
| 10> end
| 11> end
| 12> 
| 13> *xyz 0 1
| 14> C	-5.493460	0.452861	0.062135
| 15> C	-4.347810	-0.223719	0.162085
| 16> N	-5.191190	1.801611	-0.089825
| 17> C	-3.204820	0.671121	0.053805
| 18> C	-3.787240	2.027581	-0.113035
| 19> C	-6.157630	2.860901	-0.247435
| 20> H	-6.857950	2.608561	-1.050035
| 21> H	-5.663090	3.803301	-0.494555
| 22> H	-6.701680	2.991551	0.693045
| 23> C	-3.867050	-1.591499	0.323065
| 24> N	-2.473930	-1.426999	0.283965
| 25> C	-2.087520	-0.075279	0.100585
| 26> O	-3.186080	3.074131	-0.243875
| 27> O	-4.514410	-2.608269	0.466135
| 28> C	-1.641230	-2.593249	0.415325
| 29> H	-2.212260	-3.427269	0.837045
| 30> H	-0.797310	-2.390869	1.077195
| 31> H	-1.309860	-2.906059	-0.578735
| 32> C	-0.708520	0.329981	-0.072295
| 33> C	0.301940	-0.456669	-0.618875
| 34> C	1.530390	0.205191	-0.505345
| 35> H	0.183100	-1.444089	-1.035335
| 36> C	1.296830	1.462731	0.019105
| 37> O	-0.082090	1.553251	0.262625
| 38> C	2.338640	2.480921	0.223085
| 39> C	2.245810	3.862771	0.268065
| 40> C	3.549360	4.494631	0.281755
| 41> H	1.308880	4.404741	0.218375
| 42> S	4.001360	1.971501	0.398675
| 43> C	4.587960	3.610191	0.311045
| 44> S	4.149340	6.139541	0.230655
| 45> C	5.798070	5.600531	0.083145
| 46> C	5.889420	4.228901	0.232065
| 47> H	6.823920	3.680781	0.202575
| 48> C	6.858780	6.557871	-0.231705
| 49> C	6.738480	7.607521	-1.124815
| 50> C	7.974070	8.272081	-1.180545
| 51> H	5.849670	7.857051	-1.687415
| 52> C	8.844700	7.684191	-0.267725
| 53> H	8.204270	9.136341	-1.788695
| 54> O	8.164080	6.579371	0.263265
| 55> C	10.143300	8.195431	0.070125
| 56> C	11.331210	7.568311	0.045005
| 57> N	10.358410	9.566441	0.339165
| 58> C	11.718200	9.882071	0.439475
| 59> C	12.348500	8.583181	0.257435
| 60> O	12.277450	10.950541	0.607305
| 61> C	12.080190	6.296831	-0.174135
| 62> C	13.563190	8.051911	0.182555
| 63> N	13.437500	6.698471	-0.056785
| 64> H	14.520230	8.546871	0.270155
| 65> O	11.622760	5.199771	-0.397925
| 66> C	9.357720	10.592601	0.475675
| 67> H	8.494590	10.212521	1.026565
| 68> H	9.064590	10.939941	-0.518655
| 69> H	9.771750	11.447151	1.020905
| 70> C	14.582050	5.826891	-0.189425
| 71> H	14.269550	4.784121	-0.269665
| 72> H	15.228300	5.947871	0.687135
| 73> H	15.144530	6.110461	-1.085195
| 74> C	-6.777930	-0.166259	0.065775
| 75> C	-8.034790	0.288341	0.466215
| 76> C	-8.975560	-0.760259	0.287675
| 77> H	-8.258720	1.263191	0.872765
| 78> C	-8.263970	-1.812789	-0.220135
| 79> H	-10.033250	-0.754639	0.513035
| 80> O	-6.966550	-1.465579	-0.374575
| 81> H	-8.515830	-2.825169	-0.507155
| 82> H	2.489950	-0.190069	-0.808275
| 83> **                         ****END OF INPUT****
================================================================================

                       *****************************
                       * Geometry Optimization Run *
                       *****************************

Geometry optimization settings:
Update method            Update   .... BFGS
Choice of coordinates    CoordSys .... Z-matrix Internals
Initial Hessian          InHess   .... Almoef's Model

Convergence Tolerances:
Energy Change            TolE     ....  5.0000e-06 Eh
Max. Gradient            TolMAXG  ....  3.0000e-04 Eh/bohr
RMS Gradient             TolRMSG  ....  1.0000e-04 Eh/bohr
Max. Displacement        TolMAXD  ....  4.0000e-03 bohr
RMS Displacement         TolRMSD  ....  2.0000e-03 bohr
Strict Convergence                ....  False
------------------------------------------------------------------------------
                        ORCA OPTIMIZATION COORDINATE SETUP
------------------------------------------------------------------------------

The optimization will be done in new redundant internal coordinates
Making redundant internal coordinates   ...  (new redundants) done
Evaluating the initial hessian          ...  (Almloef) done
Evaluating the coordinates              ...  done
Calculating the B-matrix                .... done
Calculating the G-matrix                .... done
Diagonalizing the G-matrix              .... done
Imposing constraints:
 Iter   0:  RMS(Cart)=    0.2460305725 RMS(Int)=    0.4169715084
 Iter   1:  RMS(Cart)=    0.1099362185 RMS(Int)=    0.3087694790
 Iter   2:  RMS(Cart)=    0.0865899949 RMS(Int)=    0.2279027314
 Iter   3:  RMS(Cart)=    0.0921099535 RMS(Int)=    0.1636622641
 Iter   4:  RMS(Cart)=    0.0826478172 RMS(Int)=    0.1150906671
 Iter   5:  RMS(Cart)=    0.0789295884 RMS(Int)=    0.0745245951
 Iter   6:  RMS(Cart)=    0.0588308475 RMS(Int)=    0.0458901612
 Iter   7:  RMS(Cart)=    0.0351889331 RMS(Int)=    0.0287295927
 Iter   8:  RMS(Cart)=    0.0213024612 RMS(Int)=    0.0181785682
 Iter   9:  RMS(Cart)=    0.0130008418 RMS(Int)=    0.0115823556
 Iter  10:  RMS(Cart)=    0.0079793252 RMS(Int)=    0.0074133257
 Iter  11:  RMS(Cart)=    0.0049175060 RMS(Int)=    0.0047593029
 Iter  12:  RMS(Cart)=    0.0030400810 RMS(Int)=    0.0030616231
 Iter  13:  RMS(Cart)=    0.0018841671 RMS(Int)=    0.0019721888
 Iter  14:  RMS(Cart)=    0.0011702491 RMS(Int)=    0.0012715646
 Iter  15:  RMS(Cart)=    0.0007282068 RMS(Int)=    0.0008203291
 Iter  16:  RMS(Cart)=    0.0004539214 RMS(Int)=    0.0005294257
 Iter  17:  RMS(Cart)=    0.0002834082 RMS(Int)=    0.0003417622
 Iter  18:  RMS(Cart)=    0.0001772234 RMS(Int)=    0.0002206472
 Iter  19:  RMS(Cart)=    0.0001109904 RMS(Int)=    0.0001424607
 Iter  20:  RMS(Cart)=    0.0000696129 RMS(Int)=    0.0000919790
 Iter  21:  RMS(Cart)=    0.0000437238 RMS(Int)=    0.0000593829
 Iter  22:  RMS(Cart)=    0.0000275015 RMS(Int)=    0.0000383354
 Iter  23:  RMS(Cart)=    0.0000173216 RMS(Int)=    0.0000247454
 Iter  24:  RMS(Cart)=    0.0000109244 RMS(Int)=    0.0000159712
 Iter  25:  RMS(Cart)=    0.0000068987 RMS(Int)=    0.0000103068
 Iter  26:  RMS(Cart)=    0.0000043618 RMS(Int)=    0.0000066504
 Iter  27:  RMS(Cart)=    0.0000027612 RMS(Int)=    0.0000042906
 Iter  28:  RMS(Cart)=    0.0000017499 RMS(Int)=    0.0000027677
 Iter  29:  RMS(Cart)=    0.0000011102 RMS(Int)=    0.0000017850
 Iter  30:  RMS(Cart)=    0.0000007050 RMS(Int)=    0.0000011511
 Iter  31:  RMS(Cart)=    0.0000004482 RMS(Int)=    0.0000007422
 Iter  32:  RMS(Cart)=    0.0000002852 RMS(Int)=    0.0000004785
 Iter  33:  RMS(Cart)=    0.0000001816 RMS(Int)=    0.0000003084
 Iter  34:  RMS(Cart)=    0.0000001157 RMS(Int)=    0.0000001988
 Iter  35:  RMS(Cart)=    0.0000000738 RMS(Int)=    0.0000001281
 Iter  36:  RMS(Cart)=    0.0000000471 RMS(Int)=    0.0000000825
CONVERGED
Small eigenvalue found = 3.222e-04
Small eigenvalue found = 9.265e-04
Small eigenvalue found = 1.336e-03
Small eigenvalue found = 3.215e-03
Small eigenvalue found = 5.811e-03
Small eigenvalue found = 7.498e-03
Small eigenvalue found = 8.200e-03
Small eigenvalue found = 9.781e-03
Small eigenvalue found = 2.283e-02
Small eigenvalue found = 2.367e-02
Small eigenvalue found = 2.572e-02
The first mode is                       ....  199
The number of degrees of freedom        ....  201
Storing new coordinates                 .... done

    -----------------------------------------------------------------
                    Redundant Internal Coordinates


    -----------------------------------------------------------------
         Definition                    Initial Value    Approx d2E/dq
    -----------------------------------------------------------------
      1. B(C   1,C   0)                  1.3366         0.766760   
      2. B(N   2,C   0)                  1.3962         0.558500   
      3. B(C   3,C   1)                  1.4692         0.490923   
      4. B(C   4,N   2)                  1.4309         0.497152   
      5. B(C   4,C   3)                  1.4883         0.439746   
      6. B(C   5,N   2)                  1.4446         0.461360   
      7. B(H   6,C   5)                  1.1024         0.353982   
      8. B(H   7,C   5)                  1.0989         0.356688   
      9. B(H   8,C   5)                  1.0996         0.354415   
     10. B(C   9,C   1)                  1.4674         0.485399   
     11. B(N  10,C   9)                  1.4076         0.532828   
     12. B(C  11,C   3)                  1.3470         0.738486   
     13. B(C  11,N  10)                  1.4452         0.505314   
     14. B(O  12,C   4)                  1.2223         1.068275   
     15. B(O  13,C   9)                  1.2313         1.068945   
     16. B(C  14,N  10)                  1.4496         0.467374   
     17. B(H  15,C  14)                  1.1128         0.353257   
     18. B(H  16,C  14)                  1.1056         0.358207   
     19. B(H  17,C  14)                  1.1070         0.355458   
     20. B(C  18,C  11)                  1.4489         0.505500   
     21. B(C  19,C  18)                  1.4368         0.619459   
     22. B(C  20,C  19)                  1.4016         0.602231   
     23. B(H  21,C  19)                  1.0904         0.376024   
     24. B(C  22,C  20)                  1.3931         0.642507   
     25. B(O  23,C  18)                  1.4169         0.511322   
     26. B(O  23,C  22)                  1.4316         0.533146   
     27. B(C  24,C  22)                  1.4738         0.464079   
     28. B(C  25,C  24)                  1.3859         0.634757   
     29. B(C  26,C  25)                  1.4489         0.503636   
     30. B(H  27,C  25)                  1.0843         0.368761   
     31. B(S  28,C  24)                  1.7457         0.452460   
     32. B(C  29,C  26)                  1.3632         0.686227   
     33. B(C  29,S  28)                  1.7454         0.461062   
     34. B(S  30,C  26)                  1.7483         0.446169   
     35. B(C  31,S  30)                  1.7480         0.464224   
     36. B(C  32,C  29)                  1.4433         0.513872   
     37. B(C  32,C  31)                  1.3900         0.641752   
     38. B(H  33,C  32)                  1.0852         0.368413   
     39. B(C  34,C  31)                  1.4728         0.477608   
     40. B(C  35,C  34)                  1.5258         0.640056   
     41. B(C  36,C  35)                  1.4132         0.593310   
     42. B(H  37,C  35)                  1.1998         0.372074   
     43. B(C  38,C  36)                  1.5736         0.620888   
     44. B(H  39,C  36)                  1.1702         0.371433   
     45. B(O  40,C  34)                  1.4360         0.547074   
     46. B(O  40,C  38)                  1.4159         0.535312   
     47. B(C  41,C  38)                  1.4377         0.527805   
     48. B(C  42,C  41)                  1.3556         0.741135   
     49. B(N  43,C  41)                  1.4574         0.513086   
     50. B(C  44,N  43)                  1.4116         0.540324   
     51. B(C  45,C  42)                  1.4829         0.496487   
     52. B(C  45,C  44)                  1.4528         0.491765   
     53. B(O  46,C  44)                  1.2478         1.054204   
     54. B(C  47,C  42)                  1.4938         0.429757   
     55. B(C  48,C  45)                  1.3317         0.784893   
     56. B(N  49,C  47)                  1.4414         0.500569   
     57. B(N  49,C  48)                  1.3898         0.580165   
     58. B(H  50,C  48)                  1.1020         0.372190   
     59. B(O  51,C  47)                  1.2263         1.086097   
     60. B(C  52,N  43)                  1.4449         0.466042   
     61. B(H  53,C  52)                  1.1131         0.357181   
     62. B(H  54,C  52)                  1.1204         0.355786   
     63. B(H  55,C  52)                  1.1261         0.353589   
     64. B(C  56,N  49)                  1.4464         0.457678   
     65. B(H  57,C  56)                  1.1045         0.358066   
     66. B(H  58,C  56)                  1.1147         0.352594   
     67. B(H  59,C  56)                  1.1134         0.353442   
     68. B(C  60,C   0)                  1.4552         0.547602   
     69. B(C  61,C  60)                  1.4315         0.612872   
     70. B(C  62,C  61)                  1.4217         0.559534   
     71. B(H  63,C  61)                  1.1009         0.373982   
     72. B(C  64,C  62)                  1.4197         0.676819   
     73. B(H  65,C  62)                  1.1044         0.371595   
     74. B(O  66,C  60)                  1.4166         0.570354   
     75. B(O  66,C  64)                  1.3724         0.643605   
     76. B(H  67,C  64)                  1.0956         0.370838   
     77. B(H  68,C  20)                  1.1000         0.372084   
     78. A(C   1,C   0,N   2)          107.9945         0.439694   
     79. A(C   1,C   0,C  60)          122.6583         0.441030   
     80. A(N   2,C   0,C  60)          128.0877         0.413967   
     81. A(C   0,C   1,C   3)          110.8693         0.432431   
     82. A(C   3,C   1,C   9)          109.5384         0.398669   
     83. A(C   0,C   1,C   9)          139.5665         0.431553   
     84. A(C   0,N   2,C   5)          125.0911         0.399032   
     85. A(C   0,N   2,C   4)          112.2010         0.404319   
     86. A(C   4,N   2,C   5)          122.6898         0.390973   
     87. A(C   4,C   3,C  11)          146.3467         0.421143   
     88. A(C   1,C   3,C   4)          105.3337         0.391823   
     89. A(C   1,C   3,C  11)          108.2203         0.429523   
     90. A(C   3,C   4,O  12)          127.3067         0.447120   
     91. A(N   2,C   4,C   3)          103.5039         0.390190   
     92. A(N   2,C   4,O  12)          129.1615         0.454175   
     93. A(H   6,C   5,H   7)          108.8060         0.289625   
     94. A(H   6,C   5,H   8)          109.8477         0.289335   
     95. A(H   7,C   5,H   8)          108.7434         0.289681   
     96. A(N   2,C   5,H   6)          110.0479         0.332854   
     97. A(N   2,C   5,H   8)          108.7882         0.332922   
     98. A(N   2,C   5,H   7)          110.5901         0.333275   
     99. A(C   1,C   9,O  13)          128.9757         0.455268   
    100. A(C   1,C   9,N  10)          101.7896         0.401868   
    101. A(N  10,C   9,O  13)          129.2300         0.460001   
    102. A(C   9,N  10,C  11)          113.3203         0.402131   
    103. A(C  11,N  10,C  14)          129.1470         0.392978   
    104. A(C   9,N  10,C  14)          117.5322         0.396648   
    105. A(C   3,C  11,N  10)          107.0857         0.428937   
    106. A(C   3,C  11,C  18)          129.1420         0.431786   
    107. A(N  10,C  11,C  18)          122.3396         0.400989   
    108. A(H  15,C  14,H  16)          107.8713         0.289725   
    109. A(N  10,C  14,H  17)          108.3016         0.333801   
    110. A(H  16,C  14,H  17)          112.6090         0.290008   
    111. A(N  10,C  14,H  15)          111.3378         0.333457   
    112. A(N  10,C  14,H  16)          110.0910         0.334228   
    113. A(H  15,C  14,H  17)          106.6113         0.289376   
    114. A(C  11,C  18,C  19)          124.8480         0.418418   
    115. A(C  11,C  18,O  23)          129.4764         0.401824   
    116. A(C  19,C  18,O  23)          104.6562         0.416555   
    117. A(C  18,C  19,C  20)          110.2475         0.431735   
    118. A(C  18,C  19,H  21)          126.9604         0.355454   
    119. A(C  20,C  19,H  21)          122.7905         0.353758   
    120. A(C  22,C  20,H  68)          126.7399         0.357026   
    121. A(C  19,C  20,C  22)          107.8352         0.434580   
    122. A(C  19,C  20,H  68)          125.4249         0.353128   
    123. A(C  20,C  22,O  23)          107.7165         0.422414   
    124. A(C  20,C  22,C  24)          124.3315         0.414787   
    125. A(O  23,C  22,C  24)          127.0450         0.398746   
    126. A(C  18,O  23,C  22)          109.4614         0.403012   
    127. A(C  22,C  24,C  25)          130.0074         0.413894   
    128. A(C  22,C  24,S  28)          118.8683         0.411055   
    129. A(C  25,C  24,S  28)          110.6663         0.434712   
    130. A(C  24,C  25,C  26)          111.5904         0.419965   
    131. A(C  24,C  25,H  27)          123.7218         0.355749   
    132. A(C  26,C  25,H  27)          124.4473         0.342138   
    133. A(C  25,C  26,C  29)          113.7821         0.425857   
    134. A(C  25,C  26,S  30)          135.7496         0.416035   
    135. A(C  29,C  26,S  30)          110.4277         0.439754   
    136. A(C  24,S  28,C  29)           92.0283         0.433156   
    137. A(C  26,C  29,S  28)          110.7082         0.442370   
    138. A(C  26,C  29,C  32)          114.0243         0.427395   
    139. A(S  28,C  29,C  32)          135.2338         0.419978   
    140. A(C  26,S  30,C  31)           92.7788         0.432598   
    141. A(S  30,C  31,C  34)          119.5166         0.415045   
    142. A(C  32,C  31,C  34)          127.3411         0.416826   
    143. A(S  30,C  31,C  32)          110.1868         0.437590   
    144. A(C  29,C  32,C  31)          112.5323         0.422301   
    145. A(C  29,C  32,H  33)          123.4846         0.343239   
    146. A(C  31,C  32,H  33)          123.8550         0.356354   
    147. A(C  31,C  34,C  35)          119.2299         0.416630   
    148. A(C  31,C  34,O  40)          127.7244         0.402592   
    149. A(C  35,C  34,O  40)          111.1747         0.424076   
    150. A(C  34,C  35,C  36)          104.5836         0.433117   
    151. A(C  34,C  35,H  37)          131.1200         0.356793   
    152. A(C  36,C  35,H  37)          124.2924         0.352235   
    153. A(C  35,C  36,C  38)          108.8158         0.430757   
    154. A(C  35,C  36,H  39)          121.0724         0.352133   
    155. A(C  38,C  36,H  39)          129.9558         0.354852   
    156. A(C  36,C  38,O  40)          107.0096         0.420145   
    157. A(C  36,C  38,C  41)          120.3620         0.421826   
    158. A(O  40,C  38,C  41)          128.5902         0.408192   
    159. A(C  34,O  40,C  38)          107.9143         0.408145   
    160. A(C  38,C  41,C  42)          128.7432         0.435433   
    161. A(C  38,C  41,N  43)          121.3662         0.405143   
    162. A(C  42,C  41,N  43)          105.5833         0.430390   
    163. A(C  41,C  42,C  45)          108.2828         0.430670   
    164. A(C  41,C  42,C  47)          146.8109         0.419688   
    165. A(C  45,C  42,C  47)          104.7602         0.391022   
    166. A(C  41,N  43,C  44)          114.5343         0.404210   
    167. A(C  41,N  43,C  52)          126.7765         0.393833   
    168. A(C  44,N  43,C  52)          118.6839         0.397423   
    169. A(N  43,C  44,C  45)          101.1888         0.403786   
    170. A(N  43,C  44,O  46)          131.6076         0.460008   
    171. A(C  45,C  44,O  46)          127.0261         0.455197   
    172. A(C  42,C  45,C  44)          110.3006         0.400377   
    173. A(C  42,C  45,C  48)          111.5230         0.435135   
    174. A(C  44,C  45,C  48)          138.0673         0.434387   
    175. A(C  42,C  47,N  49)          103.0256         0.389092   
    176. A(C  42,C  47,O  51)          127.0475         0.446599   
    177. A(N  49,C  47,O  51)          129.9214         0.456113   
    178. A(C  45,C  48,N  49)          107.6463         0.444605   
    179. A(C  45,C  48,H  50)          128.6597         0.369467   
    180. A(N  49,C  48,H  50)          123.6580         0.348767   
    181. A(C  47,N  49,C  48)          113.0102         0.407541   
    182. A(C  47,N  49,C  56)          125.3299         0.390894   
    183. A(C  48,N  49,C  56)          121.6475         0.401147   
    184. A(N  43,C  52,H  53)          109.3087         0.333911   
    185. A(N  43,C  52,H  54)          108.4839         0.333694   
    186. A(H  53,C  52,H  54)          111.9168         0.289919   
    187. A(N  43,C  52,H  55)          110.4075         0.333351   
    188. A(H  53,C  52,H  55)          108.8071         0.289638   
    189. A(H  54,C  52,H  55)          107.9102         0.289460   
    190. A(N  49,C  56,H  57)          110.1596         0.333045   
    191. A(N  49,C  56,H  58)          109.1137         0.332196   
    192. A(H  57,C  56,H  58)          109.7736         0.289622   
    193. A(N  49,C  56,H  59)          108.8694         0.332328   
    194. A(H  57,C  56,H  59)          109.9570         0.289731   
    195. A(H  58,C  56,H  59)          108.9406         0.289033   
    196. A(C   0,C  60,C  61)          133.1398         0.423626   
    197. A(C   0,C  60,O  66)          118.0073         0.415516   
    198. A(C  61,C  60,O  66)          107.7745         0.423945   
    199. A(C  60,C  61,C  62)          108.3357         0.425263   
    200. A(C  60,C  61,H  63)          127.3032         0.354482   
    201. A(C  62,C  61,H  63)          124.3434         0.349067   
    202. A(C  61,C  62,C  64)          105.0341         0.432902   
    203. A(C  61,C  62,H  65)          127.3444         0.348690   
    204. A(C  64,C  62,H  65)          127.5658         0.360120   
    205. A(C  62,C  64,H  67)          134.7810         0.359995   
    206. A(O  66,C  64,H  67)          113.3720         0.354722   
    207. A(C  62,C  64,O  66)          111.8249         0.441051   
    208. A(C  60,O  66,C  64)          106.9291         0.424888   
    209. D(C   3,C   1,C   0,C  60)    171.1495         0.042111   
    210. D(C   9,C   1,C   0,C  60)     -6.7032         0.042111   
    211. D(C   9,C   1,C   0,N   2)   -174.8229         0.042111   
    212. D(C   3,C   1,C   0,N   2)      3.0297         0.042111   
    213. D(C   4,N   2,C   0,C   1)     -3.2546         0.024903   
    214. D(C   4,N   2,C   0,C  60)   -170.5333         0.024903   
    215. D(C   5,N   2,C   0,C   1)    175.2239         0.024903   
    216. D(C   5,N   2,C   0,C  60)      7.9453         0.024903   
    217. D(C   4,C   3,C   1,C   9)    176.7715         0.016411   
    218. D(C   4,C   3,C   1,C   0)     -1.7508         0.016411   
    219. D(C  11,C   3,C   1,C   9)     -0.6065         0.016411   
    220. D(C  11,C   3,C   1,C   0)   -179.1289         0.016411   
    221. D(O  12,C   4,C   3,C  11)     -2.9230         0.013195   
    222. D(O  12,C   4,C   3,C   1)   -178.4260         0.013195   
    223. D(C   3,C   4,N   2,C   5)   -176.4603         0.019533   
    224. D(C   3,C   4,N   2,C   0)      2.0606         0.019533   
    225. D(O  12,C   4,N   2,C   5)      1.7032         0.019533   
    226. D(N   2,C   4,C   3,C  11)    175.2867         0.013195   
    227. D(N   2,C   4,C   3,C   1)     -0.2162         0.013195   
    228. D(O  12,C   4,N   2,C   0)   -179.7759         0.019533   
    229. D(H   6,C   5,N   2,C   4)    126.8005         0.018172   
    230. D(H   6,C   5,N   2,C   0)    -51.5257         0.018172   
    231. D(H   7,C   5,N   2,C   0)   -171.7685         0.018172   
    232. D(H   7,C   5,N   2,C   4)      6.5577         0.018172   
    233. D(H   8,C   5,N   2,C   4)   -112.8080         0.018172   
    234. D(H   8,C   5,N   2,C   0)     68.8658         0.018172   
    235. D(N  10,C   9,C   1,C   0)    177.1198         0.016042   
    236. D(N  10,C   9,C   1,C   3)     -0.7511         0.016042   
    237. D(O  13,C   9,C   1,C   0)     -2.1434         0.016042   
    238. D(O  13,C   9,C   1,C   3)    179.9856         0.016042   
    239. D(C  11,N  10,C   9,C   1)      1.8354         0.022557   
    240. D(C  11,N  10,C   9,O  13)   -178.9040         0.022557   
    241. D(C  14,N  10,C   9,C   1)   -177.9170         0.022557   
    242. D(C  14,N  10,C   9,O  13)      1.3436         0.022557   
    243. D(N  10,C  11,C   3,C   1)      1.6780         0.038778   
    244. D(N  10,C  11,C   3,C   4)   -173.7559         0.038778   
    245. D(C  18,C  11,C   3,C   1)    168.0220         0.038778   
    246. D(C  18,C  11,C   3,C   4)     -7.4119         0.038778   
    247. D(C   3,C  11,N  10,C   9)     -2.3295         0.020201   
    248. D(C   3,C  11,N  10,C  14)    177.3875         0.020201   
    249. D(C  18,C  11,N  10,C   9)   -169.8128         0.020201   
    250. D(C  18,C  11,N  10,C  14)      9.9042         0.020201   
    251. D(H  17,C  14,N  10,C  11)    -80.2824         0.018659   
    252. D(H  15,C  14,N  10,C   9)    -17.4780         0.018659   
    253. D(H  16,C  14,N  10,C   9)   -137.0618         0.018659   
    254. D(H  16,C  14,N  10,C  11)     43.2313         0.018659   
    255. D(H  17,C  14,N  10,C   9)     99.4245         0.018659   
    256. D(H  15,C  14,N  10,C  11)    162.8151         0.018659   
    257. D(C  19,C  18,C  11,C   3)   -164.5081         0.017410   
    258. D(C  19,C  18,C  11,N  10)      0.0000         0.017410 C 
    259. D(O  23,C  18,C  11,C   3)     28.8640         0.017410   
    260. D(O  23,C  18,C  11,N  10)   -166.6279         0.017410   
    261. D(C  20,C  19,C  18,C  11)   -168.0743         0.026550   
    262. D(C  20,C  19,C  18,O  23)      1.2925         0.026550   
    263. D(H  21,C  19,C  18,C  11)     11.4598         0.026550   
    264. D(H  21,C  19,C  18,O  23)   -179.1734         0.026550   
    265. D(C  22,C  20,C  19,C  18)      0.5288         0.025013   
    266. D(C  22,C  20,C  19,H  21)   -179.0283         0.025013   
    267. D(H  68,C  20,C  19,C  18)   -179.4577         0.025013   
    268. D(H  68,C  20,C  19,H  21)      0.9852         0.025013   
    269. D(O  23,C  22,C  20,C  19)     -2.1366         0.028697   
    270. D(O  23,C  22,C  20,H  68)    177.8497         0.028697   
    271. D(C  24,C  22,C  20,C  19)   -171.8844         0.028697   
    272. D(C  24,C  22,C  20,H  68)      8.1018         0.028697   
    273. D(C  22,O  23,C  18,C  11)    166.0841         0.018806   
    274. D(C  22,O  23,C  18,C  19)     -2.6021         0.018806   
    275. D(C  18,O  23,C  22,C  20)      3.0185         0.020504   
    276. D(C  18,O  23,C  22,C  24)    172.4075         0.020504   
    277. D(C  25,C  24,C  22,C  20)    167.7363         0.014668   
    278. D(C  25,C  24,C  22,O  23)     -0.0000         0.014668 C 
    279. D(S  28,C  24,C  22,C  20)    -20.8212         0.014668   
    280. D(S  28,C  24,C  22,O  23)    171.4425         0.014668   
    281. D(C  26,C  25,C  24,C  22)   -177.1713         0.027964   
    282. D(C  26,C  25,C  24,S  28)     10.8344         0.027964   
    283. D(H  27,C  25,C  24,C  22)     -2.5903         0.027964   
    284. D(H  27,C  25,C  24,S  28)   -174.5845         0.027964   
    285. D(C  29,C  26,C  25,C  24)     -5.4624         0.017280   
    286. D(C  29,C  26,C  25,H  27)   -179.9966         0.017280   
    287. D(S  30,C  26,C  25,C  24)    171.9253         0.017280   
    288. D(S  30,C  26,C  25,H  27)     -2.6090         0.017280   
    289. D(C  29,S  28,C  24,C  22)    176.4729         0.004506   
    290. D(C  29,S  28,C  24,C  25)    -10.5239         0.004506   
    291. D(S  28,C  29,C  26,C  25)     -2.5357         0.033057   
    292. D(S  28,C  29,C  26,S  30)    179.4092         0.033057   
    293. D(C  32,C  29,C  26,C  25)    175.6819         0.033057   
    294. D(C  32,C  29,C  26,S  30)     -2.3732         0.033057   
    295. D(C  26,C  29,S  28,C  24)      7.4017         0.004627   
    296. D(C  32,C  29,S  28,C  24)   -170.2863         0.004627   
    297. D(C  31,S  30,C  26,C  25)   -175.4102         0.004419   
    298. D(C  31,S  30,C  26,C  29)      2.0390         0.004419   
    299. D(C  32,C  31,S  30,C  26)     -1.1790         0.004672   
    300. D(C  34,C  31,S  30,C  26)    160.7731         0.004672   
    301. D(C  31,C  32,C  29,C  26)      1.5300         0.018000   
    302. D(C  31,C  32,C  29,S  28)    179.1622         0.018000   
    303. D(H  33,C  32,C  29,C  26)   -174.4940         0.018000   
    304. D(H  33,C  32,C  29,S  28)      3.1382         0.018000   
    305. D(C  29,C  32,C  31,S  30)      0.0663         0.028625   
    306. D(C  29,C  32,C  31,C  34)   -160.1114         0.028625   
    307. D(H  33,C  32,C  31,S  30)    176.0731         0.028625   
    308. D(H  33,C  32,C  31,C  34)     15.8954         0.028625   
    309. D(C  35,C  34,C  31,S  30)     -0.0000         0.015531 C 
    310. D(C  35,C  34,C  31,C  32)    158.5467         0.015531   
    311. D(O  40,C  34,C  31,S  30)    162.9738         0.015531   
    312. D(O  40,C  34,C  31,C  32)    -38.4796         0.015531   
    313. D(C  36,C  35,C  34,C  31)    171.9513         0.028464   
    314. D(C  36,C  35,C  34,O  40)      6.3324         0.028464   
    315. D(H  37,C  35,C  34,C  31)     -7.3356         0.028464   
    316. D(H  37,C  35,C  34,O  40)   -172.9544         0.028464   
    317. D(C  38,C  36,C  35,C  34)     -2.7139         0.024239   
    318. D(C  38,C  36,C  35,H  37)    176.6358         0.024239   
    319. D(H  39,C  36,C  35,C  34)   -178.6058         0.024239   
    320. D(H  39,C  36,C  35,H  37)      0.7440         0.024239   
    321. D(O  40,C  38,C  36,C  35)     -1.6073         0.026680   
    322. D(O  40,C  38,C  36,H  39)    173.8014         0.026680   
    323. D(C  41,C  38,C  36,C  35)   -160.8625         0.026680   
    324. D(C  41,C  38,C  36,H  39)     14.5461         0.026680   
    325. D(C  38,O  40,C  34,C  31)   -171.6131         0.021636   
    326. D(C  38,O  40,C  34,C  35)     -7.5171         0.021636   
    327. D(C  34,O  40,C  38,C  36)      5.4995         0.020677   
    328. D(C  34,O  40,C  38,C  41)    162.4820         0.020677   
    329. D(C  42,C  41,C  38,C  36)   -153.1905         0.019011   
    330. D(C  42,C  41,C  38,O  40)     52.4893         0.019011   
    331. D(N  43,C  41,C  38,C  36)      0.0000         0.019011 C 
    332. D(N  43,C  41,C  38,O  40)   -154.3202         0.019011   
    333. D(C  45,C  42,C  41,C  38)    159.2477         0.039083   
    334. D(C  45,C  42,C  41,N  43)      2.8139         0.039083   
    335. D(C  47,C  42,C  41,C  38)    -15.1724         0.039083   
    336. D(C  47,C  42,C  41,N  43)   -171.6062         0.039083   
    337. D(C  44,N  43,C  41,C  38)   -162.1861         0.020850   
    338. D(C  44,N  43,C  41,C  42)     -3.6064         0.020850   
    339. D(C  52,N  43,C  41,C  38)     16.9634         0.020850   
    340. D(C  52,N  43,C  41,C  42)    175.5431         0.020850   
    341. D(C  45,C  44,N  43,C  41)      2.6180         0.023227   
    342. D(C  45,C  44,N  43,C  52)   -176.6055         0.023227   
    343. D(O  46,C  44,N  43,C  41)    177.9136         0.023227   
    344. D(O  46,C  44,N  43,C  52)     -1.3099         0.023227   
    345. D(C  44,C  45,C  42,C  41)     -1.3820         0.016788   
    346. D(C  44,C  45,C  42,C  47)    175.4628         0.016788   
    347. D(C  48,C  45,C  42,C  41)   -178.2885         0.016788   
    348. D(C  48,C  45,C  42,C  47)     -1.4438         0.016788   
    349. D(C  42,C  45,C  44,N  43)     -0.7565         0.016467   
    350. D(C  42,C  45,C  44,O  46)   -176.3511         0.016467   
    351. D(C  48,C  45,C  44,N  43)    174.9352         0.016467   
    352. D(C  48,C  45,C  44,O  46)     -0.6594         0.016467   
    353. D(N  49,C  47,C  42,C  41)    176.3056         0.012619   
    354. D(N  49,C  47,C  42,C  45)      1.7842         0.012619   
    355. D(O  51,C  47,C  42,C  41)     -4.4781         0.012619   
    356. D(O  51,C  47,C  42,C  45)   -178.9995         0.012619   
    357. D(N  49,C  48,C  45,C  42)      0.4157         0.044338   
    358. D(N  49,C  48,C  45,C  44)   -175.2406         0.044338   
    359. D(H  50,C  48,C  45,C  42)    178.2688         0.044338   
    360. D(H  50,C  48,C  45,C  44)      2.6124         0.044338   
    361. D(C  48,N  49,C  47,C  42)     -1.7014         0.019811   
    362. D(C  48,N  49,C  47,O  51)    179.1142         0.019811   
    363. D(C  56,N  49,C  47,C  42)    179.5643         0.019811   
    364. D(C  56,N  49,C  47,O  51)      0.3799         0.019811   
    365. D(C  47,N  49,C  48,C  45)      0.8625         0.026998   
    366. D(C  47,N  49,C  48,H  50)   -177.1234         0.026998   
    367. D(C  56,N  49,C  48,C  45)    179.6495         0.026998   
    368. D(C  56,N  49,C  48,H  50)      1.6636         0.026998   
    369. D(H  53,C  52,N  43,C  41)     39.8188         0.018550   
    370. D(H  53,C  52,N  43,C  44)   -141.0631         0.018550   
    371. D(H  54,C  52,N  43,C  41)    -82.4668         0.018550   
    372. D(H  54,C  52,N  43,C  44)     96.6513         0.018550   
    373. D(H  55,C  52,N  43,C  41)    159.4770         0.018550   
    374. D(H  55,C  52,N  43,C  44)    -21.4049         0.018550   
    375. D(H  57,C  56,N  49,C  47)     -7.2253         0.017878   
    376. D(H  57,C  56,N  49,C  48)    174.1432         0.017878   
    377. D(H  58,C  56,N  49,C  47)   -127.7984         0.017878   
    378. D(H  58,C  56,N  49,C  48)     53.5701         0.017878   
    379. D(H  59,C  56,N  49,C  47)    113.4195         0.017878   
    380. D(H  59,C  56,N  49,C  48)    -65.2119         0.017878   
    381. D(C  61,C  60,C   0,C   1)    166.4747         0.020508   
    382. D(C  61,C  60,C   0,N   2)    -27.9299         0.020508   
    383. D(O  66,C  60,C   0,C   1)     -0.0000         0.020508 C 
    384. D(O  66,C  60,C   0,N   2)    165.5954         0.020508   
    385. D(C  62,C  61,C  60,C   0)   -170.7921         0.025955   
    386. D(C  62,C  61,C  60,O  66)     -3.3153         0.025955   
    387. D(H  63,C  61,C  60,C   0)      7.7230         0.025955   
    388. D(H  63,C  61,C  60,O  66)    175.1997         0.025955   
    389. D(C  64,C  62,C  61,C  60)      2.4780         0.021444   
    390. D(C  64,C  62,C  61,H  63)   -176.0914         0.021444   
    391. D(H  65,C  62,C  61,C  60)    179.9124         0.021444   
    392. D(H  65,C  62,C  61,H  63)      1.3429         0.021444   
    393. D(O  66,C  64,C  62,C  61)     -0.7589         0.032087   
    394. D(O  66,C  64,C  62,H  65)   -178.1857         0.032087   
    395. D(H  67,C  64,C  62,C  61)    177.3607         0.032087   
    396. D(H  67,C  64,C  62,H  65)     -0.0661         0.032087   
    397. D(C  64,O  66,C  60,C   0)    172.4703         0.023614   
    398. D(C  64,O  66,C  60,C  61)      2.7940         0.023614   
    399. D(C  60,O  66,C  64,C  62)     -1.2741         0.030564   
    400. D(C  60,O  66,C  64,H  67)   -179.8202         0.030564   
    -----------------------------------------------------------------

Number of atoms                         .... 69
Number of degrees of freedom            .... 400

         *************************************************************
         *                GEOMETRY OPTIMIZATION CYCLE   1            *
         *************************************************************
---------------------------------
CARTESIAN COORDINATES (ANGSTROEM)
---------------------------------
  C     -5.483790    0.543787    0.024505
  C     -4.366373   -0.184245    0.112711
  N     -5.118435    1.890475   -0.024576
  C     -3.182790    0.681911    0.198359
  C     -3.705391    2.072517    0.108136
  C     -6.032089    2.992261   -0.220249
  H     -6.660577    2.809077   -1.107270
  H     -5.479848    3.931181   -0.365167
  H     -6.666068    3.089479    0.672853
  C     -3.946722   -1.590387    0.115456
  N     -2.545743   -1.472282    0.184112
  C     -2.090339   -0.103173    0.265437
  O     -3.057592    3.109061    0.111552
  O     -4.640664   -2.605814    0.057298
  C     -1.768164   -2.695455    0.159508
  H     -2.398155   -3.580671    0.400143
  H     -0.955500   -2.643983    0.907374
  H     -1.390209   -2.846447   -0.869944
  C     -0.694176    0.258696    0.127743
  C      0.376545   -0.671936   -0.099761
  C      1.614629   -0.041397    0.084587
  H      0.284215   -1.724323   -0.369749
  C      1.370117    1.283012    0.440686
  O     -0.047309    1.483294    0.426766
  C      2.412128    2.319017    0.554714
  C      2.291718    3.694633    0.672709
  C      3.587058    4.343533    0.691650
  H      1.343050    4.219404    0.656744
  S      4.071523    1.824535    0.776609
  C      4.637075    3.474394    0.709851
  S      4.161795    5.993867    0.641664
  C      5.837103    5.498440    0.583428
  C      5.929259    4.112220    0.629497
  H      6.862702    3.565255    0.545051
  C      6.857857    6.446217    0.104890
  C      6.430229    7.844416   -0.331137
  C      7.643310    8.538106   -0.541522
  H      5.341452    8.327905   -0.474056
  C      8.841898    7.589319   -0.168004
  H      7.647701    9.662666   -0.865226
  O      8.280175    6.372421    0.288393
  C     10.142555    8.135955    0.108378
  C     11.356913    7.551181   -0.036732
  N     10.389872    9.571157    0.052027
  C     11.752122    9.927772   -0.046769
  C     12.381490    8.620217   -0.116406
  O     12.312720   11.037875   -0.148481
  C     12.117009    6.280215   -0.232311
  C     13.600709    8.115941   -0.297053
  N     13.479744    6.732724   -0.358086
  H     14.555993    8.651536   -0.419862
  O     11.660047    5.142506   -0.257786
  C      9.397620   10.621307    0.070051
  H      8.593675   10.355694    0.792646
  H      8.999547   10.751752   -0.969108
  H      9.863385   11.596198    0.387383
  C     14.629763    5.878402   -0.556943
  H     14.335284    4.817394   -0.470342
  H     15.400805    6.119641    0.211015
  H     15.053094    6.073979   -1.567944
  C     -6.783910   -0.044561   -0.260341
  C     -8.124051    0.449568   -0.164839
  C     -9.017180   -0.636919   -0.372353
  H     -8.440876    1.480556    0.055932
  C     -8.182701   -1.774586   -0.530423
  H    -10.121118   -0.607505   -0.364640
  O     -6.852477   -1.446835   -0.449436
  H     -8.358230   -2.846283   -0.675202
  H      2.597903   -0.519969   -0.034522

----------------------------
CARTESIAN COORDINATES (A.U.)
----------------------------
  NO LB      ZA    FRAG     MASS         X           Y           Z
   0 C     6.0000    0    12.011  -10.362861    1.027609    0.046307
   1 C     6.0000    0    12.011   -8.251249   -0.348172    0.212993
   2 N     7.0000    0    14.007   -9.672440    3.572481   -0.046441
   3 C     6.0000    0    12.011   -6.014601    1.288625    0.374844
   4 C     6.0000    0    12.011   -7.002174    3.916489    0.204347
   5 C     6.0000    0    12.011  -11.398996    5.654554   -0.416211
   6 H     1.0000    0     1.008  -12.586666    5.308387   -2.092438
   7 H     1.0000    0     1.008  -10.355411    7.428856   -0.690066
   8 H     1.0000    0     1.008  -12.597043    5.838269    1.271507
   9 C     6.0000    0    12.011   -7.458225   -3.005395    0.218181
  10 N     7.0000    0    14.007   -4.810758   -2.782210    0.347921
  11 C     6.0000    0    12.011   -3.950168   -0.194969    0.501602
  12 O     8.0000    0    15.999   -5.778011    5.875274    0.210803
  13 O     8.0000    0    15.999   -8.769584   -4.924274    0.108277
  14 C     6.0000    0    12.011   -3.341346   -5.093672    0.301426
  15 H     1.0000    0     1.008   -4.531857   -6.766488    0.756161
  16 H     1.0000    0     1.008   -1.805634   -4.996404    1.714689
  17 H     1.0000    0     1.008   -2.627115   -5.379006   -1.643955
  18 C     6.0000    0    12.011   -1.311803    0.488865    0.241400
  19 C     6.0000    0    12.011    0.711566   -1.269775   -0.188520
  20 C     6.0000    0    12.011    3.051206   -0.078228    0.159846
  21 H     1.0000    0     1.008    0.537088   -3.258498   -0.698725
  22 C     6.0000    0    12.011    2.589146    2.424541    0.832776
  23 O     8.0000    0    15.999   -0.089401    2.803020    0.806471
  24 C     6.0000    0    12.011    4.558261    4.382307    1.048257
  25 C     6.0000    0    12.011    4.330719    6.981845    1.271236
  26 C     6.0000    0    12.011    6.778558    8.208088    1.307029
  27 H     1.0000    0     1.008    2.537997    7.973517    1.241066
  28 S    16.0000    0    32.060    7.694064    3.447871    1.467579
  29 C     6.0000    0    12.011    8.762803    6.565653    1.341423
  30 S    16.0000    0    32.060    7.864652   11.326768    1.212570
  31 C     6.0000    0    12.011   11.030526   10.390546    1.102520
  32 C     6.0000    0    12.011   11.204676    7.770970    1.189577
  33 H     1.0000    0     1.008   12.968627    6.737355    1.029996
  34 C     6.0000    0    12.011   12.959472   12.181584    0.198213
  35 C     6.0000    0    12.011   12.151373   14.823798   -0.625759
  36 C     6.0000    0    12.011   14.443763   16.134682   -1.023328
  37 H     1.0000    0     1.008   10.093882   15.737460   -0.895836
  38 C     6.0000    0    12.011   16.708765   14.341735   -0.317482
  39 H     1.0000    0     1.008   14.452060   18.259793   -1.635040
  40 O     8.0000    0    15.999   15.647264   12.042131    0.544983
  41 C     6.0000    0    12.011   19.166650   15.374727    0.204805
  42 C     6.0000    0    12.011   21.461455   14.269664   -0.069414
  43 N     7.0000    0    14.007   19.634013   18.086865    0.098317
  44 C     6.0000    0    12.011   22.208293   18.760770   -0.088380
  45 C     6.0000    0    12.011   23.397625   16.289849   -0.219976
  46 O     8.0000    0    15.999   23.267668   20.858561   -0.280588
  47 C     6.0000    0    12.011   22.897829   11.867886   -0.439003
  48 C     6.0000    0    12.011   25.701615   15.336906   -0.561349
  49 N     7.0000    0    14.007   25.473024   12.723004   -0.676685
  50 H     1.0000    0     1.008   27.506840   16.349033   -0.793425
  51 O     8.0000    0    15.999   22.034296    9.717927   -0.487144
  52 C     6.0000    0    12.011   17.758928   20.071362    0.132377
  53 H     1.0000    0     1.008   16.239692   19.569425    1.497883
  54 H     1.0000    0     1.008   17.006679   20.317866   -1.831349
  55 H     1.0000    0     1.008   18.639097   21.913638    0.732047
  56 C     6.0000    0    12.011   27.646245   11.108571   -1.052470
  57 H     1.0000    0     1.008   27.089760    9.103555   -0.888817
  58 H     1.0000    0     1.008   29.103303   11.564446    0.398761
  59 H     1.0000    0     1.008   28.446225   11.478158   -2.962985
  60 C     6.0000    0    12.011  -12.819731   -0.084208   -0.491974
  61 C     6.0000    0    12.011  -15.352231    0.849560   -0.311501
  62 C     6.0000    0    12.011  -17.040001   -1.203603   -0.703645
  63 H     1.0000    0     1.008  -15.950945    2.797846    0.105696
  64 C     6.0000    0    12.011  -15.463064   -3.353481   -1.002355
  65 H     1.0000    0     1.008  -19.126140   -1.148018   -0.689070
  66 O     8.0000    0    15.999  -12.949306   -2.734122   -0.849310
  67 H     1.0000    0     1.008  -15.794766   -5.378695   -1.275946
  68 H     1.0000    0     1.008    4.909325   -0.982599   -0.065236

--------------------------------
INTERNAL COORDINATES (ANGSTROEM)
--------------------------------
 C      0   0   0     0.000000000000     0.00000000     0.00000000
 C      1   0   0     1.334265498842     0.00000000     0.00000000
 N      1   2   0     1.390534270344   108.26314131     0.00000000
 C      2   1   3     1.455640520218   110.91113546   358.96661504
 C      3   1   2     1.422208405087   111.74534196     0.96904758
 C      3   1   2     1.442547222728   125.34939134   179.21414612
 H      6   3   1     1.094664486498   109.84284956   308.62625199
 H      6   3   1     1.092591353618   110.78409472   188.37658714
 H      6   3   1     1.094331967641   109.07712257    69.07654171
 C      2   1   3     1.458720969343   140.06034403   180.45693325
 N     10   2   1     1.403343291714   102.36791994   177.83053626
 C      4   2   1     1.344492699274   107.97883076   182.76203565
 O      5   3   1     1.213993144009   128.87074906   179.18453466
 O     10   2   1     1.213822568335   128.51166800   357.24780283
 C     11  10   2     1.439021821273   118.48297017   180.00671746
 H     15  11  10     1.095222525198   110.52454083   342.43419533
 H     15  11  10     1.091435077180   110.64083456   222.71828486
 H     15  11  10     1.093531644078   108.91713221    99.55387952
 C     12   4   2     1.447675433928   129.20031887   174.61715559
 C     19  12   4     1.392335207664   125.45202969   211.80195127
 C     20  19  12     1.400013258152   109.74679179   185.98453249
 H     20  19  12     1.078220818571   126.08921277     3.72862131
 C     21  20  19     1.382391018381   108.21424693   355.36409483
 O     23  21  20     1.403180753574   106.89133061     1.65638796
 C     23  21  20     1.470947583227   124.23791193   183.16540550
 C     25  23  21     1.385694783060   130.34085516   154.04850101
 C     26  25  23     1.448681151324   112.02298133   189.05314833
 H     26  25  23     1.083530526520   123.72726589     4.47724189
 S     25  23  21     1.747849645393   119.07457191   336.21270006
 C     27  26  25     1.364471318020   113.72855837   357.10680052
 S     27  26  25     1.751660959918   135.84944776   175.25360379
 C     31  27  26     1.740862313079    92.06951318   187.30628241
 C     32  31  27     1.382711410888   111.13609548   352.94749996
 H     33  32  31     1.083787545832   123.76078045   181.61135685
 C     32  31  27     1.463125456753   120.14821977   169.94471315
 C     35  32  31     1.383431488943   124.91257713   320.86443843
 C     36  35  32     1.404075665554   107.95159907   181.59828740
 H     36  35  32     1.081095369059   125.63162663     0.81974474
 C     37  36  35     1.391708159565   108.93802756   356.73958378
 H     37  36  35     1.081565444206   126.00313041   179.96475085
 O     35  32  31     1.396161036879   127.70297968   142.59566787
 C     39  37  36     1.435921627423   124.72805940   187.82817339
 C     42  39  37     1.343518022544   128.97890211   233.53800322
 N     42  39  37     1.413620618766   121.85022267    45.38832501
 C     44  42  39     1.399540366370   112.34697240   189.34975819
 C     43  42  39     1.452572396096   106.87991802   170.58867026
 O     45  44  42     1.217602403209   130.84689142   176.74268487
 C     43  42  39     1.491862852410   147.61451505   355.63777643
 C     46  43  42     1.327903092624   110.66210056   182.99555310
 N     49  46  43     1.380174425680   108.59078585   359.20959940
 H     49  46  43     1.081010972747   128.46859412   178.29804198
 O     48  43  42     1.209489484287   127.61538967   355.52231143
 C     44  42  39     1.439798528198   127.12178728     7.83869507
 H     53  44  42     1.092215178159   110.42918761    39.99715226
 H     53  44  42     1.093280577619   109.05947312   277.84306906
 H     53  44  42     1.094966801460   109.91544491   159.81795789
 C     50  49  46     1.444728268049   122.36912076   180.13878414
 H     57  50  49     1.091542019576   110.87119860   174.01710706
 H     57  50  49     1.095733843823   109.09833441    53.39881854
 H     57  50  49     1.095079717737   109.01411488   294.66864655
 C      1   2   3     1.425898315063   123.58057539   177.83618821
 C     61   1   2     1.395245646186   132.12349976   152.12193957
 C     62  61   1     1.420030522383   108.66948191   181.63317206
 H     62  61   1     1.079703695418   126.09145181   359.95977789
 C     63  62  61     1.368229047017   105.67390042   359.70569211
 H     63  62  61     1.081446646904   128.16355822   178.86065908
 O     65  63  62     1.351926460315   110.11733441   359.24971119
 H     65  63  62     1.082001480775   134.19944109   178.92940901
 H     21  20  19     1.081088546836   125.67954238   177.26639276

---------------------------
INTERNAL COORDINATES (A.U.)
---------------------------
 C      0   0   0     0.000000000000     0.00000000     0.00000000
 C      1   0   0     2.521396382751     0.00000000     0.00000000
 N      1   2   0     2.627728950781   108.26314131     0.00000000
 C      2   1   3     2.750761932650   110.91113546   358.96661504
 C      3   1   2     2.687584390975   111.74534196     0.96904758
 C      3   1   2     2.726019186204   125.34939134   179.21414612
 H      6   3   1     2.068616088011   109.84284956   308.62625199
 H      6   3   1     2.064698434628   110.78409472   188.37658714
 H      6   3   1     2.067987718436   109.07712257    69.07654171
 C      2   1   3     2.756583137866   140.06034403   180.45693325
 N     10   2   1     2.651934493216   102.36791994   177.83053626
 C      4   2   1     2.540722990684   107.97883076   182.76203565
 O      5   3   1     2.294114570634   128.87074906   179.18453466
 O     10   2   1     2.293792229327   128.51166800   357.24780283
 C     11  10   2     2.719357142943   118.48297017   180.00671746
 H     15  11  10     2.069670628325   110.52454083   342.43419533
 H     15  11  10     2.062513388826   110.64083456   222.71828486
 H     15  11  10     2.066475326084   108.91713221    99.55387952
 C     12   4   2     2.735710100930   129.20031887   174.61715559
 C     19  12   4     2.631132229101   125.45202969   211.80195127
 C     20  19  12     2.645641641765   109.74679179   185.98453249
 H     20  19  12     2.037542058992   126.08921277     3.72862131
 C     21  20  19     2.612340434732   108.21424693   355.36409483
 O     23  21  20     2.651627340644   106.89133061     1.65638796
 C     23  21  20     2.779688089651   124.23791193   183.16540550
 C     25  23  21     2.618583645187   130.34085516   154.04850101
 C     26  25  23     2.737610631375   112.02298133   189.05314833
 H     26  25  23     2.047575952866   123.72726589     4.47724189
 S     25  23  21     3.302957153064   119.07457191   336.21270006
 C     27  26  25     2.578477108649   113.72855837   357.10680052
 S     27  26  25     3.310159493726   135.84944776   175.25360379
 C     31  27  26     3.289753008585    92.06951318   187.30628241
 C     32  31  27     2.612945888826   111.13609548   352.94749996
 H     33  32  31     2.048061648977   123.76078045   181.61135685
 C     32  31  27     2.764906412832   120.14821977   169.94471315
 C     35  32  31     2.614306639146   124.91257713   320.86443843
 C     36  35  32     2.653318479200   107.95159907   181.59828740
 H     36  35  32     2.042974172171   125.63162663     0.81974474
 C     37  36  35     2.629947279922   108.93802756   356.73958378
 H     37  36  35     2.043862485462   126.00313041   179.96475085
 O     35  32  31     2.638361998553   127.70297968   142.59566787
 C     39  37  36     2.713498625603   124.72805940   187.82817339
 C     42  39  37     2.538881118595   128.97890211   233.53800322
 N     42  39  37     2.671355826732   121.85022267    45.38832501
 C     44  42  39     2.644748005808   112.34697240   189.34975819
 C     43  42  39     2.744964018315   106.87991802   170.58867026
 O     45  44  42     2.300935082069   130.84689142   176.74268487
 C     43  42  39     2.819212220425   147.61451505   355.63777643
 C     46  43  42     2.509373177446   110.66210056   182.99555310
 N     49  46  43     2.608151681576   108.59078585   359.20959940
 H     49  46  43     2.042814686256   128.46859412   178.29804198
 O     48  43  42     2.285603887159   127.61538967   355.52231143
 C     44  42  39     2.720824906316   127.12178728     7.83869507
 H     53  44  42     2.063987566032   110.42918761    39.99715226
 H     53  44  42     2.066000879236   109.05947312   277.84306906
 H     53  44  42     2.069187380496   109.91544491   159.81795789
 C     50  49  46     2.730140764547   122.36912076   180.13878414
 H     57  50  49     2.062715480666   110.87119860   174.01710706
 H     57  50  49     2.070636880495   109.09833441    53.39881854
 H     57  50  49     2.069400761336   109.01411488   294.66864655
 C      1   2   3     2.694557310289   123.58057539   177.83618821
 C     61   1   2     2.636632160837   132.12349976   152.12193957
 C     62  61   1     2.683468789113   108.66948191   181.63317206
 H     62  61   1     2.040344290123   126.09145181   359.95977789
 C     63  62  61     2.585578187337   105.67390042   359.70569211
 H     63  62  61     2.043637991096   128.16355822   178.86065908
 O     65  63  62     2.554770763197   110.11733441   359.24971119
 H     65  63  62     2.044686475163   134.19944109   178.92940901
 H     21  20  19     2.042961280039   125.67954238   177.26639276

---------------------
BASIS SET INFORMATION
---------------------
There are 5 groups of distinct atoms

 Group   1 Type C   : 7s4p1d contracted to 3s2p1d pattern {511/31/1}
 Group   2 Type N   : 7s4p1d contracted to 3s2p1d pattern {511/31/1}
 Group   3 Type H   : 4s1p contracted to 2s1p pattern {31/1}
 Group   4 Type O   : 7s4p1d contracted to 3s2p1d pattern {511/31/1}
 Group   5 Type S   : 10s7p1d contracted to 4s3p1d pattern {5311/511/1}

Atom   0C    basis set group =>   1
Atom   1C    basis set group =>   1
Atom   2N    basis set group =>   2
Atom   3C    basis set group =>   1
Atom   4C    basis set group =>   1
Atom   5C    basis set group =>   1
Atom   6H    basis set group =>   3
Atom   7H    basis set group =>   3
Atom   8H    basis set group =>   3
Atom   9C    basis set group =>   1
Atom  10N    basis set group =>   2
Atom  11C    basis set group =>   1
Atom  12O    basis set group =>   4
Atom  13O    basis set group =>   4
Atom  14C    basis set group =>   1
Atom  15H    basis set group =>   3
Atom  16H    basis set group =>   3
Atom  17H    basis set group =>   3
Atom  18C    basis set group =>   1
Atom  19C    basis set group =>   1
Atom  20C    basis set group =>   1
Atom  21H    basis set group =>   3
Atom  22C    basis set group =>   1
Atom  23O    basis set group =>   4
Atom  24C    basis set group =>   1
Atom  25C    basis set group =>   1
Atom  26C    basis set group =>   1
Atom  27H    basis set group =>   3
Atom  28S    basis set group =>   5
Atom  29C    basis set group =>   1
Atom  30S    basis set group =>   5
Atom  31C    basis set group =>   1
Atom  32C    basis set group =>   1
Atom  33H    basis set group =>   3
Atom  34C    basis set group =>   1
Atom  35C    basis set group =>   1
Atom  36C    basis set group =>   1
Atom  37H    basis set group =>   3
Atom  38C    basis set group =>   1
Atom  39H    basis set group =>   3
Atom  40O    basis set group =>   4
Atom  41C    basis set group =>   1
Atom  42C    basis set group =>   1
Atom  43N    basis set group =>   2
Atom  44C    basis set group =>   1
Atom  45C    basis set group =>   1
Atom  46O    basis set group =>   4
Atom  47C    basis set group =>   1
Atom  48C    basis set group =>   1
Atom  49N    basis set group =>   2
Atom  50H    basis set group =>   3
Atom  51O    basis set group =>   4
Atom  52C    basis set group =>   1
Atom  53H    basis set group =>   3
Atom  54H    basis set group =>   3
Atom  55H    basis set group =>   3
Atom  56C    basis set group =>   1
Atom  57H    basis set group =>   3
Atom  58H    basis set group =>   3
Atom  59H    basis set group =>   3
Atom  60C    basis set group =>   1
Atom  61C    basis set group =>   1
Atom  62C    basis set group =>   1
Atom  63H    basis set group =>   3
Atom  64C    basis set group =>   1
Atom  65H    basis set group =>   3
Atom  66O    basis set group =>   4
Atom  67H    basis set group =>   3
Atom  68H    basis set group =>   3
---------------------------------
AUXILIARY/J BASIS SET INFORMATION
---------------------------------
There are 5 groups of distinct atoms

 Group   1 Type C   : 12s5p4d2f1g contracted to 6s4p3d1f1g pattern {711111/2111/211/2/1}
 Group   2 Type N   : 12s5p4d2f1g contracted to 6s4p3d1f1g pattern {711111/2111/211/2/1}
 Group   3 Type H   : 5s2p1d contracted to 3s1p1d pattern {311/2/1}
 Group   4 Type O   : 12s5p4d2f1g contracted to 6s4p3d1f1g pattern {711111/2111/211/2/1}
 Group   5 Type S   : 14s5p5d2f1g contracted to 8s4p3d1f1g pattern {71111111/2111/311/2/1}

Atom   0C    basis set group =>   1
Atom   1C    basis set group =>   1
Atom   2N    basis set group =>   2
Atom   3C    basis set group =>   1
Atom   4C    basis set group =>   1
Atom   5C    basis set group =>   1
Atom   6H    basis set group =>   3
Atom   7H    basis set group =>   3
Atom   8H    basis set group =>   3
Atom   9C    basis set group =>   1
Atom  10N    basis set group =>   2
Atom  11C    basis set group =>   1
Atom  12O    basis set group =>   4
Atom  13O    basis set group =>   4
Atom  14C    basis set group =>   1
Atom  15H    basis set group =>   3
Atom  16H    basis set group =>   3
Atom  17H    basis set group =>   3
Atom  18C    basis set group =>   1
Atom  19C    basis set group =>   1
Atom  20C    basis set group =>   1
Atom  21H    basis set group =>   3
Atom  22C    basis set group =>   1
Atom  23O    basis set group =>   4
Atom  24C    basis set group =>   1
Atom  25C    basis set group =>   1
Atom  26C    basis set group =>   1
Atom  27H    basis set group =>   3
Atom  28S    basis set group =>   5
Atom  29C    basis set group =>   1
Atom  30S    basis set group =>   5
Atom  31C    basis set group =>   1
Atom  32C    basis set group =>   1
Atom  33H    basis set group =>   3
Atom  34C    basis set group =>   1
Atom  35C    basis set group =>   1
Atom  36C    basis set group =>   1
Atom  37H    basis set group =>   3
Atom  38C    basis set group =>   1
Atom  39H    basis set group =>   3
Atom  40O    basis set group =>   4
Atom  41C    basis set group =>   1
Atom  42C    basis set group =>   1
Atom  43N    basis set group =>   2
Atom  44C    basis set group =>   1
Atom  45C    basis set group =>   1
Atom  46O    basis set group =>   4
Atom  47C    basis set group =>   1
Atom  48C    basis set group =>   1
Atom  49N    basis set group =>   2
Atom  50H    basis set group =>   3
Atom  51O    basis set group =>   4
Atom  52C    basis set group =>   1
Atom  53H    basis set group =>   3
Atom  54H    basis set group =>   3
Atom  55H    basis set group =>   3
Atom  56C    basis set group =>   1
Atom  57H    basis set group =>   3
Atom  58H    basis set group =>   3
Atom  59H    basis set group =>   3
Atom  60C    basis set group =>   1
Atom  61C    basis set group =>   1
Atom  62C    basis set group =>   1
Atom  63H    basis set group =>   3
Atom  64C    basis set group =>   1
Atom  65H    basis set group =>   3
Atom  66O    basis set group =>   4
Atom  67H    basis set group =>   3
Atom  68H    basis set group =>   3
------------------------------------------------------------------------------
                           ORCA GTO INTEGRAL CALCULATION
                           -- RI-GTO INTEGRALS CHOSEN --
------------------------------------------------------------------------------

                         BASIS SET STATISTICS AND STARTUP INFO

Gaussian basis set:
 # of primitive gaussian shells          ...  686
 # of primitive gaussian functions       ... 1306
 # of contracted shells                  ...  352
 # of contracted basis functions         ...  776
 Highest angular momentum                ...    2
 Maximum contraction depth               ...    5
Auxiliary gaussian basis set:
 # of primitive gaussian shells          ... 1310
 # of primitive gaussian functions       ... 3656
 # of contracted shells                  ...  819
 # of contracted aux-basis functions     ... 2549
 Highest angular momentum                ...    4
 Maximum contraction depth               ...    7
Ratio of auxiliary to basis functions    ...  3.28
Integral package used                  ... LIBINT
 One Electron integrals                  ... done
 Ordering auxiliary basis shells         ... done
 Integral threshhold             Thresh  ...  2.500e-11
 Primitive cut-off               TCut    ...  2.500e-12
 Pre-screening matrix                    ... done
 Shell pair data                         ... 
 Ordering of the shell pairs             ... done (   0.004 sec) 23680 of 62128 pairs
 Determination of significant pairs      ... done (   0.000 sec)
 Creation of shell pair data             ... done (   0.003 sec)
 Storage of shell pair data              ... done (   0.012 sec)
 Shell pair data done in (   0.020 sec)
 Computing two index integrals           ... done
 Cholesky decomposition of the V-matrix  ... done


Timings:
 Total evaluation time                   ...   2.324 sec (  0.039 min)
 One electron matrix time                ...   0.342 sec (  0.006 min) = 14.7%
 Schwartz matrix evaluation time         ...   0.440 sec (  0.007 min) = 18.9%
 Two index repulsion integral time       ...   0.585 sec (  0.010 min) = 25.2%
 Cholesky decomposition of V             ...   0.854 sec (  0.014 min) = 36.7%
 Three index repulsion integral time     ...   0.000 sec (  0.000 min) =  0.0%

-------------------------------------------------------------------------------
                                 ORCA SCF
-------------------------------------------------------------------------------

------------
SCF SETTINGS
------------
Hamiltonian:
 Density Functional     Method          .... DFT(GTOs)
 Exchange Functional    Exchange        .... B88
   X-Alpha parameter    XAlpha          ....  0.666667
   Becke's b parameter  XBeta           ....  0.004200
 Correlation Functional Correlation     .... P86
 LDA part of GGA corr.  LDAOpt          .... PW91-LDA
 Gradients option       PostSCFGGA      .... off
   Density functional embedding theory  .... OFF
 RI-approximation to the Coulomb term is turned on
   Number of auxiliary basis functions  .... 2549


General Settings:
 Integral files         IntName         .... DPP2F_TT_Optimize_Monomer
 Hartree-Fock type      HFTyp           .... RHF
 Total Charge           Charge          ....    0
 Multiplicity           Mult            ....    1
 Number of Electrons    NEL             ....  342
 Basis Dimension        Dim             ....  776
 Nuclear Repulsion      ENuc            ....   5242.1484829278 Eh

Convergence Acceleration:
 DIIS                   CNVDIIS         .... on
   Start iteration      DIISMaxIt       ....    12
   Startup error        DIISStart       ....  0.200000
   # of expansion vecs  DIISMaxEq       ....     5
   Bias factor          DIISBfac        ....   1.050
   Max. coefficient     DIISMaxC        ....  10.000
 Newton-Raphson         CNVNR           .... off
 SOSCF                  CNVSOSCF        .... on
   Start iteration      SOSCFMaxIt      ....   150
   Startup grad/error   SOSCFStart      ....  0.003300
 Level Shifting         CNVShift        .... on
   Level shift para.    LevelShift      ....    0.2500
   Turn off err/grad.   ShiftErr        ....    0.0010
 Zerner damping         CNVZerner       .... off
 Static damping         CNVDamp         .... on
   Fraction old density DampFac         ....    0.7000
   Max. Damping (<1)    DampMax         ....    0.9800
   Min. Damping (>=0)   DampMin         ....    0.0000
   Turn off err/grad.   DampErr         ....    0.1000
 Fernandez-Rico         CNVRico         .... off

SCF Procedure:
 Maximum # iterations   MaxIter         ....   125
 SCF integral mode      SCFMode         .... Direct
   Integral package                     .... LIBINT
 Reset frequency        DirectResetFreq ....    20
 Integral Threshold     Thresh          ....  2.500e-11 Eh
 Primitive CutOff       TCut            ....  2.500e-12 Eh

Convergence Tolerance:
 Convergence Check Mode ConvCheckMode   .... Total+1el-Energy
 Convergence forced     ConvForced      .... 0
 Energy Change          TolE            ....  1.000e-08 Eh
 1-El. energy change                    ....  1.000e-05 Eh
 Orbital Gradient       TolG            ....  1.000e-05
 Orbital Rotation angle TolX            ....  1.000e-05
 DIIS Error             TolErr          ....  5.000e-07


Diagonalization of the overlap matrix:
Smallest eigenvalue                        ... 4.248e-04
Time for diagonalization                   ...    0.290 sec
Threshold for overlap eigenvalues          ... 1.000e-08
Number of eigenvalues below threshold      ... 0
Time for construction of square roots      ...    0.088 sec
Total time needed                          ...    0.381 sec

-------------------
DFT GRID GENERATION
-------------------

General Integration Accuracy     IntAcc      ...  4.340
Radial Grid Type                 RadialGrid  ... Gauss-Chebyshev
Angular Grid (max. acc.)         AngularGrid ... Lebedev-194
Angular grid pruning method      GridPruning ... 3 (G Style)
Weight generation scheme         WeightScheme... Becke
Basis function cutoff            BFCut       ...    1.0000e-11
Integration weight cutoff        WCut        ...    1.0000e-14
Grids for H and He will be reduced by one unit

# of grid points (after initial pruning)     ... 189010 (   0.2 sec)
# of grid points (after weights+screening)   ... 167036 (   4.1 sec)
nearest neighbour list constructed           ...    0.0 sec
Grid point re-assignment to atoms done       ...    0.0 sec
Grid point division into batches done        ...    0.3 sec
Reduced shell lists constructed in    2.7 sec

Total number of grid points                  ...   167036
Total number of batches                      ...     2642
Average number of points per batch           ...       63
Average number of grid points per atom       ...     2421
Average number of shells per batch           ...    80.31 (22.81%)
Average number of basis functions per batch  ...   169.18 (21.80%)
Average number of large shells per batch     ...    51.97 (64.71%)
Average number of large basis fcns per batch ...   110.72 (65.45%)
Maximum spatial batch extension              ...  20.35, 20.57, 21.67 au
Average spatial batch extension              ...   2.52,  2.62,  3.01 au

Time for grid setup =    6.950 sec

------------------------------
INITIAL GUESS: MODEL POTENTIAL
------------------------------
Loading Hartree-Fock densities                     ... done
Calculating cut-offs                               ... done
Setting up the integral package                    ... done
Initializing the effective Hamiltonian             ... done
Starting the Coulomb interaction                   ... done (   3.5 sec)
Reading the grid                                   ... done
Mapping shells                                     ... done
Starting the XC term evaluation                    ... done (   3.0 sec)
  promolecular density results
     # of electrons  =    341.988310540
     EX              =   -314.994607065
     EC              =    -12.939481312
     EX+EC           =   -327.934088378
Transforming the Hamiltonian                       ... done (   0.1 sec)
Diagonalizing the Hamiltonian                      ... done (   0.1 sec)
Back transforming the eigenvectors                 ... done (   0.0 sec)
Now organizing SCF variables                       ... done
                      ------------------
                      INITIAL GUESS DONE (  13.7 sec)
                      ------------------
--------------
SCF ITERATIONS
--------------
ITER       Energy         Delta-E        Max-DP      RMS-DP      [F,P]     Damp
               ***  Starting incremental Fock matrix formation  ***
  0  -2848.2167723266   0.000000000000 0.11857283  0.00144410  0.2613796 0.7000
  1  -2848.6532020253  -0.436429698742 0.06510175  0.00085729  0.0705834 0.7000
                               ***Turning on DIIS***
  2  -2848.7765122449  -0.123310219567 0.07691018  0.00115344  0.0260803 0.0000
  3  -2849.0053161277  -0.228803882826 0.04659192  0.00066659  0.0395097 0.0000
  4  -2849.0537973142  -0.048481186488 0.01739179  0.00027305  0.0297077 0.0000
  5  -2849.0653849445  -0.011587630282 0.00810934  0.00009513  0.0044461 0.0000
  6  -2849.0660189566  -0.000634012100 0.00246350  0.00003720  0.0041530 0.0000
                      *** Initiating the SOSCF procedure ***
                           *** Shutting down DIIS ***
                      *** Re-Reading the Fockian *** 
                      *** Removing any level shift *** 
ITER      Energy       Delta-E        Grad      Rot      Max-DP    RMS-DP
  7  -2849.06620100  -0.0001820389  0.000505  0.000505  0.003097  0.000050
               *** Restarting incremental Fock matrix formation ***
  8  -2849.06618541   0.0000155875  0.001248  0.024957  0.010680  0.000110
  9  -2849.06531993   0.0008654783  0.005524  0.020465  0.008520  0.000087
 10  -2849.06622354  -0.0009036131  0.000351  0.004195  0.003745  0.000040
 11  -2849.06609049   0.0001330482  0.001216  0.003457  0.002880  0.000030
 12  -2849.06623809  -0.0001475976  0.000170  0.001496  0.001577  0.000017
 13  -2849.06621701   0.0000210785  0.000422  0.001031  0.001202  0.000013
 14  -2849.06624053  -0.0000235193  0.000067  0.001207  0.000742  0.000009
 15  -2849.06623509   0.0000054406  0.000190  0.000922  0.000604  0.000007
 16  -2849.06624109  -0.0000059982  0.000038  0.000568  0.000478  0.000004
 17  -2849.06624006   0.0000010351  0.000111  0.000436  0.000360  0.000003
 18  -2849.06624121  -0.0000011495  0.000014  0.000140  0.000128  0.000002
 19  -2849.06624097   0.0000002315  0.000042  0.000114  0.000104  0.000001
 20  -2849.06624122  -0.0000002453  0.000007  0.000063  0.000069  0.000001
 21  -2849.06624117   0.0000000491  0.000016  0.000042  0.000052  0.000001
                  ***Gradient check signals convergence***
              ***Rediagonalizing the Fockian in SOSCF/NRSCF***

               *****************************************************
               *                     SUCCESS                       *
               *           SCF CONVERGED AFTER  22 CYCLES          *
               *****************************************************

Setting up the final grid:

General Integration Accuracy     IntAcc      ...  5.010
Radial Grid Type                 RadialGrid  ... Gauss-Chebyshev
Angular Grid (max. acc.)         AngularGrid ... Lebedev-434
Angular grid pruning method      GridPruning ... 3 (G Style)
Weight generation scheme         WeightScheme... Becke
Basis function cutoff            BFCut       ...    1.0000e-11
Integration weight cutoff        WCut        ...    1.0000e-14
Grids for H and He will be reduced by one unit

# of grid points (after initial pruning)     ... 652690 (   0.6 sec)
# of grid points (after weights+screening)   ... 569366 (  12.4 sec)
nearest neighbour list constructed           ...    0.0 sec
Grid point re-assignment to atoms done       ...    0.1 sec
Grid point division into batches done        ...    3.5 sec
Reduced shell lists constructed in    9.9 sec

Total number of grid points                  ...   569366
Total number of batches                      ...     8928
Average number of points per batch           ...       63
Average number of grid points per atom       ...     8252
Average number of shells per batch           ...    73.33 (20.83%)
Average number of basis functions per batch  ...   153.63 (19.80%)
Average number of large shells per batch     ...    47.10 (64.23%)
Average number of large basis fcns per batch ...    99.73 (64.92%)
Maximum spatial batch extension              ...  21.22, 21.27, 23.18 au
Average spatial batch extension              ...   1.73,  1.79,  1.93 au

Final grid set up in   22.9 sec
Final integration                            ... done (   8.8 sec)
Change in XC energy                          ...    -0.000788923
Integrated number of electrons               ...   341.999991495
Previous integrated no of electrons          ...   341.999818432

----------------
TOTAL SCF ENERGY
----------------

Total Energy       :        -2849.06703014 Eh          -77527.05529 eV

Components:
Nuclear Repulsion  :         5242.14848293 Eh          142646.11221 eV
Electronic Energy  :        -8091.21551307 Eh         -220173.16750 eV
One Electron Energy:       -14325.82099063 Eh         -389825.40750 eV
Two Electron Energy:         6234.60547756 Eh          169652.24000 eV

Virial components:
Potential Energy   :        -5673.34543919 Eh         -154379.57791 eV
Kinetic Energy     :         2824.27840904 Eh           76852.52262 eV
Virial Ratio       :            2.00877698


DFT components:
N(Alpha)           :      170.999995747488 electrons
N(Beta)            :      170.999995747488 electrons
N(Total)           :      341.999991494977 electrons
E(X)               :     -318.285880460242 Eh       
E(C)               :      -12.943890959157 Eh       
E(XC)              :     -331.229771419399 Eh       
DFET-embed. en.    :        0.000000000000 Eh       

---------------
SCF CONVERGENCE
---------------

  Last Energy change         ...   -5.1074e-08  Tolerance :   1.0000e-08
  Last MAX-Density change    ...    2.5979e-05  Tolerance :   1.0000e-07
  Last RMS-Density change    ...    3.0816e-07  Tolerance :   5.0000e-09
  Last Orbital Gradient      ...    2.1602e-06  Tolerance :   1.0000e-05
  Last Orbital Rotation      ...    2.7543e-05  Tolerance :   1.0000e-05

             **** THE GBW FILE WAS UPDATED (DPP2F_TT_Optimize_Monomer.gbw) ****
             **** DENSITY FILE WAS UPDATED (DPP2F_TT_Optimize_Monomer.scfp) ****
             **** ENERGY FILE WAS UPDATED (DPP2F_TT_Optimize_Monomer.en.tmp) ****
             **** THE GBW FILE WAS UPDATED (DPP2F_TT_Optimize_Monomer.gbw) ****
[...]
      py      :     1.498322
      dz2     :     0.004208  d :     0.036745
      dxz     :     0.006021
      dyz     :     0.004084
      dx2y2   :     0.014511
      dxy     :     0.007921
 41 C s       :     2.841395  s :     2.841395
      pz      :     0.971141  p :     2.979234
      px      :     1.026007
      py      :     0.982085
      dz2     :     0.009498  d :     0.142031
      dxz     :     0.019717
      dyz     :     0.024837
      dx2y2   :     0.041896
      dxy     :     0.046084
 42 C s       :     2.850844  s :     2.850844
      pz      :     1.110789  p :     3.164942
      px      :     1.024900
      py      :     1.029253
      dz2     :     0.008612  d :     0.101558
      dxz     :     0.012766
      dyz     :     0.010647
      dx2y2   :     0.035916
      dxy     :     0.033616
 43 N s       :     3.091500  s :     3.091500
      pz      :     1.516052  p :     3.850588
      px      :     1.182996
      py      :     1.151539
      dz2     :     0.005087  d :     0.063505
      dxz     :     0.005972
      dyz     :     0.008112
      dx2y2   :     0.022889
      dxy     :     0.021445
 44 C s       :     2.844472  s :     2.844472
      pz      :     0.891059  p :     2.842215
      px      :     0.924268
      py      :     1.026888
      dz2     :     0.014025  d :     0.248707
      dxz     :     0.032751
      dyz     :     0.027797
      dx2y2   :     0.121038
      dxy     :     0.053097
 45 C s       :     2.854293  s :     2.854293
      pz      :     1.090746  p :     3.161774
      px      :     1.037653
      py      :     1.033375
      dz2     :     0.008701  d :     0.104977
      dxz     :     0.014570
      dyz     :     0.010528
      dx2y2   :     0.037782
      dxy     :     0.033395
 46 O s       :     3.554750  s :     3.554750
      pz      :     1.409344  p :     4.587043
      px      :     1.595036
      py      :     1.582663
      dz2     :     0.004178  d :     0.029950
      dxz     :     0.003523
      dyz     :     0.003489
      dx2y2   :     0.005985
      dxy     :     0.012775
 47 C s       :     2.844986  s :     2.844986
      pz      :     0.907376  p :     2.848740
      px      :     0.917430
      py      :     1.023934
      dz2     :     0.013833  d :     0.243900
      dxz     :     0.030120
      dyz     :     0.029661
      dx2y2   :     0.118117
      dxy     :     0.052169
 48 C s       :     2.868934  s :     2.868934
      pz      :     0.962546  p :     2.951773
      px      :     1.024288
      py      :     0.964939
      dz2     :     0.007874  d :     0.119067
      dxz     :     0.006353
      dyz     :     0.025798
      dx2y2   :     0.036953
      dxy     :     0.042088
 49 N s       :     3.096740  s :     3.096740
      pz      :     1.486432  p :     3.835906
      px      :     1.190000
      py      :     1.159473
      dz2     :     0.005030  d :     0.064930
      dxz     :     0.006443
      dyz     :     0.008521
      dx2y2   :     0.023674
      dxy     :     0.021263
 50 H s       :     0.894217  s :     0.894217
      pz      :     0.014587  p :     0.069219
      px      :     0.045125
      py      :     0.009507
 51 O s       :     3.552741  s :     3.552741
      pz      :     1.428579  p :     4.601529
      px      :     1.596734
      py      :     1.576216
      dz2     :     0.003963  d :     0.028823
      dxz     :     0.003200
      dyz     :     0.003635
      dx2y2   :     0.005747
      dxy     :     0.012279
 52 C s       :     2.842736  s :     2.842736
      pz      :     1.073806  p :     3.055284
      px      :     1.074130
      py      :     0.907348
      dz2     :     0.015947  d :     0.093849
      dxz     :     0.020291
      dyz     :     0.016823
      dx2y2   :     0.018305
      dxy     :     0.022483
 53 H s       :     0.905298  s :     0.905298
      pz      :     0.031486  p :     0.064120
      px      :     0.020949
      py      :     0.011685
 54 H s       :     0.905333  s :     0.905333
      pz      :     0.032678  p :     0.064119
      px      :     0.020339
      py      :     0.011102
 55 H s       :     0.886413  s :     0.886413
      pz      :     0.011854  p :     0.069146
      px      :     0.037883
      py      :     0.019408
 56 C s       :     2.843604  s :     2.843604
      pz      :     1.077448  p :     3.053876
      px      :     1.067386
      py      :     0.909042
      dz2     :     0.015823  d :     0.092587
      dxz     :     0.020698
      dyz     :     0.015442
      dx2y2   :     0.017050
      dxy     :     0.023573
 57 H s       :     0.889544  s :     0.889544
      pz      :     0.012080  p :     0.068785
      px      :     0.036169
      py      :     0.020537
 58 H s       :     0.903835  s :     0.903835
      pz      :     0.031376  p :     0.063645
      px      :     0.021502
      py      :     0.010767
 59 H s       :     0.904038  s :     0.904038
      pz      :     0.031877  p :     0.063568
      px      :     0.020115
      py      :     0.011575
 60 C s       :     2.855947  s :     2.855947
      pz      :     1.064340  p :     2.975295
      px      :     1.023839
      py      :     0.887115
      dz2     :     0.011390  d :     0.155065
      dxz     :     0.016131
      dyz     :     0.022717
      dx2y2   :     0.053326
      dxy     :     0.051500
 61 C s       :     2.876908  s :     2.876908
      pz      :     1.027061  p :     3.102654
      px      :     1.038018
      py      :     1.037575
      dz2     :     0.006296  d :     0.084570
      dxz     :     0.013829
      dyz     :     0.005343
      dx2y2   :     0.024530
      dxy     :     0.034573
 62 C s       :     2.877319  s :     2.877319
      pz      :     1.029403  p :     3.112398
      px      :     1.032019
      py      :     1.050976
      dz2     :     0.006406  d :     0.085981
      dxz     :     0.006662
      dyz     :     0.012872
      dx2y2   :     0.032231
      dxy     :     0.027810
 63 H s       :     0.892960  s :     0.892960
      pz      :     0.016424  p :     0.071301
      px      :     0.011937
      py      :     0.042940
 64 C s       :     2.886374  s :     2.886374
      pz      :     1.021885  p :     2.928214
      px      :     0.842055
      py      :     1.064274
      dz2     :     0.010033  d :     0.137409
      dxz     :     0.020527
      dyz     :     0.010706
      dx2y2   :     0.054843
      dxy     :     0.041300
 65 H s       :     0.891203  s :     0.891203
      pz      :     0.015286  p :     0.068281
      px      :     0.037600
      py      :     0.015395
 66 O s       :     3.442141  s :     3.442141
      pz      :     1.607787  p :     4.474721
      px      :     1.345490
      py      :     1.521444
      dz2     :     0.004107  d :     0.037345
      dxz     :     0.006684
      dyz     :     0.003891
      dx2y2   :     0.013474
      dxy     :     0.009189
 67 H s       :     0.894363  s :     0.894363
      pz      :     0.016354  p :     0.069851
      px      :     0.017796
      py      :     0.035701
 68 H s       :     0.890654  s :     0.890654
      pz      :     0.015872  p :     0.069439
      px      :     0.038947
      py      :     0.014620


                      *****************************
                      * MAYER POPULATION ANALYSIS *
                      *****************************

  NA   - Mulliken gross atomic population
  ZA   - Total nuclear charge
  QA   - Mulliken gross atomic charge
  VA   - Mayer's total valence
  BVA  - Mayer's bonded valence
  FA   - Mayer's free valence

  ATOM       NA         ZA         QA         VA         BVA        FA
  0 C      5.8739     6.0000     0.1261     3.7123     3.7123     0.0000
  1 C      6.0384     6.0000    -0.0384     3.7281     3.7281    -0.0000
  2 N      7.2834     7.0000    -0.2834     3.3551     3.3551    -0.0000
  3 C      6.0374     6.0000    -0.0374     3.7366     3.7366    -0.0000
  4 C      5.8536     6.0000     0.1464     4.0841     4.0841    -0.0000
  5 C      5.9463     6.0000     0.0537     3.9175     3.9175    -0.0000
  6 H      0.9460     1.0000     0.0540     0.9863     0.9863    -0.0000
  7 H      0.9338     1.0000     0.0662     1.0353     1.0353    -0.0000
  8 H      0.9461     1.0000     0.0539     0.9863     0.9863    -0.0000
  9 C      5.8677     6.0000     0.1323     4.1357     4.1357     0.0000
 10 N      7.2808     7.0000    -0.2808     3.3434     3.3434     0.0000
 11 C      5.8955     6.0000     0.1045     3.6939     3.6939     0.0000
 12 O      8.1779     8.0000    -0.1779     2.3818     2.3818    -0.0000
 13 O      8.1641     8.0000    -0.1641     2.4045     2.4045     0.0000
 14 C      5.9468     6.0000     0.0532     3.9153     3.9153    -0.0000
 15 H      0.9311     1.0000     0.0689     1.0341     1.0341    -0.0000
 16 H      0.9477     1.0000     0.0523     0.9865     0.9865     0.0000
 17 H      0.9477     1.0000     0.0523     0.9866     0.9866    -0.0000
 18 C      5.8706     6.0000     0.1294     3.7915     3.7915    -0.0000
 19 C      6.0936     6.0000    -0.0936     3.7347     3.7347     0.0000
 20 C      6.0693     6.0000    -0.0693     3.7339     3.7339     0.0000
 21 H      0.9969     1.0000     0.0031     1.0071     1.0071     0.0000
 22 C      5.8035     6.0000     0.1965     3.9398     3.9398    -0.0000
 23 O      8.1686     8.0000    -0.1686     2.4514     2.4514     0.0000
 24 C      6.1425     6.0000    -0.1425     3.8125     3.8125     0.0000
 25 C      6.0160     6.0000    -0.0160     3.8783     3.8783    -0.0000
 26 C      6.0142     6.0000    -0.0142     3.8845     3.8845    -0.0000
 27 H      0.9670     1.0000     0.0330     1.0645     1.0645    -0.0000
 28 S     15.8504    16.0000     0.1496     2.4348     2.4348    -0.0000
 29 C      6.0148     6.0000    -0.0148     3.8852     3.8852     0.0000
 30 S     15.8509    16.0000     0.1491     2.4352     2.4352    -0.0000
 31 C      6.1432     6.0000    -0.1432     3.8111     3.8111    -0.0000
 32 C      6.0152     6.0000    -0.0152     3.8786     3.8786     0.0000
 33 H      0.9669     1.0000     0.0331     1.0648     1.0648    -0.0000
 34 C      5.8028     6.0000     0.1972     3.9411     3.9411    -0.0000
 35 C      6.0698     6.0000    -0.0698     3.7342     3.7342    -0.0000
 36 C      6.0920     6.0000    -0.0920     3.7353     3.7353    -0.0000
 37 H      0.9851     1.0000     0.0149     0.9949     0.9949     0.0000
 38 C      5.8715     6.0000     0.1285     3.7955     3.7955    -0.0000
 39 H      0.9959     1.0000     0.0041     1.0069     1.0069     0.0000
 40 O      8.1683     8.0000    -0.1683     2.4520     2.4520    -0.0000
 41 C      5.8847     6.0000     0.1153     3.7099     3.7099    -0.0000
 42 C      6.0566     6.0000    -0.0566     3.7530     3.7530     0.0000
 43 N      7.2816     7.0000    -0.2816     3.3312     3.3312    -0.0000
 44 C      5.8473     6.0000     0.1527     4.1302     4.1302     0.0000
 45 C      6.0186     6.0000    -0.0186     3.7450     3.7450     0.0000
 46 O      8.1706     8.0000    -0.1706     2.3940     2.3940    -0.0000
 47 C      5.8475     6.0000     0.1525     4.0828     4.0828    -0.0000
 48 C      5.9657     6.0000     0.0343     3.7583     3.7583     0.0000
 49 N      7.2677     7.0000    -0.2677     3.3637     3.3637     0.0000
 50 H      0.9692     1.0000     0.0308     0.9956     0.9956     0.0000
 51 O      8.1768     8.0000    -0.1768     2.3800     2.3800    -0.0000
 52 C      5.9480     6.0000     0.0520     3.9164     3.9164    -0.0000
 53 H      0.9468     1.0000     0.0532     0.9866     0.9866    -0.0000
 54 H      0.9468     1.0000     0.0532     0.9865     0.9865     0.0000
 55 H      0.9305     1.0000     0.0695     1.0327     1.0327     0.0000
 56 C      5.9437     6.0000     0.0563     3.9079     3.9079    -0.0000
 57 H      0.9334     1.0000     0.0666     1.0334     1.0334     0.0000
 58 H      0.9497     1.0000     0.0503     0.9873     0.9873    -0.0000
 59 H      0.9487     1.0000     0.0513     0.9867     0.9867    -0.0000
 60 C      5.9228     6.0000     0.0772     3.8297     3.8297    -0.0000
 61 C      6.0912     6.0000    -0.0912     3.7801     3.7801     0.0000
 62 C      6.0197     6.0000    -0.0197     3.7615     3.7615     0.0000
 63 H      0.9985     1.0000     0.0015     1.0089     1.0089     0.0000
 64 C      5.8720     6.0000     0.1280     3.8098     3.8098     0.0000
 65 H      0.9805     1.0000     0.0195     0.9901     0.9901     0.0000
 66 O      8.1506     8.0000    -0.1506     2.4724     2.4724     0.0000
 67 H      0.9578     1.0000     0.0422     0.9957     0.9957     0.0000
 68 H      0.9856     1.0000     0.0144     0.9948     0.9948     0.0000

  Mayer bond orders larger than 0.100000
B(  0-C ,  1-C ) :   1.2765 B(  0-C ,  2-N ) :   1.2007 B(  0-C , 60-C ) :   1.1068 
B(  1-C ,  3-C ) :   1.2666 B(  1-C ,  9-C ) :   1.0014 B(  2-N ,  4-C ) :   0.9734 
B(  2-N ,  5-C ) :   0.9895 B(  3-C ,  4-C ) :   1.0236 B(  3-C , 11-C ) :   1.2541 
B(  4-C , 12-O ) :   2.0024 B(  5-C ,  6-H ) :   0.9590 B(  5-C ,  7-H ) :   0.9336 
B(  5-C ,  8-H ) :   0.9590 B(  9-C , 10-N ) :   0.9517 B(  9-C , 13-O ) :   2.1118 
B( 10-N , 11-C ) :   1.2101 B( 10-N , 14-C ) :   0.9895 B( 11-C , 18-C ) :   1.1069 
B( 14-C , 15-H ) :   0.9355 B( 14-C , 16-H ) :   0.9597 B( 14-C , 17-H ) :   0.9597 
B( 18-C , 19-C ) :   1.3535 B( 18-C , 22-C ) :   0.1280 B( 18-C , 23-O ) :   1.1539 
B( 19-C , 20-C ) :   1.2406 B( 19-C , 21-H ) :   0.9981 B( 20-C , 22-C ) :   1.3787 
B( 20-C , 68-H ) :   0.9869 B( 22-C , 23-O ) :   1.1736 B( 22-C , 24-C ) :   1.1699 
B( 24-C , 25-C ) :   1.4082 B( 24-C , 28-S ) :   1.0889 B( 25-C , 26-C ) :   1.2633 
B( 25-C , 27-H ) :   0.9688 B( 26-C , 29-C ) :   1.3385 B( 26-C , 30-S ) :   1.0727 
B( 28-S , 29-C ) :   1.0717 B( 29-C , 32-C ) :   1.2650 B( 30-S , 31-C ) :   1.0879 
B( 31-C , 32-C ) :   1.4077 B( 31-C , 34-C ) :   1.1704 B( 32-C , 33-H ) :   0.9685 
B( 34-C , 35-C ) :   1.3771 B( 34-C , 38-C ) :   0.1280 B( 34-C , 40-O ) :   1.1766 
B( 35-C , 36-C ) :   1.2417 B( 35-C , 37-H ) :   0.9871 B( 36-C , 38-C ) :   1.3563 
B( 36-C , 39-H ) :   0.9978 B( 38-C , 40-O ) :   1.1510 B( 38-C , 41-C ) :   1.1103 
B( 41-C , 42-C ) :   1.2859 B( 41-C , 43-N ) :   1.1989 B( 42-C , 45-C ) :   1.2507 
B( 42-C , 47-C ) :   1.0311 B( 43-N , 44-C ) :   0.9511 B( 43-N , 52-C ) :   0.9890 
B( 44-C , 45-C ) :   0.9909 B( 44-C , 46-O ) :   2.1140 B( 45-C , 48-C ) :   1.3786 
B( 47-C , 49-N ) :   0.9744 B( 47-C , 51-O ) :   1.9978 B( 48-C , 49-N ) :   1.2158 
B( 48-C , 50-H ) :   0.9740 B( 49-N , 56-C ) :   0.9801 B( 52-C , 53-H ) :   0.9599 
B( 52-C , 54-H ) :   0.9598 B( 52-C , 55-H ) :   0.9368 B( 56-C , 57-H ) :   0.9466 
B( 56-C , 58-H ) :   0.9669 B( 56-C , 59-H ) :   0.9669 B( 60-C , 61-C ) :   1.4017 
B( 60-C , 64-C ) :   0.1061 B( 60-C , 66-O ) :   1.1864 B( 61-C , 62-C ) :   1.2320 
B( 61-C , 63-H ) :   0.9987 B( 62-C , 64-C ) :   1.4690 B( 62-C , 65-H ) :   0.9847 
B( 64-C , 66-O ) :   1.1624 B( 64-C , 67-H ) :   0.9925 

-------
TIMINGS
-------

Total SCF time: 0 days 0 hours 2 min 24 sec 

Total time                  ....     144.327 sec
Sum of individual times     ....     141.977 sec  ( 98.4%)

Fock matrix formation       ....     109.828 sec  ( 76.1%)
  Split-RI-J                ....      68.482 sec  ( 62.4% of F)
  XC integration            ....      39.880 sec  ( 36.3% of F)
    Basis function eval.    ....      16.315 sec  ( 40.9% of XC)
    Density eval.           ....       9.610 sec  ( 24.1% of XC)
    XC-Functional eval.     ....       2.419 sec  (  6.1% of XC)
    XC-Potential eval.      ....       8.791 sec  ( 22.0% of XC)
Diagonalization             ....       0.221 sec  (  0.2%)
Density matrix formation    ....       0.383 sec  (  0.3%)
Population analysis         ....       0.184 sec  (  0.1%)
Initial guess               ....       0.288 sec  (  0.2%)
Orbital Transformation      ....       0.000 sec  (  0.0%)
Orbital Orthonormalization  ....       0.223 sec  (  0.2%)
DIIS solution               ....       0.080 sec  (  0.1%)
SOSCF solution              ....       1.614 sec  (  1.1%)
Grid generation             ....      29.379 sec  ( 20.4%)


-------------------------------------------------------------------------------
                          DFT DISPERSION CORRECTION                            
                                                                               
                              DFTD3 V3.1  Rev 1                                
                          USING Becke-Johnson damping                          
-------------------------------------------------------------------------------
The BP86 functional is recognized
Active option DFTDOPT                   ...         4   

molecular C6(AA) [au] = 69998.328219 


            DFT-D V3
 parameters
 s6 scaling factor         :     1.0000 
 a1 scaling factor         :     0.3946 
 s8 scaling factor         :     3.2822 
 a2 scaling factor         :     4.8516 
 ad hoc parameters k1-k3   :    16.0000     1.3333    -4.0000 

 Edisp/kcal,au: -103.298842912612  -0.164617167012 
 E6   /kcal   : -37.897130793 
 E8   /kcal   : -65.401712120 
 % E8         :  63.313112012 

-------------------------   ----------------
Dispersion correction           -0.164617167
-------------------------   ----------------


-------------------------   --------------------
FINAL SINGLE POINT ENERGY     -2849.414668577689
-------------------------   --------------------

                                *** OPTIMIZATION RUN DONE ***

                            ***************************************
                            *     ORCA property calculations      *
                            ***************************************

                                    ---------------------
                                    Active property flags
                                    ---------------------
   (+) Dipole Moment


------------------------------------------------------------------------------
                       ORCA ELECTRIC PROPERTIES CALCULATION
------------------------------------------------------------------------------

Dipole Moment Calculation                       ... on
Quadrupole Moment Calculation                   ... off
Polarizability Calculation                      ... off
GBWName                                         ... DPP2F_TT_Optimize_Monomer.gbw
Electron density file                           ... DPP2F_TT_Optimize_Monomer.scfp
The origin for moment calculation is the CENTER OF MASS  = ( 5.419720,  6.756859 -0.019474)

-------------
DIPOLE MOMENT
-------------
                                X             Y             Z
Electronic contribution:      1.37446      -1.85045       0.08835
Nuclear contribution   :     -2.29071       1.76486      -0.09782
                        -----------------------------------------
Total Dipole Moment    :     -0.91625      -0.08558      -0.00947
                        -----------------------------------------
Magnitude (a.u.)       :      0.92029
Magnitude (Debye)      :      2.33918



--------------------
Rotational spectrum 
--------------------
 
Rotational constants in cm-1:     0.005480     0.000584     0.000528 
Rotational constants in MHz :   164.282901    17.507975    15.828356 

 Dipole components along the rotational axes: 
x,y,z [a.u.] :     0.833023    -0.391150     0.000777 
x,y,z [Debye]:     2.117375    -0.994225     0.001974 

 

Timings for individual modules:

Sum of individual times         ...     5877.189 sec (=  97.953 min)
GTO integral calculation        ...       44.402 sec (=   0.740 min)   0.8 %
SCF iterations                  ...     3855.280 sec (=  64.255 min)  65.6 %
SCF Gradient evaluation         ...     1952.461 sec (=  32.541 min)  33.2 %
Geometry relaxation             ...       25.046 sec (=   0.417 min)   0.4 %
                             ****ORCA TERMINATED NORMALLY****
TOTAL RUN TIME: 0 days 1 hours 38 minutes 23 seconds 721 msec
