
                                 *****************
                                 * O   R   C   A *
                                 *****************

           --- An Ab Initio, DFT and Semiempirical electronic structure package ---

                  #######################################################
                  #                        -***-                        #
                  #          Department of theory and spectroscopy      #
                  #               Directorship: Frank Neese             #
                  #        Max Planck Institute fuer Kohlenforschung    #
                  #                Kaiser Wilhelm Platz 1               #
                  #                 D-45470 Muelheim/Ruhr               #
                  #                      Germany                        #
                  #                                                     #
                  #                  All rights reserved                #
                  #                        -***-                        #
                  #######################################################


                         Program Version 4.2.0 -  RELEASE  -


 With contributions from (in alphabetic order):
   Daniel Aravena         : Magnetic Suceptibility
   Michael Atanasov       : Ab Initio Ligand Field Theory (pilot matlab implementation)
   Alexander A. Auer      : GIAO ZORA, VPT2
   Ute Becker             : Parallelization
   Giovanni Bistoni       : ED, misc. LED, open-shell LED, HFLED
   Martin Brehm           : Molecular dynamics
   Dmytro Bykov           : SCF Hessian
   Vijay G. Chilkuri      : MRCI spin determinant printing, contributions to CSF-ICE
   Dipayan Datta          : RHF DLPNO-CCSD density
   Achintya Kumar Dutta   : EOM-CC, STEOM-CC
   Dmitry Ganyushin       : Spin-Orbit,Spin-Spin,Magnetic field MRCI
   Miquel Garcia          : C-PCM Hessian, Gaussian charge scheme
   Yang Guo               : DLPNO-NEVPT2, CIM, IAO-localization
   Andreas Hansen         : Spin unrestricted coupled pair/coupled cluster methods
   Benjamin Helmich-Paris : CASSCF linear response (MC-RPA)
   Lee Huntington         : MR-EOM, pCC
   Robert Izsak           : Overlap fitted RIJCOSX, COSX-SCS-MP3, EOM
   Christian Kollmar      : KDIIS, OOCD, Brueckner-CCSD(T), CCSD density
   Simone Kossmann        : Meta GGA functionals, TD-DFT gradient, OOMP2, MP2 Hessian
   Martin Krupicka        : AUTO-CI
   Lucas Lang             : DCDCAS
   Dagmar Lenk            : GEPOL surface, SMD
   Dimitrios Liakos       : Extrapolation schemes; Compound Job, initial MDCI parallelization
   Dimitrios Manganas     : Further ROCIS development; embedding schemes
   Dimitrios Pantazis     : SARC Basis sets
   Taras Petrenko         : DFT Hessian,TD-DFT gradient, ASA, ECA, R-Raman, ABS, FL, XAS/XES, NRVS
   Peter Pinski           : DLPNO-MP2, DLPNO-MP2 Gradient
   Christoph Reimann      : Effective Core Potentials
   Marius Retegan         : Local ZFS, SOC
   Christoph Riplinger    : Optimizer, TS searches, QM/MM, DLPNO-CCSD(T), (RO)-DLPNO pert. Triples
   Tobias Risthaus        : Range-separated hybrids, TD-DFT gradient, RPA, STAB
   Michael Roemelt        : Original ROCIS implementation
   Masaaki Saitow         : Open-shell DLPNO-CCSD energy and density
   Barbara Sandhoefer     : DKH picture change effects
   Avijit Sen             : IP-ROCIS
   Kantharuban Sivalingam : CASSCF convergence, NEVPT2, FIC-MRCI
   Bernardo de Souza      : ESD, SOC TD-DFT
   Georgi Stoychev        : AutoAux, RI-MP2 NMR
   Willem Van den Heuvel  : Paramagnetic NMR
   Boris Wezisla          : Elementary symmetry handling
   Frank Wennmohs         : Technical directorship


 We gratefully acknowledge several colleagues who have allowed us to
 interface, adapt or use parts of their codes:
   Stefan Grimme, W. Hujo, H. Kruse,             : VdW corrections, initial TS optimization,
                  C. Bannwarth                     DFT functionals, gCP, sTDA/sTD-DF
   Ed Valeev, F. Pavosevic, A. Kumar             : LibInt (2-el integral package), F12 methods
   Garnet Chan, S. Sharma, J. Yang, R. Olivares  : DMRG
   Ulf Ekstrom                                   : XCFun DFT Library
   Mihaly Kallay                                 : mrcc  (arbitrary order and MRCC methods)
   Andreas Klamt, Michael Diedenhofen            : otool_cosmo (COSMO solvation model)
   Jiri Pittner, Ondrej Demel                    : Mk-CCSD
   Frank Weinhold                                : gennbo (NPA and NBO analysis)
   Christopher J. Cramer and Donald G. Truhlar   : smd solvation model
   Lars Goerigk                                  : TD-DFT with DH, B97 family of functionals
   V. Asgeirsson, H. Jonsson                     : NEB implementation
   FAccTs GmbH                                   : IRC, NEB, NEB-TS, Multilevel, MM, QM/MM, CI optimization
   S Lehtola, MJT Oliveira, MAL Marques          : LibXC Library


 Your calculation uses the libint2 library for the computation of 2-el integrals
 For citations please refer to: http://libint.valeyev.net

 Your ORCA version has been built with support for libXC version: 4.2.3
 For citations please refer to: https://tddft.org/programs/libxc/

 This ORCA versions uses:
   CBLAS   interface :  Fast vector & matrix operations
   LAPACKE interface :  Fast linear algebra routines
   SCALAPACK package :  Parallel linear algebra routines


Your calculation utilizes the atom-pairwise dispersion correction
with the Becke-Johnson damping scheme (D3BJ)
Cite in your paper:
S.Grimme, S.Ehrlich, L.Goerigk, J Comput Chem, (2011), 32, 1456–1465 
S.Grimme, J.Antony, S.Ehrlich and H.Krieg, J.Chem.Phys., 132, (2010), 154104 
   

----- Orbital basis set information -----
Your calculation utilizes the basis: def2-SVP
   F. Weigend and R. Ahlrichs, Phys. Chem. Chem. Phys. 7, 3297 (2005).

----- AuxJ basis set information -----
Your calculation utilizes the auxiliary basis: def2/J
   F. Weigend, Phys. Chem. Chem. Phys. 8, 1057 (2006).

================================================================================
                                        WARNINGS
                       Please study these warnings very carefully!
================================================================================


WARNING: Geometry Optimization
  ===> : Switching off AutoStart
         For restart on a previous wavefunction, please use MOREAD

INFO   : the flag for use of LIBINT has been found!

================================================================================
                                       INPUT FILE
================================================================================
NAME = DPP2T_TT_Optimize_Monomer.inp
|  1> ! RI BP86 def2-SVP def2/J D3BJ TIGHTSCF  Opt Grid3 FinalGrid5
|  2> %maxcore 3000
|  3> %geom
|  4> Constraints
|  5> {D 1 5 61 67 0.0 C}
|  6> {D 6 5 61 61 0.0 C}
|  7> {D 2 3 18 19 0.0 C}
|  8> {D 4 3 18 24 0.0 C}
|  9> {D 20 22 25 30 0.0 C}
| 10> {D 24 22 25 26 0.0 C}
| 11> {D 32 33 35 37 0.0 C}
| 12> {D 31 33 35 36 0.0 C}
| 13> {D 37 38 42 43 0.0 C}
| 14> {D 39 38 42 45 0.0 C}
| 15> end
| 16> end
| 17> 
| 18> *xyz 0 1
| 19> C	-6.370303	0.265804	0.046593
| 20> C	-5.416703	-0.863586	0.013813
| 21> N	-5.544963	1.401714	0.024283
| 22> C	-4.181213	1.072044	0.007403
| 23> C	-4.086653	-0.270256	-0.000247
| 24> C	-5.325413	-2.208566	-0.006987
| 25> N	-3.961013	-2.537676	-0.050487
| 26> C	-3.134563	-1.395136	-0.018927
| 27> C	-3.306853	-3.816806	-0.082407
| 28> H	-3.932463	-4.617996	-0.458757
| 29> H	-2.930193	-4.044526	0.920163
| 30> H	-2.443703	-3.759416	-0.755627
| 31> C	-6.153923	2.705724	0.018803
| 32> H	-7.245953	2.634004	0.018473
| 33> H	-5.864053	3.239994	-0.890077
| 34> H	-5.862033	3.248884	0.921283
| 35> O	-7.583083	0.244934	0.085873
| 36> O	-1.920813	-1.365256	-0.007097
| 37> C	-3.105393	2.035764	0.002153
| 38> C	-3.147363	3.425964	0.001723
| 39> C	-1.876803	4.069234	0.002033
| 40> H	-4.047193	4.018594	0.002573
| 41> C	-0.825473	3.180404	0.002203
| 42> H	-1.763333	5.146614	0.002653
| 43> S	-1.430133	1.580664	0.001433
| 44> C	0.595937	3.493434	0.002803
| 45> C	1.664667	2.612674	0.002893
| 46> C	2.919827	3.299844	0.001843
| 47> H	1.572817	1.533234	0.003083
| 48> C	2.786987	4.653804	0.001953
| 49> S	1.120967	5.141014	0.003723
| 50> S	4.595697	2.823124	0.000373
| 51> C	4.034317	5.345574	0.000863
| 52> C	5.108807	4.473694	-0.000747
| 53> H	4.115427	6.426034	0.001973
| 54> C	6.520597	4.824554	0.000153
| 55> C	7.610747	3.986394	0.020383
| 56> S	7.052397	6.446114	-0.025377
| 57> C	8.751187	6.079444	0.006063
| 58> C	8.855507	4.693054	0.034093
| 59> H	7.544927	2.905034	0.033973
| 60> H	9.772697	4.133484	0.065903
| 61> C	9.741927	7.133704	0.002323
| 62> C	9.474997	8.461364	0.005103
| 63> C	10.735297	9.170244	0.002343
| 64> N	11.149357	6.972854	-0.008067
| 65> C	11.828637	8.210734	-0.001697
| 66> C	10.539517	10.482344	0.003913
| 67> C	8.429477	9.534924	0.010123
| 68> N	9.182787	10.726184	0.007403
| 69> H	11.274807	11.274204	0.002263
| 70> C	8.604757	12.046494	0.006863
| 71> H	7.513007	11.990654	0.006913
| 72> H	8.937437	12.581994	-0.887327
| 73> H	8.937827	12.582894	0.900273
| 74> C	11.980787	5.804564	-0.011707
| 75> H	11.456187	4.867054	-0.100047
| 76> H	12.576087	5.796134	0.907793
| 77> H	12.676927	5.874494	-0.855097
| 78> O	7.219727	9.428004	0.014593
| 79> O	13.012967	8.457984	0.000443
| 80> C	-6.429103	-3.143756	0.002053
| 81> C	-6.472773	-4.529186	0.165943
| 82> C	-7.777523	-5.111686	0.088323
| 83> H	-5.614163	-5.156026	0.343083
| 84> C	-8.746513	-4.159776	-0.072667
| 85> H	-7.989603	-6.170646	0.172273
| 86> S	-8.072733	-2.613276	-0.220087
| 87> H	-9.818093	-4.299006	-0.125267
| 88> **                         ****END OF INPUT****
================================================================================

                       *****************************
                       * Geometry Optimization Run *
                       *****************************

Geometry optimization settings:
Update method            Update   .... BFGS
Choice of coordinates    CoordSys .... Z-matrix Internals
Initial Hessian          InHess   .... Almoef's Model

Convergence Tolerances:
Energy Change            TolE     ....  5.0000e-06 Eh
Max. Gradient            TolMAXG  ....  3.0000e-04 Eh/bohr
RMS Gradient             TolRMSG  ....  1.0000e-04 Eh/bohr
Max. Displacement        TolMAXD  ....  4.0000e-03 bohr
RMS Displacement         TolRMSD  ....  2.0000e-03 bohr
Strict Convergence                ....  False
------------------------------------------------------------------------------
                        ORCA OPTIMIZATION COORDINATE SETUP
------------------------------------------------------------------------------

The optimization will be done in new redundant internal coordinates
Making redundant internal coordinates   ...  (new redundants) done
Evaluating the initial hessian          ...  (Almloef) done
Evaluating the coordinates              ...  done
Calculating the B-matrix                .... done
Calculating the G-matrix                .... done
Diagonalizing the G-matrix              .... [file orca_tools/Tool-Linalg/qcrdiag2.cpp, line 2688]: Diagonalization failed with error code: -5 !


ORCA finished by error termination in GSTEP
Calling Command: /home/andrewk/orca_4_2_0_linux_x86-64_openmpi314/orca_gstep DPP2T_TT_Optimize_Monomer.ginp.tmp 
[file orca_tools/qcmsg.cpp, line 458]: 
  .... aborting the run


                                 *****************
                                 * O   R   C   A *
                                 *****************

           --- An Ab Initio, DFT and Semiempirical electronic structure package ---

                  #######################################################
                  #                        -***-                        #
                  #          Department of theory and spectroscopy      #
                  #               Directorship: Frank Neese             #
                  #        Max Planck Institute fuer Kohlenforschung    #
                  #                Kaiser Wilhelm Platz 1               #
                  #                 D-45470 Muelheim/Ruhr               #
                  #                      Germany                        #
                  #                                                     #
                  #                  All rights reserved                #
                  #                        -***-                        #
                  #######################################################


                         Program Version 4.2.0 -  RELEASE  -


 With contributions from (in alphabetic order):
   Daniel Aravena         : Magnetic Suceptibility
   Michael Atanasov       : Ab Initio Ligand Field Theory (pilot matlab implementation)
   Alexander A. Auer      : GIAO ZORA, VPT2
   Ute Becker             : Parallelization
   Giovanni Bistoni       : ED, misc. LED, open-shell LED, HFLED
   Martin Brehm           : Molecular dynamics
   Dmytro Bykov           : SCF Hessian
   Vijay G. Chilkuri      : MRCI spin determinant printing, contributions to CSF-ICE
   Dipayan Datta          : RHF DLPNO-CCSD density
   Achintya Kumar Dutta   : EOM-CC, STEOM-CC
   Dmitry Ganyushin       : Spin-Orbit,Spin-Spin,Magnetic field MRCI
   Miquel Garcia          : C-PCM Hessian, Gaussian charge scheme
   Yang Guo               : DLPNO-NEVPT2, CIM, IAO-localization
   Andreas Hansen         : Spin unrestricted coupled pair/coupled cluster methods
   Benjamin Helmich-Paris : CASSCF linear response (MC-RPA)
   Lee Huntington         : MR-EOM, pCC
   Robert Izsak           : Overlap fitted RIJCOSX, COSX-SCS-MP3, EOM
   Christian Kollmar      : KDIIS, OOCD, Brueckner-CCSD(T), CCSD density
   Simone Kossmann        : Meta GGA functionals, TD-DFT gradient, OOMP2, MP2 Hessian
   Martin Krupicka        : AUTO-CI
   Lucas Lang             : DCDCAS
   Dagmar Lenk            : GEPOL surface, SMD
   Dimitrios Liakos       : Extrapolation schemes; Compound Job, initial MDCI parallelization
   Dimitrios Manganas     : Further ROCIS development; embedding schemes
   Dimitrios Pantazis     : SARC Basis sets
   Taras Petrenko         : DFT Hessian,TD-DFT gradient, ASA, ECA, R-Raman, ABS, FL, XAS/XES, NRVS
   Peter Pinski           : DLPNO-MP2, DLPNO-MP2 Gradient
   Christoph Reimann      : Effective Core Potentials
   Marius Retegan         : Local ZFS, SOC
   Christoph Riplinger    : Optimizer, TS searches, QM/MM, DLPNO-CCSD(T), (RO)-DLPNO pert. Triples
   Tobias Risthaus        : Range-separated hybrids, TD-DFT gradient, RPA, STAB
   Michael Roemelt        : Original ROCIS implementation
   Masaaki Saitow         : Open-shell DLPNO-CCSD energy and density
   Barbara Sandhoefer     : DKH picture change effects
   Avijit Sen             : IP-ROCIS
   Kantharuban Sivalingam : CASSCF convergence, NEVPT2, FIC-MRCI
   Bernardo de Souza      : ESD, SOC TD-DFT
   Georgi Stoychev        : AutoAux, RI-MP2 NMR
   Willem Van den Heuvel  : Paramagnetic NMR
   Boris Wezisla          : Elementary symmetry handling
   Frank Wennmohs         : Technical directorship


 We gratefully acknowledge several colleagues who have allowed us to
 interface, adapt or use parts of their codes:
   Stefan Grimme, W. Hujo, H. Kruse,             : VdW corrections, initial TS optimization,
                  C. Bannwarth                     DFT functionals, gCP, sTDA/sTD-DF
   Ed Valeev, F. Pavosevic, A. Kumar             : LibInt (2-el integral package), F12 methods
   Garnet Chan, S. Sharma, J. Yang, R. Olivares  : DMRG
   Ulf Ekstrom                                   : XCFun DFT Library
   Mihaly Kallay                                 : mrcc  (arbitrary order and MRCC methods)
   Andreas Klamt, Michael Diedenhofen            : otool_cosmo (COSMO solvation model)
   Jiri Pittner, Ondrej Demel                    : Mk-CCSD
   Frank Weinhold                                : gennbo (NPA and NBO analysis)
   Christopher J. Cramer and Donald G. Truhlar   : smd solvation model
   Lars Goerigk                                  : TD-DFT with DH, B97 family of functionals
   V. Asgeirsson, H. Jonsson                     : NEB implementation
   FAccTs GmbH                                   : IRC, NEB, NEB-TS, Multilevel, MM, QM/MM, CI optimization
   S Lehtola, MJT Oliveira, MAL Marques          : LibXC Library


 Your calculation uses the libint2 library for the computation of 2-el integrals
 For citations please refer to: http://libint.valeyev.net

 Your ORCA version has been built with support for libXC version: 4.2.3
 For citations please refer to: https://tddft.org/programs/libxc/

 This ORCA versions uses:
   CBLAS   interface :  Fast vector & matrix operations
   LAPACKE interface :  Fast linear algebra routines
   SCALAPACK package :  Parallel linear algebra routines


Your calculation utilizes the atom-pairwise dispersion correction
with the Becke-Johnson damping scheme (D3BJ)
Cite in your paper:
S.Grimme, S.Ehrlich, L.Goerigk, J Comput Chem, (2011), 32, 1456–1465 
S.Grimme, J.Antony, S.Ehrlich and H.Krieg, J.Chem.Phys., 132, (2010), 154104 
   

----- Orbital basis set information -----
Your calculation utilizes the basis: def2-SVP
   F. Weigend and R. Ahlrichs, Phys. Chem. Chem. Phys. 7, 3297 (2005).

----- AuxJ basis set information -----
Your calculation utilizes the auxiliary basis: def2/J
   F. Weigend, Phys. Chem. Chem. Phys. 8, 1057 (2006).

================================================================================
                                        WARNINGS
                       Please study these warnings very carefully!
================================================================================


WARNING: Geometry Optimization
  ===> : Switching off AutoStart
         For restart on a previous wavefunction, please use MOREAD

INFO   : the flag for use of LIBINT has been found!

================================================================================
                                       INPUT FILE
================================================================================
NAME = DPP2T_TT_Optimize_Monomer.inp
|  1> ! RI BP86 def2-SVP def2/J D3BJ TIGHTSCF  Opt Grid3 FinalGrid5
|  2> %maxcore 3000
|  3> %geom
|  4> Constraints
|  5> {D 1 5 61 67 0.0 C}
|  6> {D 6 5 61 62 0.0 C}
|  7> {D 2 3 18 19 0.0 C}
|  8> {D 4 3 18 24 0.0 C}
|  9> {D 20 22 25 30 0.0 C}
| 10> {D 24 22 25 26 0.0 C}
| 11> {D 32 33 35 37 0.0 C}
| 12> {D 31 33 35 36 0.0 C}
| 13> {D 37 38 42 43 0.0 C}
| 14> {D 39 38 42 45 0.0 C}
| 15> end
| 16> end
| 17> 
| 18> *xyz 0 1
| 19> C	-6.370303	0.265804	0.046593
| 20> C	-5.416703	-0.863586	0.013813
| 21> N	-5.544963	1.401714	0.024283
| 22> C	-4.181213	1.072044	0.007403
| 23> C	-4.086653	-0.270256	-0.000247
| 24> C	-5.325413	-2.208566	-0.006987
| 25> N	-3.961013	-2.537676	-0.050487
| 26> C	-3.134563	-1.395136	-0.018927
| 27> C	-3.306853	-3.816806	-0.082407
| 28> H	-3.932463	-4.617996	-0.458757
| 29> H	-2.930193	-4.044526	0.920163
| 30> H	-2.443703	-3.759416	-0.755627
| 31> C	-6.153923	2.705724	0.018803
| 32> H	-7.245953	2.634004	0.018473
| 33> H	-5.864053	3.239994	-0.890077
| 34> H	-5.862033	3.248884	0.921283
| 35> O	-7.583083	0.244934	0.085873
| 36> O	-1.920813	-1.365256	-0.007097
| 37> C	-3.105393	2.035764	0.002153
| 38> C	-3.147363	3.425964	0.001723
| 39> C	-1.876803	4.069234	0.002033
| 40> H	-4.047193	4.018594	0.002573
| 41> C	-0.825473	3.180404	0.002203
| 42> H	-1.763333	5.146614	0.002653
| 43> S	-1.430133	1.580664	0.001433
| 44> C	0.595937	3.493434	0.002803
| 45> C	1.664667	2.612674	0.002893
| 46> C	2.919827	3.299844	0.001843
| 47> H	1.572817	1.533234	0.003083
| 48> C	2.786987	4.653804	0.001953
| 49> S	1.120967	5.141014	0.003723
| 50> S	4.595697	2.823124	0.000373
| 51> C	4.034317	5.345574	0.000863
| 52> C	5.108807	4.473694	-0.000747
| 53> H	4.115427	6.426034	0.001973
| 54> C	6.520597	4.824554	0.000153
| 55> C	7.610747	3.986394	0.020383
| 56> S	7.052397	6.446114	-0.025377
| 57> C	8.751187	6.079444	0.006063
| 58> C	8.855507	4.693054	0.034093
| 59> H	7.544927	2.905034	0.033973
| 60> H	9.772697	4.133484	0.065903
| 61> C	9.741927	7.133704	0.002323
| 62> C	9.474997	8.461364	0.005103
| 63> C	10.735297	9.170244	0.002343
| 64> N	11.149357	6.972854	-0.008067
| 65> C	11.828637	8.210734	-0.001697
| 66> C	10.539517	10.482344	0.003913
| 67> C	8.429477	9.534924	0.010123
| 68> N	9.182787	10.726184	0.007403
| 69> H	11.274807	11.274204	0.002263
| 70> C	8.604757	12.046494	0.006863
| 71> H	7.513007	11.990654	0.006913
| 72> H	8.937437	12.581994	-0.887327
| 73> H	8.937827	12.582894	0.900273
| 74> C	11.980787	5.804564	-0.011707
| 75> H	11.456187	4.867054	-0.100047
| 76> H	12.576087	5.796134	0.907793
| 77> H	12.676927	5.874494	-0.855097
| 78> O	7.219727	9.428004	0.014593
| 79> O	13.012967	8.457984	0.000443
| 80> C	-6.429103	-3.143756	0.002053
| 81> C	-6.472773	-4.529186	0.165943
| 82> C	-7.777523	-5.111686	0.088323
| 83> H	-5.614163	-5.156026	0.343083
| 84> C	-8.746513	-4.159776	-0.072667
| 85> H	-7.989603	-6.170646	0.172273
| 86> S	-8.072733	-2.613276	-0.220087
| 87> H	-9.818093	-4.299006	-0.125267
| 88> **                         ****END OF INPUT****
================================================================================

                       *****************************
                       * Geometry Optimization Run *
                       *****************************

Geometry optimization settings:
Update method            Update   .... BFGS
Choice of coordinates    CoordSys .... Z-matrix Internals
Initial Hessian          InHess   .... Almoef's Model

Convergence Tolerances:
Energy Change            TolE     ....  5.0000e-06 Eh
Max. Gradient            TolMAXG  ....  3.0000e-04 Eh/bohr
RMS Gradient             TolRMSG  ....  1.0000e-04 Eh/bohr
Max. Displacement        TolMAXD  ....  4.0000e-03 bohr
RMS Displacement         TolRMSD  ....  2.0000e-03 bohr
Strict Convergence                ....  False
------------------------------------------------------------------------------
                        ORCA OPTIMIZATION COORDINATE SETUP
------------------------------------------------------------------------------

The optimization will be done in new redundant internal coordinates
Making redundant internal coordinates   ...  (new redundants) done
Evaluating the initial hessian          ...  (Almloef) done
Evaluating the coordinates              ...  done
Calculating the B-matrix                .... done
Calculating the G-matrix                .... done
Diagonalizing the G-matrix              .... done
Imposing constraints:
 Iter   0:  RMS(Cart)=    0.0412067562 RMS(Int)=    0.0416361939
 Iter   1:  RMS(Cart)=    0.0206354822 RMS(Int)=    0.0210441499
 Iter   2:  RMS(Cart)=    0.0104166983 RMS(Int)=    0.0107115074
 Iter   3:  RMS(Cart)=    0.0052934085 RMS(Int)=    0.0054759806
 Iter   4:  RMS(Cart)=    0.0027006024 RMS(Int)=    0.0028066651
 Iter   5:  RMS(Cart)=    0.0013807186 RMS(Int)=    0.0014408658
 Iter   6:  RMS(Cart)=    0.0007066502 RMS(Int)=    0.0007405977
 Iter   7:  RMS(Cart)=    0.0003618276 RMS(Int)=    0.0003810990
 Iter   8:  RMS(Cart)=    0.0001852917 RMS(Int)=    0.0001963666
 Iter   9:  RMS(Cart)=    0.0000948836 RMS(Int)=    0.0001013545
 Iter  10:  RMS(Cart)=    0.0000485814 RMS(Int)=    0.0000524368
 Iter  11:  RMS(Cart)=    0.0000248703 RMS(Int)=    0.0000272167
 Iter  12:  RMS(Cart)=    0.0000127303 RMS(Int)=    0.0000141897
 Iter  13:  RMS(Cart)=    0.0000065162 RMS(Int)=    0.0000074429
 Iter  14:  RMS(Cart)=    0.0000033362 RMS(Int)=    0.0000039356
 Iter  15:  RMS(Cart)=    0.0000017091 RMS(Int)=    0.0000021027
 Iter  16:  RMS(Cart)=    0.0000008766 RMS(Int)=    0.0000011380
 Iter  17:  RMS(Cart)=    0.0000004506 RMS(Int)=    0.0000006252
 Iter  18:  RMS(Cart)=    0.0000002325 RMS(Int)=    0.0000003493
 Iter  19:  RMS(Cart)=    0.0000001206 RMS(Int)=    0.0000001985
 Iter  20:  RMS(Cart)=    0.0000000631 RMS(Int)=    0.0000001148
 Iter  21:  RMS(Cart)=    0.0000000334 RMS(Int)=    0.0000000674
CONVERGED
Small eigenvalue found = 2.814e-04
Small eigenvalue found = 9.322e-04
Small eigenvalue found = 1.156e-03
Small eigenvalue found = 3.083e-03
Small eigenvalue found = 5.237e-03
Small eigenvalue found = 7.193e-03
Small eigenvalue found = 8.770e-03
Small eigenvalue found = 9.628e-03
Small eigenvalue found = 1.958e-02
Small eigenvalue found = 2.424e-02
Small eigenvalue found = 2.604e-02
The first mode is                       ....  199
The number of degrees of freedom        ....  201
Storing new coordinates                 .... done

    -----------------------------------------------------------------
                    Redundant Internal Coordinates


    -----------------------------------------------------------------
         Definition                    Initial Value    Approx d2E/dq
    -----------------------------------------------------------------
      1. B(C   1,C   0)                  1.4786         0.451387   
      2. B(N   2,C   0)                  1.4043         0.531016   
      3. B(C   3,N   2)                  1.4032         0.533240   
      4. B(C   4,C   1)                  1.4565         0.489450   
      5. B(C   4,C   3)                  1.3457         0.735358   
      6. B(C   5,C   1)                  1.3483         0.728403   
      7. B(N   6,C   5)                  1.4043         0.531143   
      8. B(C   7,C   4)                  1.4739         0.459188   
      9. B(C   7,N   6)                  1.4105         0.519068   
     10. B(C   8,N   6)                  1.4371         0.470768   
     11. B(H   9,C   8)                  1.0840         0.368202   
     12. B(H  10,C   8)                  1.0950         0.353635   
     13. B(H  11,C   8)                  1.0962         0.352054   
     14. B(C  12,N   2)                  1.4393         0.467063   
     15. B(H  13,C  12)                  1.0944         0.354349   
     16. B(H  14,C  12)                  1.0934         0.355625   
     17. B(H  15,C  12)                  1.0931         0.356127   
     18. B(O  16,C   0)                  1.2136         1.069837   
     19. B(O  17,C   7)                  1.2142         1.067560   
     20. B(C  18,C   3)                  1.4444         0.511697   
     21. B(C  19,C  18)                  1.3908         0.622886   
     22. B(C  20,C  19)                  1.4241         0.551190   
     23. B(H  21,C  19)                  1.0775         0.377086   
     24. B(C  22,C  20)                  1.3767         0.656072   
     25. B(H  23,C  20)                  1.0833         0.369020   
     26. B(S  24,C  18)                  1.7360         0.472633   
     27. B(S  24,C  22)                  1.7102         0.519575   
     28. B(C  25,C  22)                  1.4555         0.491230   
     29. B(C  26,C  25)                  1.3849         0.636635   
     30. B(C  27,C  26)                  1.4310         0.537525   
     31. B(H  28,C  26)                  1.0833         0.369018   
     32. B(C  29,C  27)                  1.3605         0.696412   
     33. B(S  30,C  25)                  1.7292         0.484522   
     34. B(S  30,C  29)                  1.7358         0.472939   
     35. B(S  31,C  27)                  1.7424         0.461684   
     36. B(C  32,C  29)                  1.4263         0.546761   
     37. B(C  33,S  31)                  1.7285         0.485818   
     38. B(C  33,C  32)                  1.3837         0.639357   
     39. B(H  34,C  32)                  1.0835         0.368801   
     40. B(C  35,C  33)                  1.4547         0.492558   
     41. B(C  36,C  35)                  1.3754         0.659554   
     42. B(S  37,C  35)                  1.7069         0.526244   
     43. B(C  38,S  37)                  1.7383         0.468795   
     44. B(C  39,C  36)                  1.4314         0.536592   
     45. B(C  39,C  38)                  1.3908         0.623440   
     46. B(H  40,C  36)                  1.0836         0.368875   
     47. B(H  41,C  39)                  1.0750         0.380667   
     48. B(C  42,C  38)                  1.4468         0.507248   
     49. B(C  43,C  42)                  1.3542         0.712535   
     50. B(C  44,C  43)                  1.4461         0.508648   
     51. B(N  45,C  42)                  1.4168         0.507445   
     52. B(C  46,C  44)                  1.4548         0.492674   
     53. B(C  46,N  45)                  1.4120         0.516106   
     54. B(C  47,C  44)                  1.3266         0.788581   
     55. B(C  48,C  43)                  1.4987         0.419320   
     56. B(N  49,C  47)                  1.3786         0.583804   
     57. B(N  49,C  48)                  1.4095         0.520984   
     58. B(H  50,C  47)                  1.0806         0.372752   
     59. B(C  51,N  49)                  1.4413         0.463483   
     60. B(H  52,C  51)                  1.0933         0.355922   
     61. B(H  53,C  51)                  1.0942         0.354742   
     62. B(H  54,C  51)                  1.0941         0.354844   
     63. B(C  55,N  45)                  1.4340         0.476177   
     64. B(H  56,C  55)                  1.0779         0.376426   
     65. B(H  57,C  55)                  1.0955         0.353008   
     66. B(H  58,C  55)                  1.0959         0.352491   
     67. B(O  59,C  48)                  1.2146         1.066390   
     68. B(O  60,C  46)                  1.2100         1.084597   
     69. B(C  61,C   5)                  1.4467         0.507409   
     70. B(C  62,C  61)                  1.4075         0.611685   
     71. B(C  63,C  62)                  1.4328         0.537474   
     72. B(H  64,C  62)                  1.0931         0.376693   
     73. B(C  65,C  63)                  1.3881         0.677782   
     74. B(H  66,C  63)                  1.0895         0.369147   
     75. B(S  67,C  61)                  1.7602         0.463406   
     76. B(S  67,C  65)                  1.6983         0.552788   
     77. B(H  68,C  65)                  1.0867         0.371022   
     78. A(C   1,C   0,N   2)          103.7971         0.396529   
     79. A(C   1,C   0,O  16)          129.2082         0.449363   
     80. A(N   2,C   0,O  16)          126.9946         0.459785   
     81. A(C   0,C   1,C   5)          143.7130         0.422075   
     82. A(C   0,C   1,C   4)          106.1427         0.393412   
     83. A(C   4,C   1,C   5)          110.1443         0.428235   
     84. A(C   0,N   2,C  12)          118.9661         0.396364   
     85. A(C   3,N   2,C  12)          128.6165         0.396655   
     86. A(C   0,N   2,C   3)          112.4173         0.405722   
     87. A(N   2,C   3,C  18)          124.5549         0.405682   
     88. A(N   2,C   3,C   4)          107.6242         0.432771   
     89. A(C   4,C   3,C  18)          127.8207         0.432403   
     90. A(C   1,C   4,C   7)          106.2079         0.394595   
     91. A(C   1,C   4,C   3)          110.0056         0.428965   
     92. A(C   3,C   4,C   7)          143.7865         0.424089   
     93. A(C   1,C   5,N   6)          107.4660         0.431726   
     94. A(C   1,C   5,C  61)          126.3801         0.431013   
     95. A(N   6,C   5,C  61)          126.1531         0.404798   
     96. A(C   5,N   6,C   7)          112.2559         0.403814   
     97. A(C   7,N   6,C   8)          117.0511         0.395332   
     98. A(C   5,N   6,C   8)          130.6666         0.396931   
     99. A(C   4,C   7,N   6)          103.8904         0.396138   
    100. A(C   4,C   7,O  17)          128.8196         0.450589   
    101. A(N   6,C   7,O  17)          127.2897         0.457702   
    102. A(N   6,C   8,H  11)          108.9965         0.333669   
    103. A(N   6,C   8,H  10)          108.7464         0.333917   
    104. A(H   9,C   8,H  10)          111.2685         0.291028   
    105. A(H  10,C   8,H  11)          107.6011         0.288988   
    106. A(H   9,C   8,H  11)          106.2534         0.290824   
    107. A(N   6,C   8,H   9)          113.7598         0.336165   
    108. A(H  13,C  12,H  15)          107.4135         0.289601   
    109. A(H  14,C  12,H  15)          111.8853         0.289764   
    110. A(N   2,C  12,H  13)          111.2760         0.333591   
    111. A(N   2,C  12,H  15)          109.5186         0.333868   
    112. A(N   2,C  12,H  14)          109.4946         0.333790   
    113. A(H  13,C  12,H  14)          107.2347         0.289537   
    114. A(C   3,C  18,C  19)          130.1246         0.419740   
    115. A(C   3,C  18,S  24)          122.9477         0.421521   
    116. A(C  19,C  18,S  24)          106.9275         0.436654   
    117. A(C  18,C  19,C  20)          115.1232         0.425353   
    118. A(C  18,C  19,H  21)          125.0982         0.355957   
    119. A(C  20,C  19,H  21)          119.7785         0.348670   
    120. A(C  19,C  20,C  22)          112.9352         0.429328   
    121. A(C  19,C  20,H  23)          122.8648         0.347402   
    122. A(C  22,C  20,H  23)          124.2000         0.357793   
    123. A(C  20,C  22,S  24)          109.5070         0.448383   
    124. A(C  20,C  22,C  25)          127.3680         0.420571   
    125. A(S  24,C  22,C  25)          123.1250         0.425600   
    126. A(C  18,S  24,C  22)           95.5070         0.446098   
    127. A(C  22,C  25,C  26)          128.0878         0.418322   
    128. A(C  22,C  25,S  30)          120.0951         0.420321   
    129. A(C  26,C  25,S  30)          111.8171         0.440346   
    130. A(C  25,C  26,C  27)          111.8079         0.425104   
    131. A(C  25,C  26,H  28)          124.6289         0.355969   
    132. A(C  27,C  26,H  28)          123.5632         0.345937   
    133. A(C  26,C  27,C  29)          113.0961         0.432001   
    134. A(C  26,C  27,S  31)          135.4214         0.423469   
    135. A(C  29,C  27,S  31)          111.4825         0.443659   
    136. A(C  27,C  29,S  30)          111.9045         0.445598   
    137. A(C  27,C  29,C  32)          113.4092         0.433326   
    138. A(S  30,C  29,C  32)          134.6863         0.426596   
    139. A(C  25,S  30,C  29)           91.3744         0.440548   
    140. A(C  27,S  31,C  33)           91.3898         0.438848   
    141. A(C  29,C  32,H  34)          123.3058         0.346896   
    142. A(C  33,C  32,H  34)          124.7640         0.356192   
    143. A(C  29,C  32,C  33)          111.9301         0.426728   
    144. A(S  31,C  33,C  35)          121.2252         0.420724   
    145. A(C  32,C  33,C  35)          126.9864         0.418842   
    146. A(S  31,C  33,C  32)          111.7884         0.440898   
    147. A(C  33,C  35,C  36)          128.4813         0.421172   
    148. A(C  33,C  35,S  37)          122.1025         0.426780   
    149. A(C  36,C  35,S  37)          109.4162         0.449854   
    150. A(C  35,C  36,C  39)          112.8602         0.427672   
    151. A(C  35,C  36,H  40)          124.0859         0.358091   
    152. A(C  39,C  36,H  40)          123.0518         0.345814   
    153. A(C  35,S  37,C  38)           95.9506         0.446470   
    154. A(S  37,C  38,C  39)          106.5057         0.436083   
    155. A(S  37,C  38,C  42)          121.0243         0.420252   
    156. A(C  39,C  38,C  42)          132.4700         0.419153   
    157. A(C  36,C  39,C  38)          115.2611         0.423383   
    158. A(C  36,C  39,H  41)          119.0248         0.347650   
    159. A(C  38,C  39,H  41)          125.7140         0.356582   
    160. A(C  38,C  42,C  43)          125.4065         0.429288   
    161. A(C  38,C  42,N  45)          126.7036         0.401530   
    162. A(C  43,C  42,N  45)          107.8900         0.426517   
    163. A(C  42,C  43,C  44)          107.9834         0.429500   
    164. A(C  42,C  43,C  48)          147.1247         0.414937   
    165. A(C  44,C  43,C  48)          104.8919         0.390995   
    166. A(C  43,C  44,C  46)          109.3799         0.402218   
    167. A(C  43,C  44,C  47)          110.8650         0.437405   
    168. A(C  46,C  44,C  47)          139.7551         0.434898   
    169. A(C  42,N  45,C  46)          112.2350         0.400175   
    170. A(C  42,N  45,C  55)          131.9617         0.394555   
    171. A(C  46,N  45,C  55)          115.8007         0.395728   
    172. A(C  44,C  46,N  45)          102.5100         0.400666   
    173. A(C  44,C  46,O  60)          126.9422         0.457715   
    174. A(N  45,C  46,O  60)          130.5478         0.458547   
    175. A(C  44,C  47,N  49)          108.6766         0.445486   
    176. A(C  44,C  47,H  50)          128.6299         0.369860   
    177. A(N  49,C  47,H  50)          122.6935         0.349224   
    178. A(C  43,C  48,N  49)          103.4442         0.390139   
    179. A(C  43,C  48,O  59)          129.1957         0.443143   
    180. A(N  49,C  48,O  59)          127.3600         0.457918   
    181. A(C  47,N  49,C  48)          112.1222         0.410891   
    182. A(C  47,N  49,C  51)          123.8346         0.402482   
    183. A(C  48,N  49,C  51)          124.0432         0.394508   
    184. A(N  49,C  51,H  52)          110.7195         0.333410   
    185. A(N  49,C  51,H  53)          109.0663         0.333227   
    186. A(H  52,C  51,H  53)          109.1903         0.289625   
    187. A(N  49,C  51,H  54)          109.0675         0.333242   
    188. A(H  52,C  51,H  54)          109.2114         0.289638   
    189. A(H  53,C  51,H  54)          109.5703         0.289487   
    190. A(N  45,C  55,H  56)          115.2480         0.338047   
    191. A(N  45,C  55,H  57)          108.6190         0.334452   
    192. A(H  56,C  55,H  57)          109.0625         0.291959   
    193. A(N  45,C  55,H  58)          108.5633         0.334371   
    194. A(H  56,C  55,H  58)          107.5535         0.291892   
    195. A(H  57,C  55,H  58)          107.5360         0.288964   
    196. A(C   5,C  61,C  62)          131.3325         0.417758   
    197. A(C   5,C  61,S  67)          121.1409         0.419410   
    198. A(C  62,C  61,S  67)          107.5259         0.433687   
    199. A(C  61,C  62,C  63)          114.5634         0.422069   
    200. A(C  61,C  62,H  64)          125.4833         0.354800   
    201. A(C  63,C  62,H  64)          119.9530         0.347132   
    202. A(C  62,C  63,C  65)          111.8204         0.429895   
    203. A(C  62,C  63,H  66)          124.2526         0.345952   
    204. A(C  65,C  63,H  66)          123.9076         0.359802   
    205. A(C  63,C  65,S  67)          111.7483         0.456154   
    206. A(C  63,C  65,H  68)          128.4746         0.360113   
    207. A(S  67,C  65,H  68)          119.7695         0.366063   
    208. A(C  61,S  67,C  65)           94.2403         0.449529   
    209. D(C   4,C   1,C   0,O  16)   -178.8411         0.013887   
    210. D(C   4,C   1,C   0,N   2)      1.0534         0.013887   
    211. D(C   5,C   1,C   0,O  16)      1.1267         0.013887   
    212. D(C   5,C   1,C   0,N   2)   -178.9789         0.013887   
    213. D(C   3,N   2,C   0,C   1)     -1.1561         0.022396   
    214. D(C   3,N   2,C   0,O  16)    178.7415         0.022396   
    215. D(C  12,N   2,C   0,C   1)    178.7284         0.022396   
    216. D(C  12,N   2,C   0,O  16)     -1.3740         0.022396   
    217. D(C   4,C   3,N   2,C  12)   -179.0700         0.022593   
    218. D(C  18,C   3,N   2,C  12)      1.0868         0.022593   
    219. D(C  18,C   3,N   2,C   0)   -179.0425         0.022593   
    220. D(C   4,C   3,N   2,C   0)      0.8007         0.022593   
    221. D(C   1,C   4,C   3,C  18)    179.7789         0.038420   
    222. D(C   3,C   4,C   1,C   5)    179.3795         0.016312   
    223. D(C   1,C   4,C   3,N   2)     -0.0576         0.038420   
    224. D(C   7,C   4,C   1,C   0)    179.3963         0.016312   
    225. D(C   7,C   4,C   3,C  18)     -0.2816         0.038420   
    226. D(C   7,C   4,C   3,N   2)    179.8819         0.038420   
    227. D(C   7,C   4,C   1,C   5)     -0.5833         0.016312   
    228. D(C   3,C   4,C   1,C   0)     -0.6409         0.016312   
    229. D(N   6,C   5,C   1,C   0)    179.4310         0.037631   
    230. D(N   6,C   5,C   1,C   4)     -0.6020         0.037631   
    231. D(C  61,C   5,C   1,C   0)     -0.2730         0.037631   
    232. D(C  61,C   5,C   1,C   4)    179.6940         0.037631   
    233. D(C   8,N   6,C   5,C   1)    179.7119         0.022408   
    234. D(C   7,N   6,C   5,C  61)   -178.6291         0.022408   
    235. D(C   8,N   6,C   5,C  61)     -0.5833         0.022408   
    236. D(C   7,N   6,C   5,C   1)      1.6661         0.022408   
    237. D(N   6,C   7,C   4,C   1)      1.4934         0.014364   
    238. D(N   6,C   7,C   4,C   3)   -178.4474         0.014364   
    239. D(O  17,C   7,C   4,C   1)   -178.3098         0.014364   
    240. D(O  17,C   7,C   4,C   3)      1.7493         0.014364   
    241. D(C   4,C   7,N   6,C   5)     -1.9576         0.021358   
    242. D(C   4,C   7,N   6,C   8)    179.7067         0.021358   
    243. D(O  17,C   7,N   6,C   5)    177.8497         0.021358   
    244. D(O  17,C   7,N   6,C   8)     -0.4860         0.021358   
    245. D(H   9,C   8,N   6,C   5)     22.9405         0.018937   
    246. D(H   9,C   8,N   6,C   7)   -159.0904         0.018937   
    247. D(H  10,C   8,N   6,C   5)   -101.6659         0.018937   
    248. D(H  10,C   8,N   6,C   7)     76.3033         0.018937   
    249. D(H  11,C   8,N   6,C   5)    141.2977         0.018937   
    250. D(H  11,C   8,N   6,C   7)    -40.7332         0.018937   
    251. D(H  13,C  12,N   2,C   0)     -0.8534         0.018633   
    252. D(H  13,C  12,N   2,C   3)    179.0099         0.018633   
    253. D(H  15,C  12,N   2,C   0)    117.7519         0.018633   
    254. D(H  14,C  12,N   2,C   0)   -119.2222         0.018633   
    255. D(H  14,C  12,N   2,C   3)     60.6411         0.018633   
    256. D(H  15,C  12,N   2,C   3)    -62.3848         0.018633   
    257. D(C  19,C  18,C   3,N   2)     -0.0000         0.017846 C 
    258. D(C  19,C  18,C   3,C   4)   -179.8108         0.017846   
    259. D(S  24,C  18,C   3,N   2)    179.8108         0.017846   
    260. D(S  24,C  18,C   3,C   4)     -0.0000         0.017846 C 
    261. D(C  20,C  19,C  18,C   3)    179.7575         0.026863   
    262. D(C  20,C  19,C  18,S  24)     -0.0766         0.026863   
    263. D(H  21,C  19,C  18,C   3)     -0.1495         0.026863   
    264. D(H  21,C  19,C  18,S  24)   -179.9835         0.026863   
    265. D(C  22,C  20,C  19,C  18)      0.0401         0.020787   
    266. D(C  22,C  20,C  19,H  21)    179.9523         0.020787   
    267. D(H  23,C  20,C  19,C  18)   -179.9339         0.020787   
    268. D(H  23,C  20,C  19,H  21)     -0.0217         0.020787   
    269. D(S  24,C  22,C  20,C  19)      0.0187         0.030009   
    270. D(S  24,C  22,C  20,H  23)    179.9923         0.030009   
    271. D(C  25,C  22,C  20,C  19)   -179.9847         0.030009   
    272. D(C  25,C  22,C  20,H  23)     -0.0111         0.030009   
    273. D(C  22,S  24,C  18,C   3)   -179.7746         0.004793   
    274. D(C  22,S  24,C  18,C  19)      0.0742         0.004793   
    275. D(C  18,S  24,C  22,C  20)     -0.0546         0.005517   
    276. D(C  18,S  24,C  22,C  25)    179.9486         0.005517   
    277. D(C  26,C  25,C  22,C  20)   -179.9962         0.016431   
    278. D(C  26,C  25,C  22,S  24)     -0.0000         0.016431 C 
    279. D(S  30,C  25,C  22,C  20)      0.0000         0.016431 C 
    280. D(S  30,C  25,C  22,S  24)    179.9962         0.016431   
    281. D(C  27,C  26,C  25,C  22)    179.9209         0.028140   
    282. D(C  27,C  26,C  25,S  30)     -0.0755         0.028140   
    283. D(H  28,C  26,C  25,C  22)     -0.0407         0.028140   
    284. D(H  28,C  26,C  25,S  30)    179.9629         0.028140   
    285. D(C  29,C  27,C  26,C  25)      0.0418         0.019737   
    286. D(C  29,C  27,C  26,H  28)   -179.9961         0.019737   
    287. D(S  31,C  27,C  26,C  25)   -179.9455         0.019737   
    288. D(S  31,C  27,C  26,H  28)      0.0166         0.019737   
    289. D(S  30,C  29,C  27,C  26)      0.0110         0.034128   
    290. D(S  30,C  29,C  27,S  31)   -179.9986         0.034128   
    291. D(C  32,C  29,C  27,C  26)   -179.9939         0.034128   
    292. D(C  32,C  29,C  27,S  31)     -0.0035         0.034128   
    293. D(C  29,S  30,C  25,C  22)   -179.9273         0.004969   
    294. D(C  29,S  30,C  25,C  26)      0.0695         0.004969   
    295. D(C  25,S  30,C  29,C  27)     -0.0457         0.004798   
    296. D(C  25,S  30,C  29,C  32)    179.9607         0.004798   
    297. D(C  33,S  31,C  27,C  26)    179.9843         0.004635   
    298. D(C  33,S  31,C  27,C  29)     -0.0031         0.004635   
    299. D(C  33,C  32,C  29,C  27)      0.0105         0.020443   
    300. D(C  33,C  32,C  29,S  30)   -179.9959         0.020443   
    301. D(H  34,C  32,C  29,C  27)   -179.9404         0.020443   
    302. D(H  34,C  32,C  29,S  30)      0.0531         0.020443   
    303. D(C  32,C  33,S  31,C  27)      0.0091         0.004988   
    304. D(C  35,C  33,S  31,C  27)    179.9338         0.004988   
    305. D(S  31,C  33,C  32,C  29)     -0.0127         0.028398   
    306. D(S  31,C  33,C  32,H  34)    179.9374         0.028398   
    307. D(C  35,C  33,C  32,C  29)   -179.9320         0.028398   
    308. D(C  35,C  33,C  32,H  34)      0.0181         0.028398   
    309. D(C  36,C  35,C  33,S  31)      0.0000         0.016521 C 
    310. D(C  36,C  35,C  33,C  32)    179.9124         0.016521   
    311. D(S  37,C  35,C  33,S  31)   -179.9124         0.016521   
    312. D(S  37,C  35,C  33,C  32)     -0.0000         0.016521 C 
    313. D(C  39,C  36,C  35,C  33)   -179.0952         0.030352   
    314. D(C  39,C  36,C  35,S  37)      0.8261         0.030352   
    315. D(H  40,C  36,C  35,C  33)      0.3876         0.030352   
    316. D(H  40,C  36,C  35,S  37)   -179.6911         0.030352   
    317. D(C  38,S  37,C  35,C  33)    179.3833         0.005626   
    318. D(C  38,S  37,C  35,C  36)     -0.5440         0.005626   
    319. D(C  39,C  38,S  37,C  35)      0.1049         0.004737   
    320. D(C  42,C  38,S  37,C  35)   -179.9143         0.004737   
    321. D(C  38,C  39,C  36,C  35)     -0.7987         0.019667   
    322. D(C  38,C  39,C  36,H  40)    179.7123         0.019667   
    323. D(H  41,C  39,C  36,C  35)    179.0904         0.019667   
    324. D(H  41,C  39,C  36,H  40)     -0.3986         0.019667   
    325. D(C  36,C  39,C  38,S  37)      0.3597         0.026914   
    326. D(C  36,C  39,C  38,C  42)   -179.6179         0.026914   
    327. D(H  41,C  39,C  38,S  37)   -179.5208         0.026914   
    328. D(H  41,C  39,C  38,C  42)      0.5016         0.026914   
    329. D(C  43,C  42,C  38,S  37)     -0.0000         0.017532 C 
    330. D(C  43,C  42,C  38,C  39)    179.9750         0.017532   
    331. D(N  45,C  42,C  38,S  37)   -179.9750         0.017532   
    332. D(N  45,C  42,C  38,C  39)      0.0000         0.017532 C 
    333. D(C  44,C  43,C  42,C  38)    179.8105         0.035867   
    334. D(C  44,C  43,C  42,N  45)     -0.2106         0.035867   
    335. D(C  48,C  43,C  42,C  38)     -0.1698         0.035867   
    336. D(C  48,C  43,C  42,N  45)    179.8092         0.035867   
    337. D(C  46,C  44,C  43,C  42)     -0.0473         0.017630   
    338. D(C  46,C  44,C  43,C  48)    179.9416         0.017630   
    339. D(C  47,C  44,C  43,C  42)    179.9443         0.017630   
    340. D(C  47,C  44,C  43,C  48)     -0.0669         0.017630   
    341. D(C  46,N  45,C  42,C  38)   -179.6079         0.020377   
    342. D(C  46,N  45,C  42,C  43)      0.4136         0.020377   
    343. D(C  55,N  45,C  42,C  38)     -0.2376         0.020377   
    344. D(C  55,N  45,C  42,C  43)    179.7838         0.020377   
    345. D(N  45,C  46,C  44,C  43)      0.2787         0.016529   
    346. D(N  45,C  46,C  44,C  47)   -179.7091         0.016529   
    347. D(O  60,C  46,C  44,C  43)   -179.6794         0.016529   
    348. D(O  60,C  46,C  44,C  47)      0.3328         0.016529   
    349. D(C  44,C  46,N  45,C  42)     -0.4181         0.021105   
    350. D(C  44,C  46,N  45,C  55)   -179.8980         0.021105   
    351. D(O  60,C  46,N  45,C  42)    179.5379         0.021105   
    352. D(O  60,C  46,N  45,C  55)      0.0580         0.021105   
    353. D(N  49,C  47,C  44,C  43)     -0.0040         0.044799   
    354. D(N  49,C  47,C  44,C  46)    179.9837         0.044799   
    355. D(H  50,C  47,C  44,C  43)   -179.9769         0.044799   
    356. D(H  50,C  47,C  44,C  46)      0.0107         0.044799   
    357. D(N  49,C  48,C  43,C  42)   -179.9124         0.012035   
    358. D(N  49,C  48,C  43,C  44)      0.1071         0.012035   
    359. D(O  59,C  48,C  43,C  42)      0.0368         0.012035   
    360. D(O  59,C  48,C  43,C  44)   -179.9437         0.012035   
    361. D(C  48,N  49,C  47,C  44)      0.0810         0.027360   
    362. D(C  48,N  49,C  47,H  50)   -179.9441         0.027360   
    363. D(C  51,N  49,C  47,C  44)   -179.8577         0.027360   
    364. D(C  51,N  49,C  47,H  50)      0.1172         0.027360   
    365. D(C  47,N  49,C  48,C  43)     -0.1173         0.021523   
    366. D(C  47,N  49,C  48,O  59)    179.9323         0.021523   
    367. D(C  51,N  49,C  48,C  43)    179.8212         0.021523   
    368. D(C  51,N  49,C  48,O  59)     -0.1292         0.021523   
    369. D(H  52,C  51,N  49,C  47)    179.8227         0.018343   
    370. D(H  52,C  51,N  49,C  48)     -0.1088         0.018343   
    371. D(H  53,C  51,N  49,C  47)     59.6525         0.018343   
    372. D(H  53,C  51,N  49,C  48)   -120.2789         0.018343   
    373. D(H  54,C  51,N  49,C  47)    -59.9804         0.018343   
    374. D(H  54,C  51,N  49,C  48)    120.0881         0.018343   
    375. D(H  56,C  55,N  45,C  42)      5.5629         0.019386   
    376. D(H  56,C  55,N  45,C  46)   -175.0846         0.019386   
    377. D(H  57,C  55,N  45,C  42)   -117.1152         0.019386   
    378. D(H  57,C  55,N  45,C  46)     62.2373         0.019386   
    379. D(H  58,C  55,N  45,C  42)    126.2349         0.019386   
    380. D(H  58,C  55,N  45,C  46)    -54.4126         0.019386   
    381. D(C  62,C  61,C   5,C   1)    179.6503         0.017543   
    382. D(C  62,C  61,C   5,N   6)      0.0000         0.017543 C 
    383. D(S  67,C  61,C   5,C   1)     -0.0000         0.017543 C 
    384. D(S  67,C  61,C   5,N   6)   -179.6503         0.017543   
    385. D(C  63,C  62,C  61,C   5)   -178.7616         0.025849   
    386. D(C  63,C  62,C  61,S  67)      0.9245         0.025849   
    387. D(H  64,C  62,C  61,C   5)      1.4342         0.025849   
    388. D(H  64,C  62,C  61,S  67)   -178.8798         0.025849   
    389. D(C  65,C  63,C  62,C  61)     -2.8601         0.019733   
    390. D(C  65,C  63,C  62,H  64)    176.9559         0.019733   
    391. D(H  66,C  63,C  62,C  61)    178.6899         0.019733   
    392. D(H  66,C  63,C  62,H  64)     -1.4941         0.019733   
    393. D(S  67,C  65,C  63,C  62)      3.4779         0.032185   
    394. D(S  67,C  65,C  63,H  66)   -178.0658         0.032185   
    395. D(H  68,C  65,C  63,C  62)   -177.5484         0.032185   
    396. D(H  68,C  65,C  63,H  66)      0.9079         0.032185   
    397. D(C  65,S  67,C  61,C   5)   -179.3598         0.004660   
    398. D(C  65,S  67,C  61,C  62)      0.9156         0.004660   
    399. D(C  61,S  67,C  65,C  63)     -2.5701         0.006077   
    400. D(C  61,S  67,C  65,H  68)    178.3555         0.006077   
    -----------------------------------------------------------------

Number of atoms                         .... 69
Number of degrees of freedom            .... 400

         *************************************************************
         *                GEOMETRY OPTIMIZATION CYCLE   1            *
         *************************************************************
---------------------------------
CARTESIAN COORDINATES (ANGSTROEM)
---------------------------------
  C     -6.371352    0.267638    0.040995
  C     -5.417667   -0.862076    0.021954
  N     -5.545799    1.403314    0.014507
  C     -4.181985    1.073410    0.007370
  C     -4.087488   -0.268958    0.010856
  C     -5.326371   -2.207222    0.011762
  N     -3.961717   -2.536816   -0.020082
  C     -3.135383   -1.394068    0.006779
  C     -3.307425   -3.816260   -0.036700
  H     -3.930670   -4.620684   -0.410097
  H     -2.937201   -4.035292    0.970261
  H     -2.439960   -3.764768   -0.704889
  C     -6.154625    2.707332   -0.004050
  H     -7.246659    2.635697   -0.009649
  H     -5.859876    3.234722   -0.915418
  H     -5.867493    3.257276    0.895886
  O     -7.584347    0.247164    0.073846
  O     -1.921704   -1.364187    0.025832
  C     -3.106054    2.037001    0.001304
  C     -3.147854    3.427205    0.001030
  C     -1.877214    4.070318   -0.000500
  H     -4.047610    4.019945    0.003305
  C     -0.825994    3.181358   -0.002326
  H     -1.763610    5.147684    0.000179
  S     -1.430852    1.581692   -0.002634
  C      0.595456    3.494212   -0.003888
  C      1.664077    2.613320   -0.005803
  C      2.919321    3.300335   -0.008744
  H      1.572094    1.533891   -0.005772
  C      2.786648    4.654312   -0.008093
  S      1.120691    5.141727   -0.003548
  S      4.595129    2.823408   -0.013273
  C      4.034061    5.345928   -0.011152
  C      5.108440    4.473915   -0.014356
  H      4.115307    6.426378   -0.010174
  C      6.520276    4.824600   -0.016606
  C      7.610467    3.985968   -0.018150
  S      7.052088    6.446578   -0.015502
  C      8.751026    6.079171   -0.000634
  C      8.855388    4.692245    0.000625
  H      7.544628    2.904365   -0.023931
  H      9.772727    4.131988    0.016045
  C      9.741873    7.133371    0.007299
  C      9.474979    8.461051    0.004225
  C     10.735361    9.169854    0.019234
  N     11.149455    6.972420    0.019038
  C     11.828706    8.210275    0.033276
  C     10.539632   10.481968    0.015797
  C      8.429446    9.534678   -0.007828
  N      9.182865   10.725891   -0.001235
  H     11.274992   11.273783    0.023920
  C      8.604918   12.046233   -0.012398
  H      7.513164   11.990456   -0.028458
  H      8.950895   12.580328   -0.902483
  H      8.924764   12.584000    0.885122
  C     11.980881    5.804079    0.030697
  H     11.457597    4.866411   -0.063790
  H     12.561965    5.797543    0.959417
  H     12.690062    5.872207   -0.802078
  O      7.219623    9.427834   -0.021174
  O     13.013018    8.457461    0.053063
  C     -6.430133   -3.142295    0.024176
  C     -6.456513   -4.549437    0.009099
  C     -7.770560   -5.120467    0.001727
  H     -5.578440   -5.200547    0.006020
  C     -8.756825   -4.146444    0.075504
  H     -7.974106   -6.190346   -0.030504
  S     -8.098159   -2.581191    0.055658
  H     -9.834441   -4.277785    0.124968

----------------------------
CARTESIAN COORDINATES (A.U.)
----------------------------
  NO LB      ZA    FRAG     MASS         X           Y           Z
   0 C     6.0000    0    12.011  -12.040111    0.505763    0.077470
   1 C     6.0000    0    12.011  -10.237907   -1.629088    0.041486
   2 N     7.0000    0    14.007  -10.480041    2.651879    0.027414
   3 C     6.0000    0    12.011   -7.902807    2.028450    0.013928
   4 C     6.0000    0    12.011   -7.724233   -0.508257    0.020515
   5 C     6.0000    0    12.011  -10.065383   -4.171046    0.022226
   6 N     7.0000    0    14.007   -7.486561   -4.793888   -0.037950
   7 C     6.0000    0    12.011   -5.925015   -2.634407    0.012810
   8 C     6.0000    0    12.011   -6.250128   -7.211687   -0.069353
   9 H     1.0000    0     1.008   -7.427890   -8.731828   -0.774972
  10 H     1.0000    0     1.008   -5.550505   -7.625598    1.833528
  11 H     1.0000    0     1.008   -4.610855   -7.114380   -1.332048
  12 C     6.0000    0    12.011  -11.630555    5.116116   -0.007654
  13 H     1.0000    0     1.008  -13.694200    4.980746   -0.018234
  14 H     1.0000    0     1.008  -11.073561    6.112739   -1.729890
  15 H     1.0000    0     1.008  -11.087954    6.155360    1.692978
  16 O     8.0000    0    15.999  -14.332339    0.467072    0.139549
  17 O     8.0000    0    15.999   -3.631493   -2.577940    0.048816
  18 C     6.0000    0    12.011   -5.869591    3.849373    0.002464
  19 C     6.0000    0    12.011   -5.948583    6.476479    0.001947
  20 C     6.0000    0    12.011   -3.547421    7.691786   -0.000944
  21 H     1.0000    0     1.008   -7.648875    7.596596    0.006246
  22 C     6.0000    0    12.011   -1.560902    6.011895   -0.004395
  23 H     1.0000    0     1.008   -3.332740    9.727713    0.000338
  24 S    16.0000    0    32.060   -2.703918    2.988965   -0.004978
  25 C     6.0000    0    12.011    1.125249    6.603104   -0.007347
  26 C     6.0000    0    12.011    3.144651    4.938459   -0.010966
  27 C     6.0000    0    12.011    5.516716    6.236730   -0.016523
  28 H     1.0000    0     1.008    2.970828    2.898634   -0.010907
  29 C     6.0000    0    12.011    5.266001    8.795375   -0.015294
  30 S    16.0000    0    32.060    2.117799    9.716456   -0.006704
  31 S    16.0000    0    32.060    8.683536    5.335468   -0.025082
  32 C     6.0000    0    12.011    7.623271   10.102341   -0.021074
  33 C     6.0000    0    12.011    9.653553    8.454474   -0.027129
  34 H     1.0000    0     1.008    7.776803   12.144095   -0.019226
  35 C     6.0000    0    12.011   12.321535    9.117173   -0.031380
  36 C     6.0000    0    12.011   14.381697    7.532387   -0.034298
  37 S    16.0000    0    32.060   13.326515   12.182266   -0.029294
  38 C     6.0000    0    12.011   16.537042   11.487968   -0.001198
  39 C     6.0000    0    12.011   16.734257    8.867058    0.001181
  40 H     1.0000    0     1.008   14.257281    5.488455   -0.045223
  41 H     1.0000    0     1.008   18.467778    7.808326    0.030320
  42 C     6.0000    0    12.011   18.409473   13.480118    0.013793
  43 C     6.0000    0    12.011   17.905115   15.989069    0.007983
  44 C     6.0000    0    12.011   20.286892   17.328513    0.036346
  45 N     7.0000    0    14.007   21.069417   13.175964    0.035976
  46 C     6.0000    0    12.011   22.353015   15.515171    0.062883
  47 C     6.0000    0    12.011   19.917019   19.808049    0.029851
  48 C     6.0000    0    12.011   15.929344   18.017931   -0.014793
  49 N     7.0000    0    14.007   17.353099   20.268997   -0.002334
  50 H     1.0000    0     1.008   21.306648   21.304363    0.045202
  51 C     6.0000    0    12.011   16.260939   22.764082   -0.023429
  52 H     1.0000    0     1.008   14.197823   22.658678   -0.053779
  53 H     1.0000    0     1.008   16.914740   23.773374   -1.705445
  54 H     1.0000    0     1.008   16.865360   23.780313    1.672638
  55 C     6.0000    0    12.011   22.640583   10.968120    0.058008
  56 H     1.0000    0     1.008   21.651721    9.196185   -0.120546
  57 H     1.0000    0     1.008   23.738674   10.955768    1.813036
  58 H     1.0000    0     1.008   23.980742   11.096863   -1.515707
  59 O     8.0000    0    15.999   13.643111   17.816025   -0.040012
  60 O     8.0000    0    15.999   24.591040   15.982285    0.100274
  61 C     6.0000    0    12.011  -12.151190   -5.938077    0.045687
  62 C     6.0000    0    12.011  -12.201042   -8.597190    0.017194
  63 C     6.0000    0    12.011  -14.684230   -9.676280    0.003264
  64 H     1.0000    0     1.008  -10.541725   -9.827609    0.011375
  65 C     6.0000    0    12.011  -16.548002   -7.835644    0.142682
  66 H     1.0000    0     1.008  -15.068877  -11.698059   -0.057645
  67 S    16.0000    0    32.060  -15.303302   -4.877744    0.105178
  68 H     1.0000    0     1.008  -18.584399   -8.083841    0.236156

--------------------------------
INTERNAL COORDINATES (ANGSTROEM)
--------------------------------
 C      0   0   0     0.000000000000     0.00000000     0.00000000
 C      1   0   0     1.478495607197     0.00000000     0.00000000
 N      1   2   0     1.404270408362   103.79615993     0.00000000
 C      3   1   2     1.403132675765   112.41906100   358.83819670
 C      4   3   1     1.345648321851   107.62196114     0.82322415
 C      2   1   3     1.348235033108   143.71156046   181.01304460
 N      6   2   1     1.404205470043   107.46228397   179.35965299
 C      7   6   2     1.410465627975   112.25840681     1.74471895
 C      7   6   2     1.437051755818   130.66327498   179.78465299
 H      9   7   6     1.083943084622   113.75959772    22.94235673
 H      9   7   6     1.094931851258   108.74618527   258.33638297
 H      9   7   6     1.096150857775   108.99518576   141.30224028
 C      3   1   2     1.439202693195   118.96585907   178.72259329
 H     13   3   1     1.094382651635   111.27447266   359.14669966
 H     13   3   1     1.093403815706   109.49484191   240.77689234
 H     13   3   1     1.093019994373   109.51882399   117.75297367
 O      1   2   3     1.213595403625   129.20729052   180.10778475
 O      8   7   6     1.214175368635   127.29281309   177.83084559
 C      4   3   1     1.444358845059   124.55608489   180.92226102
 C     19   4   3     1.390833457248   130.12453031   359.45882976
 C     20  19   4     1.424120466323   115.12333729   179.72048468
 H     20  19   4     1.077453046912   125.09818452   359.81026130
 C     21  20  19     1.376703877637   112.93511842     0.02300843
 H     21  20  19     1.083339046513   122.86481856   180.05639441
 S     23  21  20     1.710199513536   109.50702005     0.00000000
 C     23  21  20     1.455470552433   127.36797558   180.01376731
 C     26  23  21     1.384890608893   128.08772339   180.00464571
 C     27  26  23     1.430954344834   111.80778206   179.92613600
 H     27  26  23     1.083340746118   124.62895482   359.96326813
 C     28  27  26     1.360461009842   113.09615603     0.04379837
 S     26  23  21     1.729212885593   120.09510433     0.00000000
 S     28  27  26     1.742355984350   135.42137006   180.04703847
 C     30  28  27     1.426316602266   113.40928526   180.00203735
 C     33  30  28     1.383729051007   111.93013175     0.03023219
 H     33  30  28     1.083500750254   123.30582806   180.07499662
 C     34  33  30     1.454735217729   126.98630738   180.11494883
 C     36  34  33     1.375263051565   128.48442504   178.84126536
 S     36  34  33     1.706727820861   122.10902810   358.85571643
 C     38  36  34     1.738195278615    95.95998829   179.44808353
 C     39  38  36     1.390591807613   106.49870097     0.07238557
 H     37  36  34     1.083446542336   124.07717421     0.32726258
 H     40  39  38     1.074880438514   125.70587536   180.51946973
 C     39  38  36     1.446735595332   121.03204151   180.17360847
 C     43  39  38     1.354230567112   125.41057272     1.54829083
 C     44  43  39     1.445985671437   107.98817456   179.88781761
 N     43  39  38     1.416629760911   126.70112798   181.71239649
 C     46  43  39     1.412022942342   112.23278923   180.32252064
 C     45  44  43     1.326626806340   110.86966225   179.95509074
 C     44  43  39     1.498555419195   147.12607580   359.90625990
 N     48  45  44     1.378472494684   108.67544573     0.00000000
 H     48  45  44     1.080600002869   128.63465199   180.02330218
 C     50  48  45     1.441297147919   123.83233035   180.14561572
 H     52  50  48     1.093177099376   110.71576868   179.82190058
 H     52  50  48     1.094080430544   109.07007130    59.65110439
 H     52  50  48     1.094002748168   109.07138329   300.01952634
 C     46  43  39     1.433942334475   131.95781024   359.68926206
 H     56  46  43     1.077930478139   115.25384597     5.56437336
 H     56  46  43     1.095414718223   108.61704922   242.88521999
 H     56  46  43     1.095813759998   108.56043838   126.23820274
 O     49  44  43     1.214473931297   129.19144462     0.03531249
 O     47  46  43     1.209865567326   130.54771394   179.52811593
 C      6   2   1     1.446649119102   126.37993281   359.84653572
 C     62   6   2     1.395773364805   131.77950290   190.09761618
 C     63  62   6     1.430979970824   115.22698857   181.08816080
 H     63  62   6     1.077737489976   124.86809561     1.27584075
 C     64  63  62     1.367842113806   111.65503814   357.09109838
 H     64  63  62     1.083245960297   124.90694933   178.66613181
 S     66  64  63     1.693332334422   111.34273341     3.41161242
 H     66  64  63     1.081866650424   128.15809080   182.43955747

---------------------------
INTERNAL COORDINATES (A.U.)
---------------------------
 C      0   0   0     0.000000000000     0.00000000     0.00000000
 C      1   0   0     2.793951787807     0.00000000     0.00000000
 N      1   2   0     2.653686489773   103.79615993     0.00000000
 C      3   1   2     2.651536486752   112.41906100   358.83819670
 C      4   3   1     2.542906800869   107.62196114     0.82322415
 C      2   1   3     2.547794976733   143.71156046   181.01304460
 N      6   2   1     2.653563774136   107.46228397   179.35965299
 C      7   6   2     2.665393758183   112.25840681     1.74471895
 C      7   6   2     2.715634258767   130.66327498   179.78465299
 H      9   7   6     2.048355574694   113.75959772    22.94235673
 H      9   7   6     2.069121334186   108.74618527   258.33638297
 H      9   7   6     2.071424922657   108.99518576   141.30224028
 C      3   1   2     2.719698941341   118.96585907   178.72259329
 H     13   3   1     2.068083497305   111.27447266   359.14669966
 H     13   3   1     2.066233765468   109.49484191   240.77689234
 H     13   3   1     2.065508448266   109.51882399   117.75297367
 O      1   2   3     2.293362950237   129.20729052   180.10778475
 O      8   7   6     2.294458925273   127.29281309   177.83084559
 C      4   3   1     2.729442656268   124.55608489   180.92226102
 C     19   4   3     2.628294332093   130.12453031   359.45882976
 C     20  19   4     2.691197663063   115.12333729   179.72048468
 H     20  19   4     2.036091180823   125.09818452   359.81026130
 C     21  20  19     2.601593296241   112.93511842     0.02300843
 H     21  20  19     2.047214108093   122.86481856   180.05639441
 S     23  21  20     3.231808714949   109.50702005     0.00000000
 C     23  21  20     2.750440740086   127.36797558   180.01376731
 C     26  23  21     2.617063976247   128.08772339   180.00464571
 C     27  26  23     2.704111821881   111.80778206   179.92613600
 H     27  26  23     2.047217319881   124.62895482   359.96326813
 C     28  27  26     2.570898724479   113.09615603     0.04379837
 S     26  23  21     3.267738781018   120.09510433     0.00000000
 S     28  27  26     3.292575638220   135.42137006   180.04703847
 C     30  28  27     2.695347758548   113.40928526   180.00203735
 C     33  30  28     2.614868949953   111.93013175     0.03023219
 H     33  30  28     2.047519683877   123.30582806   180.07499662
 C     34  33  30     2.749051158877   126.98630738   180.11494883
 C     36  34  33     2.598870529559   128.48442504   178.84126536
 S     36  34  33     3.225248166571   122.10902810   358.85571643
 C     38  36  34     3.284713043858    95.95998829   179.44808353
 C     39  38  36     2.627837680463   106.49870097     0.07238557
 H     37  36  34     2.047417245759   124.07717421     0.32726258
 H     40  39  38     2.031229655501   125.70587536   180.51946973
 C     39  38  36     2.733934063373   121.03204151   180.17360847
 C     43  39  38     2.559124894026   125.41057272     1.54829083
 C     44  43  39     2.732516912589   107.98817456   179.88781761
 N     43  39  38     2.677042281285   126.70112798   181.71239649
 C     46  43  39     2.668336655840   112.23278923   180.32252064
 C     45  44  43     2.506961345901   110.86966225   179.95509074
 C     44  43  39     2.831859338783   147.12607580   359.90625990
 N     48  45  44     2.604935498096   108.67544573     0.00000000
 H     48  45  44     2.042038065737   128.63465199   180.02330218
 C     50  48  45     2.723656887169   123.83233035   180.14561572
 H     52  50  48     2.065805333695   110.71576868   179.82190058
 H     52  50  48     2.067512382211   109.07007130    59.65110439
 H     52  50  48     2.067365583795   109.07138329   300.01952634
 C     46  43  39     2.709758303994   131.95781024   359.68926206
 H     56  46  43     2.036993395089   115.25384597     5.56437336
 H     56  46  43     2.070033820508   108.61704922   242.88521999
 H     56  46  43     2.070787900178   108.56043838   126.23820274
 O     49  44  43     2.295023126938   129.19144462     0.03531249
 O     47  46  43     2.286314581107   130.54771394   179.52811593
 C      6   2   1     2.733770646982   126.37993281   359.84653572
 C     62   6   2     2.637629404504   131.77950290   190.09761618
 C     63  62   6     2.704160247984   115.22698857   181.08816080
 H     63  62   6     2.036628700315   124.86809561     1.27584075
 C     64  63  62     2.584846989536   111.65503814   357.09109838
 H     64  63  62     2.047038200638   124.90694933   178.66613181
 S     66  64  63     3.199934365772   111.34273341     3.41161242
 H     66  64  63     2.044431682724   128.15809080   182.43955747

---------------------
BASIS SET INFORMATION
---------------------
There are 5 groups of distinct atoms

 Group   1 Type C   : 7s4p1d contracted to 3s2p1d pattern {511/31/1}
 Group   2 Type N   : 7s4p1d contracted to 3s2p1d pattern {511/31/1}
 Group   3 Type H   : 4s1p contracted to 2s1p pattern {31/1}
 Group   4 Type O   : 7s4p1d contracted to 3s2p1d pattern {511/31/1}
 Group   5 Type S   : 10s7p1d contracted to 4s3p1d pattern {5311/511/1}

Atom   0C    basis set group =>   1
Atom   1C    basis set group =>   1
Atom   2N    basis set group =>   2
Atom   3C    basis set group =>   1
Atom   4C    basis set group =>   1
Atom   5C    basis set group =>   1
Atom   6N    basis set group =>   2
Atom   7C    basis set group =>   1
Atom   8C    basis set group =>   1
Atom   9H    basis set group =>   3
Atom  10H    basis set group =>   3
Atom  11H    basis set group =>   3
Atom  12C    basis set group =>   1
Atom  13H    basis set group =>   3
Atom  14H    basis set group =>   3
Atom  15H    basis set group =>   3
Atom  16O    basis set group =>   4
Atom  17O    basis set group =>   4
Atom  18C    basis set group =>   1
Atom  19C    basis set group =>   1
Atom  20C    basis set group =>   1
Atom  21H    basis set group =>   3
Atom  22C    basis set group =>   1
Atom  23H    basis set group =>   3
Atom  24S    basis set group =>   5
Atom  25C    basis set group =>   1
Atom  26C    basis set group =>   1
Atom  27C    basis set group =>   1
Atom  28H    basis set group =>   3
Atom  29C    basis set group =>   1
Atom  30S    basis set group =>   5
Atom  31S    basis set group =>   5
Atom  32C    basis set group =>   1
Atom  33C    basis set group =>   1
Atom  34H    basis set group =>   3
Atom  35C    basis set group =>   1
Atom  36C    basis set group =>   1
Atom  37S    basis set group =>   5
Atom  38C    basis set group =>   1
Atom  39C    basis set group =>   1
Atom  40H    basis set group =>   3
Atom  41H    basis set group =>   3
Atom  42C    basis set group =>   1
Atom  43C    basis set group =>   1
Atom  44C    basis set group =>   1
Atom  45N    basis set group =>   2
Atom  46C    basis set group =>   1
Atom  47C    basis set group =>   1
Atom  48C    basis set group =>   1
Atom  49N    basis set group =>   2
Atom  50H    basis set group =>   3
Atom  51C    basis set group =>   1
Atom  52H    basis set group =>   3
Atom  53H    basis set group =>   3
Atom  54H    basis set group =>   3
Atom  55C    basis set group =>   1
Atom  56H    basis set group =>   3
Atom  57H    basis set group =>   3
Atom  58H    basis set group =>   3
Atom  59O    basis set group =>   4
Atom  60O    basis set group =>   4
Atom  61C    basis set group =>   1
Atom  62C    basis set group =>   1
Atom  63C    basis set group =>   1
Atom  64H    basis set group =>   3
Atom  65C    basis set group =>   1
Atom  66H    basis set group =>   3
Atom  67S    basis set group =>   5
Atom  68H    basis set group =>   3
---------------------------------
AUXILIARY/J BASIS SET INFORMATION
---------------------------------
There are 5 groups of distinct atoms

 Group   1 Type C   : 12s5p4d2f1g contracted to 6s4p3d1f1g pattern {711111/2111/211/2/1}
 Group   2 Type N   : 12s5p4d2f1g contracted to 6s4p3d1f1g pattern {711111/2111/211/2/1}
 Group   3 Type H   : 5s2p1d contracted to 3s1p1d pattern {311/2/1}
 Group   4 Type O   : 12s5p4d2f1g contracted to 6s4p3d1f1g pattern {711111/2111/211/2/1}
 Group   5 Type S   : 14s5p5d2f1g contracted to 8s4p3d1f1g pattern {71111111/2111/311/2/1}

Atom   0C    basis set group =>   1
Atom   1C    basis set group =>   1
Atom   2N    basis set group =>   2
Atom   3C    basis set group =>   1
Atom   4C    basis set group =>   1
Atom   5C    basis set group =>   1
Atom   6N    basis set group =>   2
Atom   7C    basis set group =>   1
Atom   8C    basis set group =>   1
Atom   9H    basis set group =>   3
Atom  10H    basis set group =>   3
Atom  11H    basis set group =>   3
Atom  12C    basis set group =>   1
Atom  13H    basis set group =>   3
Atom  14H    basis set group =>   3
Atom  15H    basis set group =>   3
Atom  16O    basis set group =>   4
Atom  17O    basis set group =>   4
Atom  18C    basis set group =>   1
Atom  19C    basis set group =>   1
Atom  20C    basis set group =>   1
Atom  21H    basis set group =>   3
Atom  22C    basis set group =>   1
Atom  23H    basis set group =>   3
Atom  24S    basis set group =>   5
Atom  25C    basis set group =>   1
Atom  26C    basis set group =>   1
Atom  27C    basis set group =>   1
Atom  28H    basis set group =>   3
Atom  29C    basis set group =>   1
Atom  30S    basis set group =>   5
Atom  31S    basis set group =>   5
Atom  32C    basis set group =>   1
Atom  33C    basis set group =>   1
Atom  34H    basis set group =>   3
Atom  35C    basis set group =>   1
Atom  36C    basis set group =>   1
Atom  37S    basis set group =>   5
Atom  38C    basis set group =>   1
Atom  39C    basis set group =>   1
Atom  40H    basis set group =>   3
Atom  41H    basis set group =>   3
Atom  42C    basis set group =>   1
Atom  43C    basis set group =>   1
Atom  44C    basis set group =>   1
Atom  45N    basis set group =>   2
Atom  46C    basis set group =>   1
Atom  47C    basis set group =>   1
Atom  48C    basis set group =>   1
Atom  49N    basis set group =>   2
Atom  50H    basis set group =>   3
Atom  51C    basis set group =>   1
Atom  52H    basis set group =>   3
Atom  53H    basis set group =>   3
Atom  54H    basis set group =>   3
Atom  55C    basis set group =>   1
Atom  56H    basis set group =>   3
Atom  57H    basis set group =>   3
Atom  58H    basis set group =>   3
Atom  59O    basis set group =>   4
Atom  60O    basis set group =>   4
Atom  61C    basis set group =>   1
Atom  62C    basis set group =>   1
Atom  63C    basis set group =>   1
Atom  64H    basis set group =>   3
Atom  65C    basis set group =>   1
Atom  66H    basis set group =>   3
Atom  67S    basis set group =>   5
Atom  68H    basis set group =>   3
------------------------------------------------------------------------------
                           ORCA GTO INTEGRAL CALCULATION
                           -- RI-GTO INTEGRALS CHOSEN --
------------------------------------------------------------------------------

                         BASIS SET STATISTICS AND STARTUP INFO

Gaussian basis set:
 # of primitive gaussian shells          ...  704
 # of primitive gaussian functions       ... 1342
 # of contracted shells                  ...  358
 # of contracted basis functions         ...  788
 Highest angular momentum                ...    2
 Maximum contraction depth               ...    5
Auxiliary gaussian basis set:
 # of primitive gaussian shells          ... 1319
 # of primitive gaussian functions       ... 3677
 # of contracted shells                  ...  825
 # of contracted aux-basis functions     ... 2555
 Highest angular momentum                ...    4
 Maximum contraction depth               ...    7
Ratio of auxiliary to basis functions    ...  3.24
Integral package used                  ... LIBINT
 One Electron integrals                  ... done
 Ordering auxiliary basis shells         ... done
 Integral threshhold             Thresh  ...  2.500e-11
 Primitive cut-off               TCut    ...  2.500e-12
 Pre-screening matrix                    ... done
 Shell pair data                         ... 
 Ordering of the shell pairs             ... done (   0.004 sec) 24420 of 64261 pairs
 Determination of significant pairs      ... done (   0.000 sec)
 Creation of shell pair data             ... done (   0.003 sec)
 Storage of shell pair data              ... done (   0.010 sec)
 Shell pair data done in (   0.017 sec)
 Computing two index integrals           ... done
 Cholesky decomposition of the V-matrix  ... done


Timings:
 Total evaluation time                   ...   1.002 sec (  0.017 min)
 One electron matrix time                ...   0.247 sec (  0.004 min) = 24.7%
 Schwartz matrix evaluation time         ...   0.305 sec (  0.005 min) = 30.4%
 Two index repulsion integral time       ...   0.164 sec (  0.003 min) = 16.4%
 Cholesky decomposition of V             ...   0.248 sec (  0.004 min) = 24.8%
 Three index repulsion integral time     ...   0.000 sec (  0.000 min) =  0.0%

-------------------------------------------------------------------------------
                                 ORCA SCF
-------------------------------------------------------------------------------

------------
SCF SETTINGS
------------
Hamiltonian:
 Density Functional     Method          .... DFT(GTOs)
 Exchange Functional    Exchange        .... B88
   X-Alpha parameter    XAlpha          ....  0.666667
   Becke's b parameter  XBeta           ....  0.004200
 Correlation Functional Correlation     .... P86
 LDA part of GGA corr.  LDAOpt          .... PW91-LDA
 Gradients option       PostSCFGGA      .... off
   Density functional embedding theory  .... OFF
 RI-approximation to the Coulomb term is turned on
   Number of auxiliary basis functions  .... 2555


General Settings:
 Integral files         IntName         .... DPP2T_TT_Optimize_Monomer
 Hartree-Fock type      HFTyp           .... RHF
 Total Charge           Charge          ....    0
 Multiplicity           Mult            ....    1
 Number of Electrons    NEL             ....  366
 Basis Dimension        Dim             ....  788
 Nuclear Repulsion      ENuc            ....   5918.7415563369 Eh

Convergence Acceleration:
 DIIS                   CNVDIIS         .... on
   Start iteration      DIISMaxIt       ....    12
   Startup error        DIISStart       ....  0.200000
   # of expansion vecs  DIISMaxEq       ....     5
   Bias factor          DIISBfac        ....   1.050
   Max. coefficient     DIISMaxC        ....  10.000
 Newton-Raphson         CNVNR           .... off
 SOSCF                  CNVSOSCF        .... on
   Start iteration      SOSCFMaxIt      ....   150
   Startup grad/error   SOSCFStart      ....  0.003300
 Level Shifting         CNVShift        .... on
   Level shift para.    LevelShift      ....    0.2500
   Turn off err/grad.   ShiftErr        ....    0.0010
[...]
      dxy     :     0.029576
 40 H s       :     0.896105  s :     0.896105
      pz      :     0.015235  p :     0.068624
      px      :     0.011229
      py      :     0.042161
 41 H s       :     0.891968  s :     0.891968
      pz      :     0.015678  p :     0.071416
      px      :     0.036397
      py      :     0.019341
 42 C s       :     2.843405  s :     2.843405
      pz      :     0.960116  p :     2.971681
      px      :     0.952371
      py      :     1.059193
      dz2     :     0.009242  d :     0.142072
      dxz     :     0.024863
      dyz     :     0.018590
      dx2y2   :     0.049627
      dxy     :     0.039750
 43 C s       :     2.851245  s :     2.851245
      pz      :     1.112313  p :     3.174755
      px      :     1.037711
      py      :     1.024731
      dz2     :     0.008712  d :     0.101917
      dxz     :     0.011799
      dyz     :     0.011728
      dx2y2   :     0.033103
      dxy     :     0.036575
 44 C s       :     2.853389  s :     2.853389
      pz      :     1.088082  p :     3.160143
      px      :     1.029691
      py      :     1.042370
      dz2     :     0.008725  d :     0.105525
      dxz     :     0.011703
      dyz     :     0.013458
      dx2y2   :     0.033084
      dxy     :     0.038555
 45 N s       :     3.095201  s :     3.095201
      pz      :     1.517778  p :     3.850663
      px      :     1.157242
      py      :     1.175643
      dz2     :     0.005054  d :     0.062699
      dxz     :     0.007454
      dyz     :     0.006171
      dx2y2   :     0.021290
      dxy     :     0.022731
 46 C s       :     2.844263  s :     2.844263
      pz      :     0.888995  p :     2.841543
      px      :     1.005896
      py      :     0.946653
      dz2     :     0.014000  d :     0.248638
      dxz     :     0.045461
      dyz     :     0.014957
      dx2y2   :     0.054067
      dxy     :     0.120153
 47 C s       :     2.869177  s :     2.869177
      pz      :     0.961950  p :     2.950417
      px      :     0.932885
      py      :     1.055582
      dz2     :     0.007836  d :     0.118766
      dxz     :     0.018763
      dyz     :     0.013242
      dx2y2   :     0.042618
      dxy     :     0.036306
 48 C s       :     2.844365  s :     2.844365
      pz      :     0.910344  p :     2.860736
      px      :     1.001034
      py      :     0.949358
      dz2     :     0.013953  d :     0.245530
      dxz     :     0.045248
      dyz     :     0.014965
      dx2y2   :     0.054038
      dxy     :     0.117326
 49 N s       :     3.095293  s :     3.095293
      pz      :     1.485968  p :     3.835547
      px      :     1.177128
      py      :     1.172451
      dz2     :     0.005025  d :     0.065164
      dxz     :     0.008578
      dyz     :     0.006426
      dx2y2   :     0.021658
      dxy     :     0.023477
 50 H s       :     0.893606  s :     0.893606
      pz      :     0.014569  p :     0.069246
      px      :     0.026724
      py      :     0.027952
 51 C s       :     2.843632  s :     2.843632
      pz      :     1.078164  p :     3.053240
      px      :     1.061482
      py      :     0.913593
      dz2     :     0.015930  d :     0.092466
      dxz     :     0.004582
      dyz     :     0.031338
      dx2y2   :     0.022698
      dxy     :     0.017917
 52 H s       :     0.888495  s :     0.888495
      pz      :     0.012029  p :     0.068530
      px      :     0.044403
      py      :     0.012098
 53 H s       :     0.903260  s :     0.903260
      pz      :     0.031743  p :     0.063626
      px      :     0.013947
      py      :     0.017936
 54 H s       :     0.903218  s :     0.903218
      pz      :     0.031680  p :     0.063628
      px      :     0.014032
      py      :     0.017916
 55 C s       :     2.843459  s :     2.843459
      pz      :     1.072955  p :     3.055680
      px      :     1.055802
      py      :     0.926923
      dz2     :     0.016035  d :     0.093930
      dxz     :     0.004336
      dyz     :     0.032694
      dx2y2   :     0.020650
      dxy     :     0.020215
 56 H s       :     0.904479  s :     0.904479
      pz      :     0.032243  p :     0.064481
      px      :     0.013779
      py      :     0.018458
 57 H s       :     0.904509  s :     0.904509
      pz      :     0.032325  p :     0.064496
      px      :     0.013770
      py      :     0.018401
 58 H s       :     0.886370  s :     0.886370
      pz      :     0.011827  p :     0.070123
      px      :     0.044142
      py      :     0.014154
 59 O s       :     3.561243  s :     3.561243
      pz      :     1.423709  p :     4.596000
      px      :     1.442300
      py      :     1.729991
      dz2     :     0.004101  d :     0.029381
      dxz     :     0.006903
      dyz     :     0.000029
      dx2y2   :     0.012533
      dxy     :     0.005817
 60 O s       :     3.554414  s :     3.554414
      pz      :     1.408523  p :     4.584866
      px      :     1.445946
      py      :     1.730397
      dz2     :     0.004180  d :     0.029986
      dxz     :     0.006978
      dyz     :     0.000023
      dx2y2   :     0.012783
      dxy     :     0.006022
 61 C s       :     2.913647  s :     2.913647
      pz      :     1.097752  p :     3.170961
      px      :     1.002369
      py      :     1.070839
      dz2     :     0.007363  d :     0.098830
      dxz     :     0.010427
      dyz     :     0.015220
      dx2y2   :     0.032868
      dxy     :     0.032952
 62 C s       :     2.877942  s :     2.877942
      pz      :     1.007386  p :     3.095808
      px      :     1.046738
      py      :     1.041684
      dz2     :     0.006219  d :     0.086629
      dxz     :     0.006721
      dyz     :     0.012168
      dx2y2   :     0.032250
      dxy     :     0.029270
 63 C s       :     2.878276  s :     2.878276
      pz      :     1.007074  p :     3.102810
      px      :     1.049714
      py      :     1.046022
      dz2     :     0.006298  d :     0.088874
      dxz     :     0.014274
      dyz     :     0.005050
      dx2y2   :     0.030161
      dxy     :     0.033091
 64 H s       :     0.894197  s :     0.894197
      pz      :     0.016158  p :     0.071708
      px      :     0.036339
      py      :     0.019212
 65 C s       :     2.946123  s :     2.946123
      pz      :     1.066785  p :     3.158388
      px      :     1.067334
      py      :     1.024269
      dz2     :     0.005900  d :     0.080526
      dxz     :     0.005396
      dyz     :     0.013266
      dx2y2   :     0.032498
      dxy     :     0.023466
 66 H s       :     0.894316  s :     0.894316
      pz      :     0.014697  p :     0.067155
      px      :     0.010964
      py      :     0.041494
 67 S s       :     5.529786  s :     5.529786
      pz      :     3.561640  p :     9.844744
      px      :     3.036814
      py      :     3.246291
      dz2     :     0.017397  d :     0.135087
      dxz     :     0.020755
      dyz     :     0.015258
      dx2y2   :     0.051232
      dxy     :     0.030444
 68 H s       :     0.892138  s :     0.892138
      pz      :     0.016344  p :     0.072139
      px      :     0.043070
      py      :     0.012726


                      *****************************
                      * MAYER POPULATION ANALYSIS *
                      *****************************

  NA   - Mulliken gross atomic population
  ZA   - Total nuclear charge
  QA   - Mulliken gross atomic charge
  VA   - Mayer's total valence
  BVA  - Mayer's bonded valence
  FA   - Mayer's free valence

  ATOM       NA         ZA         QA         VA         BVA        FA
  0 C      5.8696     6.0000     0.1304     4.1297     4.1297    -0.0000
  1 C      6.0872     6.0000    -0.0872     3.7864     3.7864     0.0000
  2 N      7.2874     7.0000    -0.2874     3.3412     3.3412    -0.0000
  3 C      5.8107     6.0000     0.1893     3.8279     3.8279     0.0000
  4 C      6.0820     6.0000    -0.0820     3.7809     3.7809    -0.0000
  5 C      5.8050     6.0000     0.1950     3.8405     3.8405    -0.0000
  6 N      7.2867     7.0000    -0.2867     3.3475     3.3475     0.0000
  7 C      5.8713     6.0000     0.1287     4.1272     4.1272     0.0000
  8 C      5.9446     6.0000     0.0554     3.9162     3.9162    -0.0000
  9 H      0.9420     1.0000     0.0580     0.9854     0.9854     0.0000
 10 H      0.9420     1.0000     0.0580     0.9855     0.9855    -0.0000
 11 H      0.9325     1.0000     0.0675     1.0338     1.0338    -0.0000
 12 C      5.9450     6.0000     0.0550     3.9164     3.9164    -0.0000
 13 H      0.9313     1.0000     0.0687     1.0338     1.0338    -0.0000
 14 H      0.9427     1.0000     0.0573     0.9851     0.9851     0.0000
 15 H      0.9426     1.0000     0.0574     0.9850     0.9850    -0.0000
 16 O      8.1818     8.0000    -0.1818     2.3849     2.3849    -0.0000
 17 O      8.1857     8.0000    -0.1857     2.3812     2.3812     0.0000
 18 C      6.1305     6.0000    -0.1305     3.8639     3.8639    -0.0000
 19 C      6.0133     6.0000    -0.0133     3.8400     3.8400     0.0000
 20 C      6.0257     6.0000    -0.0257     3.8528     3.8528    -0.0000
 21 H      1.0106     1.0000    -0.0106     1.0133     1.0133    -0.0000
 22 C      6.0401     6.0000    -0.0401     3.9185     3.9185    -0.0000
 23 H      0.9876     1.0000     0.0124     0.9927     0.9927     0.0000
 24 S     15.8242    16.0000     0.1758     2.5401     2.5401    -0.0000
 25 C      6.0684     6.0000    -0.0684     3.9299     3.9299    -0.0000
 26 C      6.0407     6.0000    -0.0407     3.9232     3.9232    -0.0000
 27 C      6.0235     6.0000    -0.0235     3.9476     3.9476    -0.0000
 28 H      0.9711     1.0000     0.0289     0.9974     0.9974     0.0000
 29 C      6.0238     6.0000    -0.0238     3.9475     3.9475    -0.0000
 30 S     15.8641    16.0000     0.1359     2.4431     2.4431    -0.0000
 31 S     15.8640    16.0000     0.1360     2.4441     2.4441     0.0000
 32 C      6.0400     6.0000    -0.0400     3.9241     3.9241     0.0000
 33 C      6.0692     6.0000    -0.0692     3.9287     3.9287     0.0000
 34 H      0.9705     1.0000     0.0295     0.9973     0.9973     0.0000
 35 C      6.0395     6.0000    -0.0395     3.9197     3.9197    -0.0000
 36 C      6.0261     6.0000    -0.0261     3.8519     3.8519     0.0000
 37 S     15.8216    16.0000     0.1784     2.5438     2.5438    -0.0000
 38 C      6.1330     6.0000    -0.1330     3.8667     3.8667    -0.0000
 39 C      6.0114     6.0000    -0.0114     3.8409     3.8409    -0.0000
 40 H      0.9872     1.0000     0.0128     0.9928     0.9928    -0.0000
 41 H      1.0095     1.0000    -0.0095     1.0135     1.0135     0.0000
 42 C      5.7925     6.0000     0.2075     3.8416     3.8416     0.0000
 43 C      6.1193     6.0000    -0.1193     3.7891     3.7891     0.0000
 44 C      6.0058     6.0000    -0.0058     3.7502     3.7502     0.0000
 45 N      7.2948     7.0000    -0.2948     3.3203     3.3203    -0.0000
 46 C      5.8510     6.0000     0.1490     4.1290     4.1290     0.0000
 47 C      5.9675     6.0000     0.0325     3.7569     3.7569     0.0000
 48 C      5.8614     6.0000     0.1386     4.1277     4.1277    -0.0000
 49 N      7.2616     7.0000    -0.2616     3.3649     3.3649    -0.0000
 50 H      0.9679     1.0000     0.0321     0.9957     0.9957    -0.0000
 51 C      5.9453     6.0000     0.0547     3.9072     3.9072     0.0000
 52 H      0.9311     1.0000     0.0689     1.0311     1.0311     0.0000
 53 H      0.9476     1.0000     0.0524     0.9871     0.9871    -0.0000
 54 H      0.9477     1.0000     0.0523     0.9871     0.9871    -0.0000
 55 C      5.9461     6.0000     0.0539     3.9182     3.9182     0.0000
 56 H      0.9431     1.0000     0.0569     0.9849     0.9849    -0.0000
 57 H      0.9431     1.0000     0.0569     0.9848     0.9848    -0.0000
 58 H      0.9320     1.0000     0.0680     1.0345     1.0345    -0.0000
 59 O      8.1864     8.0000    -0.1864     2.3773     2.3773    -0.0000
 60 O      8.1697     8.0000    -0.1697     2.3955     2.3955    -0.0000
 61 C      6.1780     6.0000    -0.1780     3.8980     3.8980    -0.0000
 62 C      6.0090     6.0000    -0.0090     3.8479     3.8479    -0.0000
 63 C      5.9806     6.0000     0.0194     3.8693     3.8693    -0.0000
 64 H      1.0077     1.0000    -0.0077     1.0125     1.0125     0.0000
 65 C      6.0846     6.0000    -0.0846     3.7948     3.7948    -0.0000
 66 H      0.9855     1.0000     0.0145     0.9861     0.9861    -0.0000
 67 S     15.8132    16.0000     0.1868     2.5931     2.5931     0.0000
 68 H      0.9425     1.0000     0.0575     0.9900     0.9900     0.0000

  Mayer bond orders larger than 0.100000
B(  0-C ,  1-C ) :   1.0191 B(  0-C ,  2-N ) :   0.9786 B(  0-C , 16-O ) :   2.0533 
B(  1-C ,  4-C ) :   1.2894 B(  1-C ,  5-C ) :   1.2704 B(  2-N ,  3-C ) :   1.1830 
B(  2-N , 12-C ) :   0.9886 B(  3-C ,  4-C ) :   1.2608 B(  3-C , 18-C ) :   1.2123 
B(  4-C ,  7-C ) :   1.0240 B(  5-C ,  6-N ) :   1.1889 B(  5-C , 61-C ) :   1.2059 
B(  6-N ,  7-C ) :   0.9789 B(  6-N ,  8-C ) :   0.9880 B(  7-C , 17-O ) :   2.0411 
B(  8-C ,  9-H ) :   0.9576 B(  8-C , 10-H ) :   0.9576 B(  8-C , 11-H ) :   0.9303 
B( 12-C , 13-H ) :   0.9301 B( 12-C , 14-H ) :   0.9574 B( 12-C , 15-H ) :   0.9574 
B( 18-C , 19-C ) :   1.3499 B( 18-C , 22-C ) :   0.1020 B( 18-C , 24-S ) :   1.1206 
B( 19-C , 20-C ) :   1.3069 B( 19-C , 21-H ) :   0.9813 B( 20-C , 22-C ) :   1.3831 
B( 20-C , 23-H ) :   0.9736 B( 22-C , 24-S ) :   1.1082 B( 22-C , 25-C ) :   1.2193 
B( 25-C , 26-C ) :   1.4210 B( 25-C , 30-S ) :   1.0895 B( 26-C , 27-C ) :   1.2964 
B( 26-C , 28-H ) :   0.9754 B( 27-C , 29-C ) :   1.3521 B( 27-C , 31-S ) :   1.0733 
B( 29-C , 30-S ) :   1.0722 B( 29-C , 32-C ) :   1.2975 B( 31-S , 33-C ) :   1.0891 
B( 32-C , 33-C ) :   1.4217 B( 32-C , 34-H ) :   0.9753 B( 33-C , 35-C ) :   1.2180 
B( 35-C , 36-C ) :   1.3824 B( 35-C , 37-S ) :   1.1133 B( 35-C , 38-C ) :   0.1028 
B( 36-C , 39-C ) :   1.3067 B( 36-C , 40-H ) :   0.9738 B( 37-S , 38-C ) :   1.1201 
B( 38-C , 39-C ) :   1.3539 B( 38-C , 42-C ) :   1.2100 B( 39-C , 41-H ) :   0.9810 
B( 42-C , 43-C ) :   1.2900 B( 42-C , 45-N ) :   1.1795 B( 43-C , 44-C ) :   1.2600 
B( 43-C , 48-C ) :   1.0351 B( 44-C , 46-C ) :   0.9899 B( 44-C , 47-C ) :   1.3758 
B( 45-N , 46-C ) :   0.9553 B( 45-N , 55-C ) :   0.9899 B( 46-C , 60-O ) :   2.1104 
B( 47-C , 49-N ) :   1.2160 B( 47-C , 50-H ) :   0.9745 B( 48-C , 49-N ) :   0.9790 
B( 48-C , 59-O ) :   2.0358 B( 49-N , 51-C ) :   0.9787 B( 51-C , 52-H ) :   0.9471 
B( 51-C , 53-H ) :   0.9669 B( 51-C , 54-H ) :   0.9669 B( 55-C , 56-H ) :   0.9574 
B( 55-C , 57-H ) :   0.9574 B( 55-C , 58-H ) :   0.9300 B( 61-C , 62-C ) :   1.3822 
B( 61-C , 65-C ) :   0.1047 B( 61-C , 67-S ) :   1.1497 B( 62-C , 63-C ) :   1.2849 
B( 62-C , 64-H ) :   0.9807 B( 63-C , 65-C ) :   1.4784 B( 63-C , 66-H ) :   0.9787 
B( 65-C , 67-S ) :   1.1781 B( 65-C , 68-H ) :   0.9608 

-------
TIMINGS
-------

Total SCF time: 0 days 0 hours 1 min 58 sec 

Total time                  ....     118.393 sec
Sum of individual times     ....     117.050 sec  ( 98.9%)

Fock matrix formation       ....      89.487 sec  ( 75.6%)
  Split-RI-J                ....      59.375 sec  ( 66.4% of F)
  XC integration            ....      29.456 sec  ( 32.9% of F)
    Basis function eval.    ....      11.920 sec  ( 40.5% of XC)
    Density eval.           ....       6.725 sec  ( 22.8% of XC)
    XC-Functional eval.     ....       2.296 sec  (  7.8% of XC)
    XC-Potential eval.      ....       6.991 sec  ( 23.7% of XC)
Diagonalization             ....       0.124 sec  (  0.1%)
Density matrix formation    ....       0.443 sec  (  0.4%)
Population analysis         ....       0.117 sec  (  0.1%)
Initial guess               ....       0.180 sec  (  0.2%)
Orbital Transformation      ....       0.000 sec  (  0.0%)
Orbital Orthonormalization  ....       0.133 sec  (  0.1%)
DIIS solution               ....       0.039 sec  (  0.0%)
SOSCF solution              ....       1.142 sec  (  1.0%)
Grid generation             ....      25.517 sec  ( 21.6%)


-------------------------------------------------------------------------------
                          DFT DISPERSION CORRECTION                            
                                                                               
                              DFTD3 V3.1  Rev 1                                
                          USING Becke-Johnson damping                          
-------------------------------------------------------------------------------
The BP86 functional is recognized
Active option DFTDOPT                   ...         4   

molecular C6(AA) [au] = 83506.087852 


            DFT-D V3
 parameters
 s6 scaling factor         :     1.0000 
 a1 scaling factor         :     0.3946 
 s8 scaling factor         :     3.2822 
 a2 scaling factor         :     4.8516 
 ad hoc parameters k1-k3   :    16.0000     1.3333    -4.0000 

 Edisp/kcal,au: -116.988377849539  -0.186432827241 
 E6   /kcal   : -41.256087210 
 E8   /kcal   : -75.732290639 
 % E8         :  64.734883953 

-------------------------   ----------------
Dispersion correction           -0.186432827
-------------------------   ----------------


-------------------------   --------------------
FINAL SINGLE POINT ENERGY     -3818.278985773634
-------------------------   --------------------

                                *** OPTIMIZATION RUN DONE ***

                            ***************************************
                            *     ORCA property calculations      *
                            ***************************************

                                    ---------------------
                                    Active property flags
                                    ---------------------
   (+) Dipole Moment


------------------------------------------------------------------------------
                       ORCA ELECTRIC PROPERTIES CALCULATION
------------------------------------------------------------------------------

Dipole Moment Calculation                       ... on
Quadrupole Moment Calculation                   ... off
Polarizability Calculation                      ... off
GBWName                                         ... DPP2T_TT_Optimize_Monomer.gbw
Electron density file                           ... DPP2T_TT_Optimize_Monomer.scfp
The origin for moment calculation is the CENTER OF MASS  = ( 2.955966,  6.067342  0.006575)

-------------
DIPOLE MOMENT
-------------
                                X             Y             Z
Electronic contribution:     -4.87288       0.41164      -0.06147
Nuclear contribution   :      4.23348      -0.93916       0.06678
                        -----------------------------------------
Total Dipole Moment    :     -0.63940      -0.52752       0.00531
                        -----------------------------------------
Magnitude (a.u.)       :      0.82894
Magnitude (Debye)      :      2.10700



--------------------
Rotational spectrum 
--------------------
 
Rotational constants in cm-1:     0.006661     0.000403     0.000380 
Rotational constants in MHz :   199.687663    12.082265    11.396328 

 Dipole components along the rotational axes: 
x,y,z [a.u.] :    -0.821401     0.111477     0.003967 
x,y,z [Debye]:    -2.087836     0.283353     0.010082 

 

Timings for individual modules:

Sum of individual times         ...     4892.605 sec (=  81.543 min)
GTO integral calculation        ...       26.048 sec (=   0.434 min)   0.5 %
SCF iterations                  ...     3236.873 sec (=  53.948 min)  66.2 %
SCF Gradient evaluation         ...     1619.559 sec (=  26.993 min)  33.1 %
Geometry relaxation             ...       10.125 sec (=   0.169 min)   0.2 %
                             ****ORCA TERMINATED NORMALLY****
TOTAL RUN TIME: 0 days 1 hours 21 minutes 49 seconds 298 msec
