
                                 *****************
                                 * O   R   C   A *
                                 *****************

           --- An Ab Initio, DFT and Semiempirical electronic structure package ---

                  #######################################################
                  #                        -***-                        #
                  #          Department of theory and spectroscopy      #
                  #               Directorship: Frank Neese             #
                  #        Max Planck Institute fuer Kohlenforschung    #
                  #                Kaiser Wilhelm Platz 1               #
                  #                 D-45470 Muelheim/Ruhr               #
                  #                      Germany                        #
                  #                                                     #
                  #                  All rights reserved                #
                  #                        -***-                        #
                  #######################################################


                         Program Version 4.2.0 -  RELEASE  -


 With contributions from (in alphabetic order):
   Daniel Aravena         : Magnetic Suceptibility
   Michael Atanasov       : Ab Initio Ligand Field Theory (pilot matlab implementation)
   Alexander A. Auer      : GIAO ZORA, VPT2
   Ute Becker             : Parallelization
   Giovanni Bistoni       : ED, misc. LED, open-shell LED, HFLED
   Martin Brehm           : Molecular dynamics
   Dmytro Bykov           : SCF Hessian
   Vijay G. Chilkuri      : MRCI spin determinant printing, contributions to CSF-ICE
   Dipayan Datta          : RHF DLPNO-CCSD density
   Achintya Kumar Dutta   : EOM-CC, STEOM-CC
   Dmitry Ganyushin       : Spin-Orbit,Spin-Spin,Magnetic field MRCI
   Miquel Garcia          : C-PCM Hessian, Gaussian charge scheme
   Yang Guo               : DLPNO-NEVPT2, CIM, IAO-localization
   Andreas Hansen         : Spin unrestricted coupled pair/coupled cluster methods
   Benjamin Helmich-Paris : CASSCF linear response (MC-RPA)
   Lee Huntington         : MR-EOM, pCC
   Robert Izsak           : Overlap fitted RIJCOSX, COSX-SCS-MP3, EOM
   Christian Kollmar      : KDIIS, OOCD, Brueckner-CCSD(T), CCSD density
   Simone Kossmann        : Meta GGA functionals, TD-DFT gradient, OOMP2, MP2 Hessian
   Martin Krupicka        : AUTO-CI
   Lucas Lang             : DCDCAS
   Dagmar Lenk            : GEPOL surface, SMD
   Dimitrios Liakos       : Extrapolation schemes; Compound Job, initial MDCI parallelization
   Dimitrios Manganas     : Further ROCIS development; embedding schemes
   Dimitrios Pantazis     : SARC Basis sets
   Taras Petrenko         : DFT Hessian,TD-DFT gradient, ASA, ECA, R-Raman, ABS, FL, XAS/XES, NRVS
   Peter Pinski           : DLPNO-MP2, DLPNO-MP2 Gradient
   Christoph Reimann      : Effective Core Potentials
   Marius Retegan         : Local ZFS, SOC
   Christoph Riplinger    : Optimizer, TS searches, QM/MM, DLPNO-CCSD(T), (RO)-DLPNO pert. Triples
   Tobias Risthaus        : Range-separated hybrids, TD-DFT gradient, RPA, STAB
   Michael Roemelt        : Original ROCIS implementation
   Masaaki Saitow         : Open-shell DLPNO-CCSD energy and density
   Barbara Sandhoefer     : DKH picture change effects
   Avijit Sen             : IP-ROCIS
   Kantharuban Sivalingam : CASSCF convergence, NEVPT2, FIC-MRCI
   Bernardo de Souza      : ESD, SOC TD-DFT
   Georgi Stoychev        : AutoAux, RI-MP2 NMR
   Willem Van den Heuvel  : Paramagnetic NMR
   Boris Wezisla          : Elementary symmetry handling
   Frank Wennmohs         : Technical directorship


 We gratefully acknowledge several colleagues who have allowed us to
 interface, adapt or use parts of their codes:
   Stefan Grimme, W. Hujo, H. Kruse,             : VdW corrections, initial TS optimization,
                  C. Bannwarth                     DFT functionals, gCP, sTDA/sTD-DF
   Ed Valeev, F. Pavosevic, A. Kumar             : LibInt (2-el integral package), F12 methods
   Garnet Chan, S. Sharma, J. Yang, R. Olivares  : DMRG
   Ulf Ekstrom                                   : XCFun DFT Library
   Mihaly Kallay                                 : mrcc  (arbitrary order and MRCC methods)
   Andreas Klamt, Michael Diedenhofen            : otool_cosmo (COSMO solvation model)
   Jiri Pittner, Ondrej Demel                    : Mk-CCSD
   Frank Weinhold                                : gennbo (NPA and NBO analysis)
   Christopher J. Cramer and Donald G. Truhlar   : smd solvation model
   Lars Goerigk                                  : TD-DFT with DH, B97 family of functionals
   V. Asgeirsson, H. Jonsson                     : NEB implementation
   FAccTs GmbH                                   : IRC, NEB, NEB-TS, Multilevel, MM, QM/MM, CI optimization
   S Lehtola, MJT Oliveira, MAL Marques          : LibXC Library


 Your calculation uses the libint2 library for the computation of 2-el integrals
 For citations please refer to: http://libint.valeyev.net

 Your ORCA version has been built with support for libXC version: 4.2.3
 For citations please refer to: https://tddft.org/programs/libxc/

 This ORCA versions uses:
   CBLAS   interface :  Fast vector & matrix operations
   LAPACKE interface :  Fast linear algebra routines
   SCALAPACK package :  Parallel linear algebra routines


Your calculation utilizes the atom-pairwise dispersion correction
with the Becke-Johnson damping scheme (D3BJ)
Cite in your paper:
S.Grimme, S.Ehrlich, L.Goerigk, J Comput Chem, (2011), 32, 1456–1465 
S.Grimme, J.Antony, S.Ehrlich and H.Krieg, J.Chem.Phys., 132, (2010), 154104 
   

----- Orbital basis set information -----
Your calculation utilizes the basis: def2-SVP
   F. Weigend and R. Ahlrichs, Phys. Chem. Chem. Phys. 7, 3297 (2005).

----- AuxJ basis set information -----
Your calculation utilizes the auxiliary basis: def2/J
   F. Weigend, Phys. Chem. Chem. Phys. 8, 1057 (2006).

================================================================================
                                        WARNINGS
                       Please study these warnings very carefully!
================================================================================


WARNING: Geometry Optimization
  ===> : Switching off AutoStart
         For restart on a previous wavefunction, please use MOREAD

INFO   : the flag for use of LIBINT has been found!

================================================================================
                                       INPUT FILE
================================================================================
NAME = DPP2F_T_Input_Dimethyl_Diketopyrrolopyrrole_1_Optimize_Monomer_Hydrogenated.inp
|  1> ! RI BP86 def2-SVP def2/J D3BJ TIGHTSCF  Opt Grid3 FinalGrid5
|  2> %maxcore 3000
|  3> %geom
|  4> optimizehydrogens true
|  5> end
|  6> 
|  7> 
|  8> *xyz 0 1
|  9> C	-1.739913	1.811814	-0.011867
| 10> C	-1.805290	0.405880	0.000359
| 11> C	-0.470661	-0.107095	0.002793
| 12> C	0.471691	1.005024	-0.007847
| 13> N	-0.397346	2.171792	-0.016836
| 14> O	1.696957	1.109029	-0.010260
| 15> C	-0.536568	-1.515671	0.015223
| 16> C	-2.747982	-0.711041	0.011378
| 17> N	-1.874789	-1.879177	0.020452
| 18> C	0.171713	3.499439	-0.028472
| 19> H	1.271048	3.367628	-0.028533
| 20> H	-0.124407	4.079813	0.870070
| 21> H	-0.126236	4.064815	-0.935937
| 22> C	-2.431081	-3.211197	0.032522
| 23> H	-3.531956	-3.091710	0.033725
| 24> H	-2.127161	-3.773820	0.939714
| 25> H	-2.130783	-3.788699	-0.866491
| 26> O	-3.968872	-0.810310	0.013942
| 27> H	-2.196509	2.251395	0.883938
| 28> H	-2.198163	2.236899	-0.913802
| 29> H	-0.076933	-1.939264	0.917286
| 30> H	-0.078493	-1.953884	-0.880629
| 31> **                         ****END OF INPUT****
================================================================================

                       *****************************
                       * Geometry Optimization Run *
                       *****************************

Geometry optimization settings:
Update method            Update   .... BFGS
Choice of coordinates    CoordSys .... Z-matrix Internals
Initial Hessian          InHess   .... Almoef's Model

Convergence Tolerances:
Energy Change            TolE     ....  5.0000e-06 Eh
Max. Gradient            TolMAXG  ....  3.0000e-04 Eh/bohr
RMS Gradient             TolRMSG  ....  1.0000e-04 Eh/bohr
Max. Displacement        TolMAXD  ....  4.0000e-03 bohr
RMS Displacement         TolRMSD  ....  2.0000e-03 bohr
Strict Convergence                ....  False
------------------------------------------------------------------------------
                        ORCA OPTIMIZATION COORDINATE SETUP
------------------------------------------------------------------------------

The optimization will be done in new redundant internal coordinates
Making redundant internal coordinates   ...  (new redundants) done
Evaluating the initial hessian          ...  (Almloef) done
Evaluating the coordinates              ...  done
Calculating the B-matrix                .... done
Calculating the G-matrix                .... done
Diagonalizing the G-matrix              .... done
Imposing constraints:
 Iter   0:  RMS(Cart)=    0.0000000000 RMS(Int)=    0.0000000000
CONVERGED
The first mode is                       ....   61
The number of degrees of freedom        ....   60
Storing new coordinates                 .... done

    -----------------------------------------------------------------
                    Redundant Internal Coordinates


    -----------------------------------------------------------------
         Definition                    Initial Value    Approx d2E/dq
    -----------------------------------------------------------------
      1. B(C   1,C   0)                  1.4075         0.585880 C 
      2. B(C   2,C   1)                  1.4298         0.539770 C 
      3. B(C   3,C   2)                  1.4577         0.487186 C 
      4. B(N   4,C   0)                  1.3900         0.559601 C 
      5. B(N   4,C   3)                  1.4549         0.440936 C 
      6. B(O   5,C   3)                  1.2297         1.008473 C 
      7. B(C   6,C   2)                  1.4102         0.580171 C 
      8. B(C   7,C   1)                  1.4616         0.480275 C 
      9. B(N   8,C   6)                  1.3867         0.566375 C 
     10. B(N   8,C   7)                  1.4585         0.435171 C 
     11. B(C   9,N   4)                  1.4445         0.458045 C 
     12. B(H  10,C   9)                  1.1072         0.338039   
     13. B(H  11,C   9)                  1.1099         0.334703   
     14. B(H  12,C   9)                  1.1099         0.334693   
     15. B(C  13,N   8)                  1.4436         0.459636 C 
     16. B(H  14,C  13)                  1.1073         0.337875   
     17. B(H  15,C  13)                  1.1099         0.334697   
     18. B(H  16,C  13)                  1.1099         0.334695   
     19. B(O  17,C   7)                  1.2249         1.026236 C 
     20. B(H  18,C   0)                  1.0974         0.350506   
     21. B(H  19,C   0)                  1.0974         0.350507   
     22. B(H  20,C   6)                  1.0975         0.350369   
     23. B(H  21,C   6)                  1.0975         0.350368   
     24. A(C   1,C   0,N   4)          107.6729         0.419122 C 
     25. A(C   1,C   0,H  18)          111.9451         0.347962   
     26. A(C   1,C   0,H  19)          112.0048         0.347962   
     27. A(N   4,C   0,H  19)          107.4629         0.343177   
     28. A(N   4,C   0,H  18)          107.5217         0.343177   
     29. A(H  18,C   0,H  19)          110.0005         0.288387   
     30. A(C   0,C   1,C   7)          142.4989         0.410541 C 
     31. A(C   2,C   1,C   7)          109.1387         0.404631 C 
     32. A(C   0,C   1,C   2)          108.3624         0.419154 C 
     33. A(C   1,C   2,C   6)          108.3459         0.418423 C 
     34. A(C   3,C   2,C   6)          142.4039         0.410869 C 
     35. A(C   1,C   2,C   3)          109.2502         0.405653 C 
     36. A(N   4,C   3,O   5)          121.8262         0.439786 C 
     37. A(C   2,C   3,N   4)          103.0462         0.388996 C 
     38. A(C   2,C   3,O   5)          135.1276         0.450773 C 
     39. A(C   3,N   4,C   9)          120.1209         0.382403 C 
     40. A(C   0,N   4,C   3)          111.6682         0.396007 C 
     41. A(C   0,N   4,C   9)          128.2109         0.398664 C 
     42. A(N   8,C   6,H  21)          107.5301         0.343848   
     43. A(C   2,C   6,H  20)          111.9138         0.347365   
     44. A(C   2,C   6,H  21)          111.8479         0.347365   
     45. A(C   2,C   6,N   8)          107.8768         0.419290 C 
     46. A(N   8,C   6,H  20)          107.4512         0.343848   
     47. A(H  20,C   6,H  21)          110.0005         0.288352   
     48. A(N   8,C   7,O  17)          122.1284         0.440128 C 
     49. A(C   1,C   7,N   8)          103.0590         0.387138 C 
     50. A(C   1,C   7,O  17)          134.8126         0.451033 C 
     51. A(C   6,N   8,C  13)          127.8641         0.399752 C 
     52. A(C   7,N   8,C  13)          120.5563         0.381760 C 
     53. A(C   6,N   8,C   7)          111.5796         0.395929 C 
     54. A(H  11,C   9,H  12)          108.9000         0.284265   
     55. A(N   4,C   9,H  10)          106.3634         0.329930   
     56. A(N   4,C   9,H  11)          111.6523         0.329390   
     57. A(H  10,C   9,H  11)          109.0986         0.284705   
     58. A(N   4,C   9,H  12)          111.6546         0.329389   
     59. A(H  10,C   9,H  12)          109.0947         0.284704   
     60. A(N   8,C  13,H  14)          106.4723         0.330093   
     61. A(N   8,C  13,H  15)          111.6571         0.329578   
     62. A(H  14,C  13,H  15)          109.0282         0.284683   
     63. A(N   8,C  13,H  16)          111.6584         0.329578   
     64. A(H  14,C  13,H  16)          109.0264         0.284683   
     65. A(H  15,C  13,H  16)          108.9176         0.284265   
     66. D(C   7,C   1,C   0,H  18)     62.0234         0.025636   
     67. D(C   2,C   1,C   0,N   4)     -0.0060         0.025636 C 
     68. D(C   7,C   1,C   0,N   4)    179.9954         0.025636 C 
     69. D(C   7,C   1,C   0,H  19)    -62.0702         0.025636   
     70. D(C   2,C   1,C   0,H  18)   -117.9780         0.025636   
     71. D(C   2,C   1,C   0,H  19)    117.9283         0.025636   
     72. D(C   3,C   2,C   1,C   0)      0.0150         0.019907 C 
     73. D(C   3,C   2,C   1,C   7)   -179.9860         0.019907 C 
     74. D(C   6,C   2,C   1,C   0)    179.9923         0.019907 C 
     75. D(C   6,C   2,C   1,C   7)     -0.0087         0.019907 C 
     76. D(N   4,C   3,C   2,C   1)     -0.0171         0.016161 C 
     77. D(N   4,C   3,C   2,C   6)   -179.9818         0.016161 C 
     78. D(O   5,C   3,C   2,C   1)    179.9886         0.016161 C 
     79. D(O   5,C   3,C   2,C   6)      0.0240         0.016161 C 
     80. D(C   3,N   4,C   0,C   1)     -0.0052         0.027166 C 
     81. D(C   3,N   4,C   0,H  18)    120.7857         0.027166   
     82. D(C   9,N   4,C   3,C   2)    179.9809         0.015311 C 
     83. D(C   9,N   4,C   0,C   1)   -179.9691         0.027166 C 
     84. D(C   9,N   4,C   0,H  18)    -59.1781         0.027166   
     85. D(C   9,N   4,C   0,H  19)     59.2020         0.027166   
     86. D(C   0,N   4,C   3,C   2)      0.0138         0.015311 C 
     87. D(C   3,N   4,C   0,H  19)   -120.8341         0.027166   
     88. D(C   0,N   4,C   3,O   5)   -179.9910         0.015311 C 
     89. D(C   9,N   4,C   3,O   5)     -0.0238         0.015311 C 
     90. D(N   8,C   6,C   2,C   1)      0.0006         0.025112 C 
     91. D(N   8,C   6,C   2,C   3)    179.9655         0.025112 C 
     92. D(H  20,C   6,C   2,C   1)   -117.9947         0.025112   
     93. D(H  20,C   6,C   2,C   3)     61.9701         0.025112   
     94. D(H  21,C   6,C   2,C   1)    118.0543         0.025112   
     95. D(H  21,C   6,C   2,C   3)    -61.9808         0.025112   
     96. D(N   8,C   7,C   1,C   0)   -179.9889         0.015705 C 
     97. D(N   8,C   7,C   1,C   2)      0.0126         0.015705 C 
     98. D(O  17,C   7,C   1,C   0)      0.0055         0.015705 C 
     99. D(O  17,C   7,C   1,C   2)   -179.9931         0.015705 C 
    100. D(C   7,N   8,C   6,C   2)      0.0078         0.027871 C 
    101. D(C  13,N   8,C   7,C   1)   -179.9851         0.014914 C 
    102. D(C   7,N   8,C   6,H  21)   -120.7860         0.027871   
    103. D(C  13,N   8,C   6,C   2)    179.9779         0.027871 C 
    104. D(C  13,N   8,C   6,H  20)    -59.1943         0.027871   
    105. D(C  13,N   8,C   6,H  21)     59.1840         0.027871   
    106. D(C   6,N   8,C   7,C   1)     -0.0126         0.014914 C 
    107. D(C   7,N   8,C   6,H  20)    120.8357         0.027871   
    108. D(C   6,N   8,C   7,O  17)    179.9922         0.014914 C 
    109. D(C  13,N   8,C   7,O  17)      0.0196         0.014914 C 
    110. D(H  10,C   9,N   4,C   0)    179.9704         0.017907   
    111. D(H  10,C   9,N   4,C   3)      0.0093         0.017907   
    112. D(H  11,C   9,N   4,C   0)     61.0589         0.017907   
    113. D(H  11,C   9,N   4,C   3)   -118.9023         0.017907   
    114. D(H  12,C   9,N   4,C   0)    -61.1215         0.017907   
    115. D(H  12,C   9,N   4,C   3)    118.9173         0.017907   
    116. D(H  14,C  13,N   8,C   6)    179.9779         0.018034   
    117. D(H  14,C  13,N   8,C   7)     -0.0544         0.018034   
    118. D(H  15,C  13,N   8,C   6)     61.0818         0.018034   
    119. D(H  15,C  13,N   8,C   7)   -118.9505         0.018034   
    120. D(H  16,C  13,N   8,C   6)    -61.1275         0.018034   
    121. D(H  16,C  13,N   8,C   7)    118.8402         0.018034   
    -----------------------------------------------------------------

Number of atoms                         .... 22
Number of degrees of freedom            .... 121

         *************************************************************
         *                GEOMETRY OPTIMIZATION CYCLE   1            *
         *************************************************************
---------------------------------
CARTESIAN COORDINATES (ANGSTROEM)
---------------------------------
  C     -1.739913    1.811814   -0.011867
  C     -1.805290    0.405880    0.000359
  C     -0.470661   -0.107095    0.002793
  C      0.471691    1.005024   -0.007847
  N     -0.397346    2.171792   -0.016836
  O      1.696957    1.109029   -0.010260
  C     -0.536568   -1.515671    0.015223
  C     -2.747982   -0.711041    0.011378
  N     -1.874789   -1.879177    0.020452
  C      0.171713    3.499439   -0.028472
  H      1.271048    3.367628   -0.028533
  H     -0.124407    4.079813    0.870070
  H     -0.126236    4.064815   -0.935937
  C     -2.431081   -3.211197    0.032522
  H     -3.531956   -3.091710    0.033725
  H     -2.127161   -3.773820    0.939714
  H     -2.130783   -3.788699   -0.866491
  O     -3.968872   -0.810310    0.013942
  H     -2.196509    2.251395    0.883938
  H     -2.198163    2.236899   -0.913802
  H     -0.076933   -1.939264    0.917286
  H     -0.078493   -1.953884   -0.880629

----------------------------
CARTESIAN COORDINATES (A.U.)
----------------------------
  NO LB      ZA    FRAG     MASS         X           Y           Z
   0 C     6.0000    0    12.011   -3.287959    3.423832   -0.022425
   1 C     6.0000    0    12.011   -3.411504    0.767002    0.000678
   2 C     6.0000    0    12.011   -0.889420   -0.202380    0.005278
   3 C     6.0000    0    12.011    0.891367    1.899220   -0.014829
   4 N     7.0000    0    14.007   -0.750875    4.104092   -0.031815
   5 O     8.0000    0    15.999    3.206784    2.095761   -0.019389
   6 C     6.0000    0    12.011   -1.013967   -2.864203    0.028767
   7 C     6.0000    0    12.011   -5.192933   -1.343673    0.021501
   8 N     7.0000    0    14.007   -3.542838   -3.551130    0.038649
   9 C     6.0000    0    12.011    0.324491    6.612981   -0.053804
  10 H     1.0000    0     1.008    2.401933    6.363895   -0.053920
  11 H     1.0000    0     1.008   -0.235095    7.709729    1.644194
  12 H     1.0000    0     1.008   -0.238551    7.681387   -1.768665
  13 C     6.0000    0    12.011   -4.594077   -6.068283    0.061458
  14 H     1.0000    0     1.008   -6.674430   -5.842485    0.063731
  15 H     1.0000    0     1.008   -4.019752   -7.131486    1.775802
  16 H     1.0000    0     1.008   -4.026596   -7.159604   -1.637431
  17 O     8.0000    0    15.999   -7.500081   -1.531264    0.026347
  18 H     1.0000    0     1.008   -4.150800    4.254520    1.670401
  19 H     1.0000    0     1.008   -4.153926    4.227126   -1.726836
  20 H     1.0000    0     1.008   -0.145382   -3.664678    1.733419
  21 H     1.0000    0     1.008   -0.148330   -3.692306   -1.664148

--------------------------------
INTERNAL COORDINATES (ANGSTROEM)
--------------------------------
 C      0   0   0     0.000000000000     0.00000000     0.00000000
 C      1   0   0     1.407506319546     0.00000000     0.00000000
 C      2   1   0     1.429819514002   108.36241899     0.00000000
 C      3   2   1     1.457720539632   109.25024594     0.00000000
 N      1   2   3     1.389998201774   107.67292776     0.00000000
 O      4   3   2     1.229674604662   135.12757409   179.98864309
 C      3   2   1     1.410171828298   108.34588625   179.99227733
 C      2   1   3     1.461609436705   142.49891841   180.00146368
 N      7   3   2     1.386722538693   107.87684273     0.00000000
 C      5   1   2     1.444510331769   128.21088345   180.03093129
 H     10   5   1     1.107208916902   106.36336671   179.97043240
 H     10   5   1     1.109909347668   111.65234099    61.05890306
 H     10   5   1     1.109917273585   111.65455625   298.87845707
 C      9   7   3     1.443566331889   127.86409743   179.97787400
 H     14   9   7     1.107341119982   106.47230501   179.97794748
 H     14   9   7     1.109914109917   111.65711479    61.08184652
 H     14   9   7     1.109915232338   111.65836614   298.87253106
 O      8   2   1     1.224921752830   134.81263840     0.00000000
 H      1   2   3     1.097350427531   111.94514340   242.02197232
 H      1   2   3     1.097350018886   112.00478004   117.92834108
 H      7   3   2     1.097457524847   111.91377259   242.00526650
 H      7   3   2     1.097458037876   111.84785758   118.05429915

---------------------------
INTERNAL COORDINATES (A.U.)
---------------------------
 C      0   0   0     0.000000000000     0.00000000     0.00000000
 C      1   0   0     2.659801475705     0.00000000     0.00000000
 C      2   1   0     2.701967302401   108.36241899     0.00000000
 C      3   2   1     2.754692599696   109.25024594     0.00000000
 N      1   2   3     2.626715927995   107.67292776     0.00000000
 O      4   3   2     2.323748236649   135.12757409   179.98864309
 C      3   2   1     2.664838557254   108.34588625   179.99227733
 C      2   1   3     2.762041550128   142.49891841   180.00146368
 N      7   3   2     2.620525821865   107.87684273     0.00000000
 C      5   1   2     2.729728924662   128.21088345   180.03093129
 H     10   5   1     2.092321625980   106.36336671   179.97043240
 H     10   5   1     2.097424700571   111.65234099    61.05890306
 H     10   5   1     2.097439678384   111.65455625   298.87845707
 C      9   7   3     2.727945023420   127.86409743   179.97787400
 H     14   9   7     2.092571453596   106.47230501   179.97794748
 H     14   9   7     2.097433699918   111.65711479    61.08184652
 H     14   9   7     2.097435820987   111.65836614   298.87253106
 O      8   2   1     2.314766648332   134.81263840     0.00000000
 H      1   2   3     2.073691780975   111.94514340   242.02197232
 H      1   2   3     2.073691008749   112.00478004   117.92834108
 H      7   3   2     2.073894165572   111.91377259   242.00526650
 H      7   3   2     2.073895135056   111.84785758   118.05429915

---------------------
BASIS SET INFORMATION
---------------------
There are 4 groups of distinct atoms

 Group   1 Type C   : 7s4p1d contracted to 3s2p1d pattern {511/31/1}
 Group   2 Type N   : 7s4p1d contracted to 3s2p1d pattern {511/31/1}
 Group   3 Type O   : 7s4p1d contracted to 3s2p1d pattern {511/31/1}
 Group   4 Type H   : 4s1p contracted to 2s1p pattern {31/1}

Atom   0C    basis set group =>   1
Atom   1C    basis set group =>   1
Atom   2C    basis set group =>   1
Atom   3C    basis set group =>   1
Atom   4N    basis set group =>   2
Atom   5O    basis set group =>   3
Atom   6C    basis set group =>   1
Atom   7C    basis set group =>   1
Atom   8N    basis set group =>   2
Atom   9C    basis set group =>   1
Atom  10H    basis set group =>   4
Atom  11H    basis set group =>   4
Atom  12H    basis set group =>   4
Atom  13C    basis set group =>   1
Atom  14H    basis set group =>   4
Atom  15H    basis set group =>   4
Atom  16H    basis set group =>   4
Atom  17O    basis set group =>   3
Atom  18H    basis set group =>   4
Atom  19H    basis set group =>   4
Atom  20H    basis set group =>   4
Atom  21H    basis set group =>   4
---------------------------------
AUXILIARY/J BASIS SET INFORMATION
---------------------------------
There are 4 groups of distinct atoms

 Group   1 Type C   : 12s5p4d2f1g contracted to 6s4p3d1f1g pattern {711111/2111/211/2/1}
 Group   2 Type N   : 12s5p4d2f1g contracted to 6s4p3d1f1g pattern {711111/2111/211/2/1}
 Group   3 Type O   : 12s5p4d2f1g contracted to 6s4p3d1f1g pattern {711111/2111/211/2/1}
 Group   4 Type H   : 5s2p1d contracted to 3s1p1d pattern {311/2/1}

Atom   0C    basis set group =>   1
Atom   1C    basis set group =>   1
Atom   2C    basis set group =>   1
Atom   3C    basis set group =>   1
Atom   4N    basis set group =>   2
Atom   5O    basis set group =>   3
Atom   6C    basis set group =>   1
Atom   7C    basis set group =>   1
Atom   8N    basis set group =>   2
Atom   9C    basis set group =>   1
Atom  10H    basis set group =>   4
Atom  11H    basis set group =>   4
Atom  12H    basis set group =>   4
Atom  13C    basis set group =>   1
Atom  14H    basis set group =>   4
Atom  15H    basis set group =>   4
Atom  16H    basis set group =>   4
Atom  17O    basis set group =>   3
Atom  18H    basis set group =>   4
Atom  19H    basis set group =>   4
Atom  20H    basis set group =>   4
Atom  21H    basis set group =>   4
------------------------------------------------------------------------------
                           ORCA GTO INTEGRAL CALCULATION
                           -- RI-GTO INTEGRALS CHOSEN --
------------------------------------------------------------------------------

                         BASIS SET STATISTICS AND STARTUP INFO

Gaussian basis set:
 # of primitive gaussian shells          ...  194
 # of primitive gaussian functions       ...  358
 # of contracted shells                  ...  102
 # of contracted basis functions         ...  218
 Highest angular momentum                ...    2
 Maximum contraction depth               ...    5
Auxiliary gaussian basis set:
 # of primitive gaussian shells          ...  368
 # of primitive gaussian functions       ... 1000
 # of contracted shells                  ...  230
 # of contracted aux-basis functions     ...  698
 Highest angular momentum                ...    4
 Maximum contraction depth               ...    7
Ratio of auxiliary to basis functions    ...  3.20
Integral package used                  ... LIBINT
 One Electron integrals                  ... done
 Ordering auxiliary basis shells         ... done
 Integral threshhold             Thresh  ...  2.500e-11
 Primitive cut-off               TCut    ...  2.500e-12
 Pre-screening matrix                    ... done
 Shell pair data                         ... 
 Ordering of the shell pairs             ... done (   0.001 sec) 4630 of 5253 pairs
 Determination of significant pairs      ... done (   0.000 sec)
 Creation of shell pair data             ... done (   0.001 sec)
 Storage of shell pair data              ... done (   0.005 sec)
 Shell pair data done in (   0.007 sec)
 Computing two index integrals           ... done
 Cholesky decomposition of the V-matrix  ... done


Timings:
 Total evaluation time                   ...   0.518 sec (  0.009 min)
 One electron matrix time                ...   0.227 sec (  0.004 min) = 43.8%
 Schwartz matrix evaluation time         ...   0.082 sec (  0.001 min) = 15.8%
 Two index repulsion integral time       ...   0.095 sec (  0.002 min) = 18.4%
 Cholesky decomposition of V             ...   0.087 sec (  0.001 min) = 16.8%
 Three index repulsion integral time     ...   0.000 sec (  0.000 min) =  0.0%

-------------------------------------------------------------------------------
                                 ORCA SCF
-------------------------------------------------------------------------------

------------
SCF SETTINGS
------------
Hamiltonian:
 Density Functional     Method          .... DFT(GTOs)
 Exchange Functional    Exchange        .... B88
   X-Alpha parameter    XAlpha          ....  0.666667
   Becke's b parameter  XBeta           ....  0.004200
 Correlation Functional Correlation     .... P86
 LDA part of GGA corr.  LDAOpt          .... PW91-LDA
 Gradients option       PostSCFGGA      .... off
   Density functional embedding theory  .... OFF
 RI-approximation to the Coulomb term is turned on
   Number of auxiliary basis functions  .... 698


General Settings:
 Integral files         IntName         .... DPP2F_T_Input_Dimethyl_Diketopyrrolopyrrole_1_Optimize_Monomer_Hydrogenated
 Hartree-Fock type      HFTyp           .... RHF
 Total Charge           Charge          ....    0
 Multiplicity           Mult            ....    1
 Number of Electrons    NEL             ....   88
 Basis Dimension        Dim             ....  218
 Nuclear Repulsion      ENuc            ....    705.2283364199 Eh

Convergence Acceleration:
 DIIS                   CNVDIIS         .... on
   Start iteration      DIISMaxIt       ....    12
   Startup error        DIISStart       ....  0.200000
   # of expansion vecs  DIISMaxEq       ....     5
   Bias factor          DIISBfac        ....   1.050
   Max. coefficient     DIISMaxC        ....  10.000
 Newton-Raphson         CNVNR           .... off
 SOSCF                  CNVSOSCF        .... on
   Start iteration      SOSCFMaxIt      ....   150
   Startup grad/error   SOSCFStart      ....  0.003300
 Level Shifting         CNVShift        .... on
   Level shift para.    LevelShift      ....    0.2500
   Turn off err/grad.   ShiftErr        ....    0.0010
 Zerner damping         CNVZerner       .... off
 Static damping         CNVDamp         .... on
   Fraction old density DampFac         ....    0.7000
   Max. Damping (<1)    DampMax         ....    0.9800
   Min. Damping (>=0)   DampMin         ....    0.0000
   Turn off err/grad.   DampErr         ....    0.1000
 Fernandez-Rico         CNVRico         .... off

SCF Procedure:
 Maximum # iterations   MaxIter         ....   125
 SCF integral mode      SCFMode         .... Direct
   Integral package                     .... LIBINT
 Reset frequency        DirectResetFreq ....    20
 Integral Threshold     Thresh          ....  2.500e-11 Eh
 Primitive CutOff       TCut            ....  2.500e-12 Eh

Convergence Tolerance:
 Convergence Check Mode ConvCheckMode   .... Total+1el-Energy
 Convergence forced     ConvForced      .... 0
 Energy Change          TolE            ....  1.000e-08 Eh
 1-El. energy change                    ....  1.000e-05 Eh
 Orbital Gradient       TolG            ....  1.000e-05
 Orbital Rotation angle TolX            ....  1.000e-05
 DIIS Error             TolErr          ....  5.000e-07


Diagonalization of the overlap matrix:
Smallest eigenvalue                        ... 4.740e-04
Time for diagonalization                   ...    0.016 sec
Threshold for overlap eigenvalues          ... 1.000e-08
Number of eigenvalues below threshold      ... 0
Time for construction of square roots      ...    0.088 sec
Total time needed                          ...    0.105 sec

-------------------
DFT GRID GENERATION
-------------------

General Integration Accuracy     IntAcc      ...  4.340
Radial Grid Type                 RadialGrid  ... Gauss-Chebyshev
Angular Grid (max. acc.)         AngularGrid ... Lebedev-194
Angular grid pruning method      GridPruning ... 3 (G Style)
Weight generation scheme         WeightScheme... Becke
Basis function cutoff            BFCut       ...    1.0000e-11
Integration weight cutoff        WCut        ...    1.0000e-14
Grids for H and He will be reduced by one unit

# of grid points (after initial pruning)     ...  54876 (   0.0 sec)
# of grid points (after weights+screening)   ...  49769 (   0.2 sec)
nearest neighbour list constructed           ...    0.0 sec
Grid point re-assignment to atoms done       ...    0.0 sec
Grid point division into batches done        ...    0.1 sec
Reduced shell lists constructed in    0.4 sec

Total number of grid points                  ...    49769
Total number of batches                      ...      788
Average number of points per batch           ...       63
Average number of grid points per atom       ...     2262
Average number of shells per batch           ...    61.45 (60.25%)
Average number of basis functions per batch  ...   127.84 (58.64%)
Average number of large shells per batch     ...    45.04 (73.30%)
Average number of large basis fcns per batch ...    92.89 (72.66%)
Maximum spatial batch extension              ...  21.57, 21.25, 18.35 au
Average spatial batch extension              ...   2.92,  2.88,  2.85 au

Time for grid setup =    0.632 sec

------------------------------
INITIAL GUESS: MODEL POTENTIAL
------------------------------
Loading Hartree-Fock densities                     ... done
Calculating cut-offs                               ... done
Setting up the integral package                    ... done
Initializing the effective Hamiltonian             ... done
Starting the Coulomb interaction                   ... done (   0.2 sec)
Reading the grid                                   ... done
Mapping shells                                     ... done
Starting the XC term evaluation                    ... done (   0.6 sec)
  promolecular density results
     # of electrons  =     87.992121845
     EX              =    -73.726570401
     EC              =     -3.253622295
     EX+EC           =    -76.980192696
Transforming the Hamiltonian                       ... done (   0.0 sec)
Diagonalizing the Hamiltonian                      ... done (   0.0 sec)
Back transforming the eigenvectors                 ... done (   0.0 sec)
Now organizing SCF variables                       ... done
                      ------------------
                      INITIAL GUESS DONE (   1.5 sec)
                      ------------------
--------------
SCF ITERATIONS
--------------
ITER       Energy         Delta-E        Max-DP      RMS-DP      [F,P]     Damp
               ***  Starting incremental Fock matrix formation  ***
  0   -570.1198132886   0.000000000000 0.11167252  0.00323918  0.2546045 0.7000
  1   -570.2656383209  -0.145825032266 0.05730116  0.00184155  0.0729896 0.7000
                               ***Turning on DIIS***
  2   -570.3064069221  -0.040768601177 0.05383648  0.00223612  0.0282290 0.0000
  3   -570.3914294382  -0.085022516130 0.03790628  0.00122851  0.0353296 0.0000
  4   -570.4035586754  -0.012129237139 0.01413631  0.00044270  0.0319497 0.0000
                      *** Initiating the SOSCF procedure ***
                           *** Shutting down DIIS ***
                      *** Re-Reading the Fockian *** 
                      *** Removing any level shift *** 
ITER      Energy       Delta-E        Grad      Rot      Max-DP    RMS-DP
  5   -570.40666669  -0.0031080146  0.000841  0.000841  0.002975  0.000112
               *** Restarting incremental Fock matrix formation ***
  6   -570.40674425  -0.0000775557  0.000972  0.003892  0.005160  0.000139
  7   -570.40662502   0.0001192237  0.002673  0.005764  0.004411  0.000096
  8   -570.40676190  -0.0001368792  0.000124  0.001002  0.000574  0.000018
  9   -570.40676136   0.0000005387  0.000209  0.000413  0.000385  0.000010
 10   -570.40676238  -0.0000010211  0.000037  0.000142  0.000231  0.000006
 11   -570.40676223   0.0000001504  0.000066  0.000158  0.000166  0.000004
 12   -570.40676242  -0.0000001854  0.000028  0.000156  0.000180  0.000004
 13   -570.40676232   0.0000000937  0.000055  0.000108  0.000134  0.000003
 14   -570.40676244  -0.0000001164  0.000004  0.000022  0.000019  0.000001
 15   -570.40676244   0.0000000028  0.000008  0.000023  0.000021  0.000000
 16   -570.40676245  -0.0000000074  0.000004  0.000018  0.000016  0.000000
 17   -570.40676245  -0.0000000047  0.000006  0.000010  0.000009  0.000000
                  ***Gradient check signals convergence***
              ***Rediagonalizing the Fockian in SOSCF/NRSCF***

               *****************************************************
               *                     SUCCESS                       *
               *           SCF CONVERGED AFTER  18 CYCLES          *
               *****************************************************

Setting up the final grid:

General Integration Accuracy     IntAcc      ...  5.010
Radial Grid Type                 RadialGrid  ... Gauss-Chebyshev
Angular Grid (max. acc.)         AngularGrid ... Lebedev-434
Angular grid pruning method      GridPruning ... 3 (G Style)
Weight generation scheme         WeightScheme... Becke
Basis function cutoff            BFCut       ...    1.0000e-11
Integration weight cutoff        WCut        ...    1.0000e-14
Grids for H and He will be reduced by one unit

# of grid points (after initial pruning)     ... 195368 (   0.1 sec)
# of grid points (after weights+screening)   ... 175246 (   0.5 sec)
nearest neighbour list constructed           ...    0.0 sec
Grid point re-assignment to atoms done       ...    0.0 sec
Grid point division into batches done        ...    1.0 sec
Reduced shell lists constructed in    2.0 sec

Total number of grid points                  ...   175246
Total number of batches                      ...     2750
Average number of points per batch           ...       63
Average number of grid points per atom       ...     7966
Average number of shells per batch           ...    56.88 (55.77%)
Average number of basis functions per batch  ...   117.27 (53.79%)
Average number of large shells per batch     ...    40.85 (71.82%)
Average number of large basis fcns per batch ...    83.61 (71.30%)
Maximum spatial batch extension              ...  18.93, 16.51, 21.43 au
Average spatial batch extension              ...   1.93,  1.91,  1.94 au

Final grid set up in    2.7 sec
Final integration                            ... done (   2.1 sec)
Change in XC energy                          ...    -0.000353235
Integrated number of electrons               ...    87.999983210
Previous integrated no of electrons          ...    87.998607903

----------------
TOTAL SCF ENERGY
----------------

Total Energy       :         -570.40711568 Eh          -15521.56672 eV

Components:
Nuclear Repulsion  :          705.22833642 Eh           19190.23865 eV
Electronic Energy  :        -1275.63545210 Eh          -34711.80537 eV
One Electron Energy:        -2173.42267484 Eh          -59141.83770 eV
Two Electron Energy:          897.78722274 Eh           24430.03233 eV

Virial components:
Potential Energy   :        -1135.11972387 Eh          -30888.17801 eV
Kinetic Energy     :          564.71260820 Eh           15366.61129 eV
Virial Ratio       :            2.01008390


DFT components:
N(Alpha)           :       43.999991604792 electrons
N(Beta)            :       43.999991604792 electrons
N(Total)           :       87.999983209584 electrons
E(X)               :      -74.907401793599 Eh       
E(C)               :       -3.259624936730 Eh       
E(XC)              :      -78.167026730329 Eh       
DFET-embed. en.    :        0.000000000000 Eh       

---------------
SCF CONVERGENCE
---------------

  Last Energy change         ...    8.9777e-09  Tolerance :   1.0000e-08
  Last MAX-Density change    ...    2.0237e-06  Tolerance :   1.0000e-07
  Last RMS-Density change    ...    5.8396e-08  Tolerance :   5.0000e-09
  Last Orbital Gradient      ...    4.6694e-07  Tolerance :   1.0000e-05
  Last Orbital Rotation      ...    1.1742e-06  Tolerance :   1.0000e-05

             **** THE GBW FILE WAS UPDATED (DPP2F_T_Input_Dimethyl_Diketopyrrolopyrrole_1_Optimize_Monomer_Hydrogenated.gbw) ****
             **** DENSITY FILE WAS UPDATED (DPP2F_T_Input_Dimethyl_Diketopyrrolopyrrole_1_Optimize_Monomer_Hydrogenated.scfp) ****
             **** ENERGY FILE WAS UPDATED (DPP2F_T_Input_Dimethyl_Diketopyrrolopyrrole_1_Optimize_Monomer_Hydrogenated.en.tmp) ****
             **** THE GBW FILE WAS UPDATED (DPP2F_T_Input_Dimethyl_Diketopyrrolopyrrole_1_Optimize_Monomer_Hydrogenated.gbw) ****
             **** DENSITY FILE WAS UPDATED (DPP2F_T_Input_Dimethyl_Diketopyrrolopyrrole_1_Optimize_Monomer_Hydrogenated.scfp) ****
----------------
ORBITAL ENERGIES
----------------

  NO   OCC          E(Eh)            E(eV) 
   0   2.0000     -18.751381      -510.2510 
   1   2.0000     -18.750487      -510.2267 
   2   2.0000     -14.046594      -382.2273 
   3   2.0000     -14.046420      -382.2225 
   4   2.0000     -10.013735      -272.4876 
   5   2.0000     -10.013101      -272.4703 
   6   2.0000      -9.967201      -271.2213 
   7   2.0000      -9.966736      -271.2087 
   8   2.0000      -9.954000      -270.8621 
   9   2.0000      -9.953431      -270.8466 
  10   2.0000      -9.944961      -270.6161 
  11   2.0000      -9.944865      -270.6135 
  12   2.0000      -0.944324       -25.6964 
  13   2.0000      -0.937463       -25.5097 
  14   2.0000      -0.884208       -24.0605 
  15   2.0000      -0.872426       -23.7399 
  16   2.0000      -0.761486       -20.7211 
  17   2.0000      -0.702266       -19.1096 
  18   2.0000      -0.666292       -18.1307 
  19   2.0000      -0.643781       -17.5182 
  20   2.0000      -0.609347       -16.5812 
  21   2.0000      -0.535833       -14.5808 
  22   2.0000      -0.534333       -14.5399 
  23   2.0000      -0.480969       -13.0878 
  24   2.0000      -0.472713       -12.8632 
  25   2.0000      -0.452420       -12.3110 
  26   2.0000      -0.450105       -12.2480 
  27   2.0000      -0.441922       -12.0253 
  28   2.0000      -0.433841       -11.8054 
  29   2.0000      -0.388118       -10.5612 
  30   2.0000      -0.386116       -10.5068 
  31   2.0000      -0.384770       -10.4701 
  32   2.0000      -0.375271       -10.2116 
  33   2.0000      -0.366450        -9.9716 
  34   2.0000      -0.347443        -9.4544 
  35   2.0000      -0.347254        -9.4493 
  36   2.0000      -0.346509        -9.4290 
  37   2.0000      -0.345308        -9.3963 
  38   2.0000      -0.341453        -9.2914 
  39   2.0000      -0.243089        -6.6148 
  40   2.0000      -0.225484        -6.1357 
  41   2.0000      -0.215581        -5.8663 
  42   2.0000      -0.213238        -5.8025 
  43   2.0000      -0.209067        -5.6890 
  44   0.0000      -0.105272        -2.8646 
  45   0.0000       0.001288         0.0350 
  46   0.0000       0.032015         0.8712 
  47   0.0000       0.032255         0.8777 
  48   0.0000       0.036641         0.9971 
  49   0.0000       0.073670         2.0047 
  50   0.0000       0.078255         2.1294 
  51   0.0000       0.081288         2.2120 
  52   0.0000       0.100617         2.7379 
  53   0.0000       0.103982         2.8295 
  54   0.0000       0.110648         3.0109 
  55   0.0000       0.112178         3.0525 
  56   0.0000       0.113384         3.0853 
  57   0.0000       0.117541         3.1985 
  58   0.0000       0.118169         3.2155 
  59   0.0000       0.141990         3.8637 
  60   0.0000       0.166589         4.5331 
  61   0.0000       0.170790         4.6474 
  62   0.0000       0.185785         5.0555 
  63   0.0000       0.211094         5.7442 
  64   0.0000       0.225221         6.1286 
  65   0.0000       0.252000         6.8573 
  66   0.0000       0.260449         7.0872 
  67   0.0000       0.289147         7.8681 
  68   0.0000       0.305929         8.3247 
  69   0.0000       0.348484         9.4827 
  70   0.0000       0.376562        10.2468 
  71   0.0000       0.390716        10.6319 
  72   0.0000       0.393317        10.7027 
  73   0.0000       0.395639        10.7659 
  74   0.0000       0.396231        10.7820 
  75   0.0000       0.424034        11.5386 
  76   0.0000       0.430613        11.7176 
  77   0.0000       0.438314        11.9271 
  78   0.0000       0.451978        12.2989 
  79   0.0000       0.475612        12.9421 
  80   0.0000       0.485199        13.2029 
  81   0.0000       0.508890        13.8476 
  82   0.0000       0.518366        14.1055 
  83   0.0000       0.527174        14.3451 
  84   0.0000       0.539632        14.6841 
  85   0.0000       0.551082        14.9957 
  86   0.0000       0.564685        15.3659 
  87   0.0000       0.565376        15.3847 
  88   0.0000       0.573114        15.5952 
  89   0.0000       0.576876        15.6976 
  90   0.0000       0.598246        16.2791 
  91   0.0000       0.602344        16.3906 
  92   0.0000       0.602851        16.4044 
  93   0.0000       0.607284        16.5250 
  94   0.0000       0.616406        16.7733 
  95   0.0000       0.618692        16.8355 
  96   0.0000       0.619586        16.8598 
  97   0.0000       0.630141        17.1470 
  98   0.0000       0.640475        17.4282 
  99   0.0000       0.648482        17.6461 
 100   0.0000       0.661568        18.0022 
 101   0.0000       0.705314        19.1926 
 102   0.0000       0.705664        19.2021 
 103   0.0000       0.724192        19.7063 
 104   0.0000       0.728665        19.8280 
 105   0.0000       0.757382        20.6094 
 106   0.0000       0.786459        21.4006 
 107   0.0000       0.808996        22.0139 
 108   0.0000       0.847280        23.0557 
 109   0.0000       0.848258        23.0823 
 110   0.0000       0.855167        23.2703 
 111   0.0000       0.902564        24.5600 
 112   0.0000       0.922344        25.0983 
 113   0.0000       0.954650        25.9773 
 114   0.0000       0.972203        26.4550 
 115   0.0000       0.997248        27.1365 
 116   0.0000       1.032506        28.0959 
 117   0.0000       1.058487        28.8029 
 118   0.0000       1.069811        29.1110 
 119   0.0000       1.081063        29.4172 
 120   0.0000       1.096689        29.8424 
 121   0.0000       1.113054        30.2877 
 122   0.0000       1.129712        30.7410 
 123   0.0000       1.142133        31.0790 
 124   0.0000       1.177374        32.0380 
 125   0.0000       1.283738        34.9323 
 126   0.0000       1.309724        35.6394 
 127   0.0000       1.325758        36.0757 
 128   0.0000       1.337426        36.3932 
 129   0.0000       1.347003        36.6538 
 130   0.0000       1.374767        37.4093 
 131   0.0000       1.388483        37.7826 
 132   0.0000       1.428534        38.8724 
 133   0.0000       1.433803        39.0158 
 134   0.0000       1.438342        39.1393 
 135   0.0000       1.441051        39.2130 
 136   0.0000       1.476151        40.1681 
 137   0.0000       1.516594        41.2686 
 138   0.0000       1.535346        41.7789 
 139   0.0000       1.541143        41.9366 
 140   0.0000       1.562545        42.5190 
 141   0.0000       1.576984        42.9119 
 142   0.0000       1.577595        42.9285 
 143   0.0000       1.621800        44.1314 
 144   0.0000       1.640638        44.6440 
 145   0.0000       1.677958        45.6596 
 146   0.0000       1.679802        45.7097 
 147   0.0000       1.680279        45.7227 
 148   0.0000       1.683198        45.8022 
 149   0.0000       1.718562        46.7645 
 150   0.0000       1.728920        47.0463 
 151   0.0000       1.749234        47.5991 
 152   0.0000       1.751584        47.6630 
 153   0.0000       1.758139        47.8414 
 154   0.0000       1.765615        48.0448 
 155   0.0000       1.769910        48.1617 
 156   0.0000       1.771315        48.1999 
 157   0.0000       1.801703        49.0268 
 158   0.0000       1.840811        50.0910 
 159   0.0000       1.848202        50.2921 
 160   0.0000       1.868415        50.8422 
 161   0.0000       1.894476        51.5513 
 162   0.0000       1.910346        51.9832 
 163   0.0000       1.910754        51.9943 
 164   0.0000       1.955932        53.2236 
 165   0.0000       1.986110        54.0448 
 166   0.0000       1.995105        54.2896 
 167   0.0000       2.006001        54.5861 
 168   0.0000       2.042167        55.5702 
 169   0.0000       2.047958        55.7278 
 170   0.0000       2.057362        55.9837 
 171   0.0000       2.138895        58.2023 
 172   0.0000       2.161940        58.8294 
 173   0.0000       2.189301        59.5739 
 174   0.0000       2.195765        59.7498 
 175   0.0000       2.240239        60.9600 
 176   0.0000       2.242752        61.0284 
 177   0.0000       2.244636        61.0797 
 178   0.0000       2.255980        61.3883 
 179   0.0000       2.261200        61.5304 
 180   0.0000       2.307114        62.7798 
 181   0.0000       2.309605        62.8476 
 182   0.0000       2.315363        63.0042 
 183   0.0000       2.366461        64.3947 
 184   0.0000       2.421408        65.8899 
 185   0.0000       2.489432        67.7409 
 186   0.0000       2.497891        67.9711 
 187   0.0000       2.520859        68.5961 
 188   0.0000       2.553336        69.4798 
 189   0.0000       2.558988        69.6336 
 190   0.0000       2.594582        70.6022 
 191   0.0000       2.598715        70.7146 
 192   0.0000       2.600404        70.7606 
 193   0.0000       2.611570        71.0644 
 194   0.0000       2.660725        72.4020 
 195   0.0000       2.670104        72.6572 
 196   0.0000       2.677902        72.8694 
 197   0.0000       2.683646        73.0257 
 198   0.0000       2.750296        74.8394 
 199   0.0000       2.754091        74.9426 
 200   0.0000       2.792054        75.9756 
 201   0.0000       2.816354        76.6369 
 202   0.0000       2.821168        76.7679 
 203   0.0000       2.845392        77.4270 
 204   0.0000       2.894586        78.7657 
 205   0.0000       2.904924        79.0470 
 206   0.0000       2.913416        79.2781 
 207   0.0000       2.984693        81.2176 
 208   0.0000       2.988301        81.3158 
 209   0.0000       3.035739        82.6067 
 210   0.0000       3.082799        83.8872 
 211   0.0000       3.087661        84.0195 
 212   0.0000       3.125301        85.0438 
 213   0.0000       3.132413        85.2373 
 214   0.0000       3.376659        91.8836 
 215   0.0000       3.422148        93.1214 
 216   0.0000       3.557861        96.8143 
 217   0.0000       3.561533        96.9142 

                    ********************************
                    * MULLIKEN POPULATION ANALYSIS *
                    ********************************

-----------------------
MULLIKEN ATOMIC CHARGES
-----------------------
   0 C :    0.332102
   1 C :   -0.220532
   2 C :   -0.218389
   3 C :    0.148675
   4 N :   -0.368087
   5 O :   -0.190827
   6 C :    0.332200
   7 C :    0.148894
   8 N :   -0.368102
   9 C :    0.064441
  10 H :    0.068939
  11 H :    0.039647
  12 H :    0.039622
  13 C :    0.064951
  14 H :    0.068153
  15 H :    0.039691
  16 H :    0.039736
  17 O :   -0.184871
  18 H :    0.041271
  19 H :    0.041292
  20 H :    0.040599
  21 H :    0.040595
Sum of atomic charges:    0.0000000

--------------------------------
MULLIKEN REDUCED ORBITAL CHARGES
--------------------------------
  0 C s       :     2.735482  s :     2.735482
      pz      :     0.996081  p :     2.876199
      px      :     0.849603
      py      :     1.030515
      dz2     :     0.007724  d :     0.056217
      dxz     :     0.014656
      dyz     :     0.008902
      dx2y2   :     0.014039
      dxy     :     0.010896
  1 C s       :     3.252374  s :     3.252374
      pz      :     1.020320  p :     2.929024
      px      :     0.953061
      py      :     0.955643
      dz2     :     0.003124  d :     0.039134
      dxz     :     0.005067
      dyz     :     0.007587
      dx2y2   :     0.011271
      dxy     :     0.012085
  2 C s       :     3.251283  s :     3.251283
      pz      :     1.020148  p :     2.927917
      px      :     0.951951
      py      :     0.955817
      dz2     :     0.003125  d :     0.039189
      dxz     :     0.005085
      dyz     :     0.007590
      dx2y2   :     0.011288
      dxy     :     0.012102
  3 C s       :     3.017962  s :     3.017962
      pz      :     0.902545  p :     2.727333
      px      :     0.896918
      py      :     0.927870
      dz2     :     0.005630  d :     0.106030
      dxz     :     0.025473
      dyz     :     0.006453
      dx2y2   :     0.020952
      dxy     :     0.047523
  4 N s       :     3.474331  s :     3.474331
      pz      :     1.629181  p :     3.867101
      px      :     1.104453
      py      :     1.133468
      dz2     :     0.002354  d :     0.026655
      dxz     :     0.003984
      dyz     :     0.003947
      dx2y2   :     0.007976
      dxy     :     0.008395
  5 O s       :     3.718464  s :     3.718464
      pz      :     1.430006  p :     4.455566
      px      :     1.316766
      py      :     1.708794
      dz2     :     0.001901  d :     0.016797
      dxz     :     0.005122
      dyz     :     0.000047
      dx2y2   :     0.005817
      dxy     :     0.003911
  6 C s       :     2.735259  s :     2.735259
      pz      :     0.995883  p :     2.876199
      px      :     0.850900
      py      :     1.029416
      dz2     :     0.007730  d :     0.056342
      dxz     :     0.014816
      dyz     :     0.008853
      dx2y2   :     0.014025
      dxy     :     0.010919
  7 C s       :     3.017984  s :     3.017984
      pz      :     0.901865  p :     2.726651
      px      :     0.899546
      py      :     0.925240
      dz2     :     0.005628  d :     0.106471
      dxz     :     0.025661
      dyz     :     0.006371
      dx2y2   :     0.020954
      dxy     :     0.047858
  8 N s       :     3.473726  s :     3.473726
      pz      :     1.630176  p :     3.867713
      px      :     1.105245
      py      :     1.132292
      dz2     :     0.002355  d :     0.026663
      dxz     :     0.003998
      dyz     :     0.003938
      dx2y2   :     0.007976
      dxy     :     0.008396
  9 C s       :     3.012154  s :     3.012154
      pz      :     1.013811  p :     2.886223
      px      :     1.037895
      py      :     0.834517
      dz2     :     0.006085  d :     0.037181
      dxz     :     0.002213
      dyz     :     0.013190
      dx2y2   :     0.008708
      dxy     :     0.006985
 10 H s       :     0.908128  s :     0.908128
      pz      :     0.005001  p :     0.022932
      px      :     0.013905
      py      :     0.004027
 11 H s       :     0.938901  s :     0.938901
      pz      :     0.010395  p :     0.021452
      px      :     0.005365
      py      :     0.005693
 12 H s       :     0.938926  s :     0.938926
      pz      :     0.010507  p :     0.021451
      px      :     0.005371
      py      :     0.005573
 13 C s       :     3.011877  s :     3.011877
      pz      :     1.014109  p :     2.885899
      px      :     1.038182
      py      :     0.833608
      dz2     :     0.006093  d :     0.037272
      dxz     :     0.002219
      dyz     :     0.013246
      dx2y2   :     0.008864
      dxy     :     0.006851
 14 H s       :     0.909038  s :     0.909038
      pz      :     0.005009  p :     0.022808
      px      :     0.013891
      py      :     0.003909
 15 H s       :     0.938859  s :     0.938859
      pz      :     0.010510  p :     0.021451
      px      :     0.005407
      py      :     0.005534
 16 H s       :     0.938812  s :     0.938812
      pz      :     0.010404  p :     0.021452
      px      :     0.005395
      py      :     0.005652
 17 O s       :     3.714577  s :     3.714577
      pz      :     1.427777  p :     4.453258
      px      :     1.318161
      py      :     1.707320
      dz2     :     0.001921  d :     0.017036
      dxz     :     0.005207
      dyz     :     0.000045
      dx2y2   :     0.005883
      dxy     :     0.003980
 18 H s       :     0.936448  s :     0.936448
      pz      :     0.010759  p :     0.022281
      px      :     0.005236
      py      :     0.006286
 19 H s       :     0.936430  s :     0.936430
      pz      :     0.010841  p :     0.022278
      px      :     0.005251
      py      :     0.006187
 20 H s       :     0.937143  s :     0.937143
      pz      :     0.010833  p :     0.022259
      px      :     0.005267
      py      :     0.006159
 21 H s       :     0.937144  s :     0.937144
      pz      :     0.010751  p :     0.022261
      px      :     0.005251
      py      :     0.006259


                     *******************************
                     * LOEWDIN POPULATION ANALYSIS *
                     *******************************

----------------------
LOEWDIN ATOMIC CHARGES
----------------------
   0 C :    0.030579
   1 C :   -0.047639
   2 C :   -0.047165
   3 C :    0.048913
   4 N :   -0.045341
   5 O :   -0.196074
   6 C :    0.029748
   7 C :    0.048209
   8 N :   -0.046398
   9 C :    0.010126
  10 H :    0.042925
  11 H :    0.026213
  12 H :    0.026216
  13 C :    0.010364
  14 H :    0.042913
  15 H :    0.026282
  16 H :    0.026278
  17 O :   -0.191153
  18 H :    0.051485
  19 H :    0.051491
  20 H :    0.051017
  21 H :    0.051009

-------------------------------
LOEWDIN REDUCED ORBITAL CHARGES
-------------------------------
  0 C s       :     2.794056  s :     2.794056
      pz      :     1.053749  p :     3.031770
      px      :     0.931239
      py      :     1.046781
      dz2     :     0.019926  d :     0.143595
      dxz     :     0.036327
      dyz     :     0.020684
      dx2y2   :     0.039958
      dxy     :     0.026699
  1 C s       :     2.870221  s :     2.870221
      pz      :     0.975166  p :     3.072908
      px      :     1.048745
      py      :     1.048997
      dz2     :     0.008288  d :     0.104510
      dxz     :     0.009967
      dyz     :     0.014366
      dx2y2   :     0.035090
      dxy     :     0.036800
  2 C s       :     2.869931  s :     2.869931
      pz      :     0.975018  p :     3.072547
      px      :     1.048926
      py      :     1.048603
      dz2     :     0.008289  d :     0.104687
      dxz     :     0.010034
      dyz     :     0.014326
      dx2y2   :     0.035205
      dxy     :     0.036834
  3 C s       :     2.844877  s :     2.844877
      pz      :     0.900139  p :     2.855329
      px      :     0.999015
      py      :     0.956176
      dz2     :     0.013742  d :     0.250881
      dxz     :     0.050177
      dyz     :     0.013190
      dx2y2   :     0.051105
      dxy     :     0.122667
  4 N s       :     3.090823  s :     3.090823
      pz      :     1.568801  p :     3.891099
      px      :     1.157711
      py      :     1.164586
      dz2     :     0.004993  d :     0.063419
      dxz     :     0.007143
      dyz     :     0.006503
      dx2y2   :     0.020278
      dxy     :     0.024503
  5 O s       :     3.557304  s :     3.557304
      pz      :     1.434227  p :     4.609264
      px      :     1.444440
      py      :     1.730597
      dz2     :     0.004151  d :     0.029506
      dxz     :     0.006724
      dyz     :     0.000054
      dx2y2   :     0.012582
      dxy     :     0.005996
  6 C s       :     2.793865  s :     2.793865
      pz      :     1.053551  p :     3.032382
      px      :     0.932903
      py      :     1.045928
      dz2     :     0.019965  d :     0.144005
      dxz     :     0.036798
      dyz     :     0.020511
      dx2y2   :     0.039954
      dxy     :     0.026776
  7 C s       :     2.845410  s :     2.845410
      pz      :     0.899686  p :     2.854442
      px      :     1.000390
      py      :     0.954366
      dz2     :     0.013772  d :     0.251939
      dxz     :     0.050561
      dyz     :     0.012997
      dx2y2   :     0.051156
      dxy     :     0.123453
  8 N s       :     3.090306  s :     3.090306
      pz      :     1.569805  p :     3.892596
      px      :     1.158856
      py      :     1.163935
      dz2     :     0.004999  d :     0.063496
      dxz     :     0.007186
      dyz     :     0.006497
      dx2y2   :     0.020312
      dxy     :     0.024500
  9 C s       :     2.842332  s :     2.842332
      pz      :     1.071731  p :     3.052055
      px      :     1.068851
      py      :     0.911472
      dz2     :     0.015820  d :     0.095488
      dxz     :     0.004794
      dyz     :     0.034524
      dx2y2   :     0.023782
      dxy     :     0.016567
 10 H s       :     0.887577  s :     0.887577
      pz      :     0.011776  p :     0.069498
      px      :     0.045611
      py      :     0.012111
 11 H s       :     0.910317  s :     0.910317
      pz      :     0.031223  p :     0.063470
      px      :     0.014386
      py      :     0.017861
 12 H s       :     0.910316  s :     0.910316
      pz      :     0.031628  p :     0.063468
      px      :     0.014409
      py      :     0.017431
 13 C s       :     2.841990  s :     2.841990
      pz      :     1.071780  p :     3.051901
      px      :     1.069518
      py      :     0.910603
      dz2     :     0.015847  d :     0.095744
      dxz     :     0.004837
      dyz     :     0.034634
      dx2y2   :     0.024213
      dxy     :     0.016213
 14 H s       :     0.888100  s :     0.888100
      pz      :     0.011779  p :     0.068987
      px      :     0.045448
      py      :     0.011759
 15 H s       :     0.910266  s :     0.910266
      pz      :     0.031636  p :     0.063452
      px      :     0.014463
      py      :     0.017352
 16 H s       :     0.910269  s :     0.910269
      pz      :     0.031258  p :     0.063453
      px      :     0.014417
      py      :     0.017777
 17 O s       :     3.553977  s :     3.553977
      pz      :     1.431571  p :     4.607259
      px      :     1.447220
      py      :     1.728469
      dz2     :     0.004195  d :     0.029916
      dxz     :     0.006848
      dyz     :     0.000051
      dx2y2   :     0.012717
      dxy     :     0.006104
 18 H s       :     0.881293  s :     0.881293
      pz      :     0.032598  p :     0.067222
      px      :     0.016802
      py      :     0.017823
 19 H s       :     0.881288  s :     0.881288
      pz      :     0.032847  p :     0.067221
      px      :     0.016849
      py      :     0.017525
 20 H s       :     0.881771  s :     0.881771
      pz      :     0.032823  p :     0.067211
      px      :     0.016898
      py      :     0.017491
 21 H s       :     0.881779  s :     0.881779
      pz      :     0.032572  p :     0.067212
      px      :     0.016850
      py      :     0.017790


                      *****************************
                      * MAYER POPULATION ANALYSIS *
                      *****************************

  NA   - Mulliken gross atomic population
  ZA   - Total nuclear charge
  QA   - Mulliken gross atomic charge
  VA   - Mayer's total valence
  BVA  - Mayer's bonded valence
  FA   - Mayer's free valence

  ATOM       NA         ZA         QA         VA         BVA        FA
  0 C      5.6679     6.0000     0.3321     3.7717     3.7717     0.0000
  1 C      6.2205     6.0000    -0.2205     4.0197     4.0197     0.0000
  2 C      6.2184     6.0000    -0.2184     4.0181     4.0181     0.0000
  3 C      5.8513     6.0000     0.1487     4.1627     4.1627     0.0000
  4 N      7.3681     7.0000    -0.3681     3.3156     3.3156     0.0000
  5 O      8.1908     8.0000    -0.1908     2.3809     2.3809     0.0000
  6 C      5.6678     6.0000     0.3322     3.7708     3.7708    -0.0000
  7 C      5.8511     6.0000     0.1489     4.1654     4.1654     0.0000
  8 N      7.3681     7.0000    -0.3681     3.3151     3.3151    -0.0000
  9 C      5.9356     6.0000     0.0644     3.9126     3.9126    -0.0000
 10 H      0.9311     1.0000     0.0689     1.0357     1.0357     0.0000
 11 H      0.9604     1.0000     0.0396     0.9880     0.9880    -0.0000
 12 H      0.9604     1.0000     0.0396     0.9880     0.9880    -0.0000
 13 C      5.9350     6.0000     0.0650     3.9148     3.9148     0.0000
 14 H      0.9318     1.0000     0.0682     1.0340     1.0340    -0.0000
 15 H      0.9603     1.0000     0.0397     0.9880     0.9880    -0.0000
 16 H      0.9603     1.0000     0.0397     0.9879     0.9879    -0.0000
 17 O      8.1849     8.0000    -0.1849     2.3866     2.3866    -0.0000
 18 H      0.9587     1.0000     0.0413     0.9914     0.9914    -0.0000
 19 H      0.9587     1.0000     0.0413     0.9914     0.9914     0.0000
 20 H      0.9594     1.0000     0.0406     0.9915     0.9915     0.0000
 21 H      0.9594     1.0000     0.0406     0.9914     0.9914     0.0000

  Mayer bond orders larger than 0.100000
B(  0-C ,  1-C ) :   1.0857 B(  0-C ,  4-N ) :   1.0102 B(  0-C , 18-H ) :   0.8561 
B(  0-C , 19-H ) :   0.8562 B(  1-C ,  2-C ) :   1.6759 B(  1-C ,  7-C ) :   0.9642 
B(  2-C ,  3-C ) :   0.9679 B(  2-C ,  6-C ) :   1.0823 B(  3-C ,  4-N ) :   1.0491 
B(  3-C ,  5-O ) :   2.1032 B(  4-N ,  5-O ) :   0.1107 B(  4-N ,  9-C ) :   0.9971 
B(  6-C ,  8-N ) :   1.0128 B(  6-C , 20-H ) :   0.8565 B(  6-C , 21-H ) :   0.8564 
B(  7-C ,  8-N ) :   1.0458 B(  7-C , 17-O ) :   2.1109 B(  8-N , 13-C ) :   0.9979 
B(  8-N , 17-O ) :   0.1110 B(  9-C , 10-H ) :   0.9430 B(  9-C , 11-H ) :   0.9643 
B(  9-C , 12-H ) :   0.9642 B( 13-C , 14-H ) :   0.9442 B( 13-C , 15-H ) :   0.9640 
B( 13-C , 16-H ) :   0.9640 

-------
TIMINGS
-------

Total SCF time: 0 days 0 hours 0 min 29 sec 

Total time                  ....      29.277 sec
Sum of individual times     ....      28.476 sec  ( 97.3%)

Fock matrix formation       ....      23.739 sec  ( 81.1%)
  Split-RI-J                ....       8.450 sec  ( 35.6% of F)
  XC integration            ....      14.563 sec  ( 61.3% of F)
    Basis function eval.    ....       4.840 sec  ( 33.2% of XC)
    Density eval.           ....       3.283 sec  ( 22.5% of XC)
    XC-Functional eval.     ....       2.156 sec  ( 14.8% of XC)
    XC-Potential eval.      ....       3.260 sec  ( 22.4% of XC)
Diagonalization             ....       0.039 sec  (  0.1%)
Density matrix formation    ....       0.014 sec  (  0.0%)
Population analysis         ....       0.252 sec  (  0.9%)
Initial guess               ....       0.832 sec  (  2.8%)
Orbital Transformation      ....       0.000 sec  (  0.0%)
Orbital Orthonormalization  ....       0.000 sec  (  0.0%)
DIIS solution               ....       0.032 sec  (  0.1%)
SOSCF solution              ....       0.260 sec  (  0.9%)
Grid generation             ....       3.309 sec  ( 11.3%)


-------------------------------------------------------------------------------
                          DFT DISPERSION CORRECTION                            
                                                                               
                              DFTD3 V3.1  Rev 1                                
                          USING Becke-Johnson damping                          
-------------------------------------------------------------------------------
The BP86 functional is recognized
Active option DFTDOPT                   ...         4   

molecular C6(AA) [au] = 4776.225316 


            DFT-D V3
 parameters
 s6 scaling factor         :     1.0000 
 a1 scaling factor         :     0.3946 
 s8 scaling factor         :     3.2822 
 a2 scaling factor         :     4.8516 
 ad hoc parameters k1-k3   :    16.0000     1.3333    -4.0000 

 Edisp/kcal,au: -22.646008497724  -0.036088707849 
 E6   /kcal   :  -8.651598220 
 E8   /kcal   : -13.994410277 
 % E8         :  61.796365919 

-------------------------   ----------------
Dispersion correction           -0.036088708
-------------------------   ----------------


-------------------------   --------------------
FINAL SINGLE POINT ENERGY      -570.443204384159
-------------------------   --------------------

------------------------------------------------------------------------------
                         ORCA SCF GRADIENT CALCULATION
------------------------------------------------------------------------------

Gradient of the Kohn-Sham DFT energy:
Kohn-Sham wavefunction type      ... RKS
Hartree-Fock exchange scaling    ...    0.000
Number of operators              ...    1
Number of atoms                  ...   22
Basis set dimensions             ...  218
Integral neglect threshold       ... 2.5e-11
Integral primitive cutoff        ... 2.5e-12

Nuclear repulsion gradient       ... done
One Electron Gradient            ... done
Pre-screening matrix             ... done
RI-J gradient                    ... done
Exchange-correlation gradient    ... done
Dispersion correction            ... done

------------------
CARTESIAN GRADIENT
------------------

   1   C   :    0.031131100   -0.054644953    0.000442208
   2   C   :   -0.059296430    0.063841291   -0.000397755
   3   C   :    0.060158798   -0.059102959    0.000348846
   4   C   :   -0.003602118   -0.037757637    0.000345521
   5   N   :   -0.064364200    0.023228544   -0.000171321
   6   O   :    0.003340079    0.012595104   -0.000114029
   7   C   :   -0.033771173    0.052020901   -0.000435146
   8   C   :   -0.003183733    0.035901363   -0.000314110
   9   N   :    0.066566073   -0.024655755    0.000194468
  10   C   :    0.006117857    0.004192751   -0.000037724
  11   H   :   -0.000057420    0.000299582   -0.000003167
  12   H   :    0.000482012   -0.001606014   -0.000846536
  13   H   :    0.000485928   -0.001588820    0.000868497
  14   C   :   -0.004950439   -0.004502841    0.000045708
  15   H   :    0.000057038   -0.000300387    0.000003762
  16   H   :   -0.000531736    0.001617822   -0.000888634
  17   H   :   -0.000527871    0.001637223    0.000864438
  18   O   :    0.002349873   -0.010986557    0.000090003
  19   H   :    0.016562073   -0.006171349   -0.006367644
  20   H   :    0.016662187   -0.005991105    0.006422150
  21   H   :   -0.016878573    0.005888077   -0.006399936
  22   H   :   -0.016749325    0.006085718    0.006350399

Difference to translation invariance:
           :    0.0000000000   -0.0000000000   -0.0000000000

Norm of the cartesian gradient     ...    0.1918393875
RMS gradient                       ...    0.0236137962
MAX gradient                       ...    0.0665660728

-------
TIMINGS
-------

Total SCF gradient time            ...       11.065 sec

One electron gradient       ....       0.187 sec  (  1.7%)
Prescreening matrices       ....       0.111 sec  (  1.0%)
RI-J Coulomb gradient       ....       1.893 sec  ( 17.1%)
XC gradient                 ....       8.742 sec  ( 79.0%)
------------------------------------------------------------------------------
                         ORCA GEOMETRY RELAXATION STEP
------------------------------------------------------------------------------

Reading the OPT-File                    .... done
Getting information on internals        .... done
Copying old internal coords+grads       .... done
Making the new internal coordinates     .... (new redundants).... done
Validating the new internal coordinates .... (new redundants).... done
Calculating the B-matrix                .... done
Calculating the G,G- and P matrices     .... done
Transforming gradient to internals      .... done
Projecting the internal gradient        .... done
Number of atoms                         ....  22
Number of internal coordinates          .... 121
Current Energy                          ....  -570.443204384 Eh
Current gradient norm                   ....     0.191839387 Eh/bohr
Maximum allowed component of the step   ....  0.300
Current trust radius                    ....  0.300
Evaluating the initial hessian          ....  (Almloef) done
Projecting the Hessian                  .... done
Forming the augmented Hessian           .... done
Diagonalizing the augmented Hessian     .... done
Last element of RFO vector              ....  0.986091346
Lowest eigenvalues of augmented Hessian:
 -0.005926224  0.017907112  0.018033918  0.069992091  0.070191871
Length of the computed step             ....  0.168548547
The final length of the internal step   ....  0.168548547
Converting the step to cartesian space:
 Initial RMS(Int)=    0.0153225951
Transforming coordinates:
 Iter   0:  RMS(Cart)=    0.0200409638 RMS(Int)=    0.0152409171
 Iter   1:  RMS(Cart)=    0.0004398662 RMS(Int)=    0.0003185390
 Iter   2:  RMS(Cart)=    0.0000124777 RMS(Int)=    0.0000094034
 Iter   3:  RMS(Cart)=    0.0000004829 RMS(Int)=    0.0000003657
 Iter   4:  RMS(Cart)=    0.0000000161 RMS(Int)=    0.0000000119
Imposing constraints:
 Iter   0:  RMS(Cart)=    0.0000017588 RMS(Int)=    0.0000001676
 Iter   1:  RMS(Cart)=    0.0000002461 RMS(Int)=    0.0000000531
 Iter   2:  RMS(Cart)=    0.0000000397 RMS(Int)=    0.0000000303
CONVERGED
done
Storing new coordinates                 .... done

                                .--------------------.
          ----------------------|Geometry convergence|-------------------------
          Item                value                   Tolerance       Converged
          ---------------------------------------------------------------------
          RMS gradient        0.0034558540            0.0001000000      NO
          MAX gradient        0.0146049322            0.0003000000      NO
          RMS step            0.0153225951            0.0020000000      NO
          MAX step            0.0470811060            0.0040000000      NO
          ........................................................
          Max(Bonds)      0.0217      Max(Angles)    2.70
          Max(Dihed)        2.18      Max(Improp)    0.00
          ---------------------------------------------------------------------

The optimization has not yet converged - more geometry cycles are needed


    ---------------------------------------------------------------------------
                         Redundant Internal Coordinates
                            (Angstroem and degrees)

        Definition                    Value    dE/dq     Step     New-Value
    ----------------------------------------------------------------------------
     1. B(C   1,C   0)                1.4075 -0.056375  0.0000    1.4075 C 
     2. B(C   2,C   1)                1.4298  0.036448  0.0000    1.4298 C 
     3. B(C   3,C   2)                1.4577 -0.014113 -0.0000    1.4577 C 
     4. B(N   4,C   0)                1.3900 -0.043732 -0.0000    1.3900 C 
     5. B(N   4,C   3)                1.4549  0.017627 -0.0000    1.4549 C 
     6. B(O   5,C   3)                1.2297  0.004394 -0.0000    1.2297 C 
     7. B(C   6,C   2)                1.4102 -0.053822  0.0000    1.4102 C 
     8. B(C   7,C   1)                1.4616 -0.012192  0.0000    1.4616 C 
     9. B(N   8,C   6)                1.3867 -0.046184 -0.0000    1.3867 C 
    10. B(N   8,C   7)                1.4585  0.019642 -0.0000    1.4585 C 
    11. B(C   9,N   4)                1.4445  0.003962  0.0000    1.4445 C 
    12. B(H  10,C   9)                1.1072 -0.000092  0.0001    1.1073   
    13. B(H  11,C   9)                1.1099 -0.001654  0.0026    1.1125   
    14. B(H  12,C   9)                1.1099 -0.001651  0.0026    1.1125   
    15. B(C  13,N   8)                1.4436  0.003723  0.0000    1.4436 C 
    16. B(H  14,C  13)                1.1073 -0.000088  0.0001    1.1075   
    17. B(H  15,C  13)                1.1099 -0.001693  0.0026    1.1125   
    18. B(H  16,C  13)                1.1099 -0.001695  0.0026    1.1125   
    19. B(O  17,C   7)                1.2249 -0.001451  0.0000    1.2249 C 
    20. B(H  18,C   0)                1.0974 -0.014562  0.0216    1.1190   
    21. B(H  19,C   0)                1.0974 -0.014558  0.0216    1.1190   
    22. B(H  20,C   6)                1.0975 -0.014602  0.0217    1.1191   
    23. B(H  21,C   6)                1.0975 -0.014605  0.0217    1.1191   
    24. A(C   1,C   0,N   4)          107.67  0.026787    0.00    107.67 C 
    25. A(C   1,C   0,H  18)          111.95 -0.004383   -0.49    111.45   
    26. A(C   1,C   0,H  19)          112.00 -0.004289   -0.51    111.50   
    27. A(N   4,C   0,H  19)          107.46 -0.014148    2.00    109.46   
    28. A(N   4,C   0,H  18)          107.52 -0.014050    1.97    109.49   
    29. A(H  18,C   0,H  19)          110.00  0.009477   -2.67    107.33   
    30. A(C   0,C   1,C   7)          142.50  0.017122   -0.00    142.50 C 
    31. A(C   2,C   1,C   7)          109.14 -0.009965   -0.00    109.14 C 
    32. A(C   0,C   1,C   2)          108.36 -0.007157   -0.00    108.36 C 
    33. A(C   1,C   2,C   6)          108.35 -0.007417   -0.00    108.35 C 
    34. A(C   3,C   2,C   6)          142.40  0.016647   -0.00    142.40 C 
    35. A(C   1,C   2,C   3)          109.25 -0.009230   -0.00    109.25 C 
    36. A(N   4,C   3,O   5)          121.83 -0.011119   -0.00    121.83 C 
    37. A(C   2,C   3,N   4)          103.05 -0.006267    0.00    103.05 C 
    38. A(C   2,C   3,O   5)          135.13  0.017386    0.00    135.13 C 
    39. A(C   3,N   4,C   9)          120.12 -0.005384   -0.00    120.12 C 
    40. A(C   0,N   4,C   3)          111.67 -0.004134   -0.00    111.67 C 
    41. A(C   0,N   4,C   9)          128.21  0.009518   -0.00    128.21 C 
    42. A(N   8,C   6,H  21)          107.53 -0.014491    2.00    109.53   
    43. A(C   2,C   6,H  20)          111.91 -0.004475   -0.53    111.38   
    44. A(C   2,C   6,H  21)          111.85 -0.004590   -0.51    111.34   
    45. A(C   2,C   6,N   8)          107.88  0.027931   -0.00    107.88 C 
    46. A(N   8,C   6,H  20)          107.45 -0.014625    2.04    109.49   
    47. A(H  20,C   6,H  21)          110.00  0.009658   -2.70    107.30   
    48. A(N   8,C   7,O  17)          122.13 -0.009995    0.00    122.13 C 
    49. A(C   1,C   7,N   8)          103.06 -0.005797   -0.00    103.06 C 
    50. A(C   1,C   7,O  17)          134.81  0.015792    0.00    134.81 C 
    51. A(C   6,N   8,C  13)          127.86  0.008398    0.00    127.86 C 
    52. A(C   7,N   8,C  13)          120.56 -0.003647    0.00    120.56 C 
    53. A(C   6,N   8,C   7)          111.58 -0.004751    0.00    111.58 C 
    54. A(H  11,C   9,H  12)          108.90  0.001115   -0.24    108.66   
    55. A(N   4,C   9,H  10)          106.36  0.000621   -0.09    106.27   
    56. A(N   4,C   9,H  11)          111.65 -0.000883    0.15    111.80   
    57. A(H  10,C   9,H  11)          109.10  0.000016    0.01    109.11   
    58. A(N   4,C   9,H  12)          111.65 -0.000879    0.15    111.80   
    59. A(H  10,C   9,H  12)          109.09  0.000013    0.02    109.11   
    60. A(N   8,C  13,H  14)          106.47  0.000617   -0.09    106.38   
    61. A(N   8,C  13,H  15)          111.66 -0.000877    0.15    111.81   
    62. A(H  14,C  13,H  15)          109.03  0.000005    0.02    109.05   
    63. A(N   8,C  13,H  16)          111.66 -0.000885    0.15    111.81   
    64. A(H  14,C  13,H  16)          109.03  0.000007    0.02    109.05   
[...]
                    ********************************

-----------------------
MULLIKEN ATOMIC CHARGES
-----------------------
   0 C :    0.272886
   1 C :   -0.203084
   2 C :   -0.201368
   3 C :    0.155130
   4 N :   -0.345159
   5 O :   -0.188842
   6 C :    0.273038
   7 C :    0.155285
   8 N :   -0.344931
   9 C :    0.062434
  10 H :    0.068840
  11 H :    0.040653
  12 H :    0.040630
  13 C :    0.062957
  14 H :    0.068064
  15 H :    0.040721
  16 H :    0.040755
  17 O :   -0.182851
  18 H :    0.046546
  19 H :    0.046586
  20 H :    0.045872
  21 H :    0.045838
Sum of atomic charges:    0.0000000

--------------------------------
MULLIKEN REDUCED ORBITAL CHARGES
--------------------------------
  0 C s       :     2.795750  s :     2.795750
      pz      :     1.013549  p :     2.875715
      px      :     0.835961
      py      :     1.026205
      dz2     :     0.006472  d :     0.055649
      dxz     :     0.015775
      dyz     :     0.008255
      dx2y2   :     0.014120
      dxy     :     0.011028
  1 C s       :     3.242056  s :     3.242056
      pz      :     1.019133  p :     2.921855
      px      :     0.958058
      py      :     0.944664
      dz2     :     0.003140  d :     0.039173
      dxz     :     0.005080
      dyz     :     0.007732
      dx2y2   :     0.011175
      dxy     :     0.012046
  2 C s       :     3.241172  s :     3.241172
      pz      :     1.018809  p :     2.920958
      px      :     0.957090
      py      :     0.945058
      dz2     :     0.003141  d :     0.039238
      dxz     :     0.005100
      dyz     :     0.007740
      dx2y2   :     0.011193
      dxy     :     0.012064
  3 C s       :     3.015698  s :     3.015698
      pz      :     0.901211  p :     2.723117
      px      :     0.897032
      py      :     0.924874
      dz2     :     0.005641  d :     0.106055
      dxz     :     0.025315
      dyz     :     0.006578
      dx2y2   :     0.020948
      dxy     :     0.047574
  4 N s       :     3.465597  s :     3.465597
      pz      :     1.625117  p :     3.853201
      px      :     1.093571
      py      :     1.134514
      dz2     :     0.002373  d :     0.026362
      dxz     :     0.003792
      dyz     :     0.003962
      dx2y2   :     0.007907
      dxy     :     0.008327
  5 O s       :     3.719113  s :     3.719113
      pz      :     1.427427  p :     4.452914
      px      :     1.315963
      py      :     1.709525
      dz2     :     0.001902  d :     0.016815
      dxz     :     0.005136
      dyz     :     0.000043
      dx2y2   :     0.005825
      dxy     :     0.003908
  6 C s       :     2.795488  s :     2.795488
      pz      :     1.013492  p :     2.875704
      px      :     0.836933
      py      :     1.025278
      dz2     :     0.006469  d :     0.055770
      dxz     :     0.015957
      dyz     :     0.008191
      dx2y2   :     0.014107
      dxy     :     0.011046
  7 C s       :     3.015773  s :     3.015773
      pz      :     0.900469  p :     2.722447
      px      :     0.899646
      py      :     0.922331
      dz2     :     0.005640  d :     0.106495
      dxz     :     0.025501
      dyz     :     0.006495
      dx2y2   :     0.020948
      dxy     :     0.047911
  8 N s       :     3.464908  s :     3.464908
      pz      :     1.625977  p :     3.853660
      px      :     1.094300
      py      :     1.133382
      dz2     :     0.002375  d :     0.026363
      dxz     :     0.003802
      dyz     :     0.003953
      dx2y2   :     0.007904
      dxy     :     0.008329
  9 C s       :     3.014414  s :     3.014414
      pz      :     1.016108  p :     2.886054
      px      :     1.035582
      py      :     0.834363
      dz2     :     0.006014  d :     0.037098
      dxz     :     0.002186
      dyz     :     0.013156
      dx2y2   :     0.008705
      dxy     :     0.007037
 10 H s       :     0.908246  s :     0.908246
      pz      :     0.005007  p :     0.022914
      px      :     0.013859
      py      :     0.004048
 11 H s       :     0.938003  s :     0.938003
      pz      :     0.010352  p :     0.021343
      px      :     0.005294
      py      :     0.005697
 12 H s       :     0.938028  s :     0.938028
      pz      :     0.010465  p :     0.021342
      px      :     0.005300
      py      :     0.005577
 13 C s       :     3.014186  s :     3.014186
      pz      :     1.016456  p :     2.885670
      px      :     1.035829
      py      :     0.833385
      dz2     :     0.006019  d :     0.037187
      dxz     :     0.002192
      dyz     :     0.013210
      dx2y2   :     0.008864
      dxy     :     0.006902
 14 H s       :     0.909147  s :     0.909147
      pz      :     0.005015  p :     0.022790
      px      :     0.013847
      py      :     0.003928
 15 H s       :     0.937940  s :     0.937940
      pz      :     0.010469  p :     0.021339
      px      :     0.005334
      py      :     0.005536
 16 H s       :     0.937906  s :     0.937906
      pz      :     0.010359  p :     0.021340
      px      :     0.005325
      py      :     0.005656
 17 O s       :     3.715233  s :     3.715233
      pz      :     1.425183  p :     4.450564
      px      :     1.317379
      py      :     1.708002
      dz2     :     0.001922  d :     0.017054
      dxz     :     0.005222
      dyz     :     0.000042
      dx2y2   :     0.005891
      dxy     :     0.003977
 18 H s       :     0.932005  s :     0.932005
      pz      :     0.010342  p :     0.021450
      px      :     0.005242
      py      :     0.005866
 19 H s       :     0.931966  s :     0.931966
      pz      :     0.010406  p :     0.021448
      px      :     0.005259
      py      :     0.005783
 20 H s       :     0.932698  s :     0.932698
      pz      :     0.010397  p :     0.021431
      px      :     0.005278
      py      :     0.005756
 21 H s       :     0.932730  s :     0.932730
      pz      :     0.010334  p :     0.021432
      px      :     0.005259
      py      :     0.005839


                     *******************************
                     * LOEWDIN POPULATION ANALYSIS *
                     *******************************

----------------------
LOEWDIN ATOMIC CHARGES
----------------------
   0 C :    0.022765
   1 C :   -0.049850
   2 C :   -0.049294
   3 C :    0.051926
   4 N :   -0.044768
   5 O :   -0.193044
   6 C :    0.021908
   7 C :    0.051291
   8 N :   -0.045812
   9 C :    0.009272
  10 H :    0.042439
  11 H :    0.026878
  12 H :    0.026884
  13 C :    0.009506
  14 H :    0.042411
  15 H :    0.026970
  16 H :    0.026963
  17 O :   -0.188096
  18 H :    0.053159
  19 H :    0.053167
  20 H :    0.052664
  21 H :    0.052660

-------------------------------
LOEWDIN REDUCED ORBITAL CHARGES
-------------------------------
  0 C s       :     2.802183  s :     2.802183
      pz      :     1.058983  p :     3.032749
      px      :     0.927447
      py      :     1.046319
      dz2     :     0.016350  d :     0.142303
      dxz     :     0.039706
      dyz     :     0.019072
      dx2y2   :     0.040082
      dxy     :     0.027092
  1 C s       :     2.869769  s :     2.869769
      pz      :     0.977314  p :     3.075405
      px      :     1.048474
      py      :     1.049617
      dz2     :     0.008322  d :     0.104676
      dxz     :     0.009967
      dyz     :     0.014783
      dx2y2   :     0.034922
      dxy     :     0.036682
  2 C s       :     2.869492  s :     2.869492
      pz      :     0.977010  p :     3.074939
      px      :     1.048683
      py      :     1.049246
      dz2     :     0.008322  d :     0.104863
      dxz     :     0.010038
      dyz     :     0.014753
      dx2y2   :     0.035034
      dxy     :     0.036715
  3 C s       :     2.844654  s :     2.844654
      pz      :     0.898274  p :     2.852880
      px      :     0.999087
      py      :     0.955518
      dz2     :     0.013743  d :     0.250540
      dxz     :     0.049718
      dyz     :     0.013337
      dx2y2   :     0.051154
      dxy     :     0.122588
  4 N s       :     3.090194  s :     3.090194
      pz      :     1.568842  p :     3.891358
      px      :     1.157045
      py      :     1.165471
      dz2     :     0.005017  d :     0.063215
      dxz     :     0.006957
      dyz     :     0.006517
      dx2y2   :     0.020377
      dxy     :     0.024346
  5 O s       :     3.557561  s :     3.557561
      pz      :     1.431300  p :     4.605971
      px      :     1.443947
      py      :     1.730724
      dz2     :     0.004153  d :     0.029512
      dxz     :     0.006733
      dyz     :     0.000049
      dx2y2   :     0.012602
      dxy     :     0.005974
  6 C s       :     2.801991  s :     2.801991
      pz      :     1.058850  p :     3.033380
      px      :     0.928988
      py      :     1.045542
      dz2     :     0.016359  d :     0.142720
      dxz     :     0.040249
      dyz     :     0.018866
      dx2y2   :     0.040093
      dxy     :     0.027155
  7 C s       :     2.845188  s :     2.845188
      pz      :     0.897759  p :     2.851934
      px      :     1.000465
      py      :     0.953710
      dz2     :     0.013773  d :     0.251588
      dxz     :     0.050097
      dyz     :     0.013143
      dx2y2   :     0.051195
      dxy     :     0.123380
  8 N s       :     3.089697  s :     3.089697
      pz      :     1.569753  p :     3.892833
      px      :     1.158227
      py      :     1.164853
      dz2     :     0.005025  d :     0.063282
      dxz     :     0.006993
      dyz     :     0.006512
      dx2y2   :     0.020406
      dxy     :     0.024346
  9 C s       :     2.843539  s :     2.843539
      pz      :     1.072738  p :     3.052180
      px      :     1.067769
      py      :     0.911673
      dz2     :     0.015580  d :     0.095008
      dxz     :     0.004712
      dyz     :     0.034377
      dx2y2   :     0.023668
      dxy     :     0.016671
 10 H s       :     0.888070  s :     0.888070
      pz      :     0.011833  p :     0.069491
      px      :     0.045498
      py      :     0.012161
 11 H s       :     0.910046  s :     0.910046
      pz      :     0.031007  p :     0.063076
      px      :     0.014180
      py      :     0.017889
 12 H s       :     0.910041  s :     0.910041
      pz      :     0.031413  p :     0.063075
      px      :     0.014203
      py      :     0.017458
 13 C s       :     2.843234  s :     2.843234
      pz      :     1.072814  p :     3.052008
      px      :     1.068437
      py      :     0.910757
      dz2     :     0.015600  d :     0.095253
      dxz     :     0.004756
      dyz     :     0.034477
      dx2y2   :     0.024109
      dxy     :     0.016311
 14 H s       :     0.888606  s :     0.888606
      pz      :     0.011836  p :     0.068983
      px      :     0.045345
      py      :     0.011802
 15 H s       :     0.909983  s :     0.909983
      pz      :     0.031422  p :     0.063047
      px      :     0.014253
      py      :     0.017373
 16 H s       :     0.909989  s :     0.909989
      pz      :     0.031027  p :     0.063048
      px      :     0.014214
      py      :     0.017806
 17 O s       :     3.554237  s :     3.554237
      pz      :     1.428632  p :     4.603936
      px      :     1.446746
      py      :     1.728558
      dz2     :     0.004198  d :     0.029922
      dxz     :     0.006857
      dyz     :     0.000047
      dx2y2   :     0.012737
      dxy     :     0.006084
 18 H s       :     0.883493  s :     0.883493
      pz      :     0.029883  p :     0.063348
      px      :     0.017154
      py      :     0.016311
 19 H s       :     0.883486  s :     0.883486
      pz      :     0.030084  p :     0.063346
      px      :     0.017220
      py      :     0.016042
 20 H s       :     0.884005  s :     0.884005
      pz      :     0.030046  p :     0.063331
      px      :     0.017289
      py      :     0.015996
 21 H s       :     0.884008  s :     0.884008
      pz      :     0.029849  p :     0.063332
      px      :     0.017216
      py      :     0.016266


                      *****************************
                      * MAYER POPULATION ANALYSIS *
                      *****************************

  NA   - Mulliken gross atomic population
  ZA   - Total nuclear charge
  QA   - Mulliken gross atomic charge
  VA   - Mayer's total valence
  BVA  - Mayer's bonded valence
  FA   - Mayer's free valence

  ATOM       NA         ZA         QA         VA         BVA        FA
  0 C      5.7271     6.0000     0.2729     3.7943     3.7943    -0.0000
  1 C      6.2031     6.0000    -0.2031     4.0066     4.0066     0.0000
  2 C      6.2014     6.0000    -0.2014     4.0052     4.0052     0.0000
  3 C      5.8449     6.0000     0.1551     4.1589     4.1589     0.0000
  4 N      7.3452     7.0000    -0.3452     3.3139     3.3139     0.0000
  5 O      8.1888     8.0000    -0.1888     2.3818     2.3818     0.0000
  6 C      5.7270     6.0000     0.2730     3.7935     3.7935     0.0000
  7 C      5.8447     6.0000     0.1553     4.1615     4.1615     0.0000
  8 N      7.3449     7.0000    -0.3449     3.3134     3.3134     0.0000
  9 C      5.9376     6.0000     0.0624     3.9111     3.9111     0.0000
 10 H      0.9312     1.0000     0.0688     1.0352     1.0352     0.0000
 11 H      0.9593     1.0000     0.0407     0.9874     0.9874     0.0000
 12 H      0.9594     1.0000     0.0406     0.9874     0.9874     0.0000
 13 C      5.9370     6.0000     0.0630     3.9131     3.9131     0.0000
 14 H      0.9319     1.0000     0.0681     1.0335     1.0335    -0.0000
 15 H      0.9593     1.0000     0.0407     0.9874     0.9874     0.0000
 16 H      0.9592     1.0000     0.0408     0.9874     0.9874    -0.0000
 17 O      8.1829     8.0000    -0.1829     2.3875     2.3875    -0.0000
 18 H      0.9535     1.0000     0.0465     0.9854     0.9854    -0.0000
 19 H      0.9534     1.0000     0.0466     0.9854     0.9854    -0.0000
 20 H      0.9541     1.0000     0.0459     0.9854     0.9854    -0.0000
 21 H      0.9542     1.0000     0.0458     0.9854     0.9854    -0.0000

  Mayer bond orders larger than 0.100000
B(  0-C ,  1-C ) :   1.0878 B(  0-C ,  4-N ) :   1.0296 B(  0-C , 18-H ) :   0.8554 
B(  0-C , 19-H ) :   0.8554 B(  1-C ,  2-C ) :   1.6745 B(  1-C ,  7-C ) :   0.9639 
B(  2-C ,  3-C ) :   0.9675 B(  2-C ,  6-C ) :   1.0845 B(  3-C ,  4-N ) :   1.0443 
B(  3-C ,  5-O ) :   2.1035 B(  4-N ,  5-O ) :   0.1059 B(  4-N ,  9-C ) :   0.9964 
B(  6-C ,  8-N ) :   1.0325 B(  6-C , 20-H ) :   0.8555 B(  6-C , 21-H ) :   0.8554 
B(  7-C ,  8-N ) :   1.0408 B(  7-C , 17-O ) :   2.1113 B(  8-N , 13-C ) :   0.9972 
B(  8-N , 17-O ) :   0.1061 B(  9-C , 10-H ) :   0.9437 B(  9-C , 11-H ) :   0.9645 
B(  9-C , 12-H ) :   0.9645 B( 13-C , 14-H ) :   0.9449 B( 13-C , 15-H ) :   0.9643 
B( 13-C , 16-H ) :   0.9643 

-------
TIMINGS
-------

Total SCF time: 0 days 0 hours 0 min 15 sec 

Total time                  ....      15.238 sec
Sum of individual times     ....      14.950 sec  ( 98.1%)

Fock matrix formation       ....      11.188 sec  ( 73.4%)
  Split-RI-J                ....       3.640 sec  ( 32.5% of F)
  XC integration            ....       7.089 sec  ( 63.4% of F)
    Basis function eval.    ....       2.666 sec  ( 37.6% of XC)
    Density eval.           ....       1.581 sec  ( 22.3% of XC)
    XC-Functional eval.     ....       0.871 sec  ( 12.3% of XC)
    XC-Potential eval.      ....       1.621 sec  ( 22.9% of XC)
Diagonalization             ....       0.007 sec  (  0.0%)
Density matrix formation    ....       0.006 sec  (  0.0%)
Population analysis         ....       0.209 sec  (  1.4%)
Initial guess               ....       0.007 sec  (  0.0%)
Orbital Transformation      ....       0.000 sec  (  0.0%)
Orbital Orthonormalization  ....       0.004 sec  (  0.0%)
DIIS solution               ....       0.001 sec  (  0.0%)
SOSCF solution              ....       0.171 sec  (  1.1%)
Grid generation             ....       3.362 sec  ( 22.1%)


-------------------------------------------------------------------------------
                          DFT DISPERSION CORRECTION                            
                                                                               
                              DFTD3 V3.1  Rev 1                                
                          USING Becke-Johnson damping                          
-------------------------------------------------------------------------------
The BP86 functional is recognized
Active option DFTDOPT                   ...         4   

molecular C6(AA) [au] = 4777.170113 


            DFT-D V3
 parameters
 s6 scaling factor         :     1.0000 
 a1 scaling factor         :     0.3946 
 s8 scaling factor         :     3.2822 
 a2 scaling factor         :     4.8516 
 ad hoc parameters k1-k3   :    16.0000     1.3333    -4.0000 

 Edisp/kcal,au: -22.557540524787  -0.035947725175 
 E6   /kcal   :  -8.614485084 
 E8   /kcal   : -13.943055441 
 % E8         :  61.811062362 

-------------------------   ----------------
Dispersion correction           -0.035947725
-------------------------   ----------------


-------------------------   --------------------
FINAL SINGLE POINT ENERGY      -570.449056321502
-------------------------   --------------------

                                *** OPTIMIZATION RUN DONE ***

                            ***************************************
                            *     ORCA property calculations      *
                            ***************************************

                                    ---------------------
                                    Active property flags
                                    ---------------------
   (+) Dipole Moment


------------------------------------------------------------------------------
                       ORCA ELECTRIC PROPERTIES CALCULATION
------------------------------------------------------------------------------

Dipole Moment Calculation                       ... on
Quadrupole Moment Calculation                   ... off
Polarizability Calculation                      ... off
GBWName                                         ... DPP2F_T_Input_Dimethyl_Diketopyrrolopyrrole_1_Optimize_Monomer_Hydrogenated.gbw
Electron density file                           ... DPP2F_T_Input_Dimethyl_Diketopyrrolopyrrole_1_Optimize_Monomer_Hydrogenated.scfp
The origin for moment calculation is the CENTER OF MASS  = (-2.146497,  0.278286  0.003404)

-------------
DIPOLE MOMENT
-------------
                                X             Y             Z
Electronic contribution:     -0.05486       0.01387      -0.00112
Nuclear contribution   :      0.03821      -0.01748       0.00117
                        -----------------------------------------
Total Dipole Moment    :     -0.01665      -0.00361       0.00005
                        -----------------------------------------
Magnitude (a.u.)       :      0.01704
Magnitude (Debye)      :      0.04330



--------------------
Rotational spectrum 
--------------------
 
Rotational constants in cm-1:     0.070742     0.021294     0.016572 
Rotational constants in MHz :  2120.798066   638.367662   496.822534 

 Dipole components along the rotational axes: 
x,y,z [a.u.] :    -0.012592    -0.011475    -0.000000 
x,y,z [Debye]:    -0.032005    -0.029167    -0.000000 

 

Timings for individual modules:

Sum of individual times         ...      184.087 sec (=   3.068 min)
GTO integral calculation        ...        1.760 sec (=   0.029 min)   1.0 %
SCF iterations                  ...      124.013 sec (=   2.067 min)  67.4 %
SCF Gradient evaluation         ...       57.461 sec (=   0.958 min)  31.2 %
Geometry relaxation             ...        0.852 sec (=   0.014 min)   0.5 %
                             ****ORCA TERMINATED NORMALLY****
TOTAL RUN TIME: 0 days 0 hours 3 minutes 6 seconds 543 msec
