
                                 *****************
                                 * O   R   C   A *
                                 *****************

           --- An Ab Initio, DFT and Semiempirical electronic structure package ---

                  #######################################################
                  #                        -***-                        #
                  #          Department of theory and spectroscopy      #
                  #               Directorship: Frank Neese             #
                  #        Max Planck Institute fuer Kohlenforschung    #
                  #                Kaiser Wilhelm Platz 1               #
                  #                 D-45470 Muelheim/Ruhr               #
                  #                      Germany                        #
                  #                                                     #
                  #                  All rights reserved                #
                  #                        -***-                        #
                  #######################################################


                         Program Version 4.2.0 -  RELEASE  -


 With contributions from (in alphabetic order):
   Daniel Aravena         : Magnetic Suceptibility
   Michael Atanasov       : Ab Initio Ligand Field Theory (pilot matlab implementation)
   Alexander A. Auer      : GIAO ZORA, VPT2
   Ute Becker             : Parallelization
   Giovanni Bistoni       : ED, misc. LED, open-shell LED, HFLED
   Martin Brehm           : Molecular dynamics
   Dmytro Bykov           : SCF Hessian
   Vijay G. Chilkuri      : MRCI spin determinant printing, contributions to CSF-ICE
   Dipayan Datta          : RHF DLPNO-CCSD density
   Achintya Kumar Dutta   : EOM-CC, STEOM-CC
   Dmitry Ganyushin       : Spin-Orbit,Spin-Spin,Magnetic field MRCI
   Miquel Garcia          : C-PCM Hessian, Gaussian charge scheme
   Yang Guo               : DLPNO-NEVPT2, CIM, IAO-localization
   Andreas Hansen         : Spin unrestricted coupled pair/coupled cluster methods
   Benjamin Helmich-Paris : CASSCF linear response (MC-RPA)
   Lee Huntington         : MR-EOM, pCC
   Robert Izsak           : Overlap fitted RIJCOSX, COSX-SCS-MP3, EOM
   Christian Kollmar      : KDIIS, OOCD, Brueckner-CCSD(T), CCSD density
   Simone Kossmann        : Meta GGA functionals, TD-DFT gradient, OOMP2, MP2 Hessian
   Martin Krupicka        : AUTO-CI
   Lucas Lang             : DCDCAS
   Dagmar Lenk            : GEPOL surface, SMD
   Dimitrios Liakos       : Extrapolation schemes; Compound Job, initial MDCI parallelization
   Dimitrios Manganas     : Further ROCIS development; embedding schemes
   Dimitrios Pantazis     : SARC Basis sets
   Taras Petrenko         : DFT Hessian,TD-DFT gradient, ASA, ECA, R-Raman, ABS, FL, XAS/XES, NRVS
   Peter Pinski           : DLPNO-MP2, DLPNO-MP2 Gradient
   Christoph Reimann      : Effective Core Potentials
   Marius Retegan         : Local ZFS, SOC
   Christoph Riplinger    : Optimizer, TS searches, QM/MM, DLPNO-CCSD(T), (RO)-DLPNO pert. Triples
   Tobias Risthaus        : Range-separated hybrids, TD-DFT gradient, RPA, STAB
   Michael Roemelt        : Original ROCIS implementation
   Masaaki Saitow         : Open-shell DLPNO-CCSD energy and density
   Barbara Sandhoefer     : DKH picture change effects
   Avijit Sen             : IP-ROCIS
   Kantharuban Sivalingam : CASSCF convergence, NEVPT2, FIC-MRCI
   Bernardo de Souza      : ESD, SOC TD-DFT
   Georgi Stoychev        : AutoAux, RI-MP2 NMR
   Willem Van den Heuvel  : Paramagnetic NMR
   Boris Wezisla          : Elementary symmetry handling
   Frank Wennmohs         : Technical directorship


 We gratefully acknowledge several colleagues who have allowed us to
 interface, adapt or use parts of their codes:
   Stefan Grimme, W. Hujo, H. Kruse,             : VdW corrections, initial TS optimization,
                  C. Bannwarth                     DFT functionals, gCP, sTDA/sTD-DF
   Ed Valeev, F. Pavosevic, A. Kumar             : LibInt (2-el integral package), F12 methods
   Garnet Chan, S. Sharma, J. Yang, R. Olivares  : DMRG
   Ulf Ekstrom                                   : XCFun DFT Library
   Mihaly Kallay                                 : mrcc  (arbitrary order and MRCC methods)
   Andreas Klamt, Michael Diedenhofen            : otool_cosmo (COSMO solvation model)
   Jiri Pittner, Ondrej Demel                    : Mk-CCSD
   Frank Weinhold                                : gennbo (NPA and NBO analysis)
   Christopher J. Cramer and Donald G. Truhlar   : smd solvation model
   Lars Goerigk                                  : TD-DFT with DH, B97 family of functionals
   V. Asgeirsson, H. Jonsson                     : NEB implementation
   FAccTs GmbH                                   : IRC, NEB, NEB-TS, Multilevel, MM, QM/MM, CI optimization
   S Lehtola, MJT Oliveira, MAL Marques          : LibXC Library


 Your calculation uses the libint2 library for the computation of 2-el integrals
 For citations please refer to: http://libint.valeyev.net

 Your ORCA version has been built with support for libXC version: 4.2.3
 For citations please refer to: https://tddft.org/programs/libxc/

 This ORCA versions uses:
   CBLAS   interface :  Fast vector & matrix operations
   LAPACKE interface :  Fast linear algebra routines
   SCALAPACK package :  Parallel linear algebra routines


Your calculation utilizes the atom-pairwise dispersion correction
with the Becke-Johnson damping scheme (D3BJ)
Cite in your paper:
S.Grimme, S.Ehrlich, L.Goerigk, J Comput Chem, (2011), 32, 1456–1465 
S.Grimme, J.Antony, S.Ehrlich and H.Krieg, J.Chem.Phys., 132, (2010), 154104 
   

----- Orbital basis set information -----
Your calculation utilizes the basis: def2-SVP
   F. Weigend and R. Ahlrichs, Phys. Chem. Chem. Phys. 7, 3297 (2005).

----- AuxJ basis set information -----
Your calculation utilizes the auxiliary basis: def2/J
   F. Weigend, Phys. Chem. Chem. Phys. 8, 1057 (2006).

================================================================================
                                        WARNINGS
                       Please study these warnings very carefully!
================================================================================


WARNING: Geometry Optimization
  ===> : Switching off AutoStart
         For restart on a previous wavefunction, please use MOREAD

INFO   : the flag for use of LIBINT has been found!

================================================================================
                                       INPUT FILE
================================================================================
NAME = DPP2F_TT_Input_Furan_2_Optimize_Monomer_Hydrogenated.inp
|  1> ! RI BP86 def2-SVP def2/J D3BJ TIGHTSCF  Opt Grid3 FinalGrid5
|  2> %maxcore 3000
|  3> %geom
|  4> optimizehydrogens true
|  5> end
|  6> 
|  7> 
|  8> *xyz 0 1
|  9> C	-1.102631	-0.840710	0.017717
| 10> C	-0.033338	-1.747308	0.058104
| 11> C	1.157923	-0.975423	0.050100
| 12> H	-0.069092	-2.400083	-0.821728
| 13> C	0.764358	0.367129	0.006383
| 14> O	-0.596081	0.434340	-0.012678
| 15> H	-0.091693	-2.347939	0.973164
| 16> H	1.760548	-1.214268	-0.833635
| 17> H	1.738064	-1.162071	0.961028
| 18> H	-1.716522	-0.918889	-0.884046
| 19> H	1.082339	0.888378	-0.901459
| 20> H	-1.738965	-0.866755	0.906846
| 21> H	1.059806	0.940554	0.890059
| 22> **                         ****END OF INPUT****
================================================================================

                       *****************************
                       * Geometry Optimization Run *
                       *****************************

Geometry optimization settings:
Update method            Update   .... BFGS
Choice of coordinates    CoordSys .... Z-matrix Internals
Initial Hessian          InHess   .... Almoef's Model

Convergence Tolerances:
Energy Change            TolE     ....  5.0000e-06 Eh
Max. Gradient            TolMAXG  ....  3.0000e-04 Eh/bohr
RMS Gradient             TolRMSG  ....  1.0000e-04 Eh/bohr
Max. Displacement        TolMAXD  ....  4.0000e-03 bohr
RMS Displacement         TolRMSD  ....  2.0000e-03 bohr
Strict Convergence                ....  False
------------------------------------------------------------------------------
                        ORCA OPTIMIZATION COORDINATE SETUP
------------------------------------------------------------------------------

The optimization will be done in new redundant internal coordinates
Making redundant internal coordinates   ...  (new redundants) done
Evaluating the initial hessian          ...  (Almloef) done
Evaluating the coordinates              ...  done
Calculating the B-matrix                .... done
Calculating the G-matrix                .... done
Diagonalizing the G-matrix              .... done
Imposing constraints:
 Iter   0:  RMS(Cart)=    0.0000000000 RMS(Int)=    0.0000000000
CONVERGED
The first mode is                       ....   38
The number of degrees of freedom        ....   33
Storing new coordinates                 .... done

    -----------------------------------------------------------------
                    Redundant Internal Coordinates


    -----------------------------------------------------------------
         Definition                    Initial Value    Approx d2E/dq
    -----------------------------------------------------------------
      1. B(C   1,C   0)                  1.4025         0.596807 C 
      2. B(C   2,C   1)                  1.4195         0.560631 C 
      3. B(H   3,C   1)                  1.0961         0.352083   
      4. B(C   4,C   2)                  1.3997         0.602853 C 
      5. B(O   5,C   0)                  1.3723         0.597143 C 
      6. B(O   5,C   4)                  1.3622         0.619695 C 
      7. B(H   6,C   1)                  1.0961         0.352083   
      8. B(H   7,C   2)                  1.0960         0.352264   
      9. B(H   8,C   2)                  1.0960         0.352264   
     10. B(H   9,C   0)                  1.0937         0.355256   
     11. B(H  10,C   4)                  1.0941         0.354756   
     12. B(H  11,C   0)                  1.0937         0.355256   
     13. B(H  12,C   4)                  1.0941         0.354756   
     14. A(C   1,C   0,H   9)          113.9220         0.349841   
     15. A(H   9,C   0,H  11)          110.0000         0.289606   
     16. A(O   5,C   0,H   9)          104.7938         0.347727   
     17. A(O   5,C   0,H  11)          104.7673         0.347727   
     18. A(C   1,C   0,H  11)          113.8784         0.349841   
     19. A(C   1,C   0,O   5)          108.6518         0.425414 C 
     20. A(C   2,C   1,H   3)          110.2844         0.345653   
     21. A(C   0,C   1,H   6)          109.7346         0.349312   
     22. A(C   0,C   1,C   2)          106.7485         0.423395 C 
     23. A(C   0,C   1,H   3)          109.6931         0.349312   
     24. A(C   2,C   1,H   6)          110.3253         0.345653   
     25. A(H   3,C   1,H   6)          110.0000         0.288793   
     26. A(C   1,C   2,H   8)          110.2997         0.345683   
     27. A(C   4,C   2,H   8)          109.7633         0.349936   
     28. A(H   7,C   2,H   8)          110.0000         0.288839   
     29. A(C   1,C   2,C   4)          106.6051         0.424159 C 
     30. A(C   4,C   2,H   7)          109.7819         0.349936   
     31. A(C   1,C   2,H   7)          110.3334         0.345683   
     32. A(C   2,C   4,H  10)          113.6510         0.350353   
     33. A(O   5,C   4,H  10)          104.7819         0.349824   
     34. A(C   2,C   4,H  12)          113.6754         0.350353   
     35. A(C   2,C   4,O   5)          109.1815         0.429023 C 
     36. A(O   5,C   4,H  12)          104.7814         0.349824   
     37. A(H  10,C   4,H  12)          110.0000         0.289478   
     38. A(C   0,O   5,C   4)          108.8131         0.425500 C 
     39. D(H   3,C   1,C   0,H   9)     -3.1445         0.028646   
     40. D(C   2,C   1,C   0,H   9)    116.3434         0.028646   
     41. D(C   2,C   1,C   0,O   5)     -0.0515         0.028646 C 
     42. D(H   3,C   1,C   0,O   5)   -119.5393         0.028646   
     43. D(H   6,C   1,C   0,H   9)   -124.0971         0.028646   
     44. D(C   2,C   1,C   0,H  11)   -116.3874         0.028646   
     45. D(H   6,C   1,C   0,O   5)    119.5080         0.028646   
     46. D(H   3,C   1,C   0,H  11)    124.1247         0.028646   
     47. D(H   6,C   1,C   0,H  11)      3.1721         0.028646   
     48. D(H   7,C   2,C   1,H   6)    121.7191         0.025101   
     49. D(C   4,C   2,C   1,H   3)    119.1537         0.025101   
     50. D(C   4,C   2,C   1,H   6)   -119.1276         0.025101   
     51. D(H   7,C   2,C   1,H   3)      0.0005         0.025101   
     52. D(H   8,C   2,C   1,H   6)     -0.0151         0.025101   
     53. D(H   7,C   2,C   1,C   0)   -119.1040         0.025101   
     54. D(H   8,C   2,C   1,C   0)    119.1618         0.025101   
     55. D(H   8,C   2,C   1,H   3)   -121.7338         0.025101   
     56. D(C   4,C   2,C   1,C   0)      0.0493         0.025101 C 
     57. D(H  12,C   4,C   2,H   8)     -2.9087         0.029266   
     58. D(O   5,C   4,C   2,H   7)    119.4817         0.029266   
     59. D(O   5,C   4,C   2,H   8)   -119.4909         0.029266   
     60. D(H  10,C   4,C   2,C   1)   -116.5979         0.029266   
     61. D(H  10,C   4,C   2,H   7)      2.9137         0.029266   
     62. D(H  10,C   4,C   2,H   8)    123.9410         0.029266   
     63. D(H  12,C   4,C   2,C   1)    116.5524         0.029266   
     64. D(O   5,C   4,C   2,C   1)     -0.0298         0.029266 C 
     65. D(H  12,C   4,C   2,H   7)   -123.9360         0.029266   
     66. D(C   4,O   5,C   0,C   1)      0.0338         0.028713 C 
     67. D(C   4,O   5,C   0,H   9)   -122.0925         0.028713   
     68. D(C   4,O   5,C   0,H  11)    122.0938         0.028713   
     69. D(C   0,O   5,C   4,C   2)     -0.0020         0.031094 C 
     70. D(C   0,O   5,C   4,H  10)    122.0764         0.031094   
     71. D(C   0,O   5,C   4,H  12)   -122.1090         0.031094   
    -----------------------------------------------------------------

Number of atoms                         .... 13
Number of degrees of freedom            .... 71

         *************************************************************
         *                GEOMETRY OPTIMIZATION CYCLE   1            *
         *************************************************************
---------------------------------
CARTESIAN COORDINATES (ANGSTROEM)
---------------------------------
  C     -1.102631   -0.840710    0.017717
  C     -0.033338   -1.747308    0.058104
  C      1.157923   -0.975423    0.050100
  H     -0.069092   -2.400083   -0.821728
  C      0.764358    0.367129    0.006383
  O     -0.596081    0.434340   -0.012678
  H     -0.091693   -2.347939    0.973164
  H      1.760548   -1.214268   -0.833635
  H      1.738064   -1.162071    0.961028
  H     -1.716522   -0.918889   -0.884046
  H      1.082339    0.888378   -0.901459
  H     -1.738965   -0.866755    0.906846
  H      1.059806    0.940554    0.890059

----------------------------
CARTESIAN COORDINATES (A.U.)
----------------------------
  NO LB      ZA    FRAG     MASS         X           Y           Z
   0 C     6.0000    0    12.011   -2.083671   -1.588712    0.033480
   1 C     6.0000    0    12.011   -0.063000   -3.301934    0.109801
   2 C     6.0000    0    12.011    2.188157   -1.843282    0.094675
   3 H     1.0000    0     1.008   -0.130565   -4.535500   -1.552841
   4 C     6.0000    0    12.011    1.444427    0.693773    0.012062
   5 O     8.0000    0    15.999   -1.126430    0.820784   -0.023958
   6 H     1.0000    0     1.008   -0.173275   -4.436962    1.839013
   7 H     1.0000    0     1.008    3.326954   -2.294634   -1.575342
   8 H     1.0000    0     1.008    3.284465   -2.195996    1.816080
   9 H     1.0000    0     1.008   -3.243756   -1.736449   -1.670605
  10 H     1.0000    0     1.008    2.045324    1.678791   -1.703511
  11 H     1.0000    0     1.008   -3.286168   -1.637930    1.713691
  12 H     1.0000    0     1.008    2.002743    1.777389    1.681968

--------------------------------
INTERNAL COORDINATES (ANGSTROEM)
--------------------------------
 C      0   0   0     0.000000000000     0.00000000     0.00000000
 C      1   0   0     1.402475869034     0.00000000     0.00000000
 C      2   1   0     1.419497547501   106.74849954     0.00000000
 H      2   1   3     1.096128595268   109.69306229   240.51217179
 C      3   2   1     1.399732280837   106.60505780     0.04926756
 O      5   3   2     1.362231592998   109.18151800   359.97017981
 H      2   1   3     1.096128508792   109.73461729   119.55949610
 H      3   2   1     1.095988765853   110.33337663   240.89600469
 H      3   2   1     1.095988538703   110.29965810   119.16176072
 H      1   2   3     1.093686712039   113.92197137   116.34337486
 H      5   3   2     1.094070168374   113.65101229   243.40212127
 H      1   2   3     1.093686280531   113.87842633   243.61257730
 H      5   3   2     1.094069935747   113.67542049   116.55241843

---------------------------
INTERNAL COORDINATES (A.U.)
---------------------------
 C      0   0   0     0.000000000000     0.00000000     0.00000000
 C      1   0   0     2.650295301907     0.00000000     0.00000000
 C      2   1   0     2.682461612550   106.74849954     0.00000000
 H      2   1   3     2.071382852617   109.69306229   240.51217179
 C      3   2   1     2.645110671591   106.60505780     0.04926756
 O      5   3   2     2.574244641742   109.18151800   359.97017981
 H      2   1   3     2.071382689200   109.73461729   119.55949610
 H      3   2   1     2.071118613316   110.33337663   240.89600469
 H      3   2   1     2.071118184066   110.29965810   119.16176072
 H      1   2   3     2.066768362063   113.92197137   116.34337486
 H      5   3   2     2.067492989520   113.65101229   243.40212127
 H      1   2   3     2.066767546631   113.87842633   243.61257730
 H      5   3   2     2.067492549918   113.67542049   116.55241843

---------------------
BASIS SET INFORMATION
---------------------
There are 3 groups of distinct atoms

 Group   1 Type C   : 7s4p1d contracted to 3s2p1d pattern {511/31/1}
 Group   2 Type H   : 4s1p contracted to 2s1p pattern {31/1}
 Group   3 Type O   : 7s4p1d contracted to 3s2p1d pattern {511/31/1}

Atom   0C    basis set group =>   1
Atom   1C    basis set group =>   1
Atom   2C    basis set group =>   1
Atom   3H    basis set group =>   2
Atom   4C    basis set group =>   1
Atom   5O    basis set group =>   3
Atom   6H    basis set group =>   2
Atom   7H    basis set group =>   2
Atom   8H    basis set group =>   2
Atom   9H    basis set group =>   2
Atom  10H    basis set group =>   2
Atom  11H    basis set group =>   2
Atom  12H    basis set group =>   2
---------------------------------
AUXILIARY/J BASIS SET INFORMATION
---------------------------------
There are 3 groups of distinct atoms

 Group   1 Type C   : 12s5p4d2f1g contracted to 6s4p3d1f1g pattern {711111/2111/211/2/1}
 Group   2 Type H   : 5s2p1d contracted to 3s1p1d pattern {311/2/1}
 Group   3 Type O   : 12s5p4d2f1g contracted to 6s4p3d1f1g pattern {711111/2111/211/2/1}

Atom   0C    basis set group =>   1
Atom   1C    basis set group =>   1
Atom   2C    basis set group =>   1
Atom   3H    basis set group =>   2
Atom   4C    basis set group =>   1
Atom   5O    basis set group =>   3
Atom   6H    basis set group =>   2
Atom   7H    basis set group =>   2
Atom   8H    basis set group =>   2
Atom   9H    basis set group =>   2
Atom  10H    basis set group =>   2
Atom  11H    basis set group =>   2
Atom  12H    basis set group =>   2
------------------------------------------------------------------------------
                           ORCA GTO INTEGRAL CALCULATION
                           -- RI-GTO INTEGRALS CHOSEN --
------------------------------------------------------------------------------

                         BASIS SET STATISTICS AND STARTUP INFO

Gaussian basis set:
 # of primitive gaussian shells          ...  100
 # of primitive gaussian functions       ...  176
 # of contracted shells                  ...   54
 # of contracted basis functions         ...  110
 Highest angular momentum                ...    2
 Maximum contraction depth               ...    5
Auxiliary gaussian basis set:
 # of primitive gaussian shells          ...  184
 # of primitive gaussian functions       ...  478
 # of contracted shells                  ...  115
 # of contracted aux-basis functions     ...  333
 Highest angular momentum                ...    4
 Maximum contraction depth               ...    7
Ratio of auxiliary to basis functions    ...  3.03
Integral package used                  ... LIBINT
 One Electron integrals                  ... done
 Ordering auxiliary basis shells         ... done
 Integral threshhold             Thresh  ...  2.500e-11
 Primitive cut-off               TCut    ...  2.500e-12
 Pre-screening matrix                    ... done
 Shell pair data                         ... 
 Ordering of the shell pairs             ... done (   0.000 sec) 1480 of 1485 pairs
 Determination of significant pairs      ... done (   0.000 sec)
 Creation of shell pair data             ... done (   0.000 sec)
 Storage of shell pair data              ... done (   0.003 sec)
 Shell pair data done in (   0.004 sec)
 Computing two index integrals           ... done
 Cholesky decomposition of the V-matrix  ... done


Timings:
 Total evaluation time                   ...   0.115 sec (  0.002 min)
 One electron matrix time                ...   0.013 sec (  0.000 min) = 11.6%
 Schwartz matrix evaluation time         ...   0.064 sec (  0.001 min) = 55.2%
 Two index repulsion integral time       ...   0.005 sec (  0.000 min) =  4.7%
 Cholesky decomposition of V             ...   0.012 sec (  0.000 min) = 10.1%
 Three index repulsion integral time     ...   0.000 sec (  0.000 min) =  0.0%

-------------------------------------------------------------------------------
                                 ORCA SCF
-------------------------------------------------------------------------------

------------
SCF SETTINGS
------------
Hamiltonian:
 Density Functional     Method          .... DFT(GTOs)
 Exchange Functional    Exchange        .... B88
   X-Alpha parameter    XAlpha          ....  0.666667
   Becke's b parameter  XBeta           ....  0.004200
 Correlation Functional Correlation     .... P86
 LDA part of GGA corr.  LDAOpt          .... PW91-LDA
 Gradients option       PostSCFGGA      .... off
   Density functional embedding theory  .... OFF
 RI-approximation to the Coulomb term is turned on
   Number of auxiliary basis functions  .... 333


General Settings:
 Integral files         IntName         .... DPP2F_TT_Input_Furan_2_Optimize_Monomer_Hydrogenated
 Hartree-Fock type      HFTyp           .... RHF
 Total Charge           Charge          ....    0
 Multiplicity           Mult            ....    1
 Number of Electrons    NEL             ....   40
 Basis Dimension        Dim             ....  110
 Nuclear Repulsion      ENuc            ....    199.8555558917 Eh

Convergence Acceleration:
 DIIS                   CNVDIIS         .... on
   Start iteration      DIISMaxIt       ....    12
   Startup error        DIISStart       ....  0.200000
   # of expansion vecs  DIISMaxEq       ....     5
   Bias factor          DIISBfac        ....   1.050
   Max. coefficient     DIISMaxC        ....  10.000
 Newton-Raphson         CNVNR           .... off
 SOSCF                  CNVSOSCF        .... on
   Start iteration      SOSCFMaxIt      ....   150
   Startup grad/error   SOSCFStart      ....  0.003300
 Level Shifting         CNVShift        .... on
   Level shift para.    LevelShift      ....    0.2500
   Turn off err/grad.   ShiftErr        ....    0.0010
 Zerner damping         CNVZerner       .... off
 Static damping         CNVDamp         .... on
   Fraction old density DampFac         ....    0.7000
   Max. Damping (<1)    DampMax         ....    0.9800
   Min. Damping (>=0)   DampMin         ....    0.0000
   Turn off err/grad.   DampErr         ....    0.1000
 Fernandez-Rico         CNVRico         .... off

SCF Procedure:
 Maximum # iterations   MaxIter         ....   125
 SCF integral mode      SCFMode         .... Direct
   Integral package                     .... LIBINT
 Reset frequency        DirectResetFreq ....    20
 Integral Threshold     Thresh          ....  2.500e-11 Eh
 Primitive CutOff       TCut            ....  2.500e-12 Eh

Convergence Tolerance:
 Convergence Check Mode ConvCheckMode   .... Total+1el-Energy
 Convergence forced     ConvForced      .... 0
 Energy Change          TolE            ....  1.000e-08 Eh
 1-El. energy change                    ....  1.000e-05 Eh
 Orbital Gradient       TolG            ....  1.000e-05
 Orbital Rotation angle TolX            ....  1.000e-05
 DIIS Error             TolErr          ....  5.000e-07


Diagonalization of the overlap matrix:
Smallest eigenvalue                        ... 4.751e-04
Time for diagonalization                   ...    0.012 sec
Threshold for overlap eigenvalues          ... 1.000e-08
Number of eigenvalues below threshold      ... 0
Time for construction of square roots      ...    0.004 sec
Total time needed                          ...    0.017 sec

-------------------
DFT GRID GENERATION
-------------------

General Integration Accuracy     IntAcc      ...  4.340
Radial Grid Type                 RadialGrid  ... Gauss-Chebyshev
Angular Grid (max. acc.)         AngularGrid ... Lebedev-194
Angular grid pruning method      GridPruning ... 3 (G Style)
Weight generation scheme         WeightScheme... Becke
Basis function cutoff            BFCut       ...    1.0000e-11
Integration weight cutoff        WCut        ...    1.0000e-14
Grids for H and He will be reduced by one unit

# of grid points (after initial pruning)     ...  28694 (   0.0 sec)
# of grid points (after weights+screening)   ...  26519 (   0.0 sec)
nearest neighbour list constructed           ...    0.0 sec
Grid point re-assignment to atoms done       ...    0.0 sec
Grid point division into batches done        ...    0.0 sec
Reduced shell lists constructed in    0.1 sec

Total number of grid points                  ...    26519
Total number of batches                      ...      419
Average number of points per batch           ...       63
Average number of grid points per atom       ...     2040
Average number of shells per batch           ...    44.14 (81.74%)
Average number of basis functions per batch  ...    89.89 (81.72%)
Average number of large shells per batch     ...    36.95 (83.73%)
Average number of large basis fcns per batch ...    73.73 (82.02%)
Maximum spatial batch extension              ...  19.14, 19.86, 19.47 au
Average spatial batch extension              ...   3.20,  3.15,  2.97 au

Time for grid setup =    0.178 sec

------------------------------
INITIAL GUESS: MODEL POTENTIAL
------------------------------
Loading Hartree-Fock densities                     ... done
Calculating cut-offs                               ... done
Setting up the integral package                    ... done
Initializing the effective Hamiltonian             ... done
Starting the Coulomb interaction                   ... done (   0.0 sec)
Reading the grid                                   ... done
Mapping shells                                     ... done
Starting the XC term evaluation                    ... done (   0.2 sec)
  promolecular density results
     # of electrons  =     39.996260481
     EX              =    -31.304813670
     EC              =     -1.465799178
     EX+EC           =    -32.770612848
Transforming the Hamiltonian                       ... done (   0.0 sec)
Diagonalizing the Hamiltonian                      ... done (   0.0 sec)
Back transforming the eigenvectors                 ... done (   0.0 sec)
Now organizing SCF variables                       ... done
                      ------------------
                      INITIAL GUESS DONE (   0.4 sec)
                      ------------------
--------------
SCF ITERATIONS
--------------
ITER       Energy         Delta-E        Max-DP      RMS-DP      [F,P]     Damp
               ***  Starting incremental Fock matrix formation  ***
  0   -232.0644368467   0.000000000000 0.07648426  0.00344291  0.1809298 0.7000
  1   -232.1398030706  -0.075366223884 0.04391075  0.00236793  0.0795423 0.7000
                               ***Turning on DIIS***
  2   -232.1656561792  -0.025853108681 0.05499502  0.00370234  0.0229948 0.0000
  3   -232.2049964440  -0.039340264730 0.02921499  0.00156554  0.0474166 0.0000
  4   -232.2166623515  -0.011665907493 0.00679374  0.00043055  0.0071008 0.0000
  5   -232.2171598883  -0.000497536846 0.00342756  0.00020369  0.0037351 0.0000
                      *** Initiating the SOSCF procedure ***
                           *** Shutting down DIIS ***
                      *** Re-Reading the Fockian *** 
                      *** Removing any level shift *** 
ITER      Energy       Delta-E        Grad      Rot      Max-DP    RMS-DP
  6   -232.21720432  -0.0000444342  0.000415  0.000415  0.001242  0.000074
               *** Restarting incremental Fock matrix formation ***
  7   -232.21721412  -0.0000097986  0.000173  0.000716  0.000754  0.000045
  8   -232.21721445  -0.0000003276  0.000239  0.000357  0.000388  0.000020
  9   -232.21721479  -0.0000003396  0.000079  0.000341  0.000329  0.000018
 10   -232.21721488  -0.0000000929  0.000018  0.000043  0.000066  0.000003
 11   -232.21721489  -0.0000000062  0.000015  0.000025  0.000040  0.000002
                  ***Gradient check signals convergence***
              ***Rediagonalizing the Fockian in SOSCF/NRSCF***

               *****************************************************
               *                     SUCCESS                       *
               *           SCF CONVERGED AFTER  12 CYCLES          *
               *****************************************************

Setting up the final grid:

General Integration Accuracy     IntAcc      ...  5.010
Radial Grid Type                 RadialGrid  ... Gauss-Chebyshev
Angular Grid (max. acc.)         AngularGrid ... Lebedev-434
Angular grid pruning method      GridPruning ... 3 (G Style)
Weight generation scheme         WeightScheme... Becke
Basis function cutoff            BFCut       ...    1.0000e-11
Integration weight cutoff        WCut        ...    1.0000e-14
Grids for H and He will be reduced by one unit

# of grid points (after initial pruning)     ... 107170 (   0.0 sec)
# of grid points (after weights+screening)   ...  98029 (   0.1 sec)
nearest neighbour list constructed           ...    0.0 sec
Grid point re-assignment to atoms done       ...    0.0 sec
Grid point division into batches done        ...    0.5 sec
Reduced shell lists constructed in    0.8 sec

Total number of grid points                  ...    98029
Total number of batches                      ...     1538
Average number of points per batch           ...       63
Average number of grid points per atom       ...     7541
Average number of shells per batch           ...    41.41 (76.69%)
Average number of basis functions per batch  ...    83.76 (76.15%)
Average number of large shells per batch     ...    33.97 (82.03%)
Average number of large basis fcns per batch ...    67.04 (80.03%)
Maximum spatial batch extension              ...  18.48, 16.93, 21.41 au
Average spatial batch extension              ...   2.11,  2.08,  2.02 au

Final grid set up in    0.9 sec
Final integration                            ... done (   0.6 sec)
Change in XC energy                          ...    -0.000140898
Integrated number of electrons               ...    39.999981437
Previous integrated no of electrons          ...    40.000103354

----------------
TOTAL SCF ENERGY
----------------

Total Energy       :         -232.21735579 Eh           -6318.95550 eV

Components:
Nuclear Repulsion  :          199.85555589 Eh            5438.34616 eV
Electronic Energy  :         -432.07291168 Eh          -11757.30166 eV
One Electron Energy:         -709.49749207 Eh          -19306.40828 eV
Two Electron Energy:          277.42458039 Eh            7549.10662 eV

Virial components:
Potential Energy   :         -463.08451589 Eh          -12601.17031 eV
Kinetic Energy     :          230.86716011 Eh            6282.21481 eV
Virial Ratio       :            2.00584837


DFT components:
N(Alpha)           :       19.999990718695 electrons
N(Beta)            :       19.999990718695 electrons
N(Total)           :       39.999981437389 electrons
E(X)               :      -32.068276193762 Eh       
E(C)               :       -1.462437899543 Eh       
E(XC)              :      -33.530714093305 Eh       
DFET-embed. en.    :        0.000000000000 Eh       

---------------
SCF CONVERGENCE
---------------

  Last Energy change         ...   -1.5677e-09  Tolerance :   1.0000e-08
  Last MAX-Density change    ...    1.1998e-05  Tolerance :   1.0000e-07
  Last RMS-Density change    ...    6.8575e-07  Tolerance :   5.0000e-09
  Last Orbital Gradient      ...    2.4926e-06  Tolerance :   1.0000e-05
  Last Orbital Rotation      ...    1.1582e-05  Tolerance :   1.0000e-05

             **** THE GBW FILE WAS UPDATED (DPP2F_TT_Input_Furan_2_Optimize_Monomer_Hydrogenated.gbw) ****
             **** DENSITY FILE WAS UPDATED (DPP2F_TT_Input_Furan_2_Optimize_Monomer_Hydrogenated.scfp) ****
             **** ENERGY FILE WAS UPDATED (DPP2F_TT_Input_Furan_2_Optimize_Monomer_Hydrogenated.en.tmp) ****
             **** THE GBW FILE WAS UPDATED (DPP2F_TT_Input_Furan_2_Optimize_Monomer_Hydrogenated.gbw) ****
             **** DENSITY FILE WAS UPDATED (DPP2F_TT_Input_Furan_2_Optimize_Monomer_Hydrogenated.scfp) ****
----------------
ORBITAL ENERGIES
----------------

  NO   OCC          E(Eh)            E(eV) 
   0   2.0000     -18.751379      -510.2510 
   1   2.0000      -9.931980      -270.2629 
   2   2.0000      -9.930645      -270.2266 
   3   2.0000      -9.897604      -269.3275 
   4   2.0000      -9.896984      -269.3106 
   5   2.0000      -0.967252       -26.3203 
   6   2.0000      -0.741338       -20.1728 
   7   2.0000      -0.685985       -18.6666 
   8   2.0000      -0.540457       -14.7066 
   9   2.0000      -0.525381       -14.2963 
  10   2.0000      -0.479451       -13.0465 
  11   2.0000      -0.461039       -12.5455 
  12   2.0000      -0.392190       -10.6720 
  13   2.0000      -0.371892       -10.1197 
  14   2.0000      -0.368973       -10.0403 
  15   2.0000      -0.333197        -9.0668 
  16   2.0000      -0.315160        -8.5760 
  17   2.0000      -0.272266        -7.4087 
  18   2.0000      -0.268459        -7.3051 
  19   2.0000      -0.181346        -4.9347 
  20   0.0000       0.017616         0.4794 
  21   0.0000       0.035767         0.9733 
  22   0.0000       0.078891         2.1467 
  23   0.0000       0.098736         2.6867 
  24   0.0000       0.101493         2.7618 
  25   0.0000       0.123194         3.3523 
  26   0.0000       0.141393         3.8475 
  27   0.0000       0.152104         4.1390 
  28   0.0000       0.153924         4.1885 
  29   0.0000       0.205433         5.5901 
  30   0.0000       0.210623         5.7313 
  31   0.0000       0.308728         8.4009 
  32   0.0000       0.341004         9.2792 
  33   0.0000       0.366212         9.9651 
  34   0.0000       0.396037        10.7767 
  35   0.0000       0.410591        11.1728 
  36   0.0000       0.411741        11.2041 
  37   0.0000       0.481957        13.1147 
  38   0.0000       0.503510        13.7012 
  39   0.0000       0.513353        13.9691 
  40   0.0000       0.562132        15.2964 
  41   0.0000       0.569733        15.5032 
  42   0.0000       0.599724        16.3193 
  43   0.0000       0.609313        16.5803 
  44   0.0000       0.617323        16.7982 
  45   0.0000       0.626758        17.0550 
  46   0.0000       0.627857        17.0849 
  47   0.0000       0.635548        17.2942 
  48   0.0000       0.642865        17.4932 
  49   0.0000       0.660124        17.9629 
  50   0.0000       0.670540        18.2463 
  51   0.0000       0.680539        18.5184 
  52   0.0000       0.697787        18.9877 
  53   0.0000       0.859084        23.3769 
  54   0.0000       0.859156        23.3788 
  55   0.0000       0.864798        23.5324 
  56   0.0000       0.877462        23.8770 
  57   0.0000       0.936351        25.4794 
  58   0.0000       1.142741        31.0956 
  59   0.0000       1.156010        31.4566 
  60   0.0000       1.308878        35.6164 
  61   0.0000       1.327638        36.1269 
  62   0.0000       1.348068        36.6828 
  63   0.0000       1.369181        37.2573 
  64   0.0000       1.384293        37.6685 
  65   0.0000       1.516378        41.2627 
  66   0.0000       1.549704        42.1696 
  67   0.0000       1.567415        42.6515 
  68   0.0000       1.595689        43.4209 
  69   0.0000       1.670954        45.4690 
  70   0.0000       1.700309        46.2678 
  71   0.0000       1.722979        46.8847 
  72   0.0000       1.744152        47.4608 
  73   0.0000       1.751296        47.6552 
  74   0.0000       1.757296        47.8184 
  75   0.0000       1.780442        48.4483 
  76   0.0000       1.783231        48.5242 
  77   0.0000       1.784008        48.5453 
  78   0.0000       1.834248        49.9124 
  79   0.0000       1.846799        50.2539 
  80   0.0000       1.854048        50.4512 
  81   0.0000       1.917729        52.1841 
  82   0.0000       1.934348        52.6363 
  83   0.0000       1.938774        52.7567 
  84   0.0000       1.958646        53.2975 
  85   0.0000       2.035482        55.3883 
  86   0.0000       2.124553        57.8120 
  87   0.0000       2.126994        57.8784 
  88   0.0000       2.221371        60.4466 
  89   0.0000       2.294234        62.4293 
  90   0.0000       2.299505        62.5727 
  91   0.0000       2.312345        62.9221 
  92   0.0000       2.352881        64.0252 
  93   0.0000       2.543331        69.2075 
  94   0.0000       2.610857        71.0450 
  95   0.0000       2.620859        71.3172 
  96   0.0000       2.632243        71.6270 
  97   0.0000       2.735146        74.4271 
  98   0.0000       2.763520        75.1992 
  99   0.0000       2.766588        75.2827 
 100   0.0000       2.800041        76.1930 
 101   0.0000       2.811411        76.5024 
 102   0.0000       2.822033        76.7914 
 103   0.0000       2.983113        81.1746 
 104   0.0000       3.031485        82.4909 
 105   0.0000       3.034891        82.5836 
 106   0.0000       3.051678        83.0404 
 107   0.0000       3.140467        85.4564 
 108   0.0000       3.272244        89.0423 
 109   0.0000       3.492219        95.0281 

                    ********************************
                    * MULLIKEN POPULATION ANALYSIS *
                    ********************************

-----------------------
MULLIKEN ATOMIC CHARGES
-----------------------
   0 C :    0.193112
   1 C :   -0.035839
   2 C :   -0.029883
   3 H :    0.015672
   4 C :    0.194448
   5 O :   -0.354346
   6 H :    0.015671
   7 H :    0.014733
   8 H :    0.014694
   9 H :   -0.005759
  10 H :   -0.008426
  11 H :   -0.005684
  12 H :   -0.008393
Sum of atomic charges:    0.0000000

--------------------------------
MULLIKEN REDUCED ORBITAL CHARGES
--------------------------------
  0 C s       :     2.890807  s :     2.890807
      pz      :     1.025169  p :     2.844656
      px      :     1.027177
      py      :     0.792309
      dz2     :     0.009175  d :     0.071426
      dxz     :     0.013780
      dyz     :     0.013782
      dx2y2   :     0.017392
      dxy     :     0.017297
  1 C s       :     2.884432  s :     2.884432
      pz      :     1.019744  p :     3.110643
      px      :     0.981188
      py      :     1.109711
      dz2     :     0.005998  d :     0.040764
      dxz     :     0.007050
      dyz     :     0.009223
      dx2y2   :     0.007549
      dxy     :     0.010945
  2 C s       :     2.881978  s :     2.881978
      pz      :     1.019015  p :     3.107056
      px      :     1.086815
      py      :     1.001226
      dz2     :     0.005994  d :     0.040849
      dxz     :     0.009148
      dyz     :     0.007208
      dx2y2   :     0.010159
      dxy     :     0.008340
  3 H s       :     0.961156  s :     0.961156
      pz      :     0.009717  p :     0.023172
      px      :     0.005087
      py      :     0.008368
  4 C s       :     2.885809  s :     2.885809
      pz      :     1.024465  p :     2.846864
      px      :     0.770228
      py      :     1.052172
      dz2     :     0.009289  d :     0.072878
      dxz     :     0.017693
      dyz     :     0.010472
      dx2y2   :     0.020305
      dxy     :     0.015119
  5 O s       :     3.739917  s :     3.739917
      pz      :     1.860175  p :     4.595642
      px      :     1.281402
      py      :     1.454065
      dz2     :     0.002210  d :     0.018787
      dxz     :     0.002946
      dyz     :     0.002488
      dx2y2   :     0.006872
      dxy     :     0.004270
  6 H s       :     0.961164  s :     0.961164
      pz      :     0.010170  p :     0.023165
      px      :     0.005099
      py      :     0.007896
  7 H s       :     0.962054  s :     0.962054
      pz      :     0.009773  p :     0.023213
      px      :     0.007814
      py      :     0.005626
  8 H s       :     0.962082  s :     0.962082
      pz      :     0.010129  p :     0.023224
      px      :     0.007625
      py      :     0.005470
  9 H s       :     0.985026  s :     0.985026
      pz      :     0.010367  p :     0.020733
      px      :     0.007212
      py      :     0.003154
 10 H s       :     0.987697  s :     0.987697
      pz      :     0.010429  p :     0.020730
      px      :     0.003401
      py      :     0.006900
 11 H s       :     0.984958  s :     0.984958
      pz      :     0.010189  p :     0.020726
      px      :     0.007408
      py      :     0.003129
 12 H s       :     0.987668  s :     0.987668
      pz      :     0.010100  p :     0.020725
      px      :     0.003306
      py      :     0.007319


                     *******************************
                     * LOEWDIN POPULATION ANALYSIS *
                     *******************************

----------------------
LOEWDIN ATOMIC CHARGES
----------------------
   0 C :    0.043739
   1 C :   -0.064258
   2 C :   -0.063833
   3 H :    0.036064
   4 C :    0.039200
   5 O :   -0.132219
   6 H :    0.036015
   7 H :    0.035804
   8 H :    0.035850
   9 H :    0.008855
  10 H :    0.007936
  11 H :    0.008924
  12 H :    0.007921

-------------------------------
LOEWDIN REDUCED ORBITAL CHARGES
-------------------------------
  0 C s       :     2.813774  s :     2.813774
      pz      :     1.068686  p :     2.972555
      px      :     1.025778
      py      :     0.878091
      dz2     :     0.022294  d :     0.169931
      dxz     :     0.039715
      dyz     :     0.026429
      dx2y2   :     0.038718
      dxy     :     0.042776
  1 C s       :     2.800574  s :     2.800574
      pz      :     1.057443  p :     3.153881
      px      :     1.042763
      py      :     1.053674
      dz2     :     0.016011  d :     0.109803
      dxz     :     0.012858
      dyz     :     0.027973
      dx2y2   :     0.018692
      dxy     :     0.034268
  2 C s       :     2.800239  s :     2.800239
      pz      :     1.057129  p :     3.153444
      px      :     1.043894
      py      :     1.052420
      dz2     :     0.016017  d :     0.110151
      dxz     :     0.026495
      dyz     :     0.014568
      dx2y2   :     0.027817
      dxy     :     0.025253
  3 H s       :     0.897042  s :     0.897042
      pz      :     0.029607  p :     0.066894
      px      :     0.014308
      py      :     0.022978
  4 C s       :     2.810722  s :     2.810722
      pz      :     1.067278  p :     2.976084
      px      :     0.850312
      py      :     1.058494
      dz2     :     0.022678  d :     0.173995
      dxz     :     0.039390
      dyz     :     0.028318
      dx2y2   :     0.051472
      dxy     :     0.032136
  5 O s       :     3.430253  s :     3.430253
      pz      :     1.845373  p :     4.666783
      px      :     1.332994
      py      :     1.488416
      dz2     :     0.003762  d :     0.035182
      dxz     :     0.004613
      dyz     :     0.003323
      dx2y2   :     0.015055
      dxy     :     0.008429
  6 H s       :     0.897102  s :     0.897102
      pz      :     0.030947  p :     0.066883
      px      :     0.014337
      py      :     0.021600
  7 H s       :     0.897327  s :     0.897327
      pz      :     0.029742  p :     0.066869
      px      :     0.021569
      py      :     0.015558
  8 H s       :     0.897269  s :     0.897269
      pz      :     0.030788  p :     0.066881
      px      :     0.021010
      py      :     0.015082
  9 H s       :     0.926200  s :     0.926200
      pz      :     0.032273  p :     0.064945
      px      :     0.022123
      py      :     0.010549
 10 H s       :     0.927239  s :     0.927239
      pz      :     0.032409  p :     0.064825
      px      :     0.012672
      py      :     0.019744
 11 H s       :     0.926131  s :     0.926131
      pz      :     0.031745  p :     0.064945
      px      :     0.022787
      py      :     0.010413
 12 H s       :     0.927258  s :     0.927258
      pz      :     0.031389  p :     0.064821
      px      :     0.012335
      py      :     0.021098


                      *****************************
                      * MAYER POPULATION ANALYSIS *
                      *****************************

  NA   - Mulliken gross atomic population
  ZA   - Total nuclear charge
  QA   - Mulliken gross atomic charge
  VA   - Mayer's total valence
  BVA  - Mayer's bonded valence
  FA   - Mayer's free valence

  ATOM       NA         ZA         QA         VA         BVA        FA
  0 C      5.8069     6.0000     0.1931     4.1356     4.1356    -0.0000
  1 C      6.0358     6.0000    -0.0358     4.2968     4.2968    -0.0000
  2 C      6.0299     6.0000    -0.0299     4.2945     4.2945    -0.0000
  3 H      0.9843     1.0000     0.0157     0.9726     0.9726     0.0000
  4 C      5.8056     6.0000     0.1944     4.1393     4.1393     0.0000
  5 O      8.3543     8.0000    -0.3543     2.1706     2.1706     0.0000
  6 H      0.9843     1.0000     0.0157     0.9725     0.9725    -0.0000
  7 H      0.9853     1.0000     0.0147     0.9727     0.9727     0.0000
  8 H      0.9853     1.0000     0.0147     0.9727     0.9727     0.0000
  9 H      1.0058     1.0000    -0.0058     0.9727     0.9727     0.0000
 10 H      1.0084     1.0000    -0.0084     0.9723     0.9723     0.0000
 11 H      1.0057     1.0000    -0.0057     0.9727     0.9727    -0.0000
 12 H      1.0084     1.0000    -0.0084     0.9723     0.9723    -0.0000

  Mayer bond orders larger than 0.100000
B(  0-C ,  1-C ) :   1.1946 B(  0-C ,  5-O ) :   1.0338 B(  0-C ,  9-H ) :   0.9250 
B(  0-C , 11-H ) :   0.9249 B(  1-C ,  2-C ) :   1.2195 B(  1-C ,  3-H ) :   0.9000 
B(  1-C ,  6-H ) :   0.9001 B(  2-C ,  4-C ) :   1.1936 B(  2-C ,  7-H ) :   0.9001 
B(  2-C ,  8-H ) :   0.9000 B(  4-C ,  5-O ) :   1.0413 B(  4-C , 10-H ) :   0.9237 
B(  4-C , 12-H ) :   0.9238 

-------
TIMINGS
-------

Total SCF time: 0 days 0 hours 0 min 6 sec 

Total time                  ....       6.912 sec
Sum of individual times     ....       6.516 sec  ( 94.3%)

Fock matrix formation       ....       5.094 sec  ( 73.7%)
  Split-RI-J                ....       1.691 sec  ( 33.2% of F)
  XC integration            ....       2.978 sec  ( 58.5% of F)
    Basis function eval.    ....       1.096 sec  ( 36.8% of XC)
    Density eval.           ....       0.432 sec  ( 14.5% of XC)
    XC-Functional eval.     ....       0.347 sec  ( 11.6% of XC)
    XC-Potential eval.      ....       0.713 sec  ( 23.9% of XC)
Diagonalization             ....       0.012 sec  (  0.2%)
Density matrix formation    ....       0.001 sec  (  0.0%)
Population analysis         ....       0.016 sec  (  0.2%)
Initial guess               ....       0.258 sec  (  3.7%)
Orbital Transformation      ....       0.000 sec  (  0.0%)
Orbital Orthonormalization  ....       0.000 sec  (  0.0%)
DIIS solution               ....       0.016 sec  (  0.2%)
SOSCF solution              ....       0.007 sec  (  0.1%)
Grid generation             ....       1.112 sec  ( 16.1%)


-------------------------------------------------------------------------------
                          DFT DISPERSION CORRECTION                            
                                                                               
                              DFTD3 V3.1  Rev 1                                
                          USING Becke-Johnson damping                          
-------------------------------------------------------------------------------
The BP86 functional is recognized
Active option DFTDOPT                   ...         4   

molecular C6(AA) [au] = 1171.265896 


            DFT-D V3
 parameters
 s6 scaling factor         :     1.0000 
 a1 scaling factor         :     0.3946 
 s8 scaling factor         :     3.2822 
 a2 scaling factor         :     4.8516 
 ad hoc parameters k1-k3   :    16.0000     1.3333    -4.0000 

 Edisp/kcal,au: -8.695927843656  -0.013857841635 
 E6   /kcal   :  -3.481681616 
 E8   /kcal   :  -5.214246228 
 % E8         :  59.961930704 

-------------------------   ----------------
Dispersion correction           -0.013857842
-------------------------   ----------------


-------------------------   --------------------
FINAL SINGLE POINT ENERGY      -232.231213628923
-------------------------   --------------------

------------------------------------------------------------------------------
                         ORCA SCF GRADIENT CALCULATION
------------------------------------------------------------------------------

Gradient of the Kohn-Sham DFT energy:
Kohn-Sham wavefunction type      ... RKS
Hartree-Fock exchange scaling    ...    0.000
Number of operators              ...    1
Number of atoms                  ...   13
Basis set dimensions             ...  110
Integral neglect threshold       ... 2.5e-11
Integral primitive cutoff        ... 2.5e-12

Nuclear repulsion gradient       ... done
One Electron Gradient            ... done
Pre-screening matrix             ... done
RI-J gradient                    ... done
Exchange-correlation gradient    ... done
Dispersion correction            ... done

------------------
CARTESIAN GRADIENT
------------------

   1   C   :    0.084925931   -0.044815791    0.002263035
   2   C   :    0.003153151    0.103315187   -0.002867655
   3   C   :   -0.095501193    0.041963927   -0.002498471
   4   H   :    0.000713090    0.012951981    0.000653521
   5   C   :   -0.000400400   -0.099124718    0.002907908
   6   O   :    0.032017676   -0.036501800    0.001483377
   7   H   :    0.000711320    0.012827505   -0.001410906
   8   H   :   -0.012038525    0.004742479    0.000746640
   9   H   :   -0.012057251    0.004675063   -0.001302376
  10   H   :    0.015800649    0.010684793    0.007494984
  11   H   :   -0.016776213   -0.010292103    0.007551686
  12   H   :    0.016038339    0.010265712   -0.007657069
  13   H   :   -0.016586574   -0.010692235   -0.007364672

Difference to translation invariance:
           :    0.0000000000   -0.0000000000    0.0000000000

Norm of the cartesian gradient     ...    0.2130771396
RMS gradient                       ...    0.0341196490
MAX gradient                       ...    0.1033151872

-------
TIMINGS
-------

Total SCF gradient time            ...        2.934 sec

One electron gradient       ....       0.036 sec  (  1.2%)
Prescreening matrices       ....       0.037 sec  (  1.2%)
RI-J Coulomb gradient       ....       0.363 sec  ( 12.4%)
XC gradient                 ....       2.378 sec  ( 81.1%)
------------------------------------------------------------------------------
                         ORCA GEOMETRY RELAXATION STEP
------------------------------------------------------------------------------

Reading the OPT-File                    .... done
Getting information on internals        .... done
Copying old internal coords+grads       .... done
Making the new internal coordinates     .... (new redundants).... done
Validating the new internal coordinates .... (new redundants).... done
Calculating the B-matrix                .... done
Calculating the G,G- and P matrices     .... done
Transforming gradient to internals      .... done
Projecting the internal gradient        .... done
Number of atoms                         ....  13
Number of internal coordinates          ....  71
Current Energy                          ....  -232.231213629 Eh
Current gradient norm                   ....     0.213077140 Eh/bohr
Maximum allowed component of the step   ....  0.300
Current trust radius                    ....  0.300
Evaluating the initial hessian          ....  (Almloef) done
Projecting the Hessian                  .... done
Forming the augmented Hessian           .... done
Diagonalizing the augmented Hessian     .... done
Last element of RFO vector              ....  0.974024628
Lowest eigenvalues of augmented Hessian:
 -0.009545402  0.048661484  0.057239280  0.074395881  0.105546091
Length of the computed step             ....  0.232480874
The final length of the internal step   ....  0.232480874
Converting the step to cartesian space:
 Initial RMS(Int)=    0.0275904037
Transforming coordinates:
 Iter   0:  RMS(Cart)=    0.0310630097 RMS(Int)=    0.0273845554
 Iter   1:  RMS(Cart)=    0.0007201064 RMS(Int)=    0.0005814251
 Iter   2:  RMS(Cart)=    0.0000260082 RMS(Int)=    0.0000191543
 Iter   3:  RMS(Cart)=    0.0000009463 RMS(Int)=    0.0000007969
 Iter   4:  RMS(Cart)=    0.0000000354 RMS(Int)=    0.0000000270
Imposing constraints:
 Iter   0:  RMS(Cart)=    0.0000354642 RMS(Int)=    0.0000092599
 Iter   1:  RMS(Cart)=    0.0000072494 RMS(Int)=    0.0000019759
 Iter   2:  RMS(Cart)=    0.0000015393 RMS(Int)=    0.0000004251
 Iter   3:  RMS(Cart)=    0.0000003286 RMS(Int)=    0.0000000960
 Iter   4:  RMS(Cart)=    0.0000000709 RMS(Int)=    0.0000000267
CONVERGED
done
Storing new coordinates                 .... done

                                .--------------------.
          ----------------------|Geometry convergence|-------------------------
          Item                value                   Tolerance       Converged
          ---------------------------------------------------------------------
          RMS gradient        0.0054577030            0.0001000000      NO
          MAX gradient        0.0160456804            0.0003000000      NO
          RMS step            0.0275904037            0.0020000000      NO
          MAX step            0.0604115676            0.0040000000      NO
          ........................................................
          Max(Bonds)      0.0233      Max(Angles)    2.56
          Max(Dihed)        3.46      Max(Improp)    0.00
          ---------------------------------------------------------------------

The optimization has not yet converged - more geometry cycles are needed


    ---------------------------------------------------------------------------
                         Redundant Internal Coordinates
                            (Angstroem and degrees)

        Definition                    Value    dE/dq     Step     New-Value
    ----------------------------------------------------------------------------
     1. B(C   1,C   0)                1.4025 -0.109486 -0.0000    1.4025 C 
     2. B(C   2,C   1)                1.4195 -0.101601 -0.0000    1.4195 C 
     3. B(H   3,C   1)                1.0961 -0.008261  0.0121    1.1082   
     4. B(C   4,C   2)                1.3997 -0.111897  0.0000    1.3997 C 
     5. B(O   5,C   0)                1.3723 -0.059861  0.0000    1.3723 C 
     6. B(O   5,C   4)                1.3622 -0.067262  0.0000    1.3622 C 
     7. B(H   6,C   1)                1.0961 -0.008245  0.0121    1.1082   
     8. B(H   7,C   2)                1.0960 -0.008254  0.0121    1.1081   
     9. B(H   8,C   2)                1.0960 -0.008262  0.0121    1.1081   
    10. B(H   9,C   0)                1.0937 -0.015813  0.0229    1.1166   
    11. B(H  10,C   4)                1.0941 -0.016046  0.0233    1.1174   
    12. B(H  11,C   0)                1.0937 -0.015800  0.0229    1.1166   
    13. B(H  12,C   4)                1.0941 -0.016032  0.0233    1.1174   
    14. A(C   1,C   0,H   9)          113.92  0.001528   -0.67    113.25   
    15. A(H   9,C   0,H  11)          110.00  0.005131   -2.43    107.57   
    16. A(O   5,C   0,H   9)          104.79 -0.007766    2.17    106.96   
    17. A(O   5,C   0,H  11)          104.77 -0.007788    2.18    106.94   
    18. A(C   1,C   0,H  11)          113.88  0.001479   -0.66    113.22   
    19. A(C   1,C   0,O   5)          108.65  0.005776    0.00    108.65 C 
    20. A(C   2,C   1,H   3)          110.28 -0.002698    0.60    110.88   
    21. A(C   0,C   1,H   6)          109.73 -0.002878    0.68    110.41   
    22. A(C   0,C   1,C   2)          106.75  0.004702    0.00    106.75 C 
    23. A(C   0,C   1,H   3)          109.69 -0.002907    0.68    110.37   
    24. A(C   2,C   1,H   6)          110.33 -0.002660    0.59    110.91   
    25. A(H   3,C   1,H   6)          110.00  0.006281   -2.44    107.56   
    26. A(C   1,C   2,H   8)          110.30 -0.002755    0.58    110.88   
    27. A(C   4,C   2,H   8)          109.76 -0.003071    0.70    110.46   
    28. A(H   7,C   2,H   8)          110.00  0.006358   -2.44    107.56   
    29. A(C   1,C   2,C   4)          106.61  0.005079    0.00    106.61 C 
    30. A(C   4,C   2,H   7)          109.78 -0.003058    0.70    110.48   
    31. A(C   1,C   2,H   7)          110.33 -0.002719    0.57    110.90   
    32. A(C   2,C   4,H  10)          113.65  0.000950   -0.67    112.98   
    33. A(O   5,C   4,H  10)          104.78 -0.009162    2.24    107.02   
    34. A(C   2,C   4,H  12)          113.68  0.000982   -0.68    112.99   
    35. A(C   2,C   4,O   5)          109.18  0.009020    0.00    109.18 C 
    36. A(O   5,C   4,H  12)          104.78 -0.009170    2.24    107.02   
    37. A(H  10,C   4,H  12)          110.00  0.005762   -2.56    107.44   
    38. A(C   0,O   5,C   4)          108.81 -0.024577    0.00    108.81 C 
    39. D(H   3,C   1,C   0,H   9)     -3.14 -0.002889    1.21     -1.93   
    40. D(C   2,C   1,C   0,H   9)    116.34 -0.004974    2.30    118.64   
    41. D(C   2,C   1,C   0,O   5)     -0.05 -0.000035    0.00     -0.05 C 
    42. D(H   3,C   1,C   0,O   5)   -119.54  0.002049   -1.09   -120.63   
    43. D(H   6,C   1,C   0,H   9)   -124.10 -0.006995    3.37   -120.73   
    44. D(C   2,C   1,C   0,H  11)   -116.39  0.004963   -2.32   -118.71   
    45. D(H   6,C   1,C   0,O   5)    119.51 -0.002057    1.07    120.58   
    46. D(H   3,C   1,C   0,H  11)    124.12  0.007048   -3.41    120.72   
    47. D(H   6,C   1,C   0,H  11)      3.17  0.002942   -1.25      1.93   
    48. D(H   7,C   2,C   1,H   6)    121.72  0.004331   -2.28    119.44   
    49. D(C   4,C   2,C   1,H   3)    119.15 -0.002159    1.15    120.30   
    50. D(C   4,C   2,C   1,H   6)   -119.13  0.002174   -1.13   -120.26   
    51. D(H   7,C   2,C   1,H   3)      0.00 -0.000002   -0.00     -0.00   
    52. D(H   8,C   2,C   1,H   6)     -0.02 -0.000020    0.02      0.01   
    53. D(H   7,C   2,C   1,C   0)   -119.10  0.002194   -1.15   -120.25   
    54. D(H   8,C   2,C   1,C   0)    119.16 -0.002158    1.16    120.32   
    55. D(H   8,C   2,C   1,H   3)   -121.73 -0.004353    2.30   -119.43   
    56. D(C   4,C   2,C   1,C   0)      0.05  0.000037    0.00      0.05 C 
    57. D(H  12,C   4,C   2,H   8)     -2.91 -0.002878    1.31     -1.60   
    58. D(O   5,C   4,C   2,H   7)    119.48 -0.001982    1.06    120.54   
    59. D(O   5,C   4,C   2,H   8)   -119.49  0.001994   -1.07   -120.56   
    60. D(H  10,C   4,C   2,C   1)   -116.60  0.004865   -2.39   -118.99   
    61. D(H  10,C   4,C   2,H   7)      2.91  0.002903   -1.33      1.59   
    62. D(H  10,C   4,C   2,H   8)    123.94  0.006879   -3.46    120.48   
    63. D(H  12,C   4,C   2,C   1)    116.55 -0.004892    2.38    118.94   
    64. D(O   5,C   4,C   2,C   1)     -0.03 -0.000020    0.00     -0.03 C 
    65. D(H  12,C   4,C   2,H   7)   -123.94 -0.006855    3.45   -120.49   
    66. D(C   4,O   5,C   0,C   1)      0.03  0.000018    0.00      0.03 C 
    67. D(C   4,O   5,C   0,H   9)   -122.09 -0.000424   -0.43   -122.53   
    68. D(C   4,O   5,C   0,H  11)    122.09  0.000390    0.45    122.55   
    69. D(C   0,O   5,C   4,C   2)     -0.00  0.000003    0.00     -0.00 C 
    70. D(C   0,O   5,C   4,H  10)    122.08  0.000626    0.49    122.57   
    71. D(C   0,O   5,C   4,H  12)   -122.11 -0.000654   -0.48   -122.59   
    ----------------------------------------------------------------------------

         *************************************************************
         *                GEOMETRY OPTIMIZATION CYCLE   2            *
         *************************************************************
---------------------------------
CARTESIAN COORDINATES (ANGSTROEM)
---------------------------------
  C     -1.109240   -0.831004    0.017386
  C     -0.039804   -1.737435    0.057740
  C      1.151336   -0.965364    0.049713
  H     -0.076315   -2.416328   -0.817426
  C      0.757560    0.377127    0.006016
  O     -0.602890    0.444126   -0.013011
  H     -0.098702   -2.364148    0.969800
  H      1.777830   -1.214363   -0.829665
  H      1.755657   -1.162369    0.957351
  H     -1.751693   -0.948100   -0.888371
  H      1.124072    0.909179   -0.905644
  H     -1.774557   -0.895789    0.911794
  H      1.101461    0.961421    0.894171

----------------------------
CARTESIAN COORDINATES (A.U.)
----------------------------
  NO LB      ZA    FRAG     MASS         X           Y           Z
   0 C     6.0000    0    12.011   -2.096160   -1.570370    0.032855
   1 C     6.0000    0    12.011   -0.075219   -3.283276    0.109112
   2 C     6.0000    0    12.011    2.175710   -1.824273    0.093944
   3 H     1.0000    0     1.008   -0.144214   -4.566198   -1.544712
   4 C     6.0000    0    12.011    1.431581    0.712667    0.011369
   5 O     8.0000    0    15.999   -1.139297    0.839276   -0.024587
   6 H     1.0000    0     1.008   -0.186520   -4.467592    1.832657
   7 H     1.0000    0     1.008    3.359612   -2.294813   -1.567839
   8 H     1.0000    0     1.008    3.317712   -2.196558    1.809132
   9 H     1.0000    0     1.008   -3.310219   -1.791649   -1.678777
  10 H     1.0000    0     1.008    2.124188    1.718100   -1.711418
  11 H     1.0000    0     1.008   -3.353427   -1.692795    1.723041
  12 H     1.0000    0     1.008    2.081460    1.816823    1.689739

--------------------------------
INTERNAL COORDINATES (ANGSTROEM)
--------------------------------
 C      0   0   0     0.000000000000     0.00000000     0.00000000
 C      1   0   0     1.402475869814     0.00000000     0.00000000
 C      2   1   0     1.419497552782   106.74849848     0.00000000
 H      2   1   3     1.108216679531   110.37015110   239.42081628
 C      3   2   1     1.399732282010   106.60505687     0.04926501
 O      5   3   2     1.362231586797   109.18152005   359.97018148
 H      2   1   3     1.108193130116   110.40526107   120.63392216
 H      3   2   1     1.108061501560   110.89787527   239.74454275
 H      3   2   1     1.108071670148   110.87384320   120.31876609
 H      1   2   3     1.116625340574   113.22165687   118.62758289
 H      5   3   2     1.117378190060   112.94717116   241.02977277
 H      1   2   3     1.116606381158   113.19124136   241.30776784
 H      5   3   2     1.117357373739   112.96324545   118.92038114

---------------------------
INTERNAL COORDINATES (A.U.)
---------------------------
 C      0   0   0     0.000000000000     0.00000000     0.00000000
 C      1   0   0     2.650295303382     0.00000000     0.00000000
 C      2   1   0     2.682461622529   106.74849848     0.00000000
 H      2   1   3     2.094226021357   110.37015110   239.42081628
 C      3   2   1     2.645110673807   106.60505687     0.04926501
 O      5   3   2     2.574244630022   109.18152005   359.97018148
 H      2   1   3     2.094181519413   110.40526107   120.63392216
 H      3   2   1     2.093932777489   110.89787527   239.74454275
 H      3   2   1     2.093951993336   110.87384320   120.31876609
 H      1   2   3     2.110116087881   113.22165687   118.62758289
 H      5   3   2     2.111538767231   112.94717116   241.02977277
 H      1   2   3     2.110080259777   113.19124136   241.30776784
 H      5   3   2     2.111499430084   112.96324545   118.92038114

 One Electron integrals                  ... done
 Pre-screening matrix                    ... done

Diagonalization of the overlap matrix:
Smallest eigenvalue                        ... 5.120e-04
Time for diagonalization                   ...    0.002 sec
Threshold for overlap eigenvalues          ... 1.000e-08
Number of eigenvalues below threshold      ... 0
Time for construction of square roots      ...    0.005 sec
Total time needed                          ...    0.006 sec

-------------------
DFT GRID GENERATION
-------------------

General Integration Accuracy     IntAcc      ...  4.340
Radial Grid Type                 RadialGrid  ... Gauss-Chebyshev
Angular Grid (max. acc.)         AngularGrid ... Lebedev-194
Angular grid pruning method      GridPruning ... 3 (G Style)
Weight generation scheme         WeightScheme... Becke
Basis function cutoff            BFCut       ...    1.0000e-11
Integration weight cutoff        WCut        ...    1.0000e-14
Grids for H and He will be reduced by one unit

# of grid points (after initial pruning)     ...  28694 (   0.0 sec)
# of grid points (after weights+screening)   ...  26537 (   0.0 sec)
nearest neighbour list constructed           ...    0.0 sec
Grid point re-assignment to atoms done       ...    0.0 sec
Grid point division into batches done        ...    0.0 sec
Reduced shell lists constructed in    0.1 sec

Total number of grid points                  ...    26537
Total number of batches                      ...      420
Average number of points per batch           ...       63
Average number of grid points per atom       ...     2041
Average number of shells per batch           ...    43.98 (81.44%)
Average number of basis functions per batch  ...    89.43 (81.30%)
Average number of large shells per batch     ...    36.68 (83.42%)
Average number of large basis fcns per batch ...    73.11 (81.75%)
Maximum spatial batch extension              ...  19.36, 19.86, 19.47 au
Average spatial batch extension              ...   3.20,  3.16,  2.94 au

Time for grid setup =    0.166 sec

--------------
SCF ITERATIONS
--------------
ITER       Energy         Delta-E        Max-DP      RMS-DP      [F,P]     Damp
               ***  Starting incremental Fock matrix formation  ***
  0   -232.2233351993   0.000000000000 0.00998138  0.00040772  0.0067505 0.7000
                      *** Initiating the SOSCF procedure ***
                      *** Re-Reading the Fockian *** 
                      *** Removing any level shift *** 
ITER      Energy       Delta-E        Grad      Rot      Max-DP    RMS-DP
  1   -232.22355240  -0.0002172014  0.001329  0.001329  0.027253  0.001118
               *** Restarting incremental Fock matrix formation ***
  2   -232.22401546  -0.0004630555  0.001352  0.002980  0.005116  0.000203
  3   -232.22396559   0.0000498665  0.002839  0.001245  0.003691  0.000119
  4   -232.22404383  -0.0000782385  0.000181  0.000255  0.000670  0.000032
  5   -232.22404371   0.0000001190  0.000157  0.000145  0.000410  0.000016
  6   -232.22404443  -0.0000007253  0.000037  0.000046  0.000115  0.000006
  7   -232.22404444  -0.0000000053  0.000029  0.000025  0.000049  0.000003
  8   -232.22404447  -0.0000000258  0.000007  0.000009  0.000029  0.000001
  9   -232.22404447  -0.0000000019  0.000007  0.000005  0.000015  0.000001
                 **** Energy Check signals convergence ****
              ***Rediagonalizing the Fockian in SOSCF/NRSCF***

               *****************************************************
               *                     SUCCESS                       *
               *           SCF CONVERGED AFTER  10 CYCLES          *
               *****************************************************

Setting up the final grid:

General Integration Accuracy     IntAcc      ...  5.010
Radial Grid Type                 RadialGrid  ... Gauss-Chebyshev
Angular Grid (max. acc.)         AngularGrid ... Lebedev-434
Angular grid pruning method      GridPruning ... 3 (G Style)
Weight generation scheme         WeightScheme... Becke
Basis function cutoff            BFCut       ...    1.0000e-11
Integration weight cutoff        WCut        ...    1.0000e-14
Grids for H and He will be reduced by one unit

# of grid points (after initial pruning)     ... 107170 (   0.0 sec)
# of grid points (after weights+screening)   ...  98090 (   0.1 sec)
nearest neighbour list constructed           ...    0.0 sec
Grid point re-assignment to atoms done       ...    0.0 sec
Grid point division into batches done        ...    0.5 sec
Reduced shell lists constructed in    0.8 sec

Total number of grid points                  ...    98090
Total number of batches                      ...     1539
Average number of points per batch           ...       63
Average number of grid points per atom       ...     7545
Average number of shells per batch           ...    41.28 (76.44%)
Average number of basis functions per batch  ...    83.42 (75.84%)
Average number of large shells per batch     ...    33.74 (81.74%)
Average number of large basis fcns per batch ...    66.56 (79.78%)
Maximum spatial batch extension              ...  18.48, 16.93, 21.42 au
Average spatial batch extension              ...   2.12,  2.08,  2.02 au

Final grid set up in    1.1 sec
Final integration                            ... done (   0.6 sec)
Change in XC energy                          ...    -0.000123176
Integrated number of electrons               ...    39.999983696
Previous integrated no of electrons          ...    40.000303753
Total Energy       :         -232.22416764 Eh           -6319.14086 eV
  Last Energy change         ...    8.3469e-10  Tolerance :   1.0000e-08
  Last MAX-Density change    ...    5.3757e-07  Tolerance :   1.0000e-07
             **** THE GBW FILE WAS UPDATED (DPP2F_TT_Input_Furan_2_Optimize_Monomer_Hydrogenated.gbw) ****
             **** DENSITY FILE WAS UPDATED (DPP2F_TT_Input_Furan_2_Optimize_Monomer_Hydrogenated.scfp) ****
             **** ENERGY FILE WAS UPDATED (DPP2F_TT_Input_Furan_2_Optimize_Monomer_Hydrogenated.en.tmp) ****
             **** THE GBW FILE WAS UPDATED (DPP2F_TT_Input_Furan_2_Optimize_Monomer_Hydrogenated.gbw) ****
             **** DENSITY FILE WAS UPDATED (DPP2F_TT_Input_Furan_2_Optimize_Monomer_Hydrogenated.scfp) ****
Total SCF time: 0 days 0 hours 0 min 7 sec 


-------------------------------------------------------------------------------
                          DFT DISPERSION CORRECTION                            
                                                                               
                              DFTD3 V3.1  Rev 1                                
                          USING Becke-Johnson damping                          
-------------------------------------------------------------------------------
-------------------------   ----------------
Dispersion correction           -0.013770063
-------------------------   ----------------


-------------------------   --------------------
FINAL SINGLE POINT ENERGY      -232.237937705850
-------------------------   --------------------

------------------------------------------------------------------------------
                         ORCA SCF GRADIENT CALCULATION
------------------------------------------------------------------------------

Gradient of the Kohn-Sham DFT energy:
Kohn-Sham wavefunction type      ... RKS
Hartree-Fock exchange scaling    ...    0.000
Number of operators              ...    1
Number of atoms                  ...   13
Basis set dimensions             ...  110
Integral neglect threshold       ... 2.5e-11
Integral primitive cutoff        ... 2.5e-12

Nuclear repulsion gradient       ... done
One Electron Gradient            ... done
Pre-screening matrix             ... done
RI-J gradient                    ... done
Exchange-correlation gradient    ... done
Dispersion correction            ... done

------------------
CARTESIAN GRADIENT
------------------

   1   C   :    0.099833643   -0.037608607    0.002298742
   2   C   :    0.001525848    0.114103836   -0.003234819
   3   C   :   -0.104651762    0.047900913   -0.002751717
   4   H   :    0.000284520    0.005996719   -0.003181448
   5   C   :   -0.013308506   -0.109875412    0.003052699
   6   O   :    0.030289530   -0.034612817    0.001388538
   7   H   :    0.000190697    0.006131430    0.002794679
   8   H   :   -0.005585918    0.002247270   -0.003121386
   9   H   :   -0.005692256    0.002419150    0.002868412
  10   H   :    0.005469652    0.004759261   -0.001879793
  11   H   :   -0.006880006   -0.003233713   -0.001941476
  12   H   :    0.005453020    0.004876601    0.001768160
  13   H   :   -0.006928462   -0.003104631    0.001939409

Difference to translation invariance:
           :   -0.0000000000   -0.0000000000   -0.0000000000

Norm of the cartesian gradient     ...    0.2290616705
RMS gradient                       ...    0.0366792224
MAX gradient                       ...    0.1141038359

-------
TIMINGS
-------

Total SCF gradient time            ...        2.891 sec

One electron gradient       ....       0.033 sec  (  1.2%)
Prescreening matrices       ....       0.034 sec  (  1.2%)
RI-J Coulomb gradient       ....       0.342 sec  ( 11.8%)
XC gradient                 ....       2.369 sec  ( 81.9%)
------------------------------------------------------------------------------
                         ORCA GEOMETRY RELAXATION STEP
------------------------------------------------------------------------------

Reading the OPT-File                    .... done
Getting information on internals        .... done
Copying old internal coords+grads       .... done
Making the new internal coordinates     .... (new redundants).... done
Validating the new internal coordinates .... (new redundants).... done
Calculating the B-matrix                .... done
Calculating the G,G- and P matrices     .... done
Transforming gradient to internals      .... done
Projecting the internal gradient        .... done
Number of atoms                         ....  13
Number of internal coordinates          ....  71
Current Energy                          ....  -232.237937706 Eh
Current gradient norm                   ....     0.229061670 Eh/bohr
Maximum allowed component of the step   ....  0.300
Current trust radius                    ....  0.300
Updating the Hessian (BFGS)             .... done
Forming the augmented Hessian           .... done
Diagonalizing the augmented Hessian     .... done
Last element of RFO vector              ....  0.973228347
Lowest eigenvalues of augmented Hessian:
 -0.004034131  0.048661018  0.057239185  0.071915133  0.074396468
Length of the computed step             ....  0.236162815
The final length of the internal step   ....  0.236162815
Converting the step to cartesian space:
 Initial RMS(Int)=    0.0280273697
Transforming coordinates:
 Iter   0:  RMS(Cart)=    0.0296467369 RMS(Int)=    0.0279798400
 Iter   1:  RMS(Cart)=    0.0005992406 RMS(Int)=    0.0004476272
 Iter   2:  RMS(Cart)=    0.0000207882 RMS(Int)=    0.0000175713
 Iter   3:  RMS(Cart)=    0.0000008095 RMS(Int)=    0.0000006235
 Iter   4:  RMS(Cart)=    0.0000000303 RMS(Int)=    0.0000000245
Imposing constraints:
 Iter   0:  RMS(Cart)=    0.0000619840 RMS(Int)=    0.0000139712
 Iter   1:  RMS(Cart)=    0.0000109399 RMS(Int)=    0.0000030861
 Iter   2:  RMS(Cart)=    0.0000023680 RMS(Int)=    0.0000007064
 Iter   3:  RMS(Cart)=    0.0000005245 RMS(Int)=    0.0000001884
 Iter   4:  RMS(Cart)=    0.0000001216 RMS(Int)=    0.0000000709
 Iter   5:  RMS(Cart)=    0.0000000340 RMS(Int)=    0.0000000348
CONVERGED
done
Storing new coordinates                 .... done

                                .--------------------.
          ----------------------|Geometry convergence|-------------------------
          Item                value                   Tolerance       Converged
          ---------------------------------------------------------------------
          Energy change      -0.0067240769            0.0000050000      NO
          RMS gradient        0.0020503088            0.0001000000      NO
          MAX gradient        0.0046917695            0.0003000000      NO
          RMS step            0.0280273697            0.0020000000      NO
          MAX step            0.0661816424            0.0040000000      NO
          ........................................................
          Max(Bonds)      0.0082      Max(Angles)    3.06
          Max(Dihed)        3.79      Max(Improp)    0.00
          ---------------------------------------------------------------------

The optimization has not yet converged - more geometry cycles are needed


    ---------------------------------------------------------------------------
                         Redundant Internal Coordinates
                            (Angstroem and degrees)

        Definition                    Value    dE/dq     Step     New-Value
    ----------------------------------------------------------------------------
     1. B(C   1,C   0)                1.4025 -0.108554  0.0000    1.4025 C 
     2. B(C   2,C   1)                1.4195 -0.097935  0.0000    1.4195 C 
     3. B(H   3,C   1)                1.1082 -0.001170  0.0043    1.1125   
     4. B(C   4,C   2)                1.3997 -0.110943  0.0000    1.3997 C 
     5. B(O   5,C   0)                1.3723 -0.053208 -0.0000    1.3723 C 
     6. B(O   5,C   4)                1.3622 -0.060182 -0.0000    1.3622 C 
     7. B(H   6,C   1)                1.1082 -0.001178  0.0043    1.1125   
     8. B(H   7,C   2)                1.1081 -0.001186  0.0043    1.1124   
     9. B(H   8,C   2)                1.1081 -0.001186  0.0043    1.1124   
    10. B(H   9,C   0)                1.1166 -0.002122  0.0079    1.1245   
    11. B(H  10,C   4)                1.1174 -0.002212  0.0082    1.1255   
    12. B(H  11,C   0)                1.1166 -0.002115  0.0079    1.1245   
    13. B(H  12,C   4)                1.1174 -0.002214  0.0082    1.1255   
    14. A(C   1,C   0,H   9)          113.22  0.000112   -0.45    112.77   
    15. A(H   9,C   0,H  11)          107.51  0.003798   -2.90    104.61   
    16. A(O   5,C   0,H   9)          106.96 -0.003885    2.11    109.07   
    17. A(O   5,C   0,H  11)          106.95 -0.003894    2.12    109.07   
    18. A(C   1,C   0,H  11)          113.19  0.000081   -0.43    112.76   
    19. A(C   1,C   0,O   5)          108.65  0.003248    0.00    108.65 C 
    20. A(C   2,C   1,H   3)          110.88 -0.002790    0.73    111.61   
[...]
N(Beta)            :       19.999996051314 electrons
N(Total)           :       39.999992102628 electrons
E(X)               :      -32.000052802534 Eh       
E(C)               :       -1.458736987739 Eh       
E(XC)              :      -33.458789790273 Eh       
DFET-embed. en.    :        0.000000000000 Eh       

---------------
SCF CONVERGENCE
---------------

  Last Energy change         ...    3.3634e-09  Tolerance :   1.0000e-08
  Last MAX-Density change    ...    3.3190e-06  Tolerance :   1.0000e-07
  Last RMS-Density change    ...    2.1025e-07  Tolerance :   5.0000e-09
  Last Orbital Gradient      ...    7.9042e-07  Tolerance :   1.0000e-05
  Last Orbital Rotation      ...    1.7678e-06  Tolerance :   1.0000e-05

             **** THE GBW FILE WAS UPDATED (DPP2F_TT_Input_Furan_2_Optimize_Monomer_Hydrogenated.gbw) ****
             **** DENSITY FILE WAS UPDATED (DPP2F_TT_Input_Furan_2_Optimize_Monomer_Hydrogenated.scfp) ****
             **** ENERGY FILE WAS UPDATED (DPP2F_TT_Input_Furan_2_Optimize_Monomer_Hydrogenated.en.tmp) ****
             **** THE GBW FILE WAS UPDATED (DPP2F_TT_Input_Furan_2_Optimize_Monomer_Hydrogenated.gbw) ****
             **** DENSITY FILE WAS UPDATED (DPP2F_TT_Input_Furan_2_Optimize_Monomer_Hydrogenated.scfp) ****
----------------
ORBITAL ENERGIES
----------------

  NO   OCC          E(Eh)            E(eV) 
   0   2.0000     -18.764976      -510.6210 
   1   2.0000      -9.941652      -270.5261 
   2   2.0000      -9.940369      -270.4912 
   3   2.0000      -9.901805      -269.4418 
   4   2.0000      -9.901234      -269.4263 
   5   2.0000      -0.973380       -26.4870 
   6   2.0000      -0.740705       -20.1556 
   7   2.0000      -0.684806       -18.6345 
   8   2.0000      -0.540924       -14.7193 
   9   2.0000      -0.529451       -14.4071 
  10   2.0000      -0.468653       -12.7527 
  11   2.0000      -0.467046       -12.7090 
  12   2.0000      -0.386368       -10.5136 
  13   2.0000      -0.378844       -10.3089 
  14   2.0000      -0.357649        -9.7321 
  15   2.0000      -0.337208        -9.1759 
  16   2.0000      -0.325342        -8.8530 
  17   2.0000      -0.279589        -7.6080 
  18   2.0000      -0.255600        -6.9552 
  19   2.0000      -0.189600        -5.1593 
  20   0.0000       0.021122         0.5748 
  21   0.0000       0.027991         0.7617 
  22   0.0000       0.074284         2.0214 
  23   0.0000       0.088518         2.4087 
  24   0.0000       0.094723         2.5775 
  25   0.0000       0.120818         3.2876 
  26   0.0000       0.133932         3.6445 
  27   0.0000       0.149799         4.0762 
  28   0.0000       0.151575         4.1246 
  29   0.0000       0.202055         5.4982 
  30   0.0000       0.214956         5.8493 
  31   0.0000       0.305819         8.3217 
  32   0.0000       0.348277         9.4771 
  33   0.0000       0.358121         9.7450 
  34   0.0000       0.394986        10.7481 
  35   0.0000       0.423187        11.5155 
  36   0.0000       0.423444        11.5225 
  37   0.0000       0.479940        13.0598 
  38   0.0000       0.480005        13.0616 
  39   0.0000       0.503045        13.6885 
  40   0.0000       0.536800        14.6071 
  41   0.0000       0.555025        15.1030 
  42   0.0000       0.591647        16.0995 
  43   0.0000       0.596603        16.2344 
  44   0.0000       0.601690        16.3728 
  45   0.0000       0.610716        16.6184 
  46   0.0000       0.622833        16.9482 
  47   0.0000       0.629064        17.1177 
  48   0.0000       0.638898        17.3853 
  49   0.0000       0.659824        17.9547 
  50   0.0000       0.660764        17.9803 
  51   0.0000       0.677711        18.4414 
  52   0.0000       0.696383        18.9495 
  53   0.0000       0.788937        21.4681 
  54   0.0000       0.845087        22.9960 
  55   0.0000       0.866021        23.5656 
  56   0.0000       0.894990        24.3539 
  57   0.0000       0.936658        25.4878 
  58   0.0000       1.120044        30.4780 
  59   0.0000       1.157984        31.5104 
  60   0.0000       1.311691        35.6929 
  61   0.0000       1.325445        36.0672 
  62   0.0000       1.340489        36.4766 
  63   0.0000       1.348916        36.7059 
  64   0.0000       1.360730        37.0273 
  65   0.0000       1.488522        40.5047 
  66   0.0000       1.532181        41.6928 
  67   0.0000       1.538711        41.8705 
  68   0.0000       1.605126        43.6777 
  69   0.0000       1.664793        45.3013 
  70   0.0000       1.675199        45.5845 
  71   0.0000       1.703547        46.3559 
  72   0.0000       1.730857        47.0990 
  73   0.0000       1.743835        47.4522 
  74   0.0000       1.752955        47.7003 
  75   0.0000       1.772473        48.2315 
  76   0.0000       1.775705        48.3194 
  77   0.0000       1.778005        48.3820 
  78   0.0000       1.821060        49.5536 
  79   0.0000       1.823529        49.6207 
  80   0.0000       1.856126        50.5078 
  81   0.0000       1.862338        50.6768 
  82   0.0000       1.904770        51.8314 
  83   0.0000       1.909889        51.9707 
  84   0.0000       1.987031        54.0699 
  85   0.0000       2.022740        55.0415 
  86   0.0000       2.068446        56.2853 
  87   0.0000       2.079531        56.5869 
  88   0.0000       2.237569        60.8873 
  89   0.0000       2.262548        61.5671 
  90   0.0000       2.269226        61.7488 
  91   0.0000       2.289073        62.2888 
  92   0.0000       2.329171        63.3800 
  93   0.0000       2.533573        68.9420 
  94   0.0000       2.559778        69.6551 
  95   0.0000       2.565473        69.8101 
  96   0.0000       2.583622        70.3039 
  97   0.0000       2.674930        72.7885 
  98   0.0000       2.686457        73.1022 
  99   0.0000       2.725260        74.1581 
 100   0.0000       2.770582        75.3914 
 101   0.0000       2.794758        76.0492 
 102   0.0000       2.799388        76.1752 
 103   0.0000       2.980232        81.0962 
 104   0.0000       3.026793        82.3632 
 105   0.0000       3.042406        82.7881 
 106   0.0000       3.049954        82.9935 
 107   0.0000       3.110076        84.6295 
 108   0.0000       3.269629        88.9711 
 109   0.0000       3.465173        94.2922 

                    ********************************
                    * MULLIKEN POPULATION ANALYSIS *
                    ********************************

-----------------------
MULLIKEN ATOMIC CHARGES
-----------------------
   0 C :    0.176214
   1 C :   -0.053633
   2 C :   -0.049147
   3 H :    0.020218
   4 C :    0.176566
   5 O :   -0.322041
   6 H :    0.020189
   7 H :    0.019640
   8 H :    0.019694
   9 H :   -0.000669
  10 H :   -0.003242
  11 H :   -0.000526
  12 H :   -0.003262
Sum of atomic charges:   -0.0000000

--------------------------------
MULLIKEN REDUCED ORBITAL CHARGES
--------------------------------
  0 C s       :     2.924720  s :     2.924720
      pz      :     1.036163  p :     2.828504
      px      :     1.006669
      py      :     0.785672
      dz2     :     0.008107  d :     0.070562
      dxz     :     0.013681
      dyz     :     0.013953
      dx2y2   :     0.017256
      dxy     :     0.017566
  1 C s       :     2.910667  s :     2.910667
      pz      :     1.040617  p :     3.102766
      px      :     0.987555
      py      :     1.074595
      dz2     :     0.005053  d :     0.040199
      dxz     :     0.007107
      dyz     :     0.009589
      dx2y2   :     0.007608
      dxy     :     0.010842
  2 C s       :     2.909559  s :     2.909559
      pz      :     1.040337  p :     3.099296
      px      :     1.058560
      py      :     1.000399
      dz2     :     0.005047  d :     0.040292
      dxz     :     0.009394
      dyz     :     0.007389
      dx2y2   :     0.010119
      dxy     :     0.008343
  3 H s       :     0.957395  s :     0.957395
      pz      :     0.009566  p :     0.022387
      px      :     0.004475
      py      :     0.008346
  4 C s       :     2.920700  s :     2.920700
      pz      :     1.035850  p :     2.830747
      px      :     0.761139
      py      :     1.033759
      dz2     :     0.008162  d :     0.071986
      dxz     :     0.018489
      dyz     :     0.009773
      dx2y2   :     0.020220
      dxy     :     0.015343
  5 O s       :     3.734595  s :     3.734595
      pz      :     1.834205  p :     4.568877
      px      :     1.279317
      py      :     1.455355
      dz2     :     0.002236  d :     0.018569
      dxz     :     0.002832
      dyz     :     0.002501
      dx2y2   :     0.006857
      dxy     :     0.004143
  6 H s       :     0.957434  s :     0.957434
      pz      :     0.010003  p :     0.022377
      px      :     0.004489
      py      :     0.007885
  7 H s       :     0.957941  s :     0.957941
      pz      :     0.009626  p :     0.022419
      px      :     0.007718
      py      :     0.005074
  8 H s       :     0.957880  s :     0.957880
      pz      :     0.009957  p :     0.022425
      px      :     0.007546
      py      :     0.004923
  9 H s       :     0.980631  s :     0.980631
      pz      :     0.009943  p :     0.020039
      px      :     0.007324
      py      :     0.002772
 10 H s       :     0.983218  s :     0.983218
      pz      :     0.009998  p :     0.020025
      px      :     0.003405
      py      :     0.006622
 11 H s       :     0.980494  s :     0.980494
      pz      :     0.009838  p :     0.020032
      px      :     0.007519
      py      :     0.002676
 12 H s       :     0.983240  s :     0.983240
      pz      :     0.009748  p :     0.020022
      px      :     0.003288
      py      :     0.006986


                     *******************************
                     * LOEWDIN POPULATION ANALYSIS *
                     *******************************

----------------------
LOEWDIN ATOMIC CHARGES
----------------------
   0 C :    0.039803
   1 C :   -0.069884
   2 C :   -0.069613
   3 H :    0.036719
   4 C :    0.034900
   5 O :   -0.118230
   6 H :    0.036693
   7 H :    0.036556
   8 H :    0.036598
   9 H :    0.009655
  10 H :    0.008540
  11 H :    0.009745
  12 H :    0.008517

-------------------------------
LOEWDIN REDUCED ORBITAL CHARGES
-------------------------------
  0 C s       :     2.821393  s :     2.821393
      pz      :     1.072594  p :     2.970587
      px      :     1.023432
      py      :     0.874561
      dz2     :     0.019054  d :     0.168217
      dxz     :     0.039559
      dyz     :     0.027658
      dx2y2   :     0.038410
      dxy     :     0.043537
  1 C s       :     2.806965  s :     2.806965
      pz      :     1.066105  p :     3.153935
      px      :     1.045372
      py      :     1.042459
      dz2     :     0.013286  d :     0.108983
      dxz     :     0.013043
      dyz     :     0.029285
      dx2y2   :     0.019065
      dxy     :     0.034304
  2 C s       :     2.806654  s :     2.806654
      pz      :     1.065844  p :     3.153620
      px      :     1.035499
      py      :     1.052277
      dz2     :     0.013281  d :     0.109338
      dxz     :     0.027461
      dyz     :     0.015113
      dx2y2   :     0.027927
      dxy     :     0.025555
  3 H s       :     0.899168  s :     0.899168
      pz      :     0.027860  p :     0.064113
      px      :     0.013007
      py      :     0.023246
  4 C s       :     2.818364  s :     2.818364
      pz      :     1.071541  p :     2.974481
      px      :     0.846943
      py      :     1.055997
      dz2     :     0.019260  d :     0.172255
      dxz     :     0.042304
      dyz     :     0.026598
      dx2y2   :     0.050919
      dxy     :     0.033173
  5 O s       :     3.429759  s :     3.429759
      pz      :     1.824178  p :     4.653528
      px      :     1.336825
      py      :     1.492525
      dz2     :     0.003755  d :     0.034943
      dxz     :     0.004522
      dyz     :     0.003335
      dx2y2   :     0.015129
      dxy     :     0.008203
  6 H s       :     0.899196  s :     0.899196
      pz      :     0.029241  p :     0.064111
      px      :     0.013039
      py      :     0.021831
  7 H s       :     0.899355  s :     0.899355
      pz      :     0.028016  p :     0.064088
      px      :     0.021641
      py      :     0.014431
  8 H s       :     0.899311  s :     0.899311
      pz      :     0.029054  p :     0.064091
      px      :     0.021104
      py      :     0.013934
  9 H s       :     0.929393  s :     0.929393
      pz      :     0.029929  p :     0.060952
      px      :     0.021869
      py      :     0.009154
 10 H s       :     0.930679  s :     0.930679
      pz      :     0.030019  p :     0.060781
      px      :     0.012297
      py      :     0.018465
 11 H s       :     0.929303  s :     0.929303
      pz      :     0.029595  p :     0.060952
      px      :     0.022562
      py      :     0.008796
 12 H s       :     0.930704  s :     0.930704
      pz      :     0.029190  p :     0.060779
      px      :     0.011874
      py      :     0.019715


                      *****************************
                      * MAYER POPULATION ANALYSIS *
                      *****************************

  NA   - Mulliken gross atomic population
  ZA   - Total nuclear charge
  QA   - Mulliken gross atomic charge
  VA   - Mayer's total valence
  BVA  - Mayer's bonded valence
  FA   - Mayer's free valence

  ATOM       NA         ZA         QA         VA         BVA        FA
  0 C      5.8238     6.0000     0.1762     4.1086     4.1086     0.0000
  1 C      6.0536     6.0000    -0.0536     4.2383     4.2383     0.0000
  2 C      6.0491     6.0000    -0.0491     4.2356     4.2356    -0.0000
  3 H      0.9798     1.0000     0.0202     0.9719     0.9719     0.0000
  4 C      5.8234     6.0000     0.1766     4.1115     4.1115    -0.0000
  5 O      8.3220     8.0000    -0.3220     2.2112     2.2112    -0.0000
  6 H      0.9798     1.0000     0.0202     0.9718     0.9718    -0.0000
  7 H      0.9804     1.0000     0.0196     0.9719     0.9719    -0.0000
  8 H      0.9803     1.0000     0.0197     0.9719     0.9719    -0.0000
  9 H      1.0007     1.0000    -0.0007     0.9686     0.9686    -0.0000
 10 H      1.0032     1.0000    -0.0032     0.9680     0.9680     0.0000
 11 H      1.0005     1.0000    -0.0005     0.9687     0.9687     0.0000
 12 H      1.0033     1.0000    -0.0033     0.9680     0.9680    -0.0000

  Mayer bond orders larger than 0.100000
B(  0-C ,  1-C ) :   1.1699 B(  0-C ,  5-O ) :   1.0455 B(  0-C ,  9-H ) :   0.9239 
B(  0-C , 11-H ) :   0.9238 B(  1-C ,  2-C ) :   1.1906 B(  1-C ,  3-H ) :   0.9054 
B(  1-C ,  6-H ) :   0.9054 B(  2-C ,  4-C ) :   1.1683 B(  2-C ,  7-H ) :   0.9055 
B(  2-C ,  8-H ) :   0.9055 B(  4-C ,  5-O ) :   1.0538 B(  4-C , 10-H ) :   0.9225 
B(  4-C , 12-H ) :   0.9225 

-------
TIMINGS
-------

Total SCF time: 0 days 0 hours 0 min 4 sec 

Total time                  ....       4.419 sec
Sum of individual times     ....       4.269 sec  ( 96.6%)

Fock matrix formation       ....       3.118 sec  ( 70.6%)
  Split-RI-J                ....       0.799 sec  ( 25.6% of F)
  XC integration            ....       2.017 sec  ( 64.7% of F)
    Basis function eval.    ....       0.622 sec  ( 30.8% of XC)
    Density eval.           ....       0.452 sec  ( 22.4% of XC)
    XC-Functional eval.     ....       0.197 sec  (  9.8% of XC)
    XC-Potential eval.      ....       0.364 sec  ( 18.0% of XC)
Diagonalization             ....       0.002 sec  (  0.0%)
Density matrix formation    ....       0.001 sec  (  0.0%)
Population analysis         ....       0.014 sec  (  0.3%)
Initial guess               ....       0.002 sec  (  0.1%)
Orbital Transformation      ....       0.000 sec  (  0.0%)
Orbital Orthonormalization  ....       0.001 sec  (  0.0%)
DIIS solution               ....       0.000 sec  (  0.0%)
SOSCF solution              ....       0.007 sec  (  0.2%)
Grid generation             ....       1.124 sec  ( 25.4%)


-------------------------------------------------------------------------------
                          DFT DISPERSION CORRECTION                            
                                                                               
                              DFTD3 V3.1  Rev 1                                
                          USING Becke-Johnson damping                          
-------------------------------------------------------------------------------
The BP86 functional is recognized
Active option DFTDOPT                   ...         4   

molecular C6(AA) [au] = 1171.725556 


            DFT-D V3
 parameters
 s6 scaling factor         :     1.0000 
 a1 scaling factor         :     0.3946 
 s8 scaling factor         :     3.2822 
 a2 scaling factor         :     4.8516 
 ad hoc parameters k1-k3   :    16.0000     1.3333    -4.0000 

 Edisp/kcal,au: -8.591170901059  -0.013690900839 
 E6   /kcal   :  -3.437541805 
 E8   /kcal   :  -5.153629096 
 % E8         :  59.987505260 

-------------------------   ----------------
Dispersion correction           -0.013690901
-------------------------   ----------------


-------------------------   --------------------
FINAL SINGLE POINT ENERGY      -232.240522812276
-------------------------   --------------------

                                *** OPTIMIZATION RUN DONE ***

                            ***************************************
                            *     ORCA property calculations      *
                            ***************************************

                                    ---------------------
                                    Active property flags
                                    ---------------------
   (+) Dipole Moment


------------------------------------------------------------------------------
                       ORCA ELECTRIC PROPERTIES CALCULATION
------------------------------------------------------------------------------

Dipole Moment Calculation                       ... on
Quadrupole Moment Calculation                   ... off
Polarizability Calculation                      ... off
GBWName                                         ... DPP2F_TT_Input_Furan_2_Optimize_Monomer_Hydrogenated.gbw
Electron density file                           ... DPP2F_TT_Input_Furan_2_Optimize_Monomer_Hydrogenated.scfp
The origin for moment calculation is the CENTER OF MASS  = ( 0.028185, -0.976980  0.042770)

-------------
DIPOLE MOMENT
-------------
                                X             Y             Z
Electronic contribution:     -1.47969       2.25769      -0.08368
Nuclear contribution   :      1.84742      -2.85211       0.10563
                        -----------------------------------------
Total Dipole Moment    :      0.36773      -0.59442       0.02196
                        -----------------------------------------
Magnitude (a.u.)       :      0.69931
Magnitude (Debye)      :      1.77751



--------------------
Rotational spectrum 
--------------------
 
Rotational constants in cm-1:     0.259687     0.257345     0.142778 
Rotational constants in MHz :  7785.208732  7715.012313  4280.378873 

 Dipole components along the rotational axes: 
x,y,z [a.u.] :    -0.048818    -0.697605     0.000071 
x,y,z [Debye]:    -0.124085    -1.773172     0.000180 

 

Timings for individual modules:

Sum of individual times         ...       51.150 sec (=   0.852 min)
GTO integral calculation        ...        1.026 sec (=   0.017 min)   2.0 %
SCF iterations                  ...       34.400 sec (=   0.573 min)  67.3 %
SCF Gradient evaluation         ...       14.836 sec (=   0.247 min)  29.0 %
Geometry relaxation             ...        0.888 sec (=   0.015 min)   1.7 %
                             ****ORCA TERMINATED NORMALLY****
TOTAL RUN TIME: 0 days 0 hours 0 minutes 52 seconds 102 msec
