
                                 *****************
                                 * O   R   C   A *
                                 *****************

           --- An Ab Initio, DFT and Semiempirical electronic structure package ---

                  #######################################################
                  #                        -***-                        #
                  #          Department of theory and spectroscopy      #
                  #               Directorship: Frank Neese             #
                  #        Max Planck Institute fuer Kohlenforschung    #
                  #                Kaiser Wilhelm Platz 1               #
                  #                 D-45470 Muelheim/Ruhr               #
                  #                      Germany                        #
                  #                                                     #
                  #                  All rights reserved                #
                  #                        -***-                        #
                  #######################################################


                         Program Version 4.2.0 -  RELEASE  -


 With contributions from (in alphabetic order):
   Daniel Aravena         : Magnetic Suceptibility
   Michael Atanasov       : Ab Initio Ligand Field Theory (pilot matlab implementation)
   Alexander A. Auer      : GIAO ZORA, VPT2
   Ute Becker             : Parallelization
   Giovanni Bistoni       : ED, misc. LED, open-shell LED, HFLED
   Martin Brehm           : Molecular dynamics
   Dmytro Bykov           : SCF Hessian
   Vijay G. Chilkuri      : MRCI spin determinant printing, contributions to CSF-ICE
   Dipayan Datta          : RHF DLPNO-CCSD density
   Achintya Kumar Dutta   : EOM-CC, STEOM-CC
   Dmitry Ganyushin       : Spin-Orbit,Spin-Spin,Magnetic field MRCI
   Miquel Garcia          : C-PCM Hessian, Gaussian charge scheme
   Yang Guo               : DLPNO-NEVPT2, CIM, IAO-localization
   Andreas Hansen         : Spin unrestricted coupled pair/coupled cluster methods
   Benjamin Helmich-Paris : CASSCF linear response (MC-RPA)
   Lee Huntington         : MR-EOM, pCC
   Robert Izsak           : Overlap fitted RIJCOSX, COSX-SCS-MP3, EOM
   Christian Kollmar      : KDIIS, OOCD, Brueckner-CCSD(T), CCSD density
   Simone Kossmann        : Meta GGA functionals, TD-DFT gradient, OOMP2, MP2 Hessian
   Martin Krupicka        : AUTO-CI
   Lucas Lang             : DCDCAS
   Dagmar Lenk            : GEPOL surface, SMD
   Dimitrios Liakos       : Extrapolation schemes; Compound Job, initial MDCI parallelization
   Dimitrios Manganas     : Further ROCIS development; embedding schemes
   Dimitrios Pantazis     : SARC Basis sets
   Taras Petrenko         : DFT Hessian,TD-DFT gradient, ASA, ECA, R-Raman, ABS, FL, XAS/XES, NRVS
   Peter Pinski           : DLPNO-MP2, DLPNO-MP2 Gradient
   Christoph Reimann      : Effective Core Potentials
   Marius Retegan         : Local ZFS, SOC
   Christoph Riplinger    : Optimizer, TS searches, QM/MM, DLPNO-CCSD(T), (RO)-DLPNO pert. Triples
   Tobias Risthaus        : Range-separated hybrids, TD-DFT gradient, RPA, STAB
   Michael Roemelt        : Original ROCIS implementation
   Masaaki Saitow         : Open-shell DLPNO-CCSD energy and density
   Barbara Sandhoefer     : DKH picture change effects
   Avijit Sen             : IP-ROCIS
   Kantharuban Sivalingam : CASSCF convergence, NEVPT2, FIC-MRCI
   Bernardo de Souza      : ESD, SOC TD-DFT
   Georgi Stoychev        : AutoAux, RI-MP2 NMR
   Willem Van den Heuvel  : Paramagnetic NMR
   Boris Wezisla          : Elementary symmetry handling
   Frank Wennmohs         : Technical directorship


 We gratefully acknowledge several colleagues who have allowed us to
 interface, adapt or use parts of their codes:
   Stefan Grimme, W. Hujo, H. Kruse,             : VdW corrections, initial TS optimization,
                  C. Bannwarth                     DFT functionals, gCP, sTDA/sTD-DF
   Ed Valeev, F. Pavosevic, A. Kumar             : LibInt (2-el integral package), F12 methods
   Garnet Chan, S. Sharma, J. Yang, R. Olivares  : DMRG
   Ulf Ekstrom                                   : XCFun DFT Library
   Mihaly Kallay                                 : mrcc  (arbitrary order and MRCC methods)
   Andreas Klamt, Michael Diedenhofen            : otool_cosmo (COSMO solvation model)
   Jiri Pittner, Ondrej Demel                    : Mk-CCSD
   Frank Weinhold                                : gennbo (NPA and NBO analysis)
   Christopher J. Cramer and Donald G. Truhlar   : smd solvation model
   Lars Goerigk                                  : TD-DFT with DH, B97 family of functionals
   V. Asgeirsson, H. Jonsson                     : NEB implementation
   FAccTs GmbH                                   : IRC, NEB, NEB-TS, Multilevel, MM, QM/MM, CI optimization
   S Lehtola, MJT Oliveira, MAL Marques          : LibXC Library


 Your calculation uses the libint2 library for the computation of 2-el integrals
 For citations please refer to: http://libint.valeyev.net

 Your ORCA version has been built with support for libXC version: 4.2.3
 For citations please refer to: https://tddft.org/programs/libxc/

 This ORCA versions uses:
   CBLAS   interface :  Fast vector & matrix operations
   LAPACKE interface :  Fast linear algebra routines
   SCALAPACK package :  Parallel linear algebra routines


Your calculation utilizes the atom-pairwise dispersion correction
with the Becke-Johnson damping scheme (D3BJ)
Cite in your paper:
S.Grimme, S.Ehrlich, L.Goerigk, J Comput Chem, (2011), 32, 1456–1465 
S.Grimme, J.Antony, S.Ehrlich and H.Krieg, J.Chem.Phys., 132, (2010), 154104 
   

----- Orbital basis set information -----
Your calculation utilizes the basis: def2-SVP
   F. Weigend and R. Ahlrichs, Phys. Chem. Chem. Phys. 7, 3297 (2005).

----- AuxJ basis set information -----
Your calculation utilizes the auxiliary basis: def2/J
   F. Weigend, Phys. Chem. Chem. Phys. 8, 1057 (2006).

================================================================================
                                        WARNINGS
                       Please study these warnings very carefully!
================================================================================


WARNING: Geometry Optimization
  ===> : Switching off AutoStart
         For restart on a previous wavefunction, please use MOREAD

INFO   : the flag for use of LIBINT has been found!

================================================================================
                                       INPUT FILE
================================================================================
NAME = DPP2T_TT_Input_Dimethyl_Diketopyrrolopyrrole_1_Optimize_Monomer.inp
|  1> ! RI BP86 def2-SVP def2/J D3BJ TIGHTSCF  Opt Grid3 FinalGrid5
|  2> %maxcore 3000
|  3> %geom
|  4> optimizehydrogens true
|  5> end
|  6> 
|  7> 
|  8> *xyz 0 1
|  9> C	-4.401458	-0.314202	0.003109
| 10> C	-3.394728	-1.361287	0.006329
| 11> N	-3.623132	0.911519	-0.000813
| 12> C	-2.250856	0.650483	-0.000629
| 13> C	-2.106129	-0.753894	0.003839
| 14> C	-3.249072	-2.764379	0.012304
| 15> N	-1.878178	-3.025453	0.013175
| 16> C	-1.100063	-1.798914	0.008504
| 17> C	-1.188808	-4.296244	0.019583
| 18> H	-1.423361	-4.896964	-0.883000
| 19> H	-1.424572	-4.888322	0.927507
| 20> H	-0.108105	-4.053420	0.019049
| 21> C	-4.310677	2.182986	-0.005379
| 22> H	-5.391732	1.941334	-0.004988
| 23> H	-4.075151	2.776326	-0.912755
| 24> H	-4.076018	2.782465	0.898195
| 25> O	-5.631448	-0.319905	0.003943
| 26> O	0.131200	-1.792771	0.008486
| 27> H	-4.023161	-3.517491	0.015260
| 28> H	-1.473739	1.400471	-0.003268
| 29> **                         ****END OF INPUT****
================================================================================

                       *****************************
                       * Geometry Optimization Run *
                       *****************************

Geometry optimization settings:
Update method            Update   .... BFGS
Choice of coordinates    CoordSys .... Z-matrix Internals
Initial Hessian          InHess   .... Almoef's Model

Convergence Tolerances:
Energy Change            TolE     ....  5.0000e-06 Eh
Max. Gradient            TolMAXG  ....  3.0000e-04 Eh/bohr
RMS Gradient             TolRMSG  ....  1.0000e-04 Eh/bohr
Max. Displacement        TolMAXD  ....  4.0000e-03 bohr
RMS Displacement         TolRMSD  ....  2.0000e-03 bohr
Strict Convergence                ....  False
------------------------------------------------------------------------------
                        ORCA OPTIMIZATION COORDINATE SETUP
------------------------------------------------------------------------------

The optimization will be done in new redundant internal coordinates
Making redundant internal coordinates   ...  (new redundants) done
Evaluating the initial hessian          ...  (Almloef) done
Evaluating the coordinates              ...  done
Calculating the B-matrix                .... done
Calculating the G-matrix                .... done
Diagonalizing the G-matrix              .... done
Imposing constraints:
 Iter   0:  RMS(Cart)=    0.0000000000 RMS(Int)=    0.0000000000
CONVERGED
The first mode is                       ....   51
The number of degrees of freedom        ....   54
Storing new coordinates                 .... done

    -----------------------------------------------------------------
                    Redundant Internal Coordinates


    -----------------------------------------------------------------
         Definition                    Initial Value    Approx d2E/dq
    -----------------------------------------------------------------
      1. B(C   1,C   0)                  1.4526         0.496528 C 
      2. B(N   2,C   0)                  1.4520         0.445673 C 
      3. B(C   3,N   2)                  1.3969         0.545625 C 
      4. B(C   4,C   1)                  1.4246         0.550266 C 
      5. B(C   4,C   3)                  1.4118         0.576665 C 
      6. B(C   5,C   1)                  1.4106         0.579164 C 
      7. B(N   6,C   5)                  1.3955         0.548339 C 
      8. B(C   7,C   4)                  1.4506         0.500087 C 
      9. B(C   7,N   6)                  1.4525         0.444725 C 
     10. B(C   8,N   6)                  1.4457         0.455970 C 
     11. B(H   9,C   8)                  1.1093         0.335459   
     12. B(H  10,C   8)                  1.1093         0.335497   
     13. B(H  11,C   8)                  1.1076         0.337495   
     14. B(C  12,N   2)                  1.4455         0.456442 C 
     15. B(H  13,C  12)                  1.1077         0.337387   
     16. B(H  14,C  12)                  1.1094         0.335281   
     17. B(H  15,C  12)                  1.1095         0.335264   
     18. B(O  16,C   0)                  1.2300         1.007256 C 
     19. B(O  17,C   7)                  1.2313         1.002549 C 
     20. B(H  18,C   5)                  1.0800         0.373575   
     21. B(H  19,C   3)                  1.0800         0.373575   
     22. A(N   2,C   0,O  16)          122.6810         0.440540 C 
     23. A(C   1,C   0,O  16)          133.6084         0.452232 C 
     24. A(C   1,C   0,N   2)          103.7106         0.391018 C 
     25. A(C   0,C   1,C   4)          108.6368         0.408407 C 
     26. A(C   0,C   1,C   5)          142.0524         0.412128 C 
     27. A(C   4,C   1,C   5)          109.3108         0.419732 C 
     28. A(C   0,N   2,C  12)          119.1827         0.382880 C 
     29. A(C   3,N   2,C  12)          129.1723         0.396652 C 
     30. A(C   0,N   2,C   3)          111.6450         0.394994 C 
     31. A(C   4,C   3,H  19)          128.0986         0.350784   
     32. A(N   2,C   3,C   4)          106.6539         0.416062 C 
     33. A(N   2,C   3,H  19)          125.2474         0.345399   
     34. A(C   3,C   4,C   7)          141.9720         0.412335 C 
     35. A(C   1,C   4,C   7)          108.6742         0.408923 C 
     36. A(C   1,C   4,C   3)          109.3537         0.419409 C 
     37. A(C   1,C   5,N   6)          106.7090         0.416750 C 
     38. A(N   6,C   5,H  18)          125.0043         0.345687   
     39. A(C   1,C   5,H  18)          128.2866         0.351040   
     40. A(C   5,N   6,C   7)          111.6084         0.395190 C 
     41. A(C   5,N   6,C   8)          129.2607         0.396926 C 
     42. A(C   7,N   6,C   8)          119.1308         0.382669 C 
     43. A(N   6,C   7,O  17)          122.6767         0.439998 C 
     44. A(C   4,C   7,N   6)          103.6975         0.391361 C 
     45. A(C   4,C   7,O  17)          133.6258         0.452434 C 
     46. A(N   6,C   8,H  10)          111.8050         0.329272   
     47. A(H   9,C   8,H  10)          109.3891         0.284471   
     48. A(N   6,C   8,H  11)          105.8148         0.329595   
     49. A(H   9,C   8,H  11)          108.9429         0.284734   
     50. A(H  10,C   8,H  11)          108.9521         0.284739   
     51. A(N   6,C   8,H   9)          111.8126         0.329266   
     52. A(H  14,C  12,H  15)          109.4035         0.284417   
     53. A(N   2,C  12,H  13)          105.8017         0.329634   
     54. A(N   2,C  12,H  14)          111.8414         0.329293   
     55. A(H  13,C  12,H  14)          108.9133         0.284696   
     56. A(N   2,C  12,H  15)          111.8462         0.329291   
     57. A(H  13,C  12,H  15)          108.9051         0.284694   
     58. D(C   4,C   1,C   0,N   2)     -0.0202         0.016790 C 
     59. D(C   4,C   1,C   0,O  16)   -179.9739         0.016790 C 
     60. D(C   5,C   1,C   0,N   2)    179.8965         0.016790 C 
     61. D(C   5,C   1,C   0,O  16)     -0.0571         0.016790 C 
     62. D(C  12,N   2,C   0,C   1)    179.9721         0.015642 C 
     63. D(C   3,N   2,C   0,C   1)      0.0234         0.015642 C 
     64. D(C   3,N   2,C   0,O  16)    179.9836         0.015642 C 
     65. D(C  12,N   2,C   0,O  16)     -0.0677         0.015642 C 
     66. D(H  19,C   3,N   2,C  12)      0.0505         0.023708   
     67. D(C   4,C   3,N   2,C   0)     -0.0175         0.023708 C 
     68. D(H  19,C   3,N   2,C   0)    179.9927         0.023708   
     69. D(C   4,C   3,N   2,C  12)   -179.9597         0.023708 C 
     70. D(C   3,C   4,C   1,C   0)      0.0108         0.020715 C 
     71. D(C   3,C   4,C   1,C   5)   -179.9349         0.020715 C 
     72. D(C   7,C   4,C   1,C   0)    179.9395         0.020715 C 
     73. D(C   7,C   4,C   1,C   5)     -0.0063         0.020715 C 
     74. D(C   1,C   4,C   3,H  19)    179.9933         0.022835   
     75. D(C   7,C   4,C   3,N   2)   -179.8864         0.022835 C 
     76. D(C   1,C   4,C   3,N   2)      0.0039         0.022835 C 
     77. D(C   7,C   4,C   3,H  19)      0.1030         0.022835   
     78. D(N   6,C   5,C   1,C   0)   -179.9308         0.023042 C 
     79. D(N   6,C   5,C   1,C   4)     -0.0144         0.023042 C 
     80. D(H  18,C   5,C   1,C   0)      0.0964         0.023042   
     81. D(H  18,C   5,C   1,C   4)   -179.9871         0.023042   
     82. D(C   7,N   6,C   5,C   1)      0.0303         0.023957 C 
     83. D(C   7,N   6,C   5,H  18)   -179.9958         0.023957   
     84. D(C   8,N   6,C   5,C   1)    179.9439         0.023957 C 
     85. D(C   8,N   6,C   5,H  18)     -0.0823         0.023957   
     86. D(N   6,C   7,C   4,C   1)      0.0233         0.017034 C 
     87. D(N   6,C   7,C   4,C   3)    179.9140         0.017034 C 
     88. D(O  17,C   7,C   4,C   1)    179.9912         0.017034 C 
     89. D(O  17,C   7,C   4,C   3)     -0.1180         0.017034 C 
     90. D(C   4,C   7,N   6,C   5)     -0.0333         0.015575 C 
     91. D(C   4,C   7,N   6,C   8)   -179.9567         0.015575 C 
     92. D(O  17,C   7,N   6,C   5)    179.9943         0.015575 C 
     93. D(O  17,C   7,N   6,C   8)      0.0709         0.015575 C 
     94. D(H   9,C   8,N   6,C   5)     61.5854         0.017743   
     95. D(H   9,C   8,N   6,C   7)   -118.5066         0.017743   
     96. D(H  10,C   8,N   6,C   5)    -61.4569         0.017743   
     97. D(H  10,C   8,N   6,C   7)    118.4511         0.017743   
     98. D(H  11,C   8,N   6,C   5)   -179.9393         0.017743   
     99. D(H  11,C   8,N   6,C   7)     -0.0312         0.017743   
    100. D(H  13,C  12,N   2,C   0)     -0.0039         0.017780   
    101. D(H  13,C  12,N   2,C   3)    179.9345         0.017780   
    102. D(H  14,C  12,N   2,C   0)   -118.4512         0.017780   
    103. D(H  14,C  12,N   2,C   3)     61.4873         0.017780   
    104. D(H  15,C  12,N   2,C   0)    118.4360         0.017780   
    105. D(H  15,C  12,N   2,C   3)    -61.6255         0.017780   
    -----------------------------------------------------------------

Number of atoms                         .... 20
Number of degrees of freedom            .... 105

         *************************************************************
         *                GEOMETRY OPTIMIZATION CYCLE   1            *
         *************************************************************
---------------------------------
CARTESIAN COORDINATES (ANGSTROEM)
---------------------------------
  C     -4.401458   -0.314202    0.003109
  C     -3.394728   -1.361287    0.006329
  N     -3.623132    0.911519   -0.000813
  C     -2.250856    0.650483   -0.000629
  C     -2.106129   -0.753894    0.003839
  C     -3.249072   -2.764379    0.012304
  N     -1.878178   -3.025453    0.013175
  C     -1.100063   -1.798914    0.008504
  C     -1.188808   -4.296244    0.019583
  H     -1.423361   -4.896964   -0.883000
  H     -1.424572   -4.888322    0.927507
  H     -0.108105   -4.053420    0.019049
  C     -4.310677    2.182986   -0.005379
  H     -5.391732    1.941334   -0.004988
  H     -4.075151    2.776326   -0.912755
  H     -4.076018    2.782465    0.898195
  O     -5.631448   -0.319905    0.003943
  O      0.131200   -1.792771    0.008486
  H     -4.023161   -3.517491    0.015260
  H     -1.473739    1.400471   -0.003268

----------------------------
CARTESIAN COORDINATES (A.U.)
----------------------------
  NO LB      ZA    FRAG     MASS         X           Y           Z
   0 C     6.0000    0    12.011   -8.317550   -0.593756    0.005875
   1 C     6.0000    0    12.011   -6.415106   -2.572460    0.011960
   2 N     7.0000    0    14.007   -6.846727    1.722521   -0.001536
   3 C     6.0000    0    12.011   -4.253501    1.229235   -0.001189
   4 C     6.0000    0    12.011   -3.980007   -1.424653    0.007255
   5 C     6.0000    0    12.011   -6.139856   -5.223919    0.023251
   6 N     7.0000    0    14.007   -3.549242   -5.717278    0.024897
   7 C     6.0000    0    12.011   -2.078818   -3.399455    0.016070
   8 C     6.0000    0    12.011   -2.246522   -8.118725    0.037007
   9 H     1.0000    0     1.008   -2.689762   -9.253921   -1.668628
  10 H     1.0000    0     1.008   -2.692051   -9.237590    1.752734
  11 H     1.0000    0     1.008   -0.204289   -7.659854    0.035997
  12 C     6.0000    0    12.011   -8.145999    4.125246   -0.010165
  13 H     1.0000    0     1.008  -10.188897    3.668590   -0.009426
  14 H     1.0000    0     1.008   -7.700919    5.246496   -1.724857
  15 H     1.0000    0     1.008   -7.702558    5.258097    1.697343
  16 O     8.0000    0    15.999  -10.641894   -0.604533    0.007451
  17 O     8.0000    0    15.999    0.247932   -3.387846    0.016036
  18 H     1.0000    0     1.008   -7.602672   -6.647095    0.028837
  19 H     1.0000    0     1.008   -2.784963    2.646507   -0.006176

--------------------------------
INTERNAL COORDINATES (ANGSTROEM)
--------------------------------
 C      0   0   0     0.000000000000     0.00000000     0.00000000
 C      1   0   0     1.452550397929     0.00000000     0.00000000
 N      1   2   0     1.451963744107   103.71059663     0.00000000
 C      3   1   2     1.396882689179   111.64501522     0.02344370
 C      4   3   1     1.411821740051   106.65394078     0.00000000
 C      2   1   3     1.410644721900   142.05237106   179.89654484
 N      6   2   1     1.395532425762   106.70902294   180.06915067
 C      5   4   3     1.450605859281   141.97202769   180.11360972
 C      7   6   2     1.445746113619   129.26071331   179.94388846
 H      9   7   6     1.109295136606   111.81260037    61.58542752
 H      9   7   6     1.109264175729   111.80495642   298.54310845
 H      9   7   6     1.107647396215   105.81483503   180.06074099
 C      3   1   2     1.445464391630   119.18268504   179.97211258
 H     13   3   1     1.107734514678   105.80174806     0.00000000
 H     13   3   1     1.109439524108   111.84135583   241.54880049
 H     13   3   1     1.109452969349   111.84619071   118.43601410
 O      1   2   3     1.230003504005   133.60842892   180.04632475
 O      8   5   4     1.231278324321   133.62583260   359.88195164
 H      6   2   1     1.080000093704   128.28664217     0.09644234
 H      4   3   1     1.079999905627   125.24740856   179.99273575

---------------------------
INTERNAL COORDINATES (A.U.)
---------------------------
 C      0   0   0     0.000000000000     0.00000000     0.00000000
 C      1   0   0     2.744922447805     0.00000000     0.00000000
 N      1   2   0     2.743813832745   103.71059663     0.00000000
 C      3   1   2     2.639725723764   111.64501522     0.02344370
 C      4   3   1     2.667956438613   106.65394078     0.00000000
 C      2   1   3     2.665732196653   142.05237106   179.89654484
 N      6   2   1     2.637174095697   106.70902294   180.06915067
 C      5   4   3     2.741247802303   141.97202769   180.11360972
 C      7   6   2     2.732064213921   129.26071331   179.94388846
 H      9   7   6     2.096264009876   111.81260037    61.58542752
 H      9   7   6     2.096205502298   111.80495642   298.54310845
 H      9   7   6     2.093150231797   105.81483503   180.06074099
 C      3   1   2     2.731531836516   119.18268504   179.97211258
 H     13   3   1     2.093314861835   105.80174806     0.00000000
 H     13   3   1     2.096536862711   111.84135583   241.54880049
 H     13   3   1     2.096562270536   111.84619071   118.43601410
 O      1   2   3     2.324369766333   133.60842892   180.04632475
 O      8   5   4     2.326778827600   133.62583260   359.88195164
 H      6   2   1     2.040904401710   128.28664217     0.09644234
 H      4   3   1     2.040904046296   125.24740856   179.99273575

---------------------
BASIS SET INFORMATION
---------------------
There are 4 groups of distinct atoms

 Group   1 Type C   : 7s4p1d contracted to 3s2p1d pattern {511/31/1}
 Group   2 Type N   : 7s4p1d contracted to 3s2p1d pattern {511/31/1}
 Group   3 Type H   : 4s1p contracted to 2s1p pattern {31/1}
 Group   4 Type O   : 7s4p1d contracted to 3s2p1d pattern {511/31/1}

Atom   0C    basis set group =>   1
Atom   1C    basis set group =>   1
Atom   2N    basis set group =>   2
Atom   3C    basis set group =>   1
Atom   4C    basis set group =>   1
Atom   5C    basis set group =>   1
Atom   6N    basis set group =>   2
Atom   7C    basis set group =>   1
Atom   8C    basis set group =>   1
Atom   9H    basis set group =>   3
Atom  10H    basis set group =>   3
Atom  11H    basis set group =>   3
Atom  12C    basis set group =>   1
Atom  13H    basis set group =>   3
Atom  14H    basis set group =>   3
Atom  15H    basis set group =>   3
Atom  16O    basis set group =>   4
Atom  17O    basis set group =>   4
Atom  18H    basis set group =>   3
Atom  19H    basis set group =>   3
---------------------------------
AUXILIARY/J BASIS SET INFORMATION
---------------------------------
There are 4 groups of distinct atoms

 Group   1 Type C   : 12s5p4d2f1g contracted to 6s4p3d1f1g pattern {711111/2111/211/2/1}
 Group   2 Type N   : 12s5p4d2f1g contracted to 6s4p3d1f1g pattern {711111/2111/211/2/1}
 Group   3 Type H   : 5s2p1d contracted to 3s1p1d pattern {311/2/1}
 Group   4 Type O   : 12s5p4d2f1g contracted to 6s4p3d1f1g pattern {711111/2111/211/2/1}

Atom   0C    basis set group =>   1
Atom   1C    basis set group =>   1
Atom   2N    basis set group =>   2
Atom   3C    basis set group =>   1
Atom   4C    basis set group =>   1
Atom   5C    basis set group =>   1
Atom   6N    basis set group =>   2
Atom   7C    basis set group =>   1
Atom   8C    basis set group =>   1
Atom   9H    basis set group =>   3
Atom  10H    basis set group =>   3
Atom  11H    basis set group =>   3
Atom  12C    basis set group =>   1
Atom  13H    basis set group =>   3
Atom  14H    basis set group =>   3
Atom  15H    basis set group =>   3
Atom  16O    basis set group =>   4
Atom  17O    basis set group =>   4
Atom  18H    basis set group =>   3
Atom  19H    basis set group =>   3
------------------------------------------------------------------------------
                           ORCA GTO INTEGRAL CALCULATION
                           -- RI-GTO INTEGRALS CHOSEN --
------------------------------------------------------------------------------

                         BASIS SET STATISTICS AND STARTUP INFO

Gaussian basis set:
 # of primitive gaussian shells          ...  184
 # of primitive gaussian functions       ...  344
 # of contracted shells                  ...   96
 # of contracted basis functions         ...  208
 Highest angular momentum                ...    2
 Maximum contraction depth               ...    5
Auxiliary gaussian basis set:
 # of primitive gaussian shells          ...  352
 # of primitive gaussian functions       ...  968
 # of contracted shells                  ...  220
 # of contracted aux-basis functions     ...  676
 Highest angular momentum                ...    4
 Maximum contraction depth               ...    7
Ratio of auxiliary to basis functions    ...  3.25
Integral package used                  ... LIBINT
 One Electron integrals                  ... done
 Ordering auxiliary basis shells         ... done
 Integral threshhold             Thresh  ...  2.500e-11
 Primitive cut-off               TCut    ...  2.500e-12
 Pre-screening matrix                    ... done
 Shell pair data                         ... 
 Ordering of the shell pairs             ... done (   0.001 sec) 4064 of 4656 pairs
 Determination of significant pairs      ... done (   0.000 sec)
 Creation of shell pair data             ... done (   0.001 sec)
 Storage of shell pair data              ... done (   0.006 sec)
 Shell pair data done in (   0.007 sec)
 Computing two index integrals           ... done
 Cholesky decomposition of the V-matrix  ... done


Timings:
 Total evaluation time                   ...   0.265 sec (  0.004 min)
 One electron matrix time                ...   0.069 sec (  0.001 min) = 26.0%
 Schwartz matrix evaluation time         ...   0.077 sec (  0.001 min) = 29.0%
 Two index repulsion integral time       ...   0.075 sec (  0.001 min) = 28.4%
 Cholesky decomposition of V             ...   0.020 sec (  0.000 min) =  7.4%
 Three index repulsion integral time     ...   0.000 sec (  0.000 min) =  0.0%

-------------------------------------------------------------------------------
                                 ORCA SCF
-------------------------------------------------------------------------------

------------
SCF SETTINGS
------------
Hamiltonian:
 Density Functional     Method          .... DFT(GTOs)
 Exchange Functional    Exchange        .... B88
   X-Alpha parameter    XAlpha          ....  0.666667
   Becke's b parameter  XBeta           ....  0.004200
 Correlation Functional Correlation     .... P86
 LDA part of GGA corr.  LDAOpt          .... PW91-LDA
 Gradients option       PostSCFGGA      .... off
   Density functional embedding theory  .... OFF
 RI-approximation to the Coulomb term is turned on
   Number of auxiliary basis functions  .... 676


General Settings:
 Integral files         IntName         .... DPP2T_TT_Input_Dimethyl_Diketopyrrolopyrrole_1_Optimize_Monomer
 Hartree-Fock type      HFTyp           .... RHF
 Total Charge           Charge          ....    0
 Multiplicity           Mult            ....    1
 Number of Electrons    NEL             ....   86
 Basis Dimension        Dim             ....  208
 Nuclear Repulsion      ENuc            ....    672.5164818307 Eh

Convergence Acceleration:
 DIIS                   CNVDIIS         .... on
   Start iteration      DIISMaxIt       ....    12
   Startup error        DIISStart       ....  0.200000
   # of expansion vecs  DIISMaxEq       ....     5
   Bias factor          DIISBfac        ....   1.050
   Max. coefficient     DIISMaxC        ....  10.000
 Newton-Raphson         CNVNR           .... off
 SOSCF                  CNVSOSCF        .... on
   Start iteration      SOSCFMaxIt      ....   150
   Startup grad/error   SOSCFStart      ....  0.003300
 Level Shifting         CNVShift        .... on
   Level shift para.    LevelShift      ....    0.2500
   Turn off err/grad.   ShiftErr        ....    0.0010
 Zerner damping         CNVZerner       .... off
 Static damping         CNVDamp         .... on
   Fraction old density DampFac         ....    0.7000
   Max. Damping (<1)    DampMax         ....    0.9800
   Min. Damping (>=0)   DampMin         ....    0.0000
   Turn off err/grad.   DampErr         ....    0.1000
 Fernandez-Rico         CNVRico         .... off

SCF Procedure:
 Maximum # iterations   MaxIter         ....   125
 SCF integral mode      SCFMode         .... Direct
   Integral package                     .... LIBINT
 Reset frequency        DirectResetFreq ....    20
 Integral Threshold     Thresh          ....  2.500e-11 Eh
 Primitive CutOff       TCut            ....  2.500e-12 Eh

Convergence Tolerance:
 Convergence Check Mode ConvCheckMode   .... Total+1el-Energy
 Convergence forced     ConvForced      .... 0
 Energy Change          TolE            ....  1.000e-08 Eh
 1-El. energy change                    ....  1.000e-05 Eh
 Orbital Gradient       TolG            ....  1.000e-05
 Orbital Rotation angle TolX            ....  1.000e-05
 DIIS Error             TolErr          ....  5.000e-07


Diagonalization of the overlap matrix:
Smallest eigenvalue                        ... 6.379e-04
Time for diagonalization                   ...    0.015 sec
Threshold for overlap eigenvalues          ... 1.000e-08
Number of eigenvalues below threshold      ... 0
Time for construction of square roots      ...    0.008 sec
Total time needed                          ...    0.023 sec

-------------------
DFT GRID GENERATION
-------------------

General Integration Accuracy     IntAcc      ...  4.340
Radial Grid Type                 RadialGrid  ... Gauss-Chebyshev
Angular Grid (max. acc.)         AngularGrid ... Lebedev-194
Angular grid pruning method      GridPruning ... 3 (G Style)
Weight generation scheme         WeightScheme... Becke
Basis function cutoff            BFCut       ...    1.0000e-11
Integration weight cutoff        WCut        ...    1.0000e-14
Grids for H and He will be reduced by one unit

# of grid points (after initial pruning)     ...  51816 (   0.0 sec)
# of grid points (after weights+screening)   ...  47392 (   0.1 sec)
nearest neighbour list constructed           ...    0.0 sec
Grid point re-assignment to atoms done       ...    0.0 sec
Grid point division into batches done        ...    0.1 sec
Reduced shell lists constructed in    0.3 sec

Total number of grid points                  ...    47392
Total number of batches                      ...      748
Average number of points per batch           ...       63
Average number of grid points per atom       ...     2370
Average number of shells per batch           ...    57.18 (59.56%)
Average number of basis functions per batch  ...   121.55 (58.44%)
Average number of large shells per batch     ...    42.01 (73.47%)
Average number of large basis fcns per batch ...    88.83 (73.08%)
Maximum spatial batch extension              ...  21.57, 20.10, 19.69 au
Average spatial batch extension              ...   2.96,  2.92,  3.14 au

Time for grid setup =    0.890 sec

------------------------------
INITIAL GUESS: MODEL POTENTIAL
------------------------------
Loading Hartree-Fock densities                     ... done
Calculating cut-offs                               ... done
Setting up the integral package                    ... done
Initializing the effective Hamiltonian             ... done
Starting the Coulomb interaction                   ... done (   0.1 sec)
Reading the grid                                   ... done
Mapping shells                                     ... done
Starting the XC term evaluation                    ... done (   0.4 sec)
  promolecular density results
     # of electrons  =     85.995947691
     EX              =    -73.039309792
     EC              =     -3.171581085
     EX+EC           =    -76.210890878
Transforming the Hamiltonian                       ... done (   0.0 sec)
Diagonalizing the Hamiltonian                      ... done (   0.0 sec)
Back transforming the eigenvectors                 ... done (   0.0 sec)
Now organizing SCF variables                       ... done
                      ------------------
                      INITIAL GUESS DONE (   1.5 sec)
                      ------------------
--------------
SCF ITERATIONS
--------------
ITER       Energy         Delta-E        Max-DP      RMS-DP      [F,P]     Damp
               ***  Starting incremental Fock matrix formation  ***
  0   -568.9525640035   0.000000000000 0.11402135  0.00311607  0.2506322 0.7000
  1   -569.0916963315  -0.139132328004 0.05969556  0.00173311  0.0674143 0.7000
                               ***Turning on DIIS***
  2   -569.1279646162  -0.036268284616 0.06749899  0.00212478  0.0301163 0.0000
  3   -569.2062812040  -0.078316587835 0.04275444  0.00126177  0.0383148 0.0000
  4   -569.2179076224  -0.011626418373 0.01559860  0.00049327  0.0332968 0.0000
  5   -569.2215074832  -0.003599860853 0.00505617  0.00013792  0.0039323 0.0000
                      *** Initiating the SOSCF procedure ***
                           *** Shutting down DIIS ***
                      *** Re-Reading the Fockian *** 
                      *** Removing any level shift *** 
ITER      Energy       Delta-E        Grad      Rot      Max-DP    RMS-DP
  6   -569.22163867  -0.0001311898  0.000567  0.000567  0.001300  0.000057
               *** Restarting incremental Fock matrix formation ***
  7   -569.22166893  -0.0000302576  0.000226  0.001103  0.001463  0.000042
  8   -569.22166184   0.0000070882  0.000885  0.001314  0.001248  0.000025
  9   -569.22167085  -0.0000090078  0.000047  0.000461  0.000264  0.000008
 10   -569.22167066   0.0000001865  0.000156  0.000653  0.000331  0.000006
 11   -569.22167080  -0.0000001329  0.000120  0.000394  0.000337  0.000008
 12   -569.22167056   0.0000002338  0.000114  0.000163  0.000243  0.000005
 13   -569.22167094  -0.0000003809  0.000019  0.000089  0.000061  0.000003
 14   -569.22167093   0.0000000140  0.000021  0.000031  0.000047  0.000001
 15   -569.22167095  -0.0000000214  0.000009  0.000072  0.000044  0.000001
 16   -569.22167095  -0.0000000024  0.000015  0.000041  0.000024  0.000001
                  ***Gradient check signals convergence***
              ***Rediagonalizing the Fockian in SOSCF/NRSCF***

               *****************************************************
               *                     SUCCESS                       *
               *           SCF CONVERGED AFTER  17 CYCLES          *
               *****************************************************

Setting up the final grid:

General Integration Accuracy     IntAcc      ...  5.010
Radial Grid Type                 RadialGrid  ... Gauss-Chebyshev
Angular Grid (max. acc.)         AngularGrid ... Lebedev-434
Angular grid pruning method      GridPruning ... 3 (G Style)
Weight generation scheme         WeightScheme... Becke
Basis function cutoff            BFCut       ...    1.0000e-11
Integration weight cutoff        WCut        ...    1.0000e-14
Grids for H and He will be reduced by one unit

# of grid points (after initial pruning)     ... 181984 (   0.1 sec)
# of grid points (after weights+screening)   ... 164838 (   0.4 sec)
nearest neighbour list constructed           ...    0.0 sec
Grid point re-assignment to atoms done       ...    0.0 sec
Grid point division into batches done        ...    0.9 sec
Reduced shell lists constructed in    1.7 sec

Total number of grid points                  ...   164838
Total number of batches                      ...     2588
Average number of points per batch           ...       63
Average number of grid points per atom       ...     8242
Average number of shells per batch           ...    52.61 (54.80%)
Average number of basis functions per batch  ...   110.84 (53.29%)
Average number of large shells per batch     ...    37.93 (72.10%)
Average number of large basis fcns per batch ...    79.69 (71.90%)
Maximum spatial batch extension              ...  19.69, 20.74, 22.36 au
Average spatial batch extension              ...   1.97,  1.95,  2.07 au

Final grid set up in    2.1 sec
Final integration                            ... done (   1.3 sec)
Change in XC energy                          ...    -0.000215120
Integrated number of electrons               ...    86.000017056
Previous integrated no of electrons          ...    86.000370095

----------------
TOTAL SCF ENERGY
----------------

Total Energy       :         -569.22188607 Eh          -15489.31498 eV

Components:
Nuclear Repulsion  :          672.51648183 Eh           18300.10383 eV
Electronic Energy  :        -1241.73836790 Eh          -33789.41881 eV
One Electron Energy:        -2106.93282789 Eh          -57332.55698 eV
Two Electron Energy:          865.19445999 Eh           23543.13817 eV

Virial components:
Potential Energy   :        -1132.31916374 Eh          -30811.97090 eV
Kinetic Energy     :          563.09727766 Eh           15322.65591 eV
Virial Ratio       :            2.01087664


DFT components:
N(Alpha)           :       43.000008528173 electrons
N(Beta)            :       43.000008528173 electrons
N(Total)           :       86.000017056345 electrons
E(X)               :      -74.084441995505 Eh       
E(C)               :       -3.181613261112 Eh       
E(XC)              :      -77.266055256617 Eh       
DFET-embed. en.    :        0.000000000000 Eh       

---------------
SCF CONVERGENCE
---------------

  Last Energy change         ...   -5.4331e-10  Tolerance :   1.0000e-08
  Last MAX-Density change    ...    1.2025e-05  Tolerance :   1.0000e-07
  Last RMS-Density change    ...    4.1194e-07  Tolerance :   5.0000e-09
  Last Orbital Gradient      ...    1.5731e-06  Tolerance :   1.0000e-05
  Last Orbital Rotation      ...    1.6511e-05  Tolerance :   1.0000e-05

             **** THE GBW FILE WAS UPDATED (DPP2T_TT_Input_Dimethyl_Diketopyrrolopyrrole_1_Optimize_Monomer.gbw) ****
             **** DENSITY FILE WAS UPDATED (DPP2T_TT_Input_Dimethyl_Diketopyrrolopyrrole_1_Optimize_Monomer.scfp) ****
             **** ENERGY FILE WAS UPDATED (DPP2T_TT_Input_Dimethyl_Diketopyrrolopyrrole_1_Optimize_Monomer.en.tmp) ****
             **** THE GBW FILE WAS UPDATED (DPP2T_TT_Input_Dimethyl_Diketopyrrolopyrrole_1_Optimize_Monomer.gbw) ****
             **** DENSITY FILE WAS UPDATED (DPP2T_TT_Input_Dimethyl_Diketopyrrolopyrrole_1_Optimize_Monomer.scfp) ****
----------------
ORBITAL ENERGIES
----------------

  NO   OCC          E(Eh)            E(eV) 
   0   2.0000     -18.760583      -510.5014 
   1   2.0000     -18.760490      -510.4989 
   2   2.0000     -14.074066      -382.9748 
   3   2.0000     -14.073861      -382.9692 
   4   2.0000     -10.013951      -272.4934 
   5   2.0000     -10.013752      -272.4880 
   6   2.0000      -9.985500      -271.7193 
   7   2.0000      -9.985256      -271.7126 
   8   2.0000      -9.959737      -271.0182 
   9   2.0000      -9.959662      -271.0162 
  10   2.0000      -9.919761      -269.9304 
  11   2.0000      -9.919667      -269.9279 
  12   2.0000      -0.949120       -25.8269 
  13   2.0000      -0.943969       -25.6867 
  14   2.0000      -0.884737       -24.0749 
  15   2.0000      -0.875880       -23.8339 
  16   2.0000      -0.758024       -20.6269 
  17   2.0000      -0.694020       -18.8853 
  18   2.0000      -0.656816       -17.8729 
  19   2.0000      -0.628295       -17.0968 
  20   2.0000      -0.611156       -16.6304 
  21   2.0000      -0.535072       -14.5600 
  22   2.0000      -0.531607       -14.4658 
  23   2.0000      -0.484073       -13.1723 
  24   2.0000      -0.460113       -12.5203 
  25   2.0000      -0.449098       -12.2206 
  26   2.0000      -0.441063       -12.0019 
  27   2.0000      -0.435841       -11.8598 
  28   2.0000      -0.422975       -11.5097 
  29   2.0000      -0.392711       -10.6862 
  30   2.0000      -0.380331       -10.3493 
  31   2.0000      -0.376842       -10.2544 
  32   2.0000      -0.374214       -10.1829 
  33   2.0000      -0.354922        -9.6579 
  34   2.0000      -0.354642        -9.6503 
  35   2.0000      -0.351577        -9.5669 
  36   2.0000      -0.343270        -9.3409 
  37   2.0000      -0.298628        -8.1261 
  38   2.0000      -0.298305        -8.1173 
  39   2.0000      -0.232322        -6.3218 
  40   2.0000      -0.224811        -6.1174 
  41   2.0000      -0.221350        -6.0233 
  42   2.0000      -0.184605        -5.0234 
  43   0.0000      -0.118413        -3.2222 
  44   0.0000      -0.044269        -1.2046 
  45   0.0000       0.037217         1.0127 
  46   0.0000       0.047438         1.2908 
  47   0.0000       0.049187         1.3384 
  48   0.0000       0.066770         1.8169 
  49   0.0000       0.077265         2.1025 
  50   0.0000       0.080455         2.1893 
  51   0.0000       0.089317         2.4304 
  52   0.0000       0.102478         2.7886 
  53   0.0000       0.107596         2.9278 
  54   0.0000       0.109900         2.9905 
  55   0.0000       0.109973         2.9925 
  56   0.0000       0.111353         3.0301 
  57   0.0000       0.142918         3.8890 
  58   0.0000       0.160367         4.3638 
  59   0.0000       0.178717         4.8631 
  60   0.0000       0.183833         5.0023 
  61   0.0000       0.219659         5.9772 
  62   0.0000       0.240832         6.5534 
  63   0.0000       0.249416         6.7869 
  64   0.0000       0.274267         7.4632 
  65   0.0000       0.288078         7.8390 
  66   0.0000       0.291232         7.9248 
  67   0.0000       0.349964         9.5230 
  68   0.0000       0.359371         9.7790 
  69   0.0000       0.360150         9.8002 
  70   0.0000       0.369736        10.0610 
  71   0.0000       0.370584        10.0841 
  72   0.0000       0.383141        10.4258 
  73   0.0000       0.408400        11.1131 
  74   0.0000       0.415815        11.3149 
  75   0.0000       0.426161        11.5964 
  76   0.0000       0.444601        12.0982 
  77   0.0000       0.454796        12.3756 
  78   0.0000       0.503668        13.7055 
  79   0.0000       0.506841        13.7918 
  80   0.0000       0.512212        13.9380 
  81   0.0000       0.522190        14.2095 
  82   0.0000       0.538216        14.6456 
  83   0.0000       0.562958        15.3189 
  84   0.0000       0.564373        15.3574 
  85   0.0000       0.580299        15.7907 
  86   0.0000       0.583531        15.8787 
  87   0.0000       0.584498        15.9050 
  88   0.0000       0.586118        15.9491 
  89   0.0000       0.587611        15.9897 
  90   0.0000       0.599410        16.3108 
  91   0.0000       0.606115        16.4932 
  92   0.0000       0.610379        16.6093 
  93   0.0000       0.634532        17.2665 
  94   0.0000       0.648741        17.6531 
  95   0.0000       0.657250        17.8847 
  96   0.0000       0.660507        17.9733 
  97   0.0000       0.688396        18.7322 
  98   0.0000       0.721184        19.6244 
  99   0.0000       0.722377        19.6569 
 100   0.0000       0.728740        19.8300 
 101   0.0000       0.769924        20.9507 
 102   0.0000       0.791380        21.5345 
 103   0.0000       0.804718        21.8975 
 104   0.0000       0.811910        22.0932 
 105   0.0000       0.821493        22.3539 
 106   0.0000       0.847841        23.0709 
 107   0.0000       0.874989        23.8097 
 108   0.0000       0.916037        24.9266 
 109   0.0000       0.976195        26.5636 
 110   0.0000       1.022082        27.8123 
 111   0.0000       1.049649        28.5624 
 112   0.0000       1.064678        28.9714 
 113   0.0000       1.080562        29.4036 
 114   0.0000       1.085886        29.5485 
 115   0.0000       1.105808        30.0906 
 116   0.0000       1.123723        30.5781 
 117   0.0000       1.131334        30.7852 
 118   0.0000       1.138312        30.9750 
 119   0.0000       1.148906        31.2633 
 120   0.0000       1.166344        31.7378 
 121   0.0000       1.207643        32.8616 
 122   0.0000       1.236899        33.6577 
 123   0.0000       1.267049        34.4782 
 124   0.0000       1.275323        34.7033 
 125   0.0000       1.331899        36.2428 
 126   0.0000       1.364637        37.1337 
 127   0.0000       1.381015        37.5793 
 128   0.0000       1.403632        38.1948 
 129   0.0000       1.406710        38.2785 
 130   0.0000       1.419109        38.6159 
 131   0.0000       1.433035        38.9949 
 132   0.0000       1.433198        38.9993 
 133   0.0000       1.505846        40.9761 
 134   0.0000       1.518777        41.3280 
 135   0.0000       1.536515        41.8107 
 136   0.0000       1.556295        42.3489 
 137   0.0000       1.620193        44.0877 
 138   0.0000       1.621951        44.1355 
 139   0.0000       1.636420        44.5293 
 140   0.0000       1.656755        45.0826 
 141   0.0000       1.676173        45.6110 
 142   0.0000       1.681587        45.7583 
 143   0.0000       1.688973        45.9593 
 144   0.0000       1.705067        46.3972 
 145   0.0000       1.716646        46.7123 
 146   0.0000       1.717606        46.7384 
 147   0.0000       1.749704        47.6119 
 148   0.0000       1.764142        48.0047 
 149   0.0000       1.801629        49.0248 
 150   0.0000       1.809014        49.2258 
 151   0.0000       1.811073        49.2818 
 152   0.0000       1.826992        49.7150 
 153   0.0000       1.867885        50.8277 
 154   0.0000       1.874900        51.0186 
 155   0.0000       1.893632        51.5283 
 156   0.0000       1.935707        52.6733 
 157   0.0000       1.940398        52.8009 
 158   0.0000       1.943474        52.8846 
 159   0.0000       1.948305        53.0161 
 160   0.0000       1.984351        53.9969 
 161   0.0000       2.043479        55.6059 
 162   0.0000       2.048465        55.7416 
 163   0.0000       2.049620        55.7730 
 164   0.0000       2.142189        58.2919 
 165   0.0000       2.142854        58.3100 
 166   0.0000       2.183423        59.4140 
 167   0.0000       2.183845        59.4254 
 168   0.0000       2.192714        59.6668 
 169   0.0000       2.252610        61.2966 
 170   0.0000       2.267238        61.6947 
 171   0.0000       2.299459        62.5714 
 172   0.0000       2.307161        62.7810 
 173   0.0000       2.341588        63.7179 
 174   0.0000       2.373472        64.5854 
 175   0.0000       2.396496        65.2120 
 176   0.0000       2.428382        66.0796 
 177   0.0000       2.447381        66.5966 
 178   0.0000       2.456019        66.8317 
 179   0.0000       2.470350        67.2216 
 180   0.0000       2.533442        68.9385 
 181   0.0000       2.543445        69.2107 
 182   0.0000       2.550545        69.4038 
 183   0.0000       2.564062        69.7717 
 184   0.0000       2.601599        70.7931 
 185   0.0000       2.613991        71.1303 
 186   0.0000       2.643007        71.9199 
 187   0.0000       2.654995        72.2461 
 188   0.0000       2.671964        72.7078 
 189   0.0000       2.674351        72.7728 
 190   0.0000       2.691109        73.2288 
 191   0.0000       2.726661        74.1962 
 192   0.0000       2.825806        76.8941 
 193   0.0000       2.826164        76.9038 
 194   0.0000       2.827451        76.9389 
 195   0.0000       2.841276        77.3151 
 196   0.0000       2.910809        79.2071 
 197   0.0000       2.959418        80.5299 
 198   0.0000       2.995798        81.5198 
 199   0.0000       3.064261        83.3828 
 200   0.0000       3.065991        83.4298 
 201   0.0000       3.075613        83.6917 
 202   0.0000       3.193689        86.9047 
 203   0.0000       3.229183        87.8705 
 204   0.0000       3.398219        92.4702 
 205   0.0000       3.451412        93.9177 
 206   0.0000       3.545862        96.4878 
 207   0.0000       3.556873        96.7874 

                    ********************************
                    * MULLIKEN POPULATION ANALYSIS *
                    ********************************

-----------------------
MULLIKEN ATOMIC CHARGES
-----------------------
   0 C :    0.148894
   1 C :   -0.051351
   2 N :   -0.275190
   3 C :    0.095406
   4 C :   -0.051753
   5 C :    0.093840
   6 N :   -0.275007
   7 C :    0.148557
   8 C :    0.051245
   9 H :    0.052904
  10 H :    0.052862
  11 H :    0.071087
  12 C :    0.051043
  13 H :    0.070987
  14 H :    0.052973
  15 H :    0.053013
  16 O :   -0.177156
  17 O :   -0.178540
  18 H :    0.032930
  19 H :    0.033256
Sum of atomic charges:    0.0000000

--------------------------------
MULLIKEN REDUCED ORBITAL CHARGES
--------------------------------
  0 C s       :     3.019086  s :     3.019086
      pz      :     0.904000  p :     2.727401
      px      :     0.907211
      py      :     0.916189
      dz2     :     0.005748  d :     0.104619
      dxz     :     0.022554
      dyz     :     0.007557
      dx2y2   :     0.021894
      dxy     :     0.046865
  1 C s       :     3.146788  s :     3.146788
      pz      :     1.117183  p :     2.867686
      px      :     0.950362
      py      :     0.800141
      dz2     :     0.003346  d :     0.036877
      dxz     :     0.005781
      dyz     :     0.005589
      dx2y2   :     0.010312
      dxy     :     0.011847
  2 N s       :     3.459003  s :     3.459003
      pz      :     1.543708  p :     3.789394
      px      :     1.089580
      py      :     1.156106
      dz2     :     0.002303  d :     0.026793
      dxz     :     0.004225
      dyz     :     0.003845
      dx2y2   :     0.008087
      dxy     :     0.008334
  3 C s       :     3.207880  s :     3.207880
      pz      :     0.949287  p :     2.651507
      px      :     0.749083
      py      :     0.953137
      dz2     :     0.003381  d :     0.045207
      dxz     :     0.008522
      dyz     :     0.005943
      dx2y2   :     0.014170
      dxy     :     0.013191
  4 C s       :     3.146819  s :     3.146819
      pz      :     1.116635  p :     2.868027
      px      :     0.950384
      py      :     0.801008
      dz2     :     0.003346  d :     0.036907
      dxz     :     0.005801
      dyz     :     0.005586
      dx2y2   :     0.010313
      dxy     :     0.011860
  5 C s       :     3.208712  s :     3.208712
      pz      :     0.949306  p :     2.652063
      px      :     0.750065
      py      :     0.952692
      dz2     :     0.003388  d :     0.045385
      dxz     :     0.008568
      dyz     :     0.005975
      dx2y2   :     0.014208
      dxy     :     0.013245
  6 N s       :     3.458787  s :     3.458787
      pz      :     1.543533  p :     3.789399
      px      :     1.089463
      py      :     1.156402
      dz2     :     0.002304  d :     0.026821
      dxz     :     0.004239
      dyz     :     0.003843
      dx2y2   :     0.008093
      dxy     :     0.008343
  7 C s       :     3.019358  s :     3.019358
      pz      :     0.904424  p :     2.727646
      px      :     0.906747
      py      :     0.916476
      dz2     :     0.005745  d :     0.104439
      dxz     :     0.022486
      dyz     :     0.007560
      dx2y2   :     0.021899
      dxy     :     0.046749
  8 C s       :     3.015627  s :     3.015627
      pz      :     1.026521  p :     2.896940
      px      :     1.023335
      py      :     0.847085
      dz2     :     0.006214  d :     0.036188
      dxz     :     0.002178
      dyz     :     0.011867
      dx2y2   :     0.007557
      dxy     :     0.008372
  9 H s       :     0.925604  s :     0.925604
      pz      :     0.010513  p :     0.021492
      px      :     0.005003
      py      :     0.005976
 10 H s       :     0.925645  s :     0.925645
      pz      :     0.010581  p :     0.021493
      px      :     0.005006
      py      :     0.005906
 11 H s       :     0.905765  s :     0.905765
      pz      :     0.004993  p :     0.023148
      px      :     0.013416
      py      :     0.004739
 12 C s       :     3.015694  s :     3.015694
      pz      :     1.026523  p :     2.897064
      px      :     1.023558
      py      :     0.846983
      dz2     :     0.006216  d :     0.036200
      dxz     :     0.002171
      dyz     :     0.011879
      dx2y2   :     0.007583
      dxy     :     0.008352
 13 H s       :     0.905873  s :     0.905873
      pz      :     0.004995  p :     0.023140
      px      :     0.013417
      py      :     0.004728
 14 H s       :     0.925542  s :     0.925542
      pz      :     0.010568  p :     0.021485
      px      :     0.005007
      py      :     0.005911
 15 H s       :     0.925501  s :     0.925501
      pz      :     0.010519  p :     0.021485
      px      :     0.005005
      py      :     0.005961
 16 O s       :     3.725614  s :     3.725614
      pz      :     1.401038  p :     4.434735
      px      :     1.314299
      py      :     1.719398
      dz2     :     0.001895  d :     0.016808
      dxz     :     0.005190
      dyz     :     0.000023
      dx2y2   :     0.005853
      dxy     :     0.003847
 17 O s       :     3.726633  s :     3.726633
      pz      :     1.401325  p :     4.435163
      px      :     1.313976
      py      :     1.719863
      dz2     :     0.001889  d :     0.016744
      dxz     :     0.005168
      dyz     :     0.000023
      dx2y2   :     0.005835
      dxy     :     0.003829
 18 H s       :     0.944387  s :     0.944387
      pz      :     0.005401  p :     0.022683
      px      :     0.008864
      py      :     0.008418
 19 H s       :     0.944039  s :     0.944039
      pz      :     0.005409  p :     0.022705
      px      :     0.008919
      py      :     0.008378


                     *******************************
                     * LOEWDIN POPULATION ANALYSIS *
                     *******************************

----------------------
LOEWDIN ATOMIC CHARGES
----------------------
   0 C :    0.059507
   1 C :   -0.122812
   2 N :   -0.001597
   3 C :    0.084119
   4 C :   -0.122500
   5 C :    0.083707
   6 N :   -0.001481
   7 C :    0.059808
   8 C :    0.007914
   9 H :    0.032813
  10 H :    0.032802
  11 H :    0.043157
  12 C :    0.007737
  13 H :    0.043150
  14 H :    0.032852
  15 H :    0.032863
  16 O :   -0.172173
  17 O :   -0.173268
  18 H :    0.036635
  19 H :    0.036766

-------------------------------
LOEWDIN REDUCED ORBITAL CHARGES
-------------------------------
  0 C s       :     2.844166  s :     2.844166
      pz      :     0.895666  p :     2.849385
      px      :     1.004350
      py      :     0.949369
      dz2     :     0.014017  d :     0.246941
      dxz     :     0.044056
      dyz     :     0.015121
      dx2y2   :     0.054488
      dxy     :     0.119260
  1 C s       :     2.855818  s :     2.855818
      pz      :     1.090449  p :     3.163144
      px      :     1.036331
      py      :     1.036363
      dz2     :     0.008636  d :     0.103850
      dxz     :     0.011943
      dyz     :     0.011975
      dx2y2   :     0.033273
      dxy     :     0.038023
  2 N s       :     3.100676  s :     3.100676
      pz      :     1.489171  p :     3.836935
      px      :     1.169229
      py      :     1.178535
      dz2     :     0.004946  d :     0.063986
      dxz     :     0.008014
      dyz     :     0.006284
      dx2y2   :     0.021385
      dxy     :     0.023357
  3 C s       :     2.876564  s :     2.876564
      pz      :     0.945255  p :     2.928206
      px      :     0.927680
      py      :     1.055271
      dz2     :     0.007410  d :     0.111111
      dxz     :     0.017257
      dyz     :     0.011993
      dx2y2   :     0.040849
      dxy     :     0.033602
  4 C s       :     2.855718  s :     2.855718
      pz      :     1.089835  p :     3.162835
      px      :     1.036708
      py      :     1.036292
      dz2     :     0.008637  d :     0.103946
      dxz     :     0.011997
      dyz     :     0.011963
      dx2y2   :     0.033313
      dxy     :     0.038035
  5 C s       :     2.876002  s :     2.876002
      pz      :     0.945227  p :     2.928679
      px      :     0.928061
      py      :     1.055392
      dz2     :     0.007435  d :     0.111612
      dxz     :     0.017360
      dyz     :     0.012066
      dx2y2   :     0.040974
      dxy     :     0.033777
  6 N s       :     3.100466  s :     3.100466
      pz      :     1.489016  p :     3.836979
      px      :     1.169466
      py      :     1.178497
      dz2     :     0.004947  d :     0.064036
      dxz     :     0.008045
      dyz     :     0.006275
      dx2y2   :     0.021387
      dxy     :     0.023382
  7 C s       :     2.844184  s :     2.844184
      pz      :     0.896019  p :     2.849530
      px      :     1.004004
      py      :     0.949507
      dz2     :     0.013999  d :     0.246478
      dxz     :     0.043917
      dyz     :     0.015135
      dx2y2   :     0.054501
      dxy     :     0.118925
  8 C s       :     2.843579  s :     2.843579
      pz      :     1.077552  p :     3.055681
      px      :     1.054473
      py      :     0.923656
      dz2     :     0.016067  d :     0.092826
      dxz     :     0.004332
      dyz     :     0.031565
      dx2y2   :     0.020515
      dxy     :     0.020347
  9 H s       :     0.903391  s :     0.903391
      pz      :     0.031619  p :     0.063796
      px      :     0.013602
      py      :     0.018575
 10 H s       :     0.903397  s :     0.903397
      pz      :     0.031865  p :     0.063801
      px      :     0.013614
      py      :     0.018322
 11 H s       :     0.886447  s :     0.886447
      pz      :     0.012000  p :     0.070396
      px      :     0.044240
      py      :     0.014156
 12 C s       :     2.843584  s :     2.843584
      pz      :     1.077507  p :     3.055816
      px      :     1.054718
      py      :     0.923591
      dz2     :     0.016072  d :     0.092863
      dxz     :     0.004319
      dyz     :     0.031595
      dx2y2   :     0.020582
      dxy     :     0.020294
 13 H s       :     0.886491  s :     0.886491
      pz      :     0.012001  p :     0.070359
      px      :     0.044236
      py      :     0.014123
 14 H s       :     0.903372  s :     0.903372
      pz      :     0.031825  p :     0.063776
      px      :     0.013608
      py      :     0.018343
 15 H s       :     0.903364  s :     0.903364
      pz      :     0.031651  p :     0.063774
      px      :     0.013600
      py      :     0.018523
 16 O s       :     3.558805  s :     3.558805
      pz      :     1.403417  p :     4.583866
      px      :     1.443247
      py      :     1.737201
      dz2     :     0.004121  d :     0.029503
      dxz     :     0.006889
      dyz     :     0.000022
      dx2y2   :     0.012610
      dxy     :     0.005860
 17 O s       :     3.559734  s :     3.559734
      pz      :     1.403795  p :     4.584144
      px      :     1.442535
      py      :     1.737813
      dz2     :     0.004109  d :     0.029390
      dxz     :     0.006857
      dyz     :     0.000022
      dx2y2   :     0.012573
      dxy     :     0.005829
 18 H s       :     0.890517  s :     0.890517
      pz      :     0.015089  p :     0.072848
      px      :     0.030118
      py      :     0.027641
 19 H s       :     0.890310  s :     0.890310
      pz      :     0.015105  p :     0.072924
      px      :     0.030307
      py      :     0.027512


                      *****************************
                      * MAYER POPULATION ANALYSIS *
                      *****************************

  NA   - Mulliken gross atomic population
  ZA   - Total nuclear charge
  QA   - Mulliken gross atomic charge
  VA   - Mayer's total valence
  BVA  - Mayer's bonded valence
  FA   - Mayer's free valence

  ATOM       NA         ZA         QA         VA         BVA        FA
  0 C      5.8511     6.0000     0.1489     4.1422     4.1422     0.0000
  1 C      6.0514     6.0000    -0.0514     3.7837     3.7837     0.0000
  2 N      7.2752     7.0000    -0.2752     3.3372     3.3372    -0.0000
  3 C      5.9046     6.0000     0.0954     3.7626     3.7626     0.0000
  4 C      6.0518     6.0000    -0.0518     3.7857     3.7857     0.0000
  5 C      5.9062     6.0000     0.0938     3.7629     3.7629     0.0000
  6 N      7.2750     7.0000    -0.2750     3.3379     3.3379     0.0000
  7 C      5.8514     6.0000     0.1486     4.1420     4.1420     0.0000
  8 C      5.9488     6.0000     0.0512     3.8983     3.8983    -0.0000
  9 H      0.9471     1.0000     0.0529     0.9874     0.9874     0.0000
 10 H      0.9471     1.0000     0.0529     0.9874     0.9874     0.0000
 11 H      0.9289     1.0000     0.0711     1.0383     1.0383    -0.0000
 12 C      5.9490     6.0000     0.0510     3.8985     3.8985    -0.0000
 13 H      0.9290     1.0000     0.0710     1.0382     1.0382     0.0000
 14 H      0.9470     1.0000     0.0530     0.9874     0.9874    -0.0000
 15 H      0.9470     1.0000     0.0530     0.9874     0.9874    -0.0000
 16 O      8.1772     8.0000    -0.1772     2.3834     2.3834     0.0000
 17 O      8.1785     8.0000    -0.1785     2.3821     2.3821     0.0000
 18 H      0.9671     1.0000     0.0329     0.9970     0.9970    -0.0000
 19 H      0.9667     1.0000     0.0333     0.9971     0.9971     0.0000

  Mayer bond orders larger than 0.100000
B(  0-C ,  1-C ) :   1.0121 B(  0-C ,  2-N ) :   0.9712 B(  0-C , 16-O ) :   2.0858 
B(  1-C ,  4-C ) :   1.2592 B(  1-C ,  5-C ) :   1.4025 B(  2-N ,  3-C ) :   1.1918 
B(  2-N , 12-C ) :   0.9792 B(  3-C ,  4-C ) :   1.4027 B(  3-C ,  5-C ) :   0.1068 
B(  3-C , 19-H ) :   0.9772 B(  4-C ,  7-C ) :   1.0142 B(  5-C ,  6-N ) :   1.1931 
B(  5-C , 18-H ) :   0.9775 B(  6-N ,  7-C ) :   0.9708 B(  6-N ,  8-C ) :   0.9790 
B(  7-C , 17-O ) :   2.0839 B(  8-C ,  9-H ) :   0.9669 B(  8-C , 10-H ) :   0.9669 
B(  8-C , 11-H ) :   0.9414 B( 12-C , 13-H ) :   0.9415 B( 12-C , 14-H ) :   0.9669 
B( 12-C , 15-H ) :   0.9669 

-------
TIMINGS
-------

Total SCF time: 0 days 0 hours 0 min 22 sec 

Total time                  ....      22.060 sec
Sum of individual times     ....      21.126 sec  ( 95.8%)

Fock matrix formation       ....      17.183 sec  ( 77.9%)
  Split-RI-J                ....       6.453 sec  ( 37.6% of F)
  XC integration            ....       9.453 sec  ( 55.0% of F)
    Basis function eval.    ....       3.165 sec  ( 33.5% of XC)
    Density eval.           ....       1.571 sec  ( 16.6% of XC)
    XC-Functional eval.     ....       0.935 sec  (  9.9% of XC)
    XC-Potential eval.      ....       2.069 sec  ( 21.9% of XC)
Diagonalization             ....       0.031 sec  (  0.1%)
Density matrix formation    ....       0.009 sec  (  0.0%)
Population analysis         ....       0.020 sec  (  0.1%)
Initial guess               ....       0.594 sec  (  2.7%)
Orbital Transformation      ....       0.000 sec  (  0.0%)
Orbital Orthonormalization  ....       0.000 sec  (  0.0%)
DIIS solution               ....       0.041 sec  (  0.2%)
SOSCF solution              ....       0.243 sec  (  1.1%)
Grid generation             ....       3.005 sec  ( 13.6%)


-------------------------------------------------------------------------------
                          DFT DISPERSION CORRECTION                            
                                                                               
                              DFTD3 V3.1  Rev 1                                
                          USING Becke-Johnson damping                          
-------------------------------------------------------------------------------
The BP86 functional is recognized
Active option DFTDOPT                   ...         4   

molecular C6(AA) [au] = 4494.627147 


            DFT-D V3
 parameters
 s6 scaling factor         :     1.0000 
 a1 scaling factor         :     0.3946 
 s8 scaling factor         :     3.2822 
 a2 scaling factor         :     4.8516 
 ad hoc parameters k1-k3   :    16.0000     1.3333    -4.0000 

 Edisp/kcal,au: -21.063074184189  -0.033566141721 
 E6   /kcal   :  -7.897755833 
 E8   /kcal   : -13.165318351 
 % E8         :  62.504258572 

-------------------------   ----------------
Dispersion correction           -0.033566142
-------------------------   ----------------


-------------------------   --------------------
FINAL SINGLE POINT ENERGY      -569.255452215842
-------------------------   --------------------

------------------------------------------------------------------------------
                         ORCA SCF GRADIENT CALCULATION
------------------------------------------------------------------------------

Gradient of the Kohn-Sham DFT energy:
Kohn-Sham wavefunction type      ... RKS
Hartree-Fock exchange scaling    ...    0.000
Number of operators              ...    1
Number of atoms                  ...   20
Basis set dimensions             ...  208
Integral neglect threshold       ... 2.5e-11
Integral primitive cutoff        ... 2.5e-12

Nuclear repulsion gradient       ... done
One Electron Gradient            ... done
Pre-screening matrix             ... done
RI-J gradient                    ... done
Exchange-correlation gradient    ... done
Dispersion correction            ... done

------------------
CARTESIAN GRADIENT
------------------

   1   C   :    0.010818253    0.003052192   -0.000105170
   2   C   :    0.007586590    0.020208785   -0.000083814
   3   N   :   -0.013969894   -0.004024716    0.000080606
   4   C   :    0.025203710    0.035847718   -0.000136916
   5   C   :   -0.006783115   -0.022011541    0.000031791
   6   C   :   -0.024446942   -0.034612672    0.000189569
   7   N   :    0.012428173    0.003830772   -0.000075615
   8   C   :   -0.012933628   -0.002067425    0.000107213
   9   C   :    0.002086802    0.002994453    0.000015817
  10   H   :    0.000573700    0.000394240   -0.000084283
  11   H   :    0.000564522    0.000408629    0.000070093
  12   H   :   -0.000085449    0.000364682   -0.000005937
  13   C   :   -0.001742568   -0.003139631    0.000007565
  14   H   :    0.000061059   -0.000396039    0.000001249
  15   H   :   -0.000606540   -0.000330959   -0.000166004
  16   H   :   -0.000614967   -0.000323486    0.000169693
  17   O   :   -0.004652859   -0.000514611    0.000041977
  18   O   :    0.006288431    0.000547659   -0.000033865
  19   H   :    0.005078924    0.011787649   -0.000060569
  20   H   :   -0.004854203   -0.012015698    0.000036600

Difference to translation invariance:
           :   -0.0000000000   -0.0000000000    0.0000000000

Norm of the cartesian gradient     ...    0.0762489562
RMS gradient                       ...    0.0098436979
MAX gradient                       ...    0.0358477177

-------
TIMINGS
-------

Total SCF gradient time            ...        7.698 sec

One electron gradient       ....       0.148 sec  (  1.9%)
Prescreening matrices       ....       0.101 sec  (  1.3%)
RI-J Coulomb gradient       ....       1.574 sec  ( 20.4%)
XC gradient                 ....       5.754 sec  ( 74.7%)
------------------------------------------------------------------------------
                         ORCA GEOMETRY RELAXATION STEP
------------------------------------------------------------------------------

Reading the OPT-File                    .... done
Getting information on internals        .... done
Copying old internal coords+grads       .... done
Making the new internal coordinates     .... (new redundants).... done
Validating the new internal coordinates .... (new redundants).... done
Calculating the B-matrix                .... done
Calculating the G,G- and P matrices     .... done
Transforming gradient to internals      .... done
Projecting the internal gradient        .... done
Number of atoms                         ....  20
Number of internal coordinates          .... 105
Current Energy                          ....  -569.255452216 Eh
Current gradient norm                   ....     0.076248956 Eh/bohr
Maximum allowed component of the step   ....  0.300
Current trust radius                    ....  0.300
Evaluating the initial hessian          ....  (Almloef) done
Projecting the Hessian                  .... done
Forming the augmented Hessian           .... done
Diagonalizing the augmented Hessian     .... done
Last element of RFO vector              ....  0.998474575
Lowest eigenvalues of augmented Hessian:
 -0.001084265  0.017742622  0.017779971  0.023255377  0.023480189
Length of the computed step             ....  0.055297789
The final length of the internal step   ....  0.055297789
Converting the step to cartesian space:
 Initial RMS(Int)=    0.0053965117
Transforming coordinates:
 Iter   0:  RMS(Cart)=    0.0083509281 RMS(Int)=    0.6131779511
 Iter   1:  RMS(Cart)=    0.0000914249 RMS(Int)=    0.0000540272
 Iter   2:  RMS(Cart)=    0.0000013728 RMS(Int)=    0.0000009943
 Iter   3:  RMS(Cart)=    0.0000000130 RMS(Int)=    0.0000000086
Imposing constraints:
 Iter   0:  RMS(Cart)=    0.0000002756 RMS(Int)=    0.0000000560
 Iter   1:  RMS(Cart)=    0.0000000422 RMS(Int)=    0.0000000244
CONVERGED
done
Storing new coordinates                 .... done

                                .--------------------.
          ----------------------|Geometry convergence|-------------------------
          Item                value                   Tolerance       Converged
          ---------------------------------------------------------------------
          RMS gradient        0.0019348570            0.0001000000      NO
          MAX gradient        0.0118601885            0.0003000000      NO
          RMS step            0.0053965117            0.0020000000      NO
          MAX step            0.0316559670            0.0040000000      NO
          ........................................................
          Max(Bonds)      0.0168      Max(Angles)    0.88
          Max(Dihed)        0.21      Max(Improp)    0.00
          ---------------------------------------------------------------------

The optimization has not yet converged - more geometry cycles are needed


    ---------------------------------------------------------------------------
                         Redundant Internal Coordinates
                            (Angstroem and degrees)

        Definition                    Value    dE/dq     Step     New-Value
    ----------------------------------------------------------------------------
     1. B(C   1,C   0)                1.4526 -0.004078  0.0000    1.4526 C 
     2. B(N   2,C   0)                1.4520 -0.004652  0.0000    1.4520 C 
     3. B(C   3,N   2)                1.3969  0.013831  0.0000    1.3969 C 
     4. B(C   4,C   1)                1.4246 -0.005364 -0.0000    1.4246 C 
     5. B(C   4,C   3)                1.4118  0.019169 -0.0000    1.4118 C 
     6. B(C   5,C   1)                1.4106  0.018250 -0.0000    1.4106 C 
     7. B(N   6,C   5)                1.3955  0.012796 -0.0000    1.3955 C 
     8. B(C   7,C   4)                1.4506 -0.005218  0.0000    1.4506 C 
     9. B(C   7,N   6)                1.4525 -0.004422  0.0000    1.4525 C 
    10. B(C   8,N   6)                1.4457 -0.002161  0.0000    1.4457 C 
    11. B(H   9,C   8)                1.1093 -0.000266  0.0004    1.1097   
    12. B(H  10,C   8)                1.1093 -0.000281  0.0004    1.1097   
    13. B(H  11,C   8)                1.1076 -0.000004  0.0000    1.1077   
    14. B(C  12,N   2)                1.4455 -0.002305  0.0000    1.4455 C 
    15. B(H  13,C  12)                1.1077  0.000026 -0.0000    1.1077   
    16. B(H  14,C  12)                1.1094 -0.000170  0.0003    1.1097   
    17. B(H  15,C  12)                1.1095 -0.000166  0.0003    1.1097   
    18. B(O  16,C   0)                1.2300  0.004655  0.0000    1.2300 C 
    19. B(O  17,C   7)                1.2313  0.006291 -0.0000    1.2313 C 
    20. B(H  18,C   5)                1.0800 -0.011860  0.0168    1.0968   
    21. B(H  19,C   3)                1.0800 -0.011837  0.0167    1.0967   
    22. A(N   2,C   0,O  16)          122.68 -0.002283   -0.00    122.68 C 
    23. A(C   1,C   0,O  16)          133.61 -0.003429   -0.00    133.61 C 
    24. A(C   1,C   0,N   2)          103.71  0.005712   -0.00    103.71 C 
    25. A(C   0,C   1,C   4)          108.64  0.000053   -0.00    108.64 C 
    26. A(C   0,C   1,C   5)          142.05 -0.004107   -0.00    142.05 C 
    27. A(C   4,C   1,C   5)          109.31  0.004054   -0.00    109.31 C 
    28. A(C   0,N   2,C  12)          119.18 -0.007944    0.00    119.18 C 
    29. A(C   3,N   2,C  12)          129.17  0.006391    0.00    129.17 C 
    30. A(C   0,N   2,C   3)          111.65  0.001553    0.00    111.65 C 
    31. A(C   4,C   3,H  19)          128.10  0.000327    0.88    128.98   
    32. A(N   2,C   3,C   4)          106.65 -0.011420   -0.00    106.65 C 
    33. A(N   2,C   3,H  19)          125.25  0.011094   -0.88    124.36   
    34. A(C   3,C   4,C   7)          141.97 -0.004202   -0.00    141.97 C 
    35. A(C   1,C   4,C   7)          108.67  0.000099    0.00    108.67 C 
    36. A(C   1,C   4,C   3)          109.35  0.004103    0.00    109.35 C 
    37. A(C   1,C   5,N   6)          106.71 -0.011272    0.00    106.71 C 
    38. A(N   6,C   5,H  18)          125.00  0.010644   -0.82    124.18   
    39. A(C   1,C   5,H  18)          128.29  0.000628    0.82    129.11   
    40. A(C   5,N   6,C   7)          111.61  0.001534   -0.00    111.61 C 
    41. A(C   5,N   6,C   8)          129.26  0.006565   -0.00    129.26 C 
    42. A(C   7,N   6,C   8)          119.13 -0.008099   -0.00    119.13 C 
    43. A(N   6,C   7,O  17)          122.68 -0.002192   -0.00    122.68 C 
    44. A(C   4,C   7,N   6)          103.70  0.005585    0.00    103.70 C 
    45. A(C   4,C   7,O  17)          133.63 -0.003393   -0.00    133.63 C 
    46. A(N   6,C   8,H  10)          111.80  0.000238   -0.07    111.73   
    47. A(H   9,C   8,H  10)          109.39  0.000405   -0.20    109.18   
    48. A(N   6,C   8,H  11)          105.81 -0.000842    0.21    106.02   
    49. A(H   9,C   8,H  11)          108.94 -0.000063    0.09    109.03   
    50. A(H  10,C   8,H  11)          108.95 -0.000052    0.08    109.04   
    51. A(N   6,C   8,H   9)          111.81  0.000258   -0.08    111.74   
    52. A(H  14,C  12,H  15)          109.40  0.000381   -0.21    109.19   
    53. A(N   2,C  12,H  13)          105.80 -0.000922    0.23    106.03   
    54. A(N   2,C  12,H  14)          111.84  0.000317   -0.09    111.75   
    55. A(H  13,C  12,H  14)          108.91 -0.000082    0.10    109.01   
    56. A(N   2,C  12,H  15)          111.85  0.000333   -0.09    111.75   
    57. A(H  13,C  12,H  15)          108.91 -0.000088    0.10    109.00   
    58. D(C   4,C   1,C   0,N   2)     -0.02 -0.000012   -0.00     -0.02 C 
    59. D(C   4,C   1,C   0,O  16)   -179.97  0.000021    0.00   -179.97 C 
    60. D(C   5,C   1,C   0,N   2)    179.90 -0.000014   -0.00    179.90 C 
    61. D(C   5,C   1,C   0,O  16)     -0.06  0.000019   -0.00     -0.06 C 
    62. D(C  12,N   2,C   0,C   1)    179.97  0.000016   -0.00    179.97 C 
    63. D(C   3,N   2,C   0,C   1)      0.02  0.000019    0.00      0.02 C 
    64. D(C   3,N   2,C   0,O  16)    179.98 -0.000011   -0.00    179.98 C 
    65. D(C  12,N   2,C   0,O  16)     -0.07 -0.000014    0.00     -0.07 C 
    66. D(H  19,C   3,N   2,C  12)      0.05  0.000007    0.00      0.05   
    67. D(C   4,C   3,N   2,C   0)     -0.02 -0.000017    0.00     -0.02 C 
    68. D(H  19,C   3,N   2,C   0)    179.99 -0.000006    0.00    180.00   
    69. D(C   4,C   3,N   2,C  12)   -179.96 -0.000003   -0.00   -179.96 C 
    70. D(C   3,C   4,C   1,C   0)      0.01  0.000000    0.00      0.01 C 
    71. D(C   3,C   4,C   1,C   5)   -179.93  0.000008    0.00   -179.93 C 
    72. D(C   7,C   4,C   1,C   0)    179.94 -0.000009   -0.00    179.94 C 
    73. D(C   7,C   4,C   1,C   5)     -0.01 -0.000001   -0.00     -0.01 C 
    74. D(C   1,C   4,C   3,H  19)    179.99  0.000000   -0.00    179.99   
    75. D(C   7,C   4,C   3,N   2)   -179.89  0.000014    0.00   -179.89 C 
    76. D(C   1,C   4,C   3,N   2)      0.00  0.000009   -0.00      0.00 C 
    77. D(C   7,C   4,C   3,H  19)      0.10  0.000005   -0.00      0.10   
    78. D(N   6,C   5,C   1,C   0)   -179.93  0.000001   -0.00   -179.93 C 
    79. D(N   6,C   5,C   1,C   4)     -0.01 -0.000004    0.00     -0.01 C 
    80. D(H  18,C   5,C   1,C   0)      0.10  0.000006   -0.01      0.08   
    81. D(H  18,C   5,C   1,C   4)   -179.99  0.000002   -0.01   -180.00   
    82. D(C   7,N   6,C   5,C   1)      0.03  0.000008   -0.00      0.03 C 
    83. D(C   7,N   6,C   5,H  18)   -180.00 -0.000000    0.01   -179.98   
    84. D(C   8,N   6,C   5,C   1)    179.94 -0.000009   -0.00    179.94 C 
    85. D(C   8,N   6,C   5,H  18)     -0.08 -0.000017    0.01     -0.07   
    86. D(N   6,C   7,C   4,C   1)      0.02  0.000009   -0.00      0.02 C 
    87. D(N   6,C   7,C   4,C   3)    179.91  0.000007    0.00    179.91 C 
    88. D(O  17,C   7,C   4,C   1)    179.99 -0.000016    0.00    179.99 C 
    89. D(O  17,C   7,C   4,C   3)     -0.12 -0.000018    0.00     -0.12 C 
    90. D(C   4,C   7,N   6,C   5)     -0.03 -0.000013   -0.00     -0.03 C 
    91. D(C   4,C   7,N   6,C   8)   -179.96 -0.000011   -0.00   -179.96 C 
    92. D(O  17,C   7,N   6,C   5)    179.99  0.000009    0.00    179.99 C 
    93. D(O  17,C   7,N   6,C   8)      0.07  0.000011    0.00      0.07 C 
    94. D(H   9,C   8,N   6,C   5)     61.59  0.000454   -0.19     61.39   
    95. D(H   9,C   8,N   6,C   7)   -118.51  0.000444   -0.19   -118.70   
    96. D(H  10,C   8,N   6,C   5)    -61.46 -0.000442    0.19    -61.27   
    97. D(H  10,C   8,N   6,C   7)    118.45 -0.000452    0.19    118.64   
    98. D(H  11,C   8,N   6,C   5)   -179.94  0.000005   -0.00   -179.94   
    99. D(H  11,C   8,N   6,C   7)     -0.03 -0.000005   -0.00     -0.03   
   100. D(H  13,C  12,N   2,C   0)     -0.00  0.000002    0.00      0.00   
   101. D(H  13,C  12,N   2,C   3)    179.93 -0.000007    0.00    179.94   
   102. D(H  14,C  12,N   2,C   0)   -118.45  0.000492   -0.20   -118.65   
   103. D(H  14,C  12,N   2,C   3)     61.49  0.000484   -0.20     61.29   
   104. D(H  15,C  12,N   2,C   0)    118.44 -0.000486    0.21    118.65   
   105. D(H  15,C  12,N   2,C   3)    -61.63 -0.000495    0.21    -61.41   
    ----------------------------------------------------------------------------

         *************************************************************
         *                GEOMETRY OPTIMIZATION CYCLE   2            *
         *************************************************************
---------------------------------
CARTESIAN COORDINATES (ANGSTROEM)
---------------------------------
  C     -4.401543   -0.314431    0.003071
  C     -3.394693   -1.361401    0.006299
[...]
 190   0.0000       2.689302        73.1796 
 191   0.0000       2.725773        74.1721 
 192   0.0000       2.821435        76.7752 
 193   0.0000       2.824909        76.8697 
 194   0.0000       2.826597        76.9156 
 195   0.0000       2.837067        77.2005 
 196   0.0000       2.913239        79.2733 
 197   0.0000       2.963889        80.6515 
 198   0.0000       3.002054        81.6900 
 199   0.0000       3.064449        83.3879 
 200   0.0000       3.066258        83.4371 
 201   0.0000       3.070291        83.5469 
 202   0.0000       3.171769        86.3082 
 203   0.0000       3.225321        87.7654 
 204   0.0000       3.394490        92.3688 
 205   0.0000       3.455363        94.0252 
 206   0.0000       3.545873        96.4881 
 207   0.0000       3.556671        96.7819 

                    ********************************
                    * MULLIKEN POPULATION ANALYSIS *
                    ********************************

-----------------------
MULLIKEN ATOMIC CHARGES
-----------------------
   0 C :    0.147907
   1 C :   -0.042302
   2 N :   -0.276157
   3 C :    0.079643
   4 C :   -0.041958
   5 C :    0.078578
   6 N :   -0.275844
   7 C :    0.147558
   8 C :    0.050598
   9 H :    0.052456
  10 H :    0.052422
  11 H :    0.072218
  12 C :    0.050559
  13 H :    0.072188
  14 H :    0.052462
  15 H :    0.052482
  16 O :   -0.177062
  17 O :   -0.178428
  18 H :    0.041215
  19 H :    0.041465
Sum of atomic charges:   -0.0000000

--------------------------------
MULLIKEN REDUCED ORBITAL CHARGES
--------------------------------
  0 C s       :     3.018875  s :     3.018875
      pz      :     0.904101  p :     2.728618
      px      :     0.907117
      py      :     0.917400
      dz2     :     0.005745  d :     0.104600
      dxz     :     0.022550
      dyz     :     0.007547
      dx2y2   :     0.021865
      dxy     :     0.046892
  1 C s       :     3.147130  s :     3.147130
      pz      :     1.119203  p :     2.858258
      px      :     0.947087
      py      :     0.791968
      dz2     :     0.003354  d :     0.036914
      dxz     :     0.005806
      dyz     :     0.005618
      dx2y2   :     0.010354
      dxy     :     0.011782
  2 N s       :     3.459918  s :     3.459918
      pz      :     1.542329  p :     3.789489
      px      :     1.091720
      py      :     1.155440
      dz2     :     0.002301  d :     0.026750
      dxz     :     0.004222
      dyz     :     0.003857
      dx2y2   :     0.008037
      dxy     :     0.008333
  3 C s       :     3.225511  s :     3.225511
      pz      :     0.949349  p :     2.649627
      px      :     0.757597
      py      :     0.942681
      dz2     :     0.003405  d :     0.045219
      dxz     :     0.008532
      dyz     :     0.005972
      dx2y2   :     0.014362
      dxy     :     0.012949
  4 C s       :     3.147077  s :     3.147077
      pz      :     1.118742  p :     2.857935
      px      :     0.947003
      py      :     0.792190
      dz2     :     0.003354  d :     0.036945
      dxz     :     0.005826
      dyz     :     0.005616
      dx2y2   :     0.010359
      dxy     :     0.011790
  5 C s       :     3.225435  s :     3.225435
      pz      :     0.949355  p :     2.650600
      px      :     0.758132
      py      :     0.943113
      dz2     :     0.003410  d :     0.045387
      dxz     :     0.008579
      dyz     :     0.006004
      dx2y2   :     0.014395
      dxy     :     0.012999
  6 N s       :     3.459626  s :     3.459626
      pz      :     1.542262  p :     3.789437
      px      :     1.091417
      py      :     1.155757
      dz2     :     0.002302  d :     0.026781
      dxz     :     0.004236
      dyz     :     0.003853
      dx2y2   :     0.008046
      dxy     :     0.008343
  7 C s       :     3.019177  s :     3.019177
      pz      :     0.904531  p :     2.728845
      px      :     0.906644
      py      :     0.917670
      dz2     :     0.005743  d :     0.104420
      dxz     :     0.022484
      dyz     :     0.007551
      dx2y2   :     0.021867
      dxy     :     0.046776
  8 C s       :     3.016591  s :     3.016591
      pz      :     1.027293  p :     2.896639
      px      :     1.023325
      py      :     0.846020
      dz2     :     0.006136  d :     0.036172
      dxz     :     0.002232
      dyz     :     0.011860
      dx2y2   :     0.007579
      dxy     :     0.008366
  9 H s       :     0.926069  s :     0.926069
      pz      :     0.010502  p :     0.021475
      px      :     0.005000
      py      :     0.005973
 10 H s       :     0.926103  s :     0.926103
      pz      :     0.010571  p :     0.021475
      px      :     0.005001
      py      :     0.005902
 11 H s       :     0.904677  s :     0.904677
      pz      :     0.004985  p :     0.023105
      px      :     0.013464
      py      :     0.004656
 12 C s       :     3.016524  s :     3.016524
      pz      :     1.027333  p :     2.896729
      px      :     1.023528
      py      :     0.845868
      dz2     :     0.006137  d :     0.036189
      dxz     :     0.002232
      dyz     :     0.011869
      dx2y2   :     0.007605
      dxy     :     0.008347
 13 H s       :     0.904715  s :     0.904715
      pz      :     0.004987  p :     0.023097
      px      :     0.013470
      py      :     0.004639
 14 H s       :     0.926063  s :     0.926063
      pz      :     0.010564  p :     0.021474
      px      :     0.005006
      py      :     0.005905
 15 H s       :     0.926043  s :     0.926043
      pz      :     0.010511  p :     0.021475
      px      :     0.005006
      py      :     0.005958
 16 O s       :     3.725446  s :     3.725446
      pz      :     1.400433  p :     4.434812
      px      :     1.314430
      py      :     1.719949
      dz2     :     0.001894  d :     0.016805
      dxz     :     0.005191
      dyz     :     0.000023
      dx2y2   :     0.005852
      dxy     :     0.003845
 17 O s       :     3.726502  s :     3.726502
      pz      :     1.400760  p :     4.435185
      px      :     1.314078
      py      :     1.720347
      dz2     :     0.001888  d :     0.016741
      dxz     :     0.005168
      dyz     :     0.000023
      dx2y2   :     0.005835
      dxy     :     0.003827
 18 H s       :     0.936930  s :     0.936930
      pz      :     0.005111  p :     0.021856
      px      :     0.008079
      py      :     0.008665
 19 H s       :     0.936670  s :     0.936670
      pz      :     0.005117  p :     0.021865
      px      :     0.008085
      py      :     0.008663


                     *******************************
                     * LOEWDIN POPULATION ANALYSIS *
                     *******************************

----------------------
LOEWDIN ATOMIC CHARGES
----------------------
   0 C :    0.059190
   1 C :   -0.123076
   2 N :   -0.002206
   3 C :    0.081458
   4 C :   -0.122768
   5 C :    0.080961
   6 N :   -0.002071
   7 C :    0.059536
   8 C :    0.007990
   9 H :    0.032791
  10 H :    0.032782
  11 H :    0.043392
  12 C :    0.007914
  13 H :    0.043398
  14 H :    0.032807
  15 H :    0.032817
  16 O :   -0.172352
  17 O :   -0.173412
  18 H :    0.040404
  19 H :    0.040445

-------------------------------
LOEWDIN REDUCED ORBITAL CHARGES
-------------------------------
  0 C s       :     2.844118  s :     2.844118
      pz      :     0.895845  p :     2.849758
      px      :     1.004326
      py      :     0.949587
      dz2     :     0.014015  d :     0.246934
      dxz     :     0.044051
      dyz     :     0.015105
      dx2y2   :     0.054407
      dxy     :     0.119356
  1 C s       :     2.855650  s :     2.855650
      pz      :     1.092270  p :     3.163437
      px      :     1.035876
      py      :     1.035291
      dz2     :     0.008657  d :     0.103988
      dxz     :     0.011983
      dyz     :     0.012011
      dx2y2   :     0.033425
      dxy     :     0.037912
  2 N s       :     3.101218  s :     3.101218
      pz      :     1.487861  p :     3.837132
      px      :     1.170984
      py      :     1.178288
      dz2     :     0.004945  d :     0.063856
      dxz     :     0.008023
      dyz     :     0.006305
      dx2y2   :     0.021305
      dxy     :     0.023278
  3 C s       :     2.883052  s :     2.883052
      pz      :     0.946165  p :     2.924709
      px      :     0.925876
      py      :     1.052668
      dz2     :     0.007377  d :     0.110781
      dxz     :     0.017217
      dyz     :     0.012034
      dx2y2   :     0.040980
      dxy     :     0.033173
  4 C s       :     2.855521  s :     2.855521
      pz      :     1.091743  p :     3.163154
      px      :     1.036307
      py      :     1.035104
      dz2     :     0.008659  d :     0.104093
      dxz     :     0.012036
      dyz     :     0.012000
      dx2y2   :     0.033477
      dxy     :     0.037921
  5 C s       :     2.882370  s :     2.882370
      pz      :     0.946127  p :     2.925414
      px      :     0.926387
      py      :     1.052901
      dz2     :     0.007402  d :     0.111255
      dxz     :     0.017321
      dyz     :     0.012105
      dx2y2   :     0.041098
      dxy     :     0.033329
  6 N s       :     3.100972  s :     3.100972
      pz      :     1.487815  p :     3.837181
      px      :     1.171095
      py      :     1.178271
      dz2     :     0.004947  d :     0.063918
      dxz     :     0.008054
      dyz     :     0.006294
      dx2y2   :     0.021314
      dxy     :     0.023309
  7 C s       :     2.844129  s :     2.844129
      pz      :     0.896204  p :     2.849865
      px      :     1.003972
      py      :     0.949690
      dz2     :     0.013998  d :     0.246469
      dxz     :     0.043916
      dyz     :     0.015121
      dx2y2   :     0.054410
      dxy     :     0.119022
  8 C s       :     2.843810  s :     2.843810
      pz      :     1.078045  p :     3.055408
      px      :     1.054666
      py      :     0.922697
      dz2     :     0.015882  d :     0.092791
      dxz     :     0.004449
      dyz     :     0.031524
      dx2y2   :     0.020610
      dxy     :     0.020326
  9 H s       :     0.903532  s :     0.903532
      pz      :     0.031469  p :     0.063678
      px      :     0.013609
      py      :     0.018600
 10 H s       :     0.903540  s :     0.903540
      pz      :     0.031719  p :     0.063678
      px      :     0.013616
      py      :     0.018343
 11 H s       :     0.886262  s :     0.886262
      pz      :     0.012023  p :     0.070346
      px      :     0.044412
      py      :     0.013911
 12 C s       :     2.843734  s :     2.843734
      pz      :     1.078042  p :     3.055511
      px      :     1.054907
      py      :     0.922562
      dz2     :     0.015886  d :     0.092841
      dxz     :     0.004453
      dyz     :     0.031543
      dx2y2   :     0.020681
      dxy     :     0.020278
 13 H s       :     0.886292  s :     0.886292
      pz      :     0.012026  p :     0.070309
      px      :     0.044421
      py      :     0.013863
 14 H s       :     0.903517  s :     0.903517
      pz      :     0.031689  p :     0.063676
      px      :     0.013622
      py      :     0.018364
 15 H s       :     0.903509  s :     0.903509
      pz      :     0.031499  p :     0.063674
      px      :     0.013622
      py      :     0.018553
 16 O s       :     3.558817  s :     3.558817
      pz      :     1.402858  p :     4.584032
      px      :     1.443269
      py      :     1.737905
      dz2     :     0.004121  d :     0.029503
      dxz     :     0.006890
      dyz     :     0.000022
      dx2y2   :     0.012609
      dxy     :     0.005862
 17 O s       :     3.559749  s :     3.559749
      pz      :     1.403275  p :     4.584272
      px      :     1.442539
      py      :     1.738458
      dz2     :     0.004109  d :     0.029391
      dxz     :     0.006858
      dyz     :     0.000022
      dx2y2   :     0.012572
      dxy     :     0.005830
 18 H s       :     0.889844  s :     0.889844
      pz      :     0.014070  p :     0.069752
      px      :     0.027177
      py      :     0.028505
 19 H s       :     0.889753  s :     0.889753
      pz      :     0.014084  p :     0.069803
      px      :     0.027199
      py      :     0.028520


                      *****************************
                      * MAYER POPULATION ANALYSIS *
                      *****************************

  NA   - Mulliken gross atomic population
  ZA   - Total nuclear charge
  QA   - Mulliken gross atomic charge
  VA   - Mayer's total valence
  BVA  - Mayer's bonded valence
  FA   - Mayer's free valence

  ATOM       NA         ZA         QA         VA         BVA        FA
  0 C      5.8521     6.0000     0.1479     4.1436     4.1436    -0.0000
  1 C      6.0423     6.0000    -0.0423     3.7661     3.7661    -0.0000
  2 N      7.2762     7.0000    -0.2762     3.3408     3.3408     0.0000
  3 C      5.9204     6.0000     0.0796     3.7508     3.7508    -0.0000
  4 C      6.0420     6.0000    -0.0420     3.7666     3.7666    -0.0000
  5 C      5.9214     6.0000     0.0786     3.7516     3.7516    -0.0000
  6 N      7.2758     7.0000    -0.2758     3.3412     3.3412     0.0000
  7 C      5.8524     6.0000     0.1476     4.1434     4.1434    -0.0000
  8 C      5.9494     6.0000     0.0506     3.9000     3.9000    -0.0000
  9 H      0.9475     1.0000     0.0525     0.9873     0.9873     0.0000
 10 H      0.9476     1.0000     0.0524     0.9873     0.9873    -0.0000
 11 H      0.9278     1.0000     0.0722     1.0377     1.0377    -0.0000
 12 C      5.9494     6.0000     0.0506     3.9004     3.9004    -0.0000
 13 H      0.9278     1.0000     0.0722     1.0375     1.0375     0.0000
 14 H      0.9475     1.0000     0.0525     0.9873     0.9873    -0.0000
 15 H      0.9475     1.0000     0.0525     0.9873     0.9873     0.0000
 16 O      8.1771     8.0000    -0.1771     2.3832     2.3832     0.0000
 17 O      8.1784     8.0000    -0.1784     2.3820     2.3820     0.0000
 18 H      0.9588     1.0000     0.0412     0.9957     0.9957     0.0000
 19 H      0.9585     1.0000     0.0415     0.9958     0.9958     0.0000

  Mayer bond orders larger than 0.100000
B(  0-C ,  1-C ) :   1.0114 B(  0-C ,  2-N ) :   0.9711 B(  0-C , 16-O ) :   2.0872 
B(  1-C ,  4-C ) :   1.2597 B(  1-C ,  5-C ) :   1.3888 B(  2-N ,  3-C ) :   1.1948 
B(  2-N , 12-C ) :   0.9792 B(  3-C ,  4-C ) :   1.3879 B(  3-C ,  5-C ) :   0.1076 
B(  3-C , 19-H ) :   0.9773 B(  4-C ,  7-C ) :   1.0136 B(  5-C ,  6-N ) :   1.1959 
B(  5-C , 18-H ) :   0.9773 B(  6-N ,  7-C ) :   0.9707 B(  6-N ,  8-C ) :   0.9790 
B(  7-C , 17-O ) :   2.0853 B(  8-C ,  9-H ) :   0.9669 B(  8-C , 10-H ) :   0.9668 
B(  8-C , 11-H ) :   0.9418 B( 12-C , 13-H ) :   0.9419 B( 12-C , 14-H ) :   0.9668 
B( 12-C , 15-H ) :   0.9668 

-------
TIMINGS
-------

Total SCF time: 0 days 0 hours 0 min 12 sec 

Total time                  ....      12.995 sec
Sum of individual times     ....      12.153 sec  ( 93.5%)

Fock matrix formation       ....       9.415 sec  ( 72.5%)
  Split-RI-J                ....       3.362 sec  ( 35.7% of F)
  XC integration            ....       5.794 sec  ( 61.5% of F)
    Basis function eval.    ....       1.966 sec  ( 33.9% of XC)
    Density eval.           ....       1.074 sec  ( 18.5% of XC)
    XC-Functional eval.     ....       0.688 sec  ( 11.9% of XC)
    XC-Potential eval.      ....       1.061 sec  ( 18.3% of XC)
Diagonalization             ....       0.004 sec  (  0.0%)
Density matrix formation    ....       0.005 sec  (  0.0%)
Population analysis         ....       0.025 sec  (  0.2%)
Initial guess               ....       0.005 sec  (  0.0%)
Orbital Transformation      ....       0.000 sec  (  0.0%)
Orbital Orthonormalization  ....       0.002 sec  (  0.0%)
DIIS solution               ....       0.001 sec  (  0.0%)
SOSCF solution              ....       0.039 sec  (  0.3%)
Grid generation             ....       2.660 sec  ( 20.5%)


-------------------------------------------------------------------------------
                          DFT DISPERSION CORRECTION                            
                                                                               
                              DFTD3 V3.1  Rev 1                                
                          USING Becke-Johnson damping                          
-------------------------------------------------------------------------------
The BP86 functional is recognized
Active option DFTDOPT                   ...         4   

molecular C6(AA) [au] = 4495.284634 


            DFT-D V3
 parameters
 s6 scaling factor         :     1.0000 
 a1 scaling factor         :     0.3946 
 s8 scaling factor         :     3.2822 
 a2 scaling factor         :     4.8516 
 ad hoc parameters k1-k3   :    16.0000     1.3333    -4.0000 

 Edisp/kcal,au: -21.050000603087  -0.033545307645 
 E6   /kcal   :  -7.892909047 
 E8   /kcal   : -13.157091556 
 % E8         :  62.503996101 

-------------------------   ----------------
Dispersion correction           -0.033545308
-------------------------   ----------------


-------------------------   --------------------
FINAL SINGLE POINT ENERGY      -569.256395199437
-------------------------   --------------------

                                *** OPTIMIZATION RUN DONE ***

                            ***************************************
                            *     ORCA property calculations      *
                            ***************************************

                                    ---------------------
                                    Active property flags
                                    ---------------------
   (+) Dipole Moment


------------------------------------------------------------------------------
                       ORCA ELECTRIC PROPERTIES CALCULATION
------------------------------------------------------------------------------

Dipole Moment Calculation                       ... on
Quadrupole Moment Calculation                   ... off
Polarizability Calculation                      ... off
GBWName                                         ... DPP2T_TT_Input_Dimethyl_Diketopyrrolopyrrole_1_Optimize_Monomer.gbw
Electron density file                           ... DPP2T_TT_Input_Dimethyl_Diketopyrrolopyrrole_1_Optimize_Monomer.scfp
The origin for moment calculation is the CENTER OF MASS  = (-5.197097, -1.997363  0.011467)

-------------
DIPOLE MOMENT
-------------
                                X             Y             Z
Electronic contribution:     -0.00691       0.00032      -0.00645
Nuclear contribution   :      0.00457       0.00182       0.00737
                        -----------------------------------------
Total Dipole Moment    :     -0.00234       0.00214       0.00092
                        -----------------------------------------
Magnitude (a.u.)       :      0.00330
Magnitude (Debye)      :      0.00840



--------------------
Rotational spectrum 
--------------------
 
Rotational constants in cm-1:     0.073581     0.021546     0.016775 
Rotational constants in MHz :  2205.904734   645.927127   502.895118 

 Dipole components along the rotational axes: 
x,y,z [a.u.] :     0.003139    -0.000439     0.000931 
x,y,z [Debye]:     0.007978    -0.001116     0.002366 

 

Timings for individual modules:

Sum of individual times         ...      138.173 sec (=   2.303 min)
GTO integral calculation        ...        1.905 sec (=   0.032 min)   1.4 %
SCF iterations                  ...       97.134 sec (=   1.619 min)  70.3 %
SCF Gradient evaluation         ...       38.373 sec (=   0.640 min)  27.8 %
Geometry relaxation             ...        0.760 sec (=   0.013 min)   0.5 %
                             ****ORCA TERMINATED NORMALLY****
TOTAL RUN TIME: 0 days 0 hours 2 minutes 20 seconds 640 msec
