
                                 *****************
                                 * O   R   C   A *
                                 *****************

           --- An Ab Initio, DFT and Semiempirical electronic structure package ---

                  #######################################################
                  #                        -***-                        #
                  #          Department of theory and spectroscopy      #
                  #               Directorship: Frank Neese             #
                  #        Max Planck Institute fuer Kohlenforschung    #
                  #                Kaiser Wilhelm Platz 1               #
                  #                 D-45470 Muelheim/Ruhr               #
                  #                      Germany                        #
                  #                                                     #
                  #                  All rights reserved                #
                  #                        -***-                        #
                  #######################################################


                         Program Version 4.2.0 -  RELEASE  -


 With contributions from (in alphabetic order):
   Daniel Aravena         : Magnetic Suceptibility
   Michael Atanasov       : Ab Initio Ligand Field Theory (pilot matlab implementation)
   Alexander A. Auer      : GIAO ZORA, VPT2
   Ute Becker             : Parallelization
   Giovanni Bistoni       : ED, misc. LED, open-shell LED, HFLED
   Martin Brehm           : Molecular dynamics
   Dmytro Bykov           : SCF Hessian
   Vijay G. Chilkuri      : MRCI spin determinant printing, contributions to CSF-ICE
   Dipayan Datta          : RHF DLPNO-CCSD density
   Achintya Kumar Dutta   : EOM-CC, STEOM-CC
   Dmitry Ganyushin       : Spin-Orbit,Spin-Spin,Magnetic field MRCI
   Miquel Garcia          : C-PCM Hessian, Gaussian charge scheme
   Yang Guo               : DLPNO-NEVPT2, CIM, IAO-localization
   Andreas Hansen         : Spin unrestricted coupled pair/coupled cluster methods
   Benjamin Helmich-Paris : CASSCF linear response (MC-RPA)
   Lee Huntington         : MR-EOM, pCC
   Robert Izsak           : Overlap fitted RIJCOSX, COSX-SCS-MP3, EOM
   Christian Kollmar      : KDIIS, OOCD, Brueckner-CCSD(T), CCSD density
   Simone Kossmann        : Meta GGA functionals, TD-DFT gradient, OOMP2, MP2 Hessian
   Martin Krupicka        : AUTO-CI
   Lucas Lang             : DCDCAS
   Dagmar Lenk            : GEPOL surface, SMD
   Dimitrios Liakos       : Extrapolation schemes; Compound Job, initial MDCI parallelization
   Dimitrios Manganas     : Further ROCIS development; embedding schemes
   Dimitrios Pantazis     : SARC Basis sets
   Taras Petrenko         : DFT Hessian,TD-DFT gradient, ASA, ECA, R-Raman, ABS, FL, XAS/XES, NRVS
   Peter Pinski           : DLPNO-MP2, DLPNO-MP2 Gradient
   Christoph Reimann      : Effective Core Potentials
   Marius Retegan         : Local ZFS, SOC
   Christoph Riplinger    : Optimizer, TS searches, QM/MM, DLPNO-CCSD(T), (RO)-DLPNO pert. Triples
   Tobias Risthaus        : Range-separated hybrids, TD-DFT gradient, RPA, STAB
   Michael Roemelt        : Original ROCIS implementation
   Masaaki Saitow         : Open-shell DLPNO-CCSD energy and density
   Barbara Sandhoefer     : DKH picture change effects
   Avijit Sen             : IP-ROCIS
   Kantharuban Sivalingam : CASSCF convergence, NEVPT2, FIC-MRCI
   Bernardo de Souza      : ESD, SOC TD-DFT
   Georgi Stoychev        : AutoAux, RI-MP2 NMR
   Willem Van den Heuvel  : Paramagnetic NMR
   Boris Wezisla          : Elementary symmetry handling
   Frank Wennmohs         : Technical directorship


 We gratefully acknowledge several colleagues who have allowed us to
 interface, adapt or use parts of their codes:
   Stefan Grimme, W. Hujo, H. Kruse,             : VdW corrections, initial TS optimization,
                  C. Bannwarth                     DFT functionals, gCP, sTDA/sTD-DF
   Ed Valeev, F. Pavosevic, A. Kumar             : LibInt (2-el integral package), F12 methods
   Garnet Chan, S. Sharma, J. Yang, R. Olivares  : DMRG
   Ulf Ekstrom                                   : XCFun DFT Library
   Mihaly Kallay                                 : mrcc  (arbitrary order and MRCC methods)
   Andreas Klamt, Michael Diedenhofen            : otool_cosmo (COSMO solvation model)
   Jiri Pittner, Ondrej Demel                    : Mk-CCSD
   Frank Weinhold                                : gennbo (NPA and NBO analysis)
   Christopher J. Cramer and Donald G. Truhlar   : smd solvation model
   Lars Goerigk                                  : TD-DFT with DH, B97 family of functionals
   V. Asgeirsson, H. Jonsson                     : NEB implementation
   FAccTs GmbH                                   : IRC, NEB, NEB-TS, Multilevel, MM, QM/MM, CI optimization
   S Lehtola, MJT Oliveira, MAL Marques          : LibXC Library


 Your calculation uses the libint2 library for the computation of 2-el integrals
 For citations please refer to: http://libint.valeyev.net

 Your ORCA version has been built with support for libXC version: 4.2.3
 For citations please refer to: https://tddft.org/programs/libxc/

 This ORCA versions uses:
   CBLAS   interface :  Fast vector & matrix operations
   LAPACKE interface :  Fast linear algebra routines
   SCALAPACK package :  Parallel linear algebra routines


Your calculation utilizes the atom-pairwise dispersion correction
with the Becke-Johnson damping scheme (D3BJ)
Cite in your paper:
S.Grimme, S.Ehrlich, L.Goerigk, J Comput Chem, (2011), 32, 1456–1465 
S.Grimme, J.Antony, S.Ehrlich and H.Krieg, J.Chem.Phys., 132, (2010), 154104 
   

----- Orbital basis set information -----
Your calculation utilizes the basis: def2-SVP
   F. Weigend and R. Ahlrichs, Phys. Chem. Chem. Phys. 7, 3297 (2005).

----- AuxJ basis set information -----
Your calculation utilizes the auxiliary basis: def2/J
   F. Weigend, Phys. Chem. Chem. Phys. 8, 1057 (2006).

================================================================================
                                        WARNINGS
                       Please study these warnings very carefully!
================================================================================


WARNING: Geometry Optimization
  ===> : Switching off AutoStart
         For restart on a previous wavefunction, please use MOREAD

INFO   : the flag for use of LIBINT has been found!

================================================================================
                                       INPUT FILE
================================================================================
NAME = N2200_Optimize_Monomer.inp
|  1> ! RI BP86 def2-SVP def2/J D3BJ TIGHTSCF  Opt Grid3 FinalGrid5
|  2> %maxcore 3000
|  3> %geom
|  4> Constraints
|  5> {D 0 2 75 81 0.0 C}
|  6> {D 4 2 75 76 0.0 C}
|  7> {D 9 10 30 36 0.0 C}
|  8> {D 7 10 30 31 0.0 C}
|  9> {D 36 34 37 38 0.0 C}
| 10> {D 32 34 37 43 0.0 C}
| 11> {D 43 41 44 45 0.0 C}
| 12> {D 39 41 44 48 0.0 C}
| 13> end
| 14> end
| 15> 
| 16> *xyz 0 1
| 17> C	-7.113603	-1.664364	-0.000583
| 18> C	-6.198807	-0.628903	-0.068575
| 19> C	-6.782314	-3.052158	-0.095368
| 20> H	-8.160402	-1.346509	0.117975
| 21> C	-5.378702	-3.346375	-0.145905
| 22> C	-4.431070	-2.274896	-0.263663
| 23> C	-4.809409	-0.892209	-0.240334
| 24> C	-3.861911	0.179155	-0.354444
| 25> C	-3.042688	-2.538705	-0.443813
| 26> C	-2.127077	-1.504361	-0.511208
| 27> C	-2.457630	-0.117485	-0.404715
| 28> H	-1.081308	-1.823696	-0.637665
| 29> C	-6.727703	0.754360	0.031334
| 30> N	-5.783607	1.761256	-0.211505
| 31> C	-4.420126	1.553260	-0.513337
| 32> C	-4.816968	-4.720127	0.011288
| 33> C	-2.515106	-3.921759	-0.556318
| 34> N	-3.457187	-4.928692	-0.311938
| 35> O	-7.906468	1.007596	0.269051
| 36> O	-3.772560	2.522842	-0.906993
| 37> O	-1.337994	-4.172706	-0.805625
| 38> O	-5.455821	-5.688305	0.419613
| 39> C	-6.253428	3.147431	-0.277436
| 40> H	-7.312429	3.148964	0.029842
| 41> H	-6.145540	3.540159	-1.306972
| 42> H	-5.645860	3.783405	0.393542
| 43> C	-2.987362	-6.315185	-0.254685
| 44> H	-3.609428	-6.950389	-0.912855
| 45> H	-3.073828	-6.707627	0.777038
| 46> H	-1.934706	-6.318251	-0.583091
| 47> C	-1.310382	0.793442	-0.313212
| 48> C	-1.180201	2.171435	-0.075984
| 49> C	0.149602	2.615420	0.061641
| 50> H	-2.047396	2.834625	-0.036514
| 51> C	1.099493	1.593955	-0.068479
| 52> H	0.425619	3.664039	0.241501
| 53> S	0.311258	0.063861	-0.346360
| 54> C	2.534569	1.680065	-0.008960
| 55> C	3.484768	0.658994	-0.147820
| 56> C	4.814172	1.101629	-0.008527
| 57> H	3.208237	-0.387798	-0.337038
| 58> C	4.945869	2.478147	0.238617
| 59> H	5.682097	0.439481	-0.053904
| 60> S	3.322578	3.207099	0.280609
| 61> C	6.095099	3.385582	0.330404
| 62> C	5.755500	4.777146	0.444960
| 63> C	6.674815	5.805512	0.394371
| 64> H	4.706568	5.089548	0.560177
| 65> C	7.497184	3.073630	0.274604
| 66> C	8.455965	4.139746	0.152608
| 67> C	8.051346	5.512243	0.207759
| 68> C	8.995880	6.563446	0.090269
| 69> C	9.847281	3.882374	-0.041187
| 70> C	10.349833	6.273491	-0.105933
| 71> C	10.765039	4.932074	-0.177422
| 72> H	11.059693	7.107723	-0.199703
| 73> H	11.819236	4.663689	-0.338861
| 74> C	6.192099	7.212924	0.509009
| 75> C	8.553827	7.983532	0.178172
| 76> N	7.177311	8.212848	0.389282
| 77> C	8.050343	1.698752	0.434355
| 78> C	10.365839	2.495896	-0.115066
| 79> N	9.416471	1.493434	0.145085
| 80> C	9.885859	0.107825	0.226851
| 81> H	9.287312	-0.533755	-0.447080
| 82> H	9.764323	-0.277582	1.257594
| 83> H	10.948650	0.104841	-0.066975
| 84> C	6.762342	9.614427	0.483680
| 85> H	5.669845	9.629527	0.631927
| 86> H	7.041062	10.153138	-0.442070
| 87> H	7.278752	10.105594	1.330810
| 88> O	5.009277	7.489011	0.690340
| 89> O	9.328778	8.930116	0.080045
| 90> O	11.541957	2.229993	-0.352672
| 91> O	7.400332	0.727745	0.823248
| 92> C	-7.930893	-3.967016	-0.180800
| 93> C	-8.061189	-5.344144	-0.397459
| 94> C	-9.403123	-5.787577	-0.530714
| 95> H	-7.196239	-6.010654	-0.425996
| 96> C	-10.324004	-4.758629	-0.414790
| 97> H	-9.684217	-6.836672	-0.695718
| 98> S	-9.557546	-3.240874	-0.155603
| 99> H	-11.419039	-4.813550	-0.460826
|100> **                         ****END OF INPUT****
================================================================================

                       *****************************
                       * Geometry Optimization Run *
                       *****************************

Geometry optimization settings:
Update method            Update   .... BFGS
Choice of coordinates    CoordSys .... Z-matrix Internals
Initial Hessian          InHess   .... Almoef's Model

Convergence Tolerances:
Energy Change            TolE     ....  5.0000e-06 Eh
Max. Gradient            TolMAXG  ....  3.0000e-04 Eh/bohr
RMS Gradient             TolRMSG  ....  1.0000e-04 Eh/bohr
Max. Displacement        TolMAXD  ....  4.0000e-03 bohr
RMS Displacement         TolRMSD  ....  2.0000e-03 bohr
Strict Convergence                ....  False
------------------------------------------------------------------------------
                        ORCA OPTIMIZATION COORDINATE SETUP
------------------------------------------------------------------------------

The optimization will be done in new redundant internal coordinates
Making redundant internal coordinates   ...  (new redundants) done
Evaluating the initial hessian          ...  (Almloef) done
Evaluating the coordinates              ...  done
Calculating the B-matrix                .... done
Calculating the G-matrix                .... done
Diagonalizing the G-matrix              .... done
Imposing constraints:
 Iter   0:  RMS(Cart)=    0.0164641182 RMS(Int)=    0.0272807734
 Iter   1:  RMS(Cart)=    0.0079870244 RMS(Int)=    0.0161875646
 Iter   2:  RMS(Cart)=    0.0038458114 RMS(Int)=    0.0098584915
 Iter   3:  RMS(Cart)=    0.0018377120 RMS(Int)=    0.0061257477
 Iter   4:  RMS(Cart)=    0.0008734456 RMS(Int)=    0.0038613343
 Iter   5:  RMS(Cart)=    0.0004167388 RMS(Int)=    0.0024577526
 Iter   6:  RMS(Cart)=    0.0002044398 RMS(Int)=    0.0015743776
 Iter   7:  RMS(Cart)=    0.0001075383 RMS(Int)=    0.0010126662
 Iter   8:  RMS(Cart)=    0.0000627948 RMS(Int)=    0.0006530866
 Iter   9:  RMS(Cart)=    0.0000402168 RMS(Int)=    0.0004219061
 Iter  10:  RMS(Cart)=    0.0000270444 RMS(Int)=    0.0002728635
 Iter  11:  RMS(Cart)=    0.0000184490 RMS(Int)=    0.0001766036
 Iter  12:  RMS(Cart)=    0.0000125636 RMS(Int)=    0.0001143607
 Iter  13:  RMS(Cart)=    0.0000084960 RMS(Int)=    0.0000740821
 Iter  14:  RMS(Cart)=    0.0000057011 RMS(Int)=    0.0000480030
 Iter  15:  RMS(Cart)=    0.0000037994 RMS(Int)=    0.0000311109
 Iter  16:  RMS(Cart)=    0.0000025176 RMS(Int)=    0.0000201665
 Iter  17:  RMS(Cart)=    0.0000016607 RMS(Int)=    0.0000130739
 Iter  18:  RMS(Cart)=    0.0000010915 RMS(Int)=    0.0000084768
 Iter  19:  RMS(Cart)=    0.0000007155 RMS(Int)=    0.0000054967
 Iter  20:  RMS(Cart)=    0.0000004680 RMS(Int)=    0.0000035646
 Iter  21:  RMS(Cart)=    0.0000003056 RMS(Int)=    0.0000023118
 Iter  22:  RMS(Cart)=    0.0000001993 RMS(Int)=    0.0000014994
 Iter  23:  RMS(Cart)=    0.0000001299 RMS(Int)=    0.0000009726
 Iter  24:  RMS(Cart)=    0.0000000846 RMS(Int)=    0.0000006309
 Iter  25:  RMS(Cart)=    0.0000000550 RMS(Int)=    0.0000004093
 Iter  26:  RMS(Cart)=    0.0000000358 RMS(Int)=    0.0000002655
 Iter  27:  RMS(Cart)=    0.0000000233 RMS(Int)=    0.0000001723
 Iter  28:  RMS(Cart)=    0.0000000151 RMS(Int)=    0.0000001118
 Iter  29:  RMS(Cart)=    0.0000000098 RMS(Int)=    0.0000000725
CONVERGED
Small eigenvalue found = 2.462e-04
Small eigenvalue found = 1.266e-03
Small eigenvalue found = 1.572e-03
Small eigenvalue found = 1.854e-03
Small eigenvalue found = 5.114e-03
Small eigenvalue found = 5.418e-03
Small eigenvalue found = 9.831e-03
Small eigenvalue found = 1.303e-02
Small eigenvalue found = 2.034e-02
Small eigenvalue found = 2.427e-02
Small eigenvalue found = 2.804e-02
The first mode is                       ....  249
The number of degrees of freedom        ....  243
Storing new coordinates                 .... done

    -----------------------------------------------------------------
                    Redundant Internal Coordinates


    -----------------------------------------------------------------
         Definition                    Initial Value    Approx d2E/dq
    -----------------------------------------------------------------
      1. B(C   1,C   0)                  1.3834         0.640251   
      2. B(C   2,C   0)                  1.4303         0.539545   
      3. B(H   3,C   0)                  1.1004         0.346604   
      4. B(C   4,C   2)                  1.4353         0.529582   
      5. B(C   5,C   4)                  1.4352         0.529110   
      6. B(C   6,C   1)                  1.4244         0.550381   
      7. B(C   6,C   5)                  1.4330         0.532122   
      8. B(C   7,C   6)                  1.4347         0.530023   
      9. B(C   8,C   5)                  1.4245         0.550100   
     10. B(C   9,C   8)                  1.3831         0.641017   
     11. B(C  10,C   7)                  1.4365         0.527362   
     12. B(C  10,C   9)                  1.4301         0.540015   
     13. B(H  11,C   9)                  1.1007         0.346186   
     14. B(C  12,C   1)                  1.4845         0.441874   
     15. B(N  13,C  12)                  1.4013         0.536501   
     16. B(C  14,C   7)                  1.4918         0.430095   
     17. B(C  14,N  13)                  1.4116         0.516351   
     18. B(C  15,C   4)                  1.4926         0.428809   
     19. B(C  16,C   8)                  1.4847         0.441486   
     20. B(N  17,C  15)                  1.4128         0.513983   
     21. B(N  17,C  16)                  1.4002         0.538598   
     22. B(O  18,C  12)                  1.2289         1.011454   
     23. B(O  19,C  14)                  1.2306         1.005021   
     24. B(O  20,C  16)                  1.2291         1.010553   
     25. B(O  21,C  15)                  1.2297         1.008275   
     26. B(C  22,N  13)                  1.4651         0.424654   
     27. B(H  23,C  22)                  1.1027         0.343709   
     28. B(H  24,C  22)                  1.1072         0.338091   
     29. B(H  25,C  22)                  1.1063         0.339219   
     30. B(C  26,N  17)                  1.4651         0.424752   
     31. B(H  27,C  26)                  1.1062         0.339317   
     32. B(H  28,C  26)                  1.1072         0.338024   
     33. B(H  29,C  26)                  1.1027         0.343687   
     34. B(C  30,C  10)                  1.4679         0.469534   
     35. B(C  31,C  30)                  1.4045         0.592798   
     36. B(C  32,C  31)                  1.4088         0.583313   
     37. B(H  33,C  31)                  1.0930         0.356898   
     38. B(C  34,C  32)                  1.4018         0.600198   
     39. B(H  35,C  32)                  1.0994         0.348193   
     40. B(S  36,C  30)                  1.7784         0.404260   
     41. B(S  36,C  34)                  1.7439         0.459783   
     42. B(C  37,C  34)                  1.4391         0.522083   
     43. B(C  38,C  37)                  1.4028         0.598524   
     44. B(C  39,C  38)                  1.4081         0.584681   
     45. B(H  40,C  38)                  1.0995         0.348246   
     46. B(C  41,C  39)                  1.4053         0.591917   
     47. B(H  42,C  39)                  1.0934         0.356666   
     48. B(S  43,C  37)                  1.7432         0.461277   
     49. B(S  43,C  41)                  1.7799         0.402135   
     50. B(C  44,C  41)                  1.4672         0.470561   
     51. B(C  45,C  44)                  1.4375         0.525764   
     52. B(C  46,C  45)                  1.3804         0.647455   
     53. B(H  47,C  45)                  1.1005         0.346458   
     54. B(C  48,C  44)                  1.4378         0.524845   
     55. B(C  49,C  48)                  1.4390         0.521852   
     56. B(C  50,C  46)                  1.4194         0.560127   
     57. B(C  50,C  49)                  1.4316         0.535545   
     58. B(C  51,C  50)                  1.4182         0.563540   
     59. B(C  52,C  49)                  1.4283         0.543130   
     60. B(C  53,C  51)                  1.3985         0.605623   
     61. B(C  54,C  52)                  1.4010         0.600124   
     62. B(C  54,C  53)                  1.4060         0.589077   
     63. B(H  55,C  53)                  1.0994         0.347902   
     64. B(H  56,C  54)                  1.0998         0.347445   
     65. B(C  57,C  46)                  1.4924         0.429064   
     66. B(C  58,C  51)                  1.4899         0.432878   
     67. B(N  59,C  57)                  1.4088         0.522180   
     68. B(N  59,C  58)                  1.4113         0.517356   
     69. B(C  60,C  48)                  1.4907         0.431805   
     70. B(C  61,C  52)                  1.4822         0.445416   
     71. B(N  62,C  60)                  1.4113         0.517229   
     72. B(N  62,C  61)                  1.4048         0.529676   
     73. B(C  63,N  62)                  1.4652         0.424461   
     74. B(H  64,C  63)                  1.1064         0.339076   
     75. B(H  65,C  63)                  1.1072         0.338135   
     76. B(H  66,C  63)                  1.1027         0.343731   
     77. B(C  67,N  59)                  1.4648         0.425201   
     78. B(H  68,C  67)                  1.1026         0.343796   
     79. B(H  69,C  67)                  1.1068         0.338603   
     80. B(H  70,C  67)                  1.1071         0.338240   
     81. B(O  71,C  57)                  1.2281         1.014410   
     82. B(O  72,C  58)                  1.2273         1.017410   
     83. B(O  73,C  61)                  1.2290         1.011016   
     84. B(O  74,C  60)                  1.2315         1.001712   
     85. B(C  75,C   2)                  1.4710         0.464189   
     86. B(C  76,C  75)                  1.4003         0.601945   
     87. B(C  77,C  76)                  1.4196         0.560484   
     88. B(H  78,C  76)                  1.0927         0.357029   
     89. B(C  79,C  77)                  1.3864         0.634719   
     90. B(H  80,C  77)                  1.0988         0.348949   
     91. B(S  81,C  75)                  1.7814         0.399774   
     92. B(S  81,C  79)                  1.7202         0.501300   
     93. B(H  82,C  79)                  1.0974         0.350472   
     94. A(C   1,C   0,C   2)          124.8301         0.425821   
     95. A(C   1,C   0,H   3)          114.6757         0.352547   
     96. A(C   2,C   0,H   3)          120.4881         0.342534   
     97. A(C   0,C   1,C  12)          117.2911         0.410935   
     98. A(C   0,C   1,C   6)          120.8342         0.427340   
     99. A(C   6,C   1,C  12)          121.8720         0.400101   
    100. A(C   0,C   2,C   4)          115.2275         0.411660   
    101. A(C   4,C   2,C  75)          129.3747         0.400858   
    102. A(C   0,C   2,C  75)          115.2703         0.402177   
    103. A(C   2,C   4,C   5)          119.8007         0.410237   
    104. A(C   5,C   4,C  15)          116.5631         0.395251   
    105. A(C   2,C   4,C  15)          123.4933         0.395312   
    106. A(C   4,C   5,C   8)          121.0377         0.413012   
    107. A(C   6,C   5,C   8)          115.9444         0.413429   
    108. A(C   4,C   5,C   6)          123.0045         0.410585   
    109. A(C   1,C   6,C   5)          115.9294         0.413466   
    110. A(C   5,C   6,C   7)          123.0172         0.410710   
    111. A(C   1,C   6,C   7)          121.0431         0.413176   
    112. A(C   6,C   7,C  10)          119.7241         0.410057   
    113. A(C   6,C   7,C  14)          116.6849         0.395578   
    114. A(C  10,C   7,C  14)          123.4324         0.395229   
    115. A(C   5,C   8,C  16)          121.9071         0.400003   
    116. A(C   9,C   8,C  16)          117.2374         0.410959   
    117. A(C   5,C   8,C   9)          120.8538         0.427393   
    118. A(C   8,C   9,C  10)          124.7618         0.425978   
    119. A(C   8,C   9,H  11)          114.6324         0.352547   
    120. A(C  10,C   9,H  11)          120.5989         0.342515   
    121. A(C   7,C  10,C   9)          115.2884         0.411417   
    122. A(C   7,C  10,C  30)          129.3476         0.401370   
    123. A(C   9,C  10,C  30)          115.2280         0.403051   
    124. A(C   1,C  12,O  18)          123.1443         0.443103   
    125. A(C   1,C  12,N  13)          114.7186         0.395762   
    126. A(N  13,C  12,O  18)          122.1075         0.455957   
    127. A(C  12,N  13,C  22)          118.1481         0.390513   
    128. A(C  14,N  13,C  22)          116.0828         0.387912   
    129. A(C  12,N  13,C  14)          125.5407         0.404155   
    130. A(C   7,C  14,O  19)          124.2319         0.440437   
    131. A(C   7,C  14,N  13)          118.3726         0.391262   
    132. A(N  13,C  14,O  19)          117.3879         0.452267   
    133. A(C   4,C  15,N  17)          118.3465         0.390743   
    134. A(C   4,C  15,O  21)          124.3132         0.440456   
    135. A(N  17,C  15,O  21)          117.3332         0.452155   
    136. A(C   8,C  16,N  17)          114.7022         0.395972   
    137. A(C   8,C  16,O  20)          123.0799         0.442962   
    138. A(N  17,C  16,O  20)          122.1888         0.456207   
    139. A(C  15,N  17,C  26)          116.0754         0.387617   
    140. A(C  16,N  17,C  26)          118.1514         0.390795   
    141. A(C  15,N  17,C  16)          125.4941         0.404106   
    142. A(N  13,C  22,H  23)          107.2633         0.326731   
    143. A(N  13,C  22,H  24)          110.2547         0.325846   
    144. A(H  23,C  22,H  24)          110.6226         0.285892   
    145. A(N  13,C  22,H  25)          109.9069         0.326025   
    146. A(H  23,C  22,H  25)          110.9542         0.286040   
    147. A(H  24,C  22,H  25)          107.8532         0.285307   
    148. A(N  17,C  26,H  27)          109.8671         0.326053   
    149. A(N  17,C  26,H  28)          110.2917         0.325848   
    150. A(H  27,C  26,H  28)          107.8779         0.285311   
    151. A(N  17,C  26,H  29)          107.2860         0.326740   
    152. A(H  27,C  26,H  29)          110.9790         0.286050   
    153. A(H  28,C  26,H  29)          110.5529         0.285880   
    154. A(C  10,C  30,S  36)          117.1968         0.403779   
    155. A(C  31,C  30,S  36)          108.8860         0.420834   
    156. A(C  10,C  30,C  31)          133.7980         0.409751   
    157. A(C  30,C  31,C  32)          114.3013         0.425896   
    158. A(C  30,C  31,H  33)          121.9765         0.349715   
    159. A(C  32,C  31,H  33)          123.6989         0.348765   
    160. A(C  31,C  32,H  35)          123.6101         0.347317   
    161. A(C  34,C  32,H  35)          122.7284         0.348991   
    162. A(C  31,C  32,C  34)          113.6528         0.426844   
    163. A(C  32,C  34,S  36)          110.4267         0.431602   
    164. A(C  32,C  34,C  37)          128.9495         0.418469   
    165. A(S  36,C  34,C  37)          120.6238         0.420959   
    166. A(C  30,S  36,C  34)           92.7260         0.424281   
    167. A(C  34,C  37,C  38)          128.9209         0.418261   
    168. A(C  34,C  37,S  43)          120.6312         0.421203   
    169. A(C  38,C  37,S  43)          110.4478         0.431637   
    170. A(C  37,C  38,C  39)          113.6508         0.426809   
    171. A(C  37,C  38,H  40)          122.7229         0.348836   
    172. A(C  39,C  38,H  40)          123.6193         0.347463   
    173. A(C  38,C  39,C  41)          114.3302         0.425962   
    174. A(C  38,C  39,H  42)          123.7532         0.348864   
    175. A(C  41,C  39,H  42)          121.8941         0.349589   
    176. A(C  39,C  41,S  43)          108.8347         0.420327   
    177. A(C  39,C  41,C  44)          133.6779         0.409801   
    178. A(S  43,C  41,C  44)          117.3661         0.403560   
    179. A(C  37,S  43,C  41)           92.7293         0.424128   
    180. A(C  41,C  44,C  45)          114.7602         0.401310   
    181. A(C  41,C  44,C  48)          128.8591         0.401187   
    182. A(C  45,C  44,C  48)          116.2397         0.409124   
    183. A(C  44,C  45,C  46)          124.2269         0.424703   
    184. A(C  44,C  45,H  47)          120.5251         0.341030   
    185. A(C  46,C  45,H  47)          115.2384         0.353190   
    186. A(C  45,C  46,C  50)          119.7836         0.429548   
    187. A(C  45,C  46,C  57)          118.9736         0.409610   
    188. A(C  50,C  46,C  57)          121.2290         0.399267   
    189. A(C  44,C  48,C  49)          119.6000         0.408583   
    190. A(C  44,C  48,C  60)          123.8153         0.395172   
    191. A(C  49,C  48,C  60)          116.4281         0.394776   
    192. A(C  48,C  49,C  50)          121.2522         0.410047   
    193. A(C  48,C  49,C  52)          121.8015         0.411070   
    194. A(C  50,C  49,C  52)          116.9424         0.412964   
    195. A(C  46,C  50,C  49)          118.4761         0.415231   
    196. A(C  46,C  50,C  51)          120.2414         0.419015   
    197. A(C  49,C  50,C  51)          121.2819         0.415680   
    198. A(C  50,C  51,C  53)          120.1860         0.424900   
    199. A(C  50,C  51,C  58)          120.2693         0.400316   
    200. A(C  53,C  51,C  58)          119.5447         0.405433   
    201. A(C  49,C  52,C  54)          121.0929         0.421420   
    202. A(C  49,C  52,C  61)          121.0901         0.399730   
    203. A(C  54,C  52,C  61)          117.8151         0.406827   
    204. A(C  51,C  53,C  54)          119.3912         0.428287   
    205. A(C  51,C  53,H  55)          118.6737         0.349472   
    206. A(C  54,C  53,H  55)          121.9350         0.347844   
    207. A(C  52,C  54,C  53)          121.0933         0.427587   
    208. A(C  52,C  54,H  56)          117.3486         0.348857   
    209. A(C  53,C  54,H  56)          121.5580         0.347767   
    210. A(C  46,C  57,O  71)          122.3344         0.440986   
    211. A(N  59,C  57,O  71)          121.7687         0.453958   
    212. A(C  46,C  57,N  59)          115.8963         0.391866   
    213. A(C  51,C  58,O  72)          122.8959         0.441927   
    214. A(N  59,C  58,O  72)          120.1679         0.453436   
    215. A(C  51,C  58,N  59)          116.9359         0.391837   
    216. A(C  57,N  59,C  67)          118.3972         0.388760   
    217. A(C  58,N  59,C  67)          116.1950         0.388131   
    218. A(C  57,N  59,C  58)          125.4074         0.402369   
    219. A(N  62,C  60,O  74)          117.4243         0.452135   
    220. A(C  48,C  60,N  62)          118.1660         0.391650   
    221. A(C  48,C  60,O  74)          124.3977         0.440490   
    222. A(C  52,C  61,O  73)          123.1483         0.443709   
    223. A(N  62,C  61,O  73)          121.8740         0.454860   
    224. A(C  52,C  61,N  62)          114.9563         0.395428   
    225. A(C  60,N  62,C  61)          126.0116         0.403364   
    226. A(C  60,N  62,C  63)          115.8697         0.387996   
    227. A(C  61,N  62,C  63)          117.9509         0.389610   
    228. A(H  65,C  63,H  66)          110.6678         0.285900   
    229. A(N  62,C  63,H  64)          109.9415         0.325978   
    230. A(N  62,C  63,H  65)          110.2408         0.325829   
    231. A(H  64,C  63,H  65)          107.8104         0.285294   
    232. A(N  62,C  63,H  66)          107.2453         0.326710   
    233. A(H  64,C  63,H  66)          110.9500         0.286024   
    234. A(N  59,C  67,H  68)          107.6050         0.326814   
    235. A(N  59,C  67,H  69)          109.9073         0.325996   
    236. A(H  68,C  67,H  69)          110.8137         0.285970   
    237. A(N  59,C  67,H  70)          109.9807         0.325939   
    238. A(H  68,C  67,H  70)          110.6855         0.285923   
    239. A(H  69,C  67,H  70)          107.8566         0.285245   
    240. A(C   2,C  75,C  76)          133.9227         0.410031   
    241. A(C   2,C  75,S  81)          117.3036         0.402173   
    242. A(C  76,C  75,S  81)          108.6622         0.421146   
    243. A(C  75,C  76,C  77)          114.1065         0.424025   
    244. A(C  75,C  76,H  78)          122.1055         0.350642   
    245. A(C  77,C  76,H  78)          123.7607         0.346449   
    246. A(C  76,C  77,C  79)          112.8583         0.428069   
    247. A(C  76,C  77,H  80)          123.6490         0.345119   
    248. A(C  79,C  77,H  80)          123.4854         0.352432   
    249. A(C  77,C  79,S  81)          111.8543         0.442822   
    250. A(C  77,C  79,H  82)          128.4811         0.352692   
    251. A(S  81,C  79,H  82)          119.6596         0.356526   
    252. A(C  75,S  81,C  79)           92.5155         0.430044   
    253. D(C   6,C   1,C   0,C   2)      0.1910         0.028482   
    254. D(C   6,C   1,C   0,H   3)   -178.9081         0.028482   
    255. D(C  12,C   1,C   0,C   2)    179.6142         0.028482   
    256. D(C  12,C   1,C   0,H   3)      0.5150         0.028482   
    257. D(C   4,C   2,C   0,C   1)      4.9744         0.019890   
    258. D(C   4,C   2,C   0,H   3)   -175.9755         0.019890   
    259. D(C  75,C   2,C   0,C   1)   -171.3104         0.019890   
    260. D(C  75,C   2,C   0,H   3)      7.7397         0.019890   
    261. D(C   5,C   4,C   2,C   0)     -6.9459         0.019143   
    262. D(C   5,C   4,C   2,C  75)    168.7068         0.019143   
    263. D(C  15,C   4,C   2,C   0)    168.5562         0.019143   
    264. D(C  15,C   4,C   2,C  75)    -15.7911         0.019143   
    265. D(C   6,C   5,C   4,C  15)   -171.5051         0.019108   
    266. D(C   8,C   5,C   4,C   2)   -174.3180         0.019108   
    267. D(C   6,C   5,C   4,C   2)      4.3018         0.019108   
    268. D(C   8,C   5,C   4,C  15)      9.8751         0.019108   
    269. D(C   7,C   6,C   5,C   8)     -1.4921         0.019331   
    270. D(C   5,C   6,C   1,C  12)    177.3901         0.020723   
    271. D(C   5,C   6,C   1,C   0)     -3.2136         0.020723   
    272. D(C   7,C   6,C   1,C  12)     -1.4789         0.020723   
    273. D(C   1,C   6,C   5,C   4)      0.9787         0.019331   
    274. D(C   1,C   6,C   5,C   8)    179.6636         0.019331   
    275. D(C   7,C   6,C   5,C   4)    179.8230         0.019331   
    276. D(C   7,C   6,C   1,C   0)    177.9175         0.020723   
    277. D(C  10,C   7,C   6,C   5)     -4.0661         0.019175   
    278. D(C  14,C   7,C   6,C   1)     -9.7003         0.019175   
    279. D(C  10,C   7,C   6,C   1)    174.7208         0.019175   
    280. D(C  14,C   7,C   6,C   5)    171.5128         0.019175   
    281. D(C   9,C   8,C   5,C   6)      3.5715         0.020702   
    282. D(C  16,C   8,C   5,C   4)      1.7977         0.020702   
    283. D(C   9,C   8,C   5,C   4)   -177.7157         0.020702   
    284. D(C  16,C   8,C   5,C   6)   -176.9151         0.020702   
    285. D(C  10,C   9,C   8,C   5)     -0.1051         0.028555   
    286. D(C  10,C   9,C   8,C  16)   -179.6405         0.028555   
    287. D(H  11,C   9,C   8,C   5)    178.9319         0.028555   
    288. D(H  11,C   9,C   8,C  16)     -0.6035         0.028555   
    289. D(C  30,C  10,C   7,C   6)   -168.3539         0.018979   
    290. D(C  30,C  10,C   9,C   8)    170.8119         0.019926   
    291. D(C   9,C  10,C   7,C  14)   -168.1086         0.018979   
    292. D(C  30,C  10,C   7,C  14)     16.3802         0.018979   
    293. D(C   7,C  10,C   9,H  11)    175.6651         0.019926   
    294. D(C   9,C  10,C   7,C   6)      7.1573         0.018979   
    295. D(C  30,C  10,C   9,H  11)     -8.1711         0.019926   
    296. D(C   7,C  10,C   9,C   8)     -5.3519         0.019926   
    297. D(N  13,C  12,C   1,C   0)   -172.4281         0.013320   
    298. D(N  13,C  12,C   1,C   6)      6.9887         0.013320   
    299. D(O  18,C  12,C   1,C   0)      5.6270         0.013320   
    300. D(O  18,C  12,C   1,C   6)   -174.9563         0.013320   
    301. D(C  14,N  13,C  12,C   1)     -0.7770         0.022883   
    302. D(C  14,N  13,C  12,O  18)   -178.8544         0.022883   
    303. D(C  22,N  13,C  12,C   1)    173.5005         0.022883   
    304. D(C  22,N  13,C  12,O  18)     -4.5770         0.022883   
    305. D(N  13,C  14,C   7,C   6)     15.3451         0.012639   
    306. D(O  19,C  14,N  13,C  12)    168.6160         0.021126   
    307. D(O  19,C  14,C   7,C   6)   -163.6264         0.012639   
    308. D(O  19,C  14,C   7,C  10)     11.7726         0.012639   
    309. D(C   7,C  14,N  13,C  12)    -10.4263         0.021126   
    310. D(N  13,C  14,C   7,C  10)   -169.2559         0.012639   
    311. D(C   7,C  14,N  13,C  22)    175.1913         0.021126   
    312. D(O  19,C  14,N  13,C  22)     -5.7664         0.021126   
    313. D(N  17,C  15,C   4,C   2)    168.2417         0.012565   
    314. D(N  17,C  15,C   4,C   5)    -16.1218         0.012565   
    315. D(O  21,C  15,C   4,C   2)    -12.7568         0.012565   
    316. D(O  21,C  15,C   4,C   5)    162.8798         0.012565   
    317. D(N  17,C  16,C   8,C   5)     -7.2004         0.013297   
    318. D(N  17,C  16,C   8,C   9)    172.3297         0.013297   
    319. D(O  20,C  16,C   8,C   5)    174.7237         0.013297   
    320. D(O  20,C  16,C   8,C   9)     -5.7461         0.013297   
    321. D(C  16,N  17,C  15,C   4)     11.3910         0.020925   
    322. D(C  16,N  17,C  15,O  21)   -167.6807         0.020925   
    323. D(C  26,N  17,C  15,C   4)   -174.8173         0.020925   
    324. D(C  26,N  17,C  15,O  21)      6.1110         0.020925   
    325. D(C  15,N  17,C  16,C   8)      0.3246         0.023071   
    326. D(C  15,N  17,C  16,O  20)    178.4195         0.023071   
    327. D(C  26,N  17,C  16,C   8)   -173.3504         0.023071   
    328. D(C  26,N  17,C  16,O  20)      4.7446         0.023071   
    329. D(H  23,C  22,N  13,C  12)      7.9035         0.015375   
    330. D(H  23,C  22,N  13,C  14)   -177.2794         0.015375   
    331. D(H  24,C  22,N  13,C  12)   -112.6147         0.015375   
    332. D(H  24,C  22,N  13,C  14)     62.2024         0.015375   
    333. D(H  25,C  22,N  13,C  12)    128.6225         0.015375   
    334. D(H  25,C  22,N  13,C  14)    -56.5604         0.015375   
    335. D(H  27,C  26,N  17,C  15)     56.2522         0.015382   
    336. D(H  27,C  26,N  17,C  16)   -129.4790         0.015382   
    337. D(H  28,C  26,N  17,C  15)    -62.5391         0.015382   
    338. D(H  28,C  26,N  17,C  16)    111.7297         0.015382   
    339. D(H  29,C  26,N  17,C  15)    176.9920         0.015382   
    340. D(H  29,C  26,N  17,C  16)     -8.7392         0.015382   
    341. D(C  31,C  30,C  10,C   7)      0.0000         0.015012 C 
    342. D(C  31,C  30,C  10,C   9)   -175.5134         0.015012   
    343. D(S  36,C  30,C  10,C   7)    175.5134         0.015012   
    344. D(S  36,C  30,C  10,C   9)     -0.0000         0.015012 C 
    345. D(C  32,C  31,C  30,C  10)    175.2663         0.024195   
    346. D(C  32,C  31,C  30,S  36)     -0.5166         0.024195   
    347. D(H  33,C  31,C  30,C  10)     -6.4290         0.024195   
    348. D(H  33,C  31,C  30,S  36)    177.7882         0.024195   
    349. D(C  34,C  32,C  31,C  30)      0.9168         0.023389   
    350. D(C  34,C  32,C  31,H  33)   -177.3547         0.023389   
    351. D(H  35,C  32,C  31,C  30)    179.8644         0.023389   
    352. D(H  35,C  32,C  31,H  33)      1.5929         0.023389   
    353. D(S  36,C  34,C  32,C  31)     -0.8691         0.024835   
    354. D(S  36,C  34,C  32,H  35)   -179.8272         0.024835   
    355. D(C  37,C  34,C  32,C  31)    179.1395         0.024835   
    356. D(C  37,C  34,C  32,H  35)      0.1814         0.024835   
    357. D(C  34,S  36,C  30,C  10)   -176.5652         0.003877   
    358. D(C  34,S  36,C  30,C  31)      0.0137         0.003877   
    359. D(C  30,S  36,C  34,C  32)      0.4811         0.004609   
    360. D(C  30,S  36,C  34,C  37)   -179.5267         0.004609   
    361. D(C  38,C  37,C  34,C  32)    179.9906         0.018592   
    362. D(C  38,C  37,C  34,S  36)     -0.0000         0.018592 C 
    363. D(S  43,C  37,C  34,C  32)      0.0000         0.018592 C 
    364. D(S  43,C  37,C  34,S  36)   -179.9906         0.018592   
    365. D(C  39,C  38,C  37,C  34)   -179.1786         0.024689   
    366. D(C  39,C  38,C  37,S  43)      0.8128         0.024689   
    367. D(H  40,C  38,C  37,C  34)     -0.1163         0.024689   
    368. D(H  40,C  38,C  37,S  43)    179.8751         0.024689   
    369. D(C  41,C  39,C  38,C  37)     -0.9627         0.023504   
    370. D(C  41,C  39,C  38,H  40)    179.9847         0.023504   
    371. D(H  42,C  39,C  38,C  37)    177.3350         0.023504   
    372. D(H  42,C  39,C  38,H  40)     -1.7176         0.023504   
    373. D(S  43,C  41,C  39,C  38)      0.6396         0.024119   
    374. D(S  43,C  41,C  39,H  42)   -177.6934         0.024119   
    375. D(C  44,C  41,C  39,C  38)   -175.1143         0.024119   
    376. D(C  44,C  41,C  39,H  42)      6.5527         0.024119   
    377. D(C  41,S  43,C  37,C  34)    179.6186         0.004630   
    378. D(C  41,S  43,C  37,C  38)     -0.3736         0.004630   
    379. D(C  37,S  43,C  41,C  39)     -0.1437         0.003851   
    380. D(C  37,S  43,C  41,C  44)    176.3995         0.003851   
    381. D(C  45,C  44,C  41,C  39)    175.4742         0.015078   
    382. D(C  45,C  44,C  41,S  43)      0.0000         0.015078 C 
    383. D(C  48,C  44,C  41,C  39)     -0.0000         0.015078 C 
    384. D(C  48,C  44,C  41,S  43)   -175.4742         0.015078   
    385. D(C  46,C  45,C  44,C  41)   -171.5500         0.018861   
    386. D(C  46,C  45,C  44,C  48)      4.5220         0.018861   
    387. D(H  47,C  45,C  44,C  41)      7.2669         0.018861   
    388. D(H  47,C  45,C  44,C  48)   -176.6612         0.018861   
    389. D(C  50,C  46,C  45,C  44)      0.9526         0.029171   
    390. D(C  50,C  46,C  45,H  47)   -177.9207         0.029171   
    391. D(C  57,C  46,C  45,C  44)    179.6191         0.029171   
    392. D(C  57,C  46,C  45,H  47)      0.7458         0.029171   
    393. D(C  49,C  48,C  44,C  41)    167.9470         0.018794   
    394. D(C  49,C  48,C  44,C  45)     -7.4711         0.018794   
    395. D(C  60,C  48,C  44,C  41)    -16.7686         0.018794   
    396. D(C  60,C  48,C  44,C  45)    167.8134         0.018794   
    397. D(C  50,C  49,C  48,C  44)      5.3872         0.018575   
    398. D(C  50,C  49,C  48,C  60)   -170.2384         0.018575   
    399. D(C  52,C  49,C  48,C  44)   -173.8813         0.018575   
    400. D(C  52,C  49,C  48,C  60)     10.4931         0.018575   
    401. D(C  49,C  50,C  46,C  45)     -3.3583         0.021491   
    402. D(C  49,C  50,C  46,C  57)    178.0061         0.021491   
    403. D(C  51,C  50,C  46,C  45)    176.9345         0.021491   
    404. D(C  51,C  50,C  46,C  57)     -1.7012         0.021491   
    405. D(C  46,C  50,C  49,C  48)      0.2024         0.019588   
    406. D(C  46,C  50,C  49,C  52)    179.5050         0.019588   
    407. D(C  51,C  50,C  49,C  48)    179.9065         0.019588   
    408. D(C  51,C  50,C  49,C  52)     -0.7909         0.019588   
    409. D(C  53,C  51,C  50,C  46)   -179.2630         0.021764   
    410. D(C  53,C  51,C  50,C  49)      1.0381         0.021764   
    411. D(C  58,C  51,C  50,C  46)      0.8207         0.021764   
    412. D(C  58,C  51,C  50,C  49)   -178.8782         0.021764   
    413. D(C  54,C  52,C  49,C  48)    179.0956         0.020163   
    414. D(C  54,C  52,C  49,C  50)     -0.2029         0.020163   
    415. D(C  61,C  52,C  49,C  48)     -0.4033         0.020163   
    416. D(C  61,C  52,C  49,C  50)   -179.7018         0.020163   
    417. D(C  54,C  53,C  51,C  50)     -0.2636         0.025311   
    418. D(C  54,C  53,C  51,C  58)    179.6533         0.025311   
    419. D(H  55,C  53,C  51,C  50)    179.6427         0.025311   
    420. D(H  55,C  53,C  51,C  58)     -0.4404         0.025311   
    421. D(C  53,C  54,C  52,C  49)      0.9728         0.024828   
    422. D(C  53,C  54,C  52,C  61)   -179.5124         0.024828   
    423. D(H  56,C  54,C  52,C  49)   -179.1545         0.024828   
    424. D(H  56,C  54,C  52,C  61)      0.3604         0.024828   
    425. D(C  52,C  54,C  53,C  51)     -0.7329         0.023877   
    426. D(C  52,C  54,C  53,H  55)    179.3640         0.023877   
    427. D(H  56,C  54,C  53,C  51)    179.3997         0.023877   
    428. D(H  56,C  54,C  53,H  55)     -0.5033         0.023877   
    429. D(N  59,C  57,C  46,C  45)   -177.2854         0.012580   
    430. D(N  59,C  57,C  46,C  50)      1.3611         0.012580   
    431. D(O  71,C  57,C  46,C  45)      2.4314         0.012580   
    432. D(O  71,C  57,C  46,C  50)   -178.9221         0.012580   
    433. D(N  59,C  58,C  51,C  50)      0.3411         0.012797   
    434. D(N  59,C  58,C  51,C  53)   -179.5757         0.012797   
    435. D(O  72,C  58,C  51,C  50)   -179.8368         0.012797   
    436. D(O  72,C  58,C  51,C  53)      0.2463         0.012797   
    437. D(C  58,N  59,C  57,C  46)     -0.1527         0.021626   
    438. D(C  58,N  59,C  57,O  71)   -179.8712         0.021626   
    439. D(C  67,N  59,C  57,C  46)    179.6030         0.021626   
    440. D(C  67,N  59,C  57,O  71)     -0.1155         0.021626   
    441. D(C  57,N  59,C  58,C  51)     -0.6677         0.021212   
    442. D(C  57,N  59,C  58,O  72)    179.5052         0.021212   
    443. D(C  67,N  59,C  58,C  51)    179.5718         0.021212   
    444. D(C  67,N  59,C  58,O  72)     -0.2553         0.021212   
    445. D(N  62,C  60,C  48,C  44)    170.1404         0.012736   
    446. D(N  62,C  60,C  48,C  49)    -14.4379         0.012736   
    447. D(O  74,C  60,C  48,C  44)    -11.1531         0.012736   
    448. D(O  74,C  60,C  48,C  49)    164.2685         0.012736   
    449. D(N  62,C  61,C  52,C  49)     -5.7353         0.013529   
    450. D(N  62,C  61,C  52,C  54)    174.7498         0.013529   
    451. D(O  73,C  61,C  52,C  49)    175.9195         0.013529   
    452. D(O  73,C  61,C  52,C  54)     -3.5953         0.013529   
    453. D(C  61,N  62,C  60,C  48)      8.9553         0.021201   
    454. D(C  61,N  62,C  60,O  74)   -169.8422         0.021201   
    455. D(C  63,N  62,C  60,C  48)   -175.8752         0.021201   
    456. D(C  63,N  62,C  60,O  74)      5.3273         0.021201   
    457. D(C  60,N  62,C  61,C  52)      1.2574         0.022278   
    458. D(C  60,N  62,C  61,O  73)    179.6258         0.022278   
    459. D(C  63,N  62,C  61,C  52)   -173.8220         0.022278   
    460. D(C  63,N  62,C  61,O  73)      4.5465         0.022278   
    461. D(H  64,C  63,N  62,C  60)     56.8091         0.015361   
    462. D(H  64,C  63,N  62,C  61)   -127.6134         0.015361   
    463. D(H  65,C  63,N  62,C  60)    -61.9139         0.015361   
    464. D(H  65,C  63,N  62,C  61)    113.6636         0.015361   
    465. D(H  66,C  63,N  62,C  60)    177.5321         0.015361   
    466. D(H  66,C  63,N  62,C  61)     -6.8904         0.015361   
    467. D(H  68,C  67,N  59,C  57)     -0.6191         0.015415   
    468. D(H  68,C  67,N  59,C  58)    179.1590         0.015415   
    469. D(H  69,C  67,N  59,C  57)   -121.3758         0.015415   
    470. D(H  69,C  67,N  59,C  58)     58.4023         0.015415   
    471. D(H  70,C  67,N  59,C  57)    120.0249         0.015415   
    472. D(H  70,C  67,N  59,C  58)    -60.1970         0.015415   
    473. D(C  76,C  75,C   2,C   0)    175.6512         0.014675   
    474. D(C  76,C  75,C   2,C   4)     -0.0000         0.014675 C 
    475. D(S  81,C  75,C   2,C   0)      0.0000         0.014675 C 
    476. D(S  81,C  75,C   2,C   4)   -175.6512         0.014675   
    477. D(C  77,C  76,C  75,C   2)   -175.3380         0.024987   
    478. D(C  77,C  76,C  75,S  81)      0.5837         0.024987   
    479. D(H  78,C  76,C  75,C   2)      6.4967         0.024987   
    480. D(H  78,C  76,C  75,S  81)   -177.5816         0.024987   
    481. D(C  79,C  77,C  76,C  75)     -0.6249         0.021520   
    482. D(C  79,C  77,C  76,H  78)    177.5057         0.021520   
    483. D(H  80,C  77,C  76,C  75)   -179.6710         0.021520   
    484. D(H  80,C  77,C  76,H  78)     -1.5404         0.021520   
    485. D(S  81,C  79,C  77,C  76)      0.3567         0.027960   
    486. D(S  81,C  79,C  77,H  80)    179.4047         0.027960   
    487. D(H  82,C  79,C  77,C  76)   -178.8102         0.027960   
    488. D(H  82,C  79,C  77,H  80)      0.2377         0.027960   
    489. D(C  79,S  81,C  75,C   2)    176.3754         0.003823   
    490. D(C  79,S  81,C  75,C  76)     -0.3198         0.003823   
    491. D(C  75,S  81,C  79,C  77)     -0.0186         0.005226   
    492. D(C  75,S  81,C  79,H  82)    179.2309         0.005226   
    -----------------------------------------------------------------

Number of atoms                         .... 83
Number of degrees of freedom            .... 492

         *************************************************************
         *                GEOMETRY OPTIMIZATION CYCLE   1            *
         *************************************************************
---------------------------------
CARTESIAN COORDINATES (ANGSTROEM)
---------------------------------
  C     -7.109892   -1.664158    0.004964
  C     -6.195072   -0.628679   -0.064401
  C     -6.780386   -3.052906   -0.087683
  H     -8.156141   -1.345478    0.126174
  C     -5.376801   -3.345558   -0.152904
  C     -4.429617   -2.274042   -0.273530
  C     -4.806757   -0.891821   -0.244238
  C     -3.859698    0.179592   -0.361108
  C     -3.042312   -2.537681   -0.460813
  C     -2.126691   -1.503311   -0.529678
  C     -2.455371   -0.115209   -0.427427
  H     -1.081393   -1.823654   -0.657486
  C     -6.723254    0.754532    0.042782
  N     -5.780244    1.762283   -0.199656
  C     -4.418745    1.554732   -0.509239
  C     -4.814288   -4.720198   -0.005168
  C     -2.515336   -3.920692   -0.579271
  N     -3.456402   -4.928384   -0.335138
  O     -7.900788    1.007029    0.287394
  O     -3.773441    2.525619   -0.903404
  O     -1.339343   -4.170948   -0.834560
  O     -5.450995   -5.689494    0.403862
  C     -6.249803    3.148950   -0.257122
  H     -7.307326    3.149549    0.055254
  H     -6.146701    3.546242   -1.285419
  H     -5.638744    3.781666    0.413782
  C     -2.986836   -6.315261   -0.285072
  H     -3.611898   -6.947768   -0.943014
  H     -3.069105   -6.711550    0.745539
  H     -1.935562   -6.317472   -0.617916
  C     -1.307512    0.793047   -0.316991
  C     -1.179003    2.177872   -0.120798
  C      0.149871    2.621631    0.027043
  H     -2.045105    2.844515   -0.115324
  C      1.099627    1.595260   -0.070188
  H      0.425976    3.673864    0.185701
  S      0.312713    0.059966   -0.324787
  C      2.533873    1.679066    0.012674
  C      3.483813    0.651440   -0.084544
  C      4.812340    1.094525    0.062223
  H      3.207076   -0.400658   -0.244103
  C      4.942381    2.480238    0.256639
  H      5.679074    0.428056    0.057111
  S      3.320682    3.213649    0.267416
  C      6.092538    3.385101    0.362240
  C      5.754905    4.778700    0.463096
  C      6.674317    5.806659    0.403400
  H      4.706457    5.092955    0.577698
  C      7.494483    3.074289    0.289948
  C      8.452864    4.139648    0.158253
  C      8.049625    5.512284    0.211816
  C      8.993830    6.562682    0.084065
  C      9.842557    3.880899   -0.046521
  C     10.346326    6.271450   -0.120044
  C     10.760073    4.929639   -0.191516
  H     11.055938    7.105016   -0.221617
  H     11.812818    4.660163   -0.360625
  C      6.192393    7.214817    0.512718
  C      8.552780    7.983291    0.168114
  N      7.177310    8.213961    0.384245
  C      8.048338    1.698947    0.444284
  C     10.359632    2.493958   -0.123567
  N      9.411722    1.492256    0.143981
  C      9.880610    0.106266    0.222170
  H      9.276162   -0.534895   -0.446918
  H      9.766965   -0.278919    1.253927
  H     10.941058    0.102365   -0.080121
  C      6.763085    9.616082    0.473865
  H      5.671230    9.632139    0.626746
  H      7.037949   10.150390   -0.455608
  H      7.283261   10.111092    1.316471
  O      5.010423    7.492056    0.697853
  O      9.327483    8.929188    0.061401
  O     11.533646    2.227175   -0.370604
  O      7.401172    0.728616    0.839621
  C     -7.929572   -3.965595   -0.188184
  C     -8.059134   -5.347897   -0.370390
  C     -9.400497   -5.791012   -0.510871
  H     -7.195378   -6.017186   -0.370185
  C    -10.320820   -4.757729   -0.424824
  H     -9.682098   -6.843128   -0.655804
  S     -9.554981   -3.236675   -0.181683
  H    -11.415526   -4.811977   -0.479504

----------------------------
CARTESIAN COORDINATES (A.U.)
----------------------------
  NO LB      ZA    FRAG     MASS         X           Y           Z
   0 C     6.0000    0    12.011  -13.435749   -3.144802    0.009380
   1 C     6.0000    0    12.011  -11.706989   -1.188030   -0.121700
   2 C     6.0000    0    12.011  -12.813073   -5.769156   -0.165698
   3 H     1.0000    0     1.008  -15.412872   -2.542586    0.238434
   4 C     6.0000    0    12.011  -10.160682   -6.322188   -0.288946
   5 C     6.0000    0    12.011   -8.370762   -4.297317   -0.516896
   6 C     6.0000    0    12.011   -9.083454   -1.685297   -0.461544
   7 C     6.0000    0    12.011   -7.293771    0.339379   -0.682395
   8 C     6.0000    0    12.011   -5.749136   -4.795521   -0.870811
   9 C     6.0000    0    12.011   -4.018864   -2.840846   -1.000947
  10 C     6.0000    0    12.011   -4.639979   -0.217714   -0.807719
  11 H     1.0000    0     1.008   -2.043537   -3.446207   -1.242469
  12 C     6.0000    0    12.011  -12.705110    1.425858    0.080847
  13 N     7.0000    0    14.007  -10.923077    3.330233   -0.377295
  14 C     6.0000    0    12.011   -8.350218    2.938018   -0.962322
  15 C     6.0000    0    12.011   -9.097686   -8.919881   -0.009766
  16 C     6.0000    0    12.011   -4.753296   -7.409034   -1.094663
  17 N     7.0000    0    14.007   -6.531654   -9.313296   -0.633319
  18 O     8.0000    0    15.999  -14.930325    1.903010    0.543095
  19 O     8.0000    0    15.999   -7.130771    4.772727   -1.707186
  20 O     8.0000    0    15.999   -2.530992   -7.881949   -1.577090
  21 O     8.0000    0    15.999  -10.300888  -10.751586    0.763189
  22 C     6.0000    0    12.011  -11.810416    5.950652   -0.485891
  23 H     1.0000    0     1.008  -13.808845    5.951785    0.104415
  24 H     1.0000    0     1.008  -11.615581    6.701426   -2.429090
  25 H     1.0000    0     1.008  -10.655681    7.146313    0.781934
  26 C     6.0000    0    12.011   -5.644301  -11.934115   -0.538708
  27 H     1.0000    0     1.008   -6.825497  -13.129378   -1.782038
  28 H     1.0000    0     1.008   -5.799767  -12.682992    1.408865
  29 H     1.0000    0     1.008   -3.657681  -11.938292   -1.167692
  30 C     6.0000    0    12.011   -2.470841    1.498641   -0.599026
  31 C     6.0000    0    12.011   -2.227993    4.115582   -0.228275
  32 C     6.0000    0    12.011    0.283215    4.954165    0.051103
  33 H     1.0000    0     1.008   -3.864688    5.375355   -0.217931
  34 C     6.0000    0    12.011    2.077993    3.014604   -0.132636
  35 H     1.0000    0     1.008    0.804978    6.942596    0.350923
  36 S    16.0000    0    32.060    0.590941    0.113320   -0.613759
  37 C     6.0000    0    12.011    4.788325    3.172976    0.023950
  38 C     6.0000    0    12.011    6.583452    1.231044   -0.159765
  39 C     6.0000    0    12.011    9.094006    2.068353    0.117585
  40 H     1.0000    0     1.008    6.060495   -0.757135   -0.461288
  41 C     6.0000    0    12.011    9.339747    4.686971    0.484978
  42 H     1.0000    0     1.008   10.731894    0.808908    0.107925
  43 S    16.0000    0    32.060    6.275179    6.072917    0.505342
  44 C     6.0000    0    12.011   11.513229    6.396915    0.684534
  45 C     6.0000    0    12.011   10.875194    9.030435    0.875125
  46 C     6.0000    0    12.011   12.612631   10.972994    0.762316
  47 H     1.0000    0     1.008    8.893915    9.624291    1.091690
  48 C     6.0000    0    12.011   14.162520    5.809565    0.547922
  49 C     6.0000    0    12.011   15.973599    7.822801    0.299055
  50 C     6.0000    0    12.011   15.211588   10.416708    0.400274
  51 C     6.0000    0    12.011   16.995875   12.401672    0.158861
  52 C     6.0000    0    12.011   18.599736    7.333836   -0.087911
  53 C     6.0000    0    12.011   19.551723   11.851323   -0.226850
  54 C     6.0000    0    12.011   20.333591    9.315668   -0.361913
  55 H     1.0000    0     1.008   20.892696   13.426534   -0.418796
  56 H     1.0000    0     1.008   22.322990    8.806433   -0.681482
  57 C     6.0000    0    12.011   11.701927   13.634029    0.968896
  58 C     6.0000    0    12.011   16.162412   15.086234    0.317689
  59 N     7.0000    0    14.007   13.563151   15.522136    0.726118
  60 C     6.0000    0    12.011   15.209155    3.210545    0.839574
  61 C     6.0000    0    12.011   19.576868    4.712898   -0.233509
  62 N     7.0000    0    14.007   17.785576    2.819955    0.272084
  63 C     6.0000    0    12.011   18.671647    0.200815    0.419841
  64 H     1.0000    0     1.008   17.529406   -1.010806   -0.844552
  65 H     1.0000    0     1.008   18.456888   -0.527080    2.369578
  66 H     1.0000    0     1.008   20.675604    0.193443   -0.151407
  67 C     6.0000    0    12.011   12.780379   18.171761    0.895476
  68 H     1.0000    0     1.008   10.717072   18.202105    1.184378
  69 H     1.0000    0     1.008   13.299796   19.181457   -0.860974
  70 H     1.0000    0     1.008   13.763368   19.107195    2.487771
  71 O     8.0000    0    15.999    9.468328   14.157934    1.318751
  72 O     8.0000    0    15.999   17.626388   16.873720    0.116031
  73 O     8.0000    0    15.999   21.795432    4.208751   -0.700340
  74 O     8.0000    0    15.999   13.986189    1.376885    1.586653
  75 C     6.0000    0    12.011  -14.984719   -7.493889   -0.355616
  76 C     6.0000    0    12.011  -15.229557  -10.106060   -0.699935
  77 C     6.0000    0    12.011  -17.764365  -10.943427   -0.965405
  78 H     1.0000    0     1.008  -13.597293  -11.370834   -0.699549
  79 C     6.0000    0    12.011  -19.503524   -8.990805   -0.802801
  80 H     1.0000    0     1.008  -18.296515  -12.931638   -1.239290
  81 S    16.0000    0    32.060  -18.056297   -6.116430   -0.343331
  82 H     1.0000    0     1.008  -21.572217   -9.093318   -0.906132

--------------------------------
INTERNAL COORDINATES (ANGSTROEM)
--------------------------------
 C      0   0   0     0.000000000000     0.00000000     0.00000000
 C      1   0   0     1.383348877254     0.00000000     0.00000000
 C      1   2   0     1.429933139759   124.74970188     0.00000000
 H      1   2   3     1.100398085599   114.71866216   181.08384965
 C      3   1   2     1.435006717058   115.33648499     5.65158938
 C      5   3   1     1.435249316819   119.71180341   352.48184920
 C      2   1   3     1.424520272274   120.83435791   359.78701182
 C      7   2   1     1.434780252373   121.04193513   177.98038496
 C      6   5   3     1.424659183421   121.03609631   186.01581210
 C      9   6   5     1.383023173950   120.85394290   182.22070458
 C     10   9   6     1.429696151017   124.66595132     0.35117702
 H     10   9   6     1.100726585686   114.68368659   179.18354262
 C      2   1   3     1.484294214186   117.29831369   179.21189138
 N     13   2   1     1.401473364696   114.69893871   187.65912226
 C     14  13   2     1.411894234566   125.57357183   359.12444640
 C      5   3   1     1.492464164899   123.58385177   168.12806278
 C      9   6   5     1.484533094500   121.89976406     1.74586960
 N     17   9   6     1.400411461482   114.68167938   352.70637848
 O     13   2   1     1.228871339486   123.15223248     5.62944242
 O     15  14  13     1.230607990148   117.41860965   168.73337758
 O     17   9   6     1.229113923769   123.08853348   174.71460393
 O     16   5   3     1.229728059742   124.34170658   347.08676612
 C     14  13   2     1.465114261560   118.13325392   173.43882132
 H     23  14  13     1.102680931808   107.26217981     7.88535499
 H     23  14  13     1.107167321512   110.25505736   247.36717058
 H     23  14  13     1.106260945611   109.90744685   128.60506372
 C     18  17   9     1.465051629016   118.13547840   186.71158842
 H     27  18  17     1.106181711507   109.86758884   230.53806957
 H     27  18  17     1.107221496020   110.29195584   111.74726179
 H     27  18  17     1.102698760101   107.28516421   351.27839452
 C     11  10   9     1.467766593107   115.21146839   171.67866616
 C     31  11  10     1.404310836245   133.78698847   187.01162693
 C     32  31  11     1.408701295399   114.41100810   173.82266654
 H     32  31  11     1.092431244988   121.88496117   351.96511682
 C     33  32  31     1.400933571768   113.65252130     0.17540799
 H     33  32  31     1.099152769659   123.62280766   179.44049163
 S     35  33  32     1.743479255461   110.37425548   359.31337684
 C     35  33  32     1.438888657693   128.95929294   178.89390968
 C     38  35  33     1.401694055863   128.93254473   180.45719896
 C     39  38  35     1.408063662726   113.65499783   181.05819925
 H     39  38  35     1.099111612508   122.70266092     0.45197820
 C     40  39  38     1.404715651251   114.45433230   359.81387006
 H     40  39  38     1.092608279146   123.73605719   177.93830170
 S     38  35  33     1.742596117004   120.68523424     0.91716731
 C     42  40  39     1.467171675536   133.67136010   186.41590030
 C     45  42  40     1.436976312969   114.76001751   172.78979883
 C     46  45  42     1.380302845792   124.13618184   187.50781840
 H     46  45  42     1.100512747458   120.56375949     6.13349733
 C     45  42  40     1.437452620968   128.85646838   355.16932275
 C     49  45  42     1.439009157522   119.49812224   169.25695774
 C     47  46  45     1.419742349466   119.78016000     0.53774530
 C     51  47  46     1.418088898647   120.23555385   176.97817077
 C     50  49  45     1.428130617368   121.80911890   186.36362877
 C     52  51  47     1.398484126845   120.18423531   180.59370498
 C     53  50  49     1.400967455649   121.08890082   179.06654702
 H     54  52  51     1.099380308321   118.67017665   179.63807881
 H     55  53  50     1.099738320581   117.34719000   180.87745472
 C     47  46  45     1.492301961884   118.97272986   179.24618064
 C     52  51  47     1.489893298063   120.26766378     0.74135819
 N     58  47  46     1.408838260855   115.88984579   182.73570487
 C     49  45  42     1.490568608339   123.91678602   344.64876867
 C     53  50  49     1.482120693631   121.07817710   359.53768265
 N     62  53  50     1.404958434855   114.94972951   354.22455892
 C     63  62  53     1.465238231204   117.94378945   186.21249601
 H     64  63  62     1.106375343349   109.94259827   232.39796297
 H     64  63  62     1.107131738771   110.24173468   113.67511095
 H     64  63  62     1.102663743946   107.24477016   353.12104442
 C     60  58  47     1.464764126611   118.39471154   179.56904682
 H     68  60  58     1.102612750705   107.60605308   359.37281830
 H     68  60  58     1.106755367017   109.90734942   238.61612244
 H     68  60  58     1.107047219810   109.98027412   120.01708436
 O     58  47  46     1.228076889618   122.33831475     2.40973197
 O     59  52  51     1.227273086801   122.89395069   180.17495246
 O     62  53  50     1.228989245913   123.15174783   175.93044423
 O     61  49  45     1.231505850420   124.41908689   348.73572013
 C      3   1   2     1.470883240107   115.25101076   187.97951287
 C     76   3   1     1.400142742109   133.90067435   173.47858911
 C     77  76   3     1.419569153254   114.18801421   185.90184890
 H     77  76   3     1.092331654292   122.03904163     7.79612355
 C     78  77  76     1.385710711744   112.85555462   359.83280672
 H     78  77  76     1.098562913937   123.66151834   180.55236786
 S     80  78  77     1.719946512761   111.82127039     0.48154000
 H     80  78  77     1.097377455920   128.49633858   180.98533312

---------------------------
INTERNAL COORDINATES (A.U.)
---------------------------
 C      0   0   0     0.000000000000     0.00000000     0.00000000
 C      1   0   0     2.614150525678     0.00000000     0.00000000
 C      1   2   0     2.702182023963   124.74970188     0.00000000
 H      1   2   3     2.079451020073   114.71866216   181.08384965
 C      3   1   2     2.711769695577   115.33648499     5.65158938
 C      5   3   1     2.712228142685   119.71180341   352.48184920
 C      2   1   3     2.691953186818   120.83435791   359.78701182
 C      7   2   1     2.711341739344   121.04193513   177.98038496
 C      6   5   3     2.692215690841   121.03609631   186.01581210
 C      9   6   5     2.613535035632   120.85394290   182.22070458
 C     10   9   6     2.701734180144   124.66595132     0.35117702
 H     10   9   6     2.080071795272   114.68368659   179.18354262
 C      2   1   3     2.804909566975   117.29831369   179.21189138
 N     13   2   1     2.648400843261   114.69893871   187.65912226
 C     14  13   2     2.668093433392   125.57357183   359.12444640
 C      5   3   1     2.820348536351   123.58385177   168.12806278
 C      9   6   5     2.805360985347   121.89976406     1.74586960
 N     17   9   6     2.646394137005   114.68167938   352.70637848
 O     13   2   1     2.322230285453   123.15223248     5.62944242
 O     15  14  13     2.325512079595   117.41860965   168.73337758
 O     17   9   6     2.322688703312   123.08853348   174.71460393
 O     16   5   3     2.323849252112   124.34170658   347.08676612
 C     14  13   2     2.768664709251   118.13325392   173.43882132
 H     23  14  13     2.083764974215   107.26217981     7.88535499
 H     23  14  13     2.092243022085   110.25505736   247.36717058
 H     23  14  13     2.090530219857   109.90744685   128.60506372
 C     18  17   9     2.768546350896   118.13547840   186.71158842
 H     27  18  17     2.090380489100   109.86758884   230.53806957
 H     27  18  17     2.092345397069   110.29195584   111.74726179
 H     27  18  17     2.083798664805   107.28516421   351.27839452
 C     11  10   9     2.773676889492   115.21146839   171.67866616
 C     31  11  10     2.653762887400   133.78698847   187.01162693
 C     32  31  11     2.662059652804   114.41100810   173.82266654
 H     32  31  11     2.064395873165   121.88496117   351.96511682
 C     33  32  31     2.647380782457   113.65252130     0.17540799
 H     33  32  31     2.077097713997   123.62280766   179.44049163
 S     35  33  32     3.294698312994   110.37425548   359.31337684
 C     35  33  32     2.719105500245   128.95929294   178.89390968
 C     38  35  33     2.648817889127   128.93254473   180.45719896
 C     39  38  35     2.660854701679   113.65499783   181.05819925
 H     39  38  35     2.077019938252   122.70266092     0.45197820
 C     40  39  38     2.654527876897   114.45433230   359.81387006
 H     40  39  38     2.064730419241   123.73605719   177.93830170
 S     38  35  33     3.293029423172   120.68523424     0.91716731
 C     42  40  39     2.772552658209   133.67136010   186.41590030
 C     45  42  40     2.715491692443   114.76001751   172.78979883
 C     46  45  42     2.608394360419   124.13618184   187.50781840
 H     46  45  42     2.079667699584   120.56375949     6.13349733
 C     45  42  40     2.716391784118   128.85646838   355.16932275
 C     49  45  42     2.719333211922   119.49812224   169.25695774
 C     47  46  45     2.682924221220   119.78016000     0.53774530
 C     51  47  46     2.679799651996   120.23555385   176.97817077
 C     50  49  45     2.698775750294   121.80911890   186.36362877
 C     52  51  47     2.642752002373   120.18423531   180.59370498
 C     53  50  49     2.647444813714   121.08890082   179.06654702
 H     54  52  51     2.077527699753   118.67017665   179.63807881
 H     55  53  50     2.078204244877   117.34719000   180.87745472
 C     47  46  45     2.820042017075   118.97272986   179.24618064
 C     52  51  47     2.815490302104   120.26766378     0.74135819
 N     58  47  46     2.662318480006   115.88984579   182.73570487
 C     49  45  42     2.816766453581   123.91678602   344.64876867
 C     53  50  49     2.800802208380   121.07817710   359.53768265
 N     62  53  50     2.654986671418   114.94972951   354.22455892
 C     63  62  53     2.768898977926   117.94378945   186.21249601
 H     64  63  62     2.090746400252   109.94259827   232.39796297
 H     64  63  62     2.092175780449   110.24173468   113.67511095
 H     64  63  62     2.083732493862   107.24477016   353.12104442
 C     60  58  47     2.768003050087   118.39471154   179.56904682
 H     68  60  58     2.083636130603   107.60605308   359.37281830
 H     68  60  58     2.091464540910   109.90734942   238.61612244
 H     68  60  58     2.092016062760   109.98027412   120.01708436
 O     58  47  46     2.320728992776   122.33831475     2.40973197
 O     59  52  51     2.319210025586   122.89395069   180.17495246
 O     62  53  50     2.322453096309   123.15174783   175.93044423
 O     61  49  45     2.327208789616   124.41908689   348.73572013
 C      3   1   2     2.779566498778   115.25101076   187.97951287
 C     76   3   1     2.645886330984   133.90067435   173.47858911
 C     77  76   3     2.682596927812   114.18801421   185.90184890
 H     77  76   3     2.064207674026   122.03904163     7.79612355
 C     78  77  76     2.618613746037   112.85555462   359.83280672
 H     78  77  76     2.075983048223   123.66151834   180.55236786
 S     80  78  77     3.250227874111   111.82127039     0.48154000
 H     80  78  77     2.073742857229   128.49633858   180.98533312

---------------------
BASIS SET INFORMATION
---------------------
There are 5 groups of distinct atoms

 Group   1 Type C   : 7s4p1d contracted to 3s2p1d pattern {511/31/1}
 Group   2 Type H   : 4s1p contracted to 2s1p pattern {31/1}
 Group   3 Type N   : 7s4p1d contracted to 3s2p1d pattern {511/31/1}
 Group   4 Type O   : 7s4p1d contracted to 3s2p1d pattern {511/31/1}
 Group   5 Type S   : 10s7p1d contracted to 4s3p1d pattern {5311/511/1}

Atom   0C    basis set group =>   1
Atom   1C    basis set group =>   1
Atom   2C    basis set group =>   1
Atom   3H    basis set group =>   2
Atom   4C    basis set group =>   1
Atom   5C    basis set group =>   1
Atom   6C    basis set group =>   1
Atom   7C    basis set group =>   1
Atom   8C    basis set group =>   1
Atom   9C    basis set group =>   1
Atom  10C    basis set group =>   1
Atom  11H    basis set group =>   2
Atom  12C    basis set group =>   1
Atom  13N    basis set group =>   3
Atom  14C    basis set group =>   1
Atom  15C    basis set group =>   1
Atom  16C    basis set group =>   1
Atom  17N    basis set group =>   3
Atom  18O    basis set group =>   4
Atom  19O    basis set group =>   4
Atom  20O    basis set group =>   4
Atom  21O    basis set group =>   4
Atom  22C    basis set group =>   1
Atom  23H    basis set group =>   2
Atom  24H    basis set group =>   2
Atom  25H    basis set group =>   2
Atom  26C    basis set group =>   1
Atom  27H    basis set group =>   2
Atom  28H    basis set group =>   2
Atom  29H    basis set group =>   2
Atom  30C    basis set group =>   1
Atom  31C    basis set group =>   1
Atom  32C    basis set group =>   1
Atom  33H    basis set group =>   2
Atom  34C    basis set group =>   1
Atom  35H    basis set group =>   2
Atom  36S    basis set group =>   5
Atom  37C    basis set group =>   1
Atom  38C    basis set group =>   1
Atom  39C    basis set group =>   1
Atom  40H    basis set group =>   2
Atom  41C    basis set group =>   1
Atom  42H    basis set group =>   2
Atom  43S    basis set group =>   5
Atom  44C    basis set group =>   1
Atom  45C    basis set group =>   1
Atom  46C    basis set group =>   1
Atom  47H    basis set group =>   2
Atom  48C    basis set group =>   1
Atom  49C    basis set group =>   1
Atom  50C    basis set group =>   1
Atom  51C    basis set group =>   1
Atom  52C    basis set group =>   1
Atom  53C    basis set group =>   1
Atom  54C    basis set group =>   1
Atom  55H    basis set group =>   2
Atom  56H    basis set group =>   2
Atom  57C    basis set group =>   1
Atom  58C    basis set group =>   1
Atom  59N    basis set group =>   3
Atom  60C    basis set group =>   1
Atom  61C    basis set group =>   1
Atom  62N    basis set group =>   3
Atom  63C    basis set group =>   1
Atom  64H    basis set group =>   2
Atom  65H    basis set group =>   2
Atom  66H    basis set group =>   2
Atom  67C    basis set group =>   1
Atom  68H    basis set group =>   2
Atom  69H    basis set group =>   2
Atom  70H    basis set group =>   2
Atom  71O    basis set group =>   4
Atom  72O    basis set group =>   4
Atom  73O    basis set group =>   4
Atom  74O    basis set group =>   4
Atom  75C    basis set group =>   1
Atom  76C    basis set group =>   1
Atom  77C    basis set group =>   1
Atom  78H    basis set group =>   2
Atom  79C    basis set group =>   1
Atom  80H    basis set group =>   2
Atom  81S    basis set group =>   5
Atom  82H    basis set group =>   2
---------------------------------
AUXILIARY/J BASIS SET INFORMATION
---------------------------------
There are 5 groups of distinct atoms

 Group   1 Type C   : 12s5p4d2f1g contracted to 6s4p3d1f1g pattern {711111/2111/211/2/1}
 Group   2 Type H   : 5s2p1d contracted to 3s1p1d pattern {311/2/1}
 Group   3 Type N   : 12s5p4d2f1g contracted to 6s4p3d1f1g pattern {711111/2111/211/2/1}
 Group   4 Type O   : 12s5p4d2f1g contracted to 6s4p3d1f1g pattern {711111/2111/211/2/1}
 Group   5 Type S   : 14s5p5d2f1g contracted to 8s4p3d1f1g pattern {71111111/2111/311/2/1}

Atom   0C    basis set group =>   1
Atom   1C    basis set group =>   1
Atom   2C    basis set group =>   1
Atom   3H    basis set group =>   2
Atom   4C    basis set group =>   1
Atom   5C    basis set group =>   1
Atom   6C    basis set group =>   1
Atom   7C    basis set group =>   1
Atom   8C    basis set group =>   1
Atom   9C    basis set group =>   1
Atom  10C    basis set group =>   1
Atom  11H    basis set group =>   2
Atom  12C    basis set group =>   1
Atom  13N    basis set group =>   3
Atom  14C    basis set group =>   1
Atom  15C    basis set group =>   1
Atom  16C    basis set group =>   1
Atom  17N    basis set group =>   3
Atom  18O    basis set group =>   4
Atom  19O    basis set group =>   4
Atom  20O    basis set group =>   4
Atom  21O    basis set group =>   4
Atom  22C    basis set group =>   1
Atom  23H    basis set group =>   2
Atom  24H    basis set group =>   2
Atom  25H    basis set group =>   2
Atom  26C    basis set group =>   1
Atom  27H    basis set group =>   2
Atom  28H    basis set group =>   2
Atom  29H    basis set group =>   2
Atom  30C    basis set group =>   1
Atom  31C    basis set group =>   1
Atom  32C    basis set group =>   1
Atom  33H    basis set group =>   2
Atom  34C    basis set group =>   1
Atom  35H    basis set group =>   2
Atom  36S    basis set group =>   5
Atom  37C    basis set group =>   1
Atom  38C    basis set group =>   1
Atom  39C    basis set group =>   1
Atom  40H    basis set group =>   2
Atom  41C    basis set group =>   1
Atom  42H    basis set group =>   2
Atom  43S    basis set group =>   5
Atom  44C    basis set group =>   1
Atom  45C    basis set group =>   1
Atom  46C    basis set group =>   1
Atom  47H    basis set group =>   2
Atom  48C    basis set group =>   1
Atom  49C    basis set group =>   1
Atom  50C    basis set group =>   1
Atom  51C    basis set group =>   1
Atom  52C    basis set group =>   1
Atom  53C    basis set group =>   1
Atom  54C    basis set group =>   1
Atom  55H    basis set group =>   2
Atom  56H    basis set group =>   2
Atom  57C    basis set group =>   1
Atom  58C    basis set group =>   1
Atom  59N    basis set group =>   3
Atom  60C    basis set group =>   1
Atom  61C    basis set group =>   1
Atom  62N    basis set group =>   3
Atom  63C    basis set group =>   1
Atom  64H    basis set group =>   2
Atom  65H    basis set group =>   2
Atom  66H    basis set group =>   2
Atom  67C    basis set group =>   1
Atom  68H    basis set group =>   2
Atom  69H    basis set group =>   2
Atom  70H    basis set group =>   2
Atom  71O    basis set group =>   4
Atom  72O    basis set group =>   4
Atom  73O    basis set group =>   4
Atom  74O    basis set group =>   4
Atom  75C    basis set group =>   1
Atom  76C    basis set group =>   1
Atom  77C    basis set group =>   1
Atom  78H    basis set group =>   2
Atom  79C    basis set group =>   1
Atom  80H    basis set group =>   2
Atom  81S    basis set group =>   5
Atom  82H    basis set group =>   2
------------------------------------------------------------------------------
                           ORCA GTO INTEGRAL CALCULATION
                           -- RI-GTO INTEGRALS CHOSEN --
------------------------------------------------------------------------------

                         BASIS SET STATISTICS AND STARTUP INFO

Gaussian basis set:
 # of primitive gaussian shells          ...  846
 # of primitive gaussian functions       ... 1620
 # of contracted shells                  ...  432
 # of contracted basis functions         ...  958
 Highest angular momentum                ...    2
 Maximum contraction depth               ...    5
Auxiliary gaussian basis set:
 # of primitive gaussian shells          ... 1617
 # of primitive gaussian functions       ... 4535
 # of contracted shells                  ... 1011
 # of contracted aux-basis functions     ... 3161
 Highest angular momentum                ...    4
 Maximum contraction depth               ...    7
Ratio of auxiliary to basis functions    ...  3.30
Integral package used                  ... LIBINT
 One Electron integrals                  ... done
 Ordering auxiliary basis shells         ... done
 Integral threshhold             Thresh  ...  2.500e-11
 Primitive cut-off               TCut    ...  2.500e-12
 Pre-screening matrix                    ... done
 Shell pair data                         ... 
 Ordering of the shell pairs             ... done (   0.007 sec) 34454 of 93528 pairs
 Determination of significant pairs      ... done (   0.000 sec)
 Creation of shell pair data             ... done (   0.005 sec)
 Storage of shell pair data              ... done (   0.042 sec)
 Shell pair data done in (   0.054 sec)
 Computing two index integrals           ... done
 Cholesky decomposition of the V-matrix  ... done


Timings:
 Total evaluation time                   ...   1.909 sec (  0.032 min)
 One electron matrix time                ...   0.499 sec (  0.008 min) = 26.1%
 Schwartz matrix evaluation time         ...   0.508 sec (  0.008 min) = 26.6%
 Two index repulsion integral time       ...   0.299 sec (  0.005 min) = 15.7%
 Cholesky decomposition of V             ...   0.495 sec (  0.008 min) = 25.9%
 Three index repulsion integral time     ...   0.000 sec (  0.000 min) =  0.0%

-------------------------------------------------------------------------------
                                 ORCA SCF
-------------------------------------------------------------------------------

------------
SCF SETTINGS
------------
Hamiltonian:
 Density Functional     Method          .... DFT(GTOs)
 Exchange Functional    Exchange        .... B88
   X-Alpha parameter    XAlpha          ....  0.666667
   Becke's b parameter  XBeta           ....  0.004200
 Correlation Functional Correlation     .... P86
 LDA part of GGA corr.  LDAOpt          .... PW91-LDA
 Gradients option       PostSCFGGA      .... off
   Density functional embedding theory  .... OFF
 RI-approximation to the Coulomb term is turned on
   Number of auxiliary basis functions  .... 3161


General Settings:
 Integral files         IntName         .... N2200_Optimize_Monomer
 Hartree-Fock type      HFTyp           .... RHF
 Total Charge           Charge          ....    0
 Multiplicity           Mult            ....    1
 Number of Electrons    NEL             ....  428
 Basis Dimension        Dim             ....  958
 Nuclear Repulsion      ENuc            ....   7851.2972930584 Eh

Convergence Acceleration:
 DIIS                   CNVDIIS         .... on
   Start iteration      DIISMaxIt       ....    12
   Startup error        DIISStart       ....  0.200000
   # of expansion vecs  DIISMaxEq       ....     5
   Bias factor          DIISBfac        ....   1.050
   Max. coefficient     DIISMaxC        ....  10.000
 Newton-Raphson         CNVNR           .... off
 SOSCF                  CNVSOSCF        .... on
[...]
      dx2y2   :     0.020599
      dxy     :     0.021665
 60 C s       :     2.844961  s :     2.844961
      pz      :     0.886149  p :     2.834409
      px      :     0.931502
      py      :     1.016758
      dz2     :     0.020951  d :     0.246363
      dxz     :     0.037071
      dyz     :     0.031338
      dx2y2   :     0.101112
      dxy     :     0.055892
 61 C s       :     2.839163  s :     2.839163
      pz      :     0.874647  p :     2.846352
      px      :     0.980675
      py      :     0.991030
      dz2     :     0.017573  d :     0.250621
      dxz     :     0.044894
      dyz     :     0.019364
      dx2y2   :     0.062367
      dxy     :     0.106424
 62 N s       :     3.105736  s :     3.105736
      pz      :     1.466280  p :     3.844358
      px      :     1.191182
      py      :     1.186896
      dz2     :     0.005570  d :     0.061524
      dxz     :     0.007431
      dyz     :     0.007256
      dx2y2   :     0.020302
      dxy     :     0.020964
 63 C s       :     2.846360  s :     2.846360
      pz      :     1.089700  p :     3.045780
      px      :     1.077224
      py      :     0.878856
      dz2     :     0.017182  d :     0.088176
      dxz     :     0.008041
      dyz     :     0.021995
      dx2y2   :     0.024852
      dxy     :     0.016107
 64 H s       :     0.898822  s :     0.898822
      pz      :     0.023018  p :     0.064697
      px      :     0.021918
      py      :     0.019761
 65 H s       :     0.896223  s :     0.896223
      pz      :     0.038546  p :     0.064935
      px      :     0.013221
      py      :     0.013168
 66 H s       :     0.891037  s :     0.891037
      pz      :     0.015344  p :     0.071562
      px      :     0.044673
      py      :     0.011545
 67 C s       :     2.846102  s :     2.846102
      pz      :     1.089111  p :     3.045685
      px      :     1.082392
      py      :     0.874182
      dz2     :     0.015262  d :     0.087974
      dxz     :     0.007501
      dyz     :     0.025139
      dx2y2   :     0.027156
      dxy     :     0.012916
 68 H s       :     0.891104  s :     0.891104
      pz      :     0.013259  p :     0.071231
      px      :     0.046623
      py      :     0.011349
 69 H s       :     0.895589  s :     0.895589
      pz      :     0.033313  p :     0.064847
      px      :     0.014933
      py      :     0.016601
 70 H s       :     0.895710  s :     0.895710
      pz      :     0.029621  p :     0.064686
      px      :     0.019531
      py      :     0.015535
 71 O s       :     3.555826  s :     3.555826
      pz      :     1.388638  p :     4.572339
      px      :     1.453581
      py      :     1.730121
      dz2     :     0.004106  d :     0.029934
      dxz     :     0.006950
      dyz     :     0.000497
      dx2y2   :     0.011294
      dxy     :     0.007087
 72 O s       :     3.556899  s :     3.556899
      pz      :     1.377714  p :     4.567693
      px      :     1.619442
      py      :     1.570537
      dz2     :     0.004218  d :     0.029940
      dxz     :     0.002870
      dyz     :     0.004209
      dx2y2   :     0.006193
      dxy     :     0.012450
 73 O s       :     3.555983  s :     3.555983
      pz      :     1.395141  p :     4.576714
      px      :     1.449599
      py      :     1.731974
      dz2     :     0.004041  d :     0.029832
      dxz     :     0.007334
      dyz     :     0.000602
      dx2y2   :     0.011033
      dxy     :     0.006823
 74 O s       :     3.551951  s :     3.551951
      pz      :     1.397944  p :     4.576521
      px      :     1.640749
      py      :     1.537827
      dz2     :     0.003889  d :     0.029202
      dxz     :     0.003203
      dyz     :     0.006430
      dx2y2   :     0.006034
      dxy     :     0.009646
 75 C s       :     2.920629  s :     2.920629
      pz      :     1.099668  p :     3.148082
      px      :     0.982963
      py      :     1.065451
      dz2     :     0.007238  d :     0.095553
      dxz     :     0.009422
      dyz     :     0.013721
      dx2y2   :     0.028932
      dxy     :     0.036239
 76 C s       :     2.883966  s :     2.883966
      pz      :     0.955325  p :     3.065441
      px      :     1.058322
      py      :     1.051794
      dz2     :     0.006642  d :     0.086324
      dxz     :     0.008372
      dyz     :     0.011163
      dx2y2   :     0.033176
      dxy     :     0.026971
 77 C s       :     2.879777  s :     2.879777
      pz      :     1.000908  p :     3.098508
      px      :     1.050634
      py      :     1.046966
      dz2     :     0.006257  d :     0.088686
      dxz     :     0.012985
      dyz     :     0.006234
      dx2y2   :     0.030244
      dxy     :     0.032966
 78 H s       :     0.879751  s :     0.879751
      pz      :     0.014698  p :     0.083830
      px      :     0.045440
      py      :     0.023693
 79 C s       :     2.944767  s :     2.944767
      pz      :     1.060313  p :     3.151378
      px      :     1.059524
      py      :     1.031541
      dz2     :     0.006246  d :     0.081595
      dxz     :     0.005045
      dyz     :     0.014317
      dx2y2   :     0.029464
      dxy     :     0.026523
 80 H s       :     0.892566  s :     0.892566
      pz      :     0.014952  p :     0.067093
      px      :     0.012491
      py      :     0.039651
 81 S s       :     5.513854  s :     5.513854
      pz      :     3.576599  p :     9.902265
      px      :     3.022961
      py      :     3.302705
      dz2     :     0.015613  d :     0.133380
      dxz     :     0.023814
      dyz     :     0.013930
      dx2y2   :     0.035913
      dxy     :     0.044110
 82 H s       :     0.890553  s :     0.890553
      pz      :     0.016157  p :     0.072090
      px      :     0.044943
      py      :     0.010990


                      *****************************
                      * MAYER POPULATION ANALYSIS *
                      *****************************

  NA   - Mulliken gross atomic population
  ZA   - Total nuclear charge
  QA   - Mulliken gross atomic charge
  VA   - Mayer's total valence
  BVA  - Mayer's bonded valence
  FA   - Mayer's free valence

  ATOM       NA         ZA         QA         VA         BVA        FA
  0 C      6.1328     6.0000    -0.1328     3.8366     3.8366    -0.0000
  1 C      6.0591     6.0000    -0.0591     3.7582     3.7582    -0.0000
  2 C      5.8440     6.0000     0.1560     3.8208     3.8208    -0.0000
  3 H      0.9593     1.0000     0.0407     1.0267     1.0267     0.0000
  4 C      6.0434     6.0000    -0.0434     3.6623     3.6623     0.0000
  5 C      5.8774     6.0000     0.1226     3.7887     3.7887    -0.0000
  6 C      5.8800     6.0000     0.1200     3.7896     3.7896    -0.0000
  7 C      6.0407     6.0000    -0.0407     3.6597     3.6597    -0.0000
  8 C      6.0588     6.0000    -0.0588     3.7581     3.7581    -0.0000
  9 C      6.1306     6.0000    -0.1306     3.8314     3.8314     0.0000
 10 C      5.8540     6.0000     0.1460     3.8144     3.8144    -0.0000
 11 H      0.9600     1.0000     0.0400     1.0286     1.0286    -0.0000
 12 C      5.8554     6.0000     0.1446     4.1447     4.1447    -0.0000
 13 N      7.2495     7.0000    -0.2495     3.2438     3.2438    -0.0000
 14 C      5.8842     6.0000     0.1158     4.1236     4.1236     0.0000
 15 C      5.8830     6.0000     0.1170     4.1227     4.1227     0.0000
 16 C      5.8550     6.0000     0.1450     4.1450     4.1450     0.0000
 17 N      7.2498     7.0000    -0.2498     3.2431     3.2431    -0.0000
 18 O      8.1767     8.0000    -0.1767     2.3697     2.3697    -0.0000
 19 O      8.1956     8.0000    -0.1956     2.3266     2.3266    -0.0000
 20 O      8.1786     8.0000    -0.1786     2.3681     2.3681     0.0000
 21 O      8.1920     8.0000    -0.1920     2.3292     2.3292     0.0000
 22 C      5.9253     6.0000     0.0747     3.9130     3.9130     0.0000
 23 H      0.9303     1.0000     0.0697     1.0286     1.0286    -0.0000
 24 H      0.9393     1.0000     0.0607     0.9977     0.9977    -0.0000
 25 H      0.9456     1.0000     0.0544     0.9984     0.9984     0.0000
 26 C      5.9254     6.0000     0.0746     3.9136     3.9136    -0.0000
 27 H      0.9457     1.0000     0.0543     0.9985     0.9985    -0.0000
 28 H      0.9391     1.0000     0.0609     0.9977     0.9977     0.0000
 29 H      0.9308     1.0000     0.0692     1.0284     1.0284    -0.0000
 30 C      6.1020     6.0000    -0.1020     3.8756     3.8756    -0.0000
 31 C      5.9805     6.0000     0.0195     3.8541     3.8541     0.0000
 32 C      6.0157     6.0000    -0.0157     3.8485     3.8485    -0.0000
 33 H      0.9677     1.0000     0.0323     1.0407     1.0407     0.0000
 34 C      6.0231     6.0000    -0.0231     3.9029     3.9029    -0.0000
 35 H      0.9803     1.0000     0.0197     0.9934     0.9934     0.0000
 36 S     15.9053    16.0000     0.0947     2.5479     2.5479    -0.0000
 37 C      6.0217     6.0000    -0.0217     3.9037     3.9037    -0.0000
 38 C      6.0156     6.0000    -0.0156     3.8482     3.8482     0.0000
 39 C      5.9779     6.0000     0.0221     3.8541     3.8541    -0.0000
 40 H      0.9794     1.0000     0.0206     0.9936     0.9936    -0.0000
 41 C      6.1054     6.0000    -0.1054     3.8800     3.8800    -0.0000
 42 H      0.9666     1.0000     0.0334     1.0416     1.0416    -0.0000
 43 S     15.9068    16.0000     0.0932     2.5484     2.5484    -0.0000
 44 C      5.8477     6.0000     0.1523     3.8130     3.8130     0.0000
 45 C      6.1368     6.0000    -0.1368     3.8302     3.8302     0.0000
 46 C      6.0404     6.0000    -0.0404     3.7334     3.7334    -0.0000
 47 H      0.9605     1.0000     0.0395     1.0267     1.0267    -0.0000
 48 C      6.0519     6.0000    -0.0519     3.6683     3.6683    -0.0000
 49 C      5.8635     6.0000     0.1365     3.7828     3.7828     0.0000
 50 C      5.8657     6.0000     0.1343     3.7780     3.7780    -0.0000
 51 C      6.0348     6.0000    -0.0348     3.6680     3.6680    -0.0000
 52 C      6.0744     6.0000    -0.0744     3.7121     3.7121    -0.0000
 53 C      6.0311     6.0000    -0.0311     3.7801     3.7801    -0.0000
 54 C      6.0078     6.0000    -0.0078     3.7892     3.7892    -0.0000
 55 H      0.9749     1.0000     0.0251     1.0070     1.0070    -0.0000
 56 H      0.9720     1.0000     0.0280     1.0096     1.0096     0.0000
 57 C      5.8538     6.0000     0.1462     4.1412     4.1412     0.0000
 58 C      5.8714     6.0000     0.1286     4.1707     4.1707    -0.0000
 59 N      7.2598     7.0000    -0.2598     3.2313     3.2313     0.0000
 60 C      5.8820     6.0000     0.1180     4.1282     4.1282     0.0000
 61 C      5.8584     6.0000     0.1416     4.1676     4.1676     0.0000
 62 N      7.2512     7.0000    -0.2512     3.2368     3.2368     0.0000
 63 C      5.9254     6.0000     0.0746     3.9131     3.9131     0.0000
 64 H      0.9465     1.0000     0.0535     0.9984     0.9984     0.0000
 65 H      0.9401     1.0000     0.0599     0.9978     0.9978     0.0000
 66 H      0.9308     1.0000     0.0692     1.0297     1.0297     0.0000
 67 C      5.9284     6.0000     0.0716     3.9121     3.9121     0.0000
 68 H      0.9310     1.0000     0.0690     1.0282     1.0282     0.0000
 69 H      0.9396     1.0000     0.0604     0.9980     0.9980     0.0000
 70 H      0.9395     1.0000     0.0605     0.9972     0.9972     0.0000
 71 O      8.1721     8.0000    -0.1721     2.3718     2.3718    -0.0000
 72 O      8.1727     8.0000    -0.1727     2.3628     2.3628    -0.0000
 73 O      8.1773     8.0000    -0.1773     2.3713     2.3713     0.0000
 74 O      8.1988     8.0000    -0.1988     2.3241     2.3241     0.0000
 75 C      6.1507     6.0000    -0.1507     3.9032     3.9032    -0.0000
 76 C      5.9736     6.0000     0.0264     3.8599     3.8599     0.0000
 77 C      5.9889     6.0000     0.0111     3.8756     3.8756    -0.0000
 78 H      0.9664     1.0000     0.0336     1.0391     1.0391    -0.0000
 79 C      6.0660     6.0000    -0.0660     3.7985     3.7985    -0.0000
 80 H      0.9808     1.0000     0.0192     0.9868     0.9868    -0.0000
 81 S     15.9045    16.0000     0.0955     2.5816     2.5816     0.0000
 82 H      0.9390     1.0000     0.0610     0.9904     0.9904    -0.0000

  Mayer bond orders larger than 0.100000
B(  0-C ,  1-C ) :   1.5015 B(  0-C ,  2-C ) :   1.1697 B(  0-C ,  3-H ) :   0.9304 
B(  1-C ,  6-C ) :   1.1864 B(  1-C , 12-C ) :   0.9215 B(  2-C ,  4-C ) :   1.3181 
B(  2-C , 75-C ) :   1.1641 B(  4-C ,  5-C ) :   1.2658 B(  4-C , 15-C ) :   0.9556 
B(  5-C ,  6-C ) :   1.2213 B(  5-C ,  8-C ) :   1.1869 B(  6-C ,  7-C ) :   1.2660 
B(  7-C , 10-C ) :   1.3115 B(  7-C , 14-C ) :   0.9574 B(  8-C ,  9-C ) :   1.5022 
B(  8-C , 16-C ) :   0.9201 B(  9-C , 10-C ) :   1.1696 B(  9-C , 11-H ) :   0.9275 
B( 10-C , 30-C ) :   1.1619 B( 12-C , 13-N ) :   1.0737 B( 12-C , 18-O ) :   2.0776 
B( 13-N , 14-C ) :   1.0663 B( 13-N , 22-C ) :   0.9507 B( 14-C , 19-O ) :   2.0013 
B( 15-C , 17-N ) :   1.0614 B( 15-C , 21-O ) :   2.0084 B( 16-C , 17-N ) :   1.0774 
B( 16-C , 20-O ) :   2.0750 B( 17-N , 26-C ) :   0.9510 B( 22-C , 23-H ) :   0.9432 
B( 22-C , 24-H ) :   0.9649 B( 22-C , 25-H ) :   0.9661 B( 26-C , 27-H ) :   0.9660 
B( 26-C , 28-H ) :   0.9650 B( 26-C , 29-H ) :   0.9434 B( 30-C , 31-C ) :   1.4248 
B( 30-C , 36-S ) :   1.0946 B( 31-C , 32-C ) :   1.3004 B( 31-C , 33-H ) :   0.9504 
B( 32-C , 34-C ) :   1.3856 B( 32-C , 35-H ) :   0.9748 B( 34-C , 36-S ) :   1.1278 
B( 34-C , 37-C ) :   1.2001 B( 37-C , 38-C ) :   1.3818 B( 37-C , 43-S ) :   1.1315 
B( 38-C , 39-C ) :   1.3038 B( 38-C , 40-H ) :   0.9749 B( 39-C , 41-C ) :   1.4220 
B( 39-C , 42-H ) :   0.9494 B( 41-C , 43-S ) :   1.0899 B( 41-C , 44-C ) :   1.1700 
B( 44-C , 45-C ) :   1.1534 B( 44-C , 48-C ) :   1.3265 B( 45-C , 46-C ) :   1.5074 
B( 45-C , 47-H ) :   0.9303 B( 46-C , 50-C ) :   1.1912 B( 46-C , 57-C ) :   0.9167 
B( 48-C , 49-C ) :   1.2410 B( 48-C , 60-C ) :   0.9621 B( 49-C , 50-C ) :   1.2308 
B( 49-C , 52-C ) :   1.2242 B( 50-C , 51-C ) :   1.2550 B( 51-C , 53-C ) :   1.3907 
B( 51-C , 58-C ) :   0.9367 B( 52-C , 54-C ) :   1.4205 B( 52-C , 61-C ) :   0.9426 
B( 53-C , 54-C ) :   1.2388 B( 53-C , 55-H ) :   0.9783 B( 54-C , 56-H ) :   0.9712 
B( 57-C , 59-N ) :   1.0723 B( 57-C , 71-O ) :   2.0868 B( 58-C , 59-N ) :   1.0583 
B( 58-C , 72-O ) :   2.1083 B( 59-N , 67-C ) :   0.9466 B( 60-C , 62-N ) :   1.0708 
B( 60-C , 74-O ) :   1.9944 B( 61-C , 62-N ) :   1.0645 B( 61-C , 73-O ) :   2.0903 
B( 62-N , 63-C ) :   0.9520 B( 63-C , 64-H ) :   0.9660 B( 63-C , 65-H ) :   0.9649 
B( 63-C , 66-H ) :   0.9427 B( 67-C , 68-H ) :   0.9447 B( 67-C , 69-H ) :   0.9652 
B( 67-C , 70-H ) :   0.9660 B( 75-C , 76-C ) :   1.4571 B( 75-C , 81-S ) :   1.1090 
B( 76-C , 77-C ) :   1.2819 B( 76-C , 78-H ) :   0.9522 B( 77-C , 79-C ) :   1.4800 
B( 77-C , 80-H ) :   0.9805 B( 79-C , 81-S ) :   1.1909 B( 79-C , 82-H ) :   0.9604 


-------
TIMINGS
-------

Total SCF time: 0 days 0 hours 3 min 12 sec 

Total time                  ....     192.952 sec
Sum of individual times     ....     190.765 sec  ( 98.9%)

Fock matrix formation       ....     144.872 sec  ( 75.1%)
  Split-RI-J                ....      98.879 sec  ( 68.3% of F)
  XC integration            ....      44.339 sec  ( 30.6% of F)
    Basis function eval.    ....      16.758 sec  ( 37.8% of XC)
    Density eval.           ....      11.448 sec  ( 25.8% of XC)
    XC-Functional eval.     ....       3.156 sec  (  7.1% of XC)
    XC-Potential eval.      ....      10.970 sec  ( 24.7% of XC)
Diagonalization             ....       0.304 sec  (  0.2%)
Density matrix formation    ....       0.729 sec  (  0.4%)
Population analysis         ....       0.201 sec  (  0.1%)
Initial guess               ....       0.395 sec  (  0.2%)
Orbital Transformation      ....       0.000 sec  (  0.0%)
Orbital Orthonormalization  ....       0.305 sec  (  0.2%)
DIIS solution               ....       0.094 sec  (  0.0%)
SOSCF solution              ....       1.711 sec  (  0.9%)
Grid generation             ....      42.460 sec  ( 22.0%)


-------------------------------------------------------------------------------
                          DFT DISPERSION CORRECTION                            
                                                                               
                              DFTD3 V3.1  Rev 1                                
                          USING Becke-Johnson damping                          
-------------------------------------------------------------------------------
The BP86 functional is recognized
Active option DFTDOPT                   ...         4   

molecular C6(AA) [au] = 112709.477080 


            DFT-D V3
 parameters
 s6 scaling factor         :     1.0000 
 a1 scaling factor         :     0.3946 
 s8 scaling factor         :     3.2822 
 a2 scaling factor         :     4.8516 
 ad hoc parameters k1-k3   :    16.0000     1.3333    -4.0000 

 Edisp/kcal,au: -146.191729173413  -0.232971324931 
 E6   /kcal   : -52.904807737 
 E8   /kcal   : -93.286921436 
 % E8         :  63.811353736 

-------------------------   ----------------
Dispersion correction           -0.232971325
-------------------------   ----------------


-------------------------   --------------------
FINAL SINGLE POINT ENERGY     -3704.951644591079
-------------------------   --------------------

                                *** OPTIMIZATION RUN DONE ***

                            ***************************************
                            *     ORCA property calculations      *
                            ***************************************

                                    ---------------------
                                    Active property flags
                                    ---------------------
   (+) Dipole Moment


------------------------------------------------------------------------------
                       ORCA ELECTRIC PROPERTIES CALCULATION
------------------------------------------------------------------------------

Dipole Moment Calculation                       ... on
Quadrupole Moment Calculation                   ... off
Polarizability Calculation                      ... off
GBWName                                         ... N2200_Optimize_Monomer.gbw
Electron density file                           ... N2200_Optimize_Monomer.scfp
The origin for moment calculation is the CENTER OF MASS  = ( 1.399176,  1.970822 -0.086282)

-------------
DIPOLE MOMENT
-------------
                                X             Y             Z
Electronic contribution:     -3.17931       1.75175       0.23576
Nuclear contribution   :      2.07965      -2.43226      -0.43510
                        -----------------------------------------
Total Dipole Moment    :     -1.09966      -0.68051      -0.19934
                        -----------------------------------------
Magnitude (a.u.)       :      1.30846
Magnitude (Debye)      :      3.32585



--------------------
Rotational spectrum 
--------------------
 
Rotational constants in cm-1:     0.003179     0.000377     0.000338 
Rotational constants in MHz :    95.308814    11.298542    10.134654 

 Dipole components along the rotational axes: 
x,y,z [a.u.] :     1.294351     0.099096     0.164050 
x,y,z [Debye]:     3.289979     0.251882     0.416983 

 

Timings for individual modules:

Sum of individual times         ...     2184.348 sec (=  36.406 min)
GTO integral calculation        ...       15.832 sec (=   0.264 min)   0.7 %
SCF iterations                  ...     1402.791 sec (=  23.380 min)  64.2 %
SCF Gradient evaluation         ...      755.055 sec (=  12.584 min)  34.6 %
Geometry relaxation             ...       10.669 sec (=   0.178 min)   0.5 %
                             ****ORCA TERMINATED NORMALLY****
TOTAL RUN TIME: 0 days 0 hours 36 minutes 34 seconds 791 msec
