
                                 *****************
                                 * O   R   C   A *
                                 *****************

           --- An Ab Initio, DFT and Semiempirical electronic structure package ---

                  #######################################################
                  #                        -***-                        #
                  #          Department of theory and spectroscopy      #
                  #               Directorship: Frank Neese             #
                  #        Max Planck Institute fuer Kohlenforschung    #
                  #                Kaiser Wilhelm Platz 1               #
                  #                 D-45470 Muelheim/Ruhr               #
                  #                      Germany                        #
                  #                                                     #
                  #                  All rights reserved                #
                  #                        -***-                        #
                  #######################################################


                         Program Version 4.2.0 -  RELEASE  -


 With contributions from (in alphabetic order):
   Daniel Aravena         : Magnetic Suceptibility
   Michael Atanasov       : Ab Initio Ligand Field Theory (pilot matlab implementation)
   Alexander A. Auer      : GIAO ZORA, VPT2
   Ute Becker             : Parallelization
   Giovanni Bistoni       : ED, misc. LED, open-shell LED, HFLED
   Martin Brehm           : Molecular dynamics
   Dmytro Bykov           : SCF Hessian
   Vijay G. Chilkuri      : MRCI spin determinant printing, contributions to CSF-ICE
   Dipayan Datta          : RHF DLPNO-CCSD density
   Achintya Kumar Dutta   : EOM-CC, STEOM-CC
   Dmitry Ganyushin       : Spin-Orbit,Spin-Spin,Magnetic field MRCI
   Miquel Garcia          : C-PCM Hessian, Gaussian charge scheme
   Yang Guo               : DLPNO-NEVPT2, CIM, IAO-localization
   Andreas Hansen         : Spin unrestricted coupled pair/coupled cluster methods
   Benjamin Helmich-Paris : CASSCF linear response (MC-RPA)
   Lee Huntington         : MR-EOM, pCC
   Robert Izsak           : Overlap fitted RIJCOSX, COSX-SCS-MP3, EOM
   Christian Kollmar      : KDIIS, OOCD, Brueckner-CCSD(T), CCSD density
   Simone Kossmann        : Meta GGA functionals, TD-DFT gradient, OOMP2, MP2 Hessian
   Martin Krupicka        : AUTO-CI
   Lucas Lang             : DCDCAS
   Dagmar Lenk            : GEPOL surface, SMD
   Dimitrios Liakos       : Extrapolation schemes; Compound Job, initial MDCI parallelization
   Dimitrios Manganas     : Further ROCIS development; embedding schemes
   Dimitrios Pantazis     : SARC Basis sets
   Taras Petrenko         : DFT Hessian,TD-DFT gradient, ASA, ECA, R-Raman, ABS, FL, XAS/XES, NRVS
   Peter Pinski           : DLPNO-MP2, DLPNO-MP2 Gradient
   Christoph Reimann      : Effective Core Potentials
   Marius Retegan         : Local ZFS, SOC
   Christoph Riplinger    : Optimizer, TS searches, QM/MM, DLPNO-CCSD(T), (RO)-DLPNO pert. Triples
   Tobias Risthaus        : Range-separated hybrids, TD-DFT gradient, RPA, STAB
   Michael Roemelt        : Original ROCIS implementation
   Masaaki Saitow         : Open-shell DLPNO-CCSD energy and density
   Barbara Sandhoefer     : DKH picture change effects
   Avijit Sen             : IP-ROCIS
   Kantharuban Sivalingam : CASSCF convergence, NEVPT2, FIC-MRCI
   Bernardo de Souza      : ESD, SOC TD-DFT
   Georgi Stoychev        : AutoAux, RI-MP2 NMR
   Willem Van den Heuvel  : Paramagnetic NMR
   Boris Wezisla          : Elementary symmetry handling
   Frank Wennmohs         : Technical directorship


 We gratefully acknowledge several colleagues who have allowed us to
 interface, adapt or use parts of their codes:
   Stefan Grimme, W. Hujo, H. Kruse,             : VdW corrections, initial TS optimization,
                  C. Bannwarth                     DFT functionals, gCP, sTDA/sTD-DF
   Ed Valeev, F. Pavosevic, A. Kumar             : LibInt (2-el integral package), F12 methods
   Garnet Chan, S. Sharma, J. Yang, R. Olivares  : DMRG
   Ulf Ekstrom                                   : XCFun DFT Library
   Mihaly Kallay                                 : mrcc  (arbitrary order and MRCC methods)
   Andreas Klamt, Michael Diedenhofen            : otool_cosmo (COSMO solvation model)
   Jiri Pittner, Ondrej Demel                    : Mk-CCSD
   Frank Weinhold                                : gennbo (NPA and NBO analysis)
   Christopher J. Cramer and Donald G. Truhlar   : smd solvation model
   Lars Goerigk                                  : TD-DFT with DH, B97 family of functionals
   V. Asgeirsson, H. Jonsson                     : NEB implementation
   FAccTs GmbH                                   : IRC, NEB, NEB-TS, Multilevel, MM, QM/MM, CI optimization
   S Lehtola, MJT Oliveira, MAL Marques          : LibXC Library


 Your calculation uses the libint2 library for the computation of 2-el integrals
 For citations please refer to: http://libint.valeyev.net

 Your ORCA version has been built with support for libXC version: 4.2.3
 For citations please refer to: https://tddft.org/programs/libxc/

 This ORCA versions uses:
   CBLAS   interface :  Fast vector & matrix operations
   LAPACKE interface :  Fast linear algebra routines
   SCALAPACK package :  Parallel linear algebra routines


Your calculation utilizes the atom-pairwise dispersion correction
with the Becke-Johnson damping scheme (D3BJ)
Cite in your paper:
S.Grimme, S.Ehrlich, L.Goerigk, J Comput Chem, (2011), 32, 1456–1465 
S.Grimme, J.Antony, S.Ehrlich and H.Krieg, J.Chem.Phys., 132, (2010), 154104 
   

----- Orbital basis set information -----
Your calculation utilizes the basis: def2-SVP
   F. Weigend and R. Ahlrichs, Phys. Chem. Chem. Phys. 7, 3297 (2005).

----- AuxJ basis set information -----
Your calculation utilizes the auxiliary basis: def2/J
   F. Weigend, Phys. Chem. Chem. Phys. 8, 1057 (2006).

================================================================================
                                        WARNINGS
                       Please study these warnings very carefully!
================================================================================


WARNING: Geometry Optimization
  ===> : Switching off AutoStart
         For restart on a previous wavefunction, please use MOREAD

INFO   : the flag for use of LIBINT has been found!

================================================================================
                                       INPUT FILE
================================================================================
NAME = N2200_Input_Dimethyl_Naphthalene_Dicarboximide_1_Optimize_Monomer.inp
|  1> ! RI BP86 def2-SVP def2/J D3BJ TIGHTSCF  Opt Grid3 FinalGrid5
|  2> %maxcore 3000
|  3> %geom
|  4> optimizehydrogens true
|  5> end
|  6> 
|  7> 
|  8> *xyz 0 1
|  9> C	-4.988025	-1.136063	0.140218
| 10> C	-4.074813	-0.099283	0.074032
| 11> C	-4.655928	-2.523804	0.046080
| 12> H	-6.034729	-0.819379	0.262793
| 13> C	-3.251580	-2.815610	-0.011218
| 14> C	-2.305747	-1.742331	-0.128166
| 15> C	-2.685411	-0.359923	-0.102436
| 16> C	-1.739924	0.713307	-0.217143
| 17> C	-0.917166	-2.003595	-0.310271
| 18> C	-0.003380	-0.967817	-0.376865
| 19> C	-0.334829	0.419461	-0.276099
| 20> H	1.042417	-1.286230	-0.505533
| 21> C	-4.605507	1.282524	0.182938
| 22> N	-3.663079	2.292086	-0.054676
| 23> C	-2.301760	2.086982	-0.366895
| 24> C	-2.687086	-4.188907	0.139191
| 25> C	-0.387004	-3.385290	-0.426686
| 26> N	-1.327690	-4.394487	-0.187190
| 27> O	-5.783751	1.532772	0.426251
| 28> O	-1.658473	3.059936	-0.759614
| 29> O	0.790529	-3.633449	-0.676842
| 30> O	-3.323477	-5.160378	0.543815
| 31> C	-4.134500	3.678253	-0.108633
| 32> H	-5.191865	3.677003	0.204278
| 33> H	-4.032556	4.078178	-1.135950
| 34> H	-3.524142	4.309711	0.564084
| 35> C	-0.856114	-5.780703	-0.137196
| 36> H	-1.477784	-6.413159	-0.798391
| 37> H	-0.941398	-6.178301	0.892610
| 38> H	0.196231	-5.780953	-0.466622
| 39> H	-5.499608	-3.193578	-0.031432
| 40> H	0.509944	1.087414	-0.194871
| 41> **                         ****END OF INPUT****
================================================================================

                       *****************************
                       * Geometry Optimization Run *
                       *****************************

Geometry optimization settings:
Update method            Update   .... BFGS
Choice of coordinates    CoordSys .... Z-matrix Internals
Initial Hessian          InHess   .... Almoef's Model

Convergence Tolerances:
Energy Change            TolE     ....  5.0000e-06 Eh
Max. Gradient            TolMAXG  ....  3.0000e-04 Eh/bohr
RMS Gradient             TolRMSG  ....  1.0000e-04 Eh/bohr
Max. Displacement        TolMAXD  ....  4.0000e-03 bohr
RMS Displacement         TolRMSD  ....  2.0000e-03 bohr
Strict Convergence                ....  False
------------------------------------------------------------------------------
                        ORCA OPTIMIZATION COORDINATE SETUP
------------------------------------------------------------------------------

The optimization will be done in new redundant internal coordinates
Making redundant internal coordinates   ...  (new redundants) done
Evaluating the initial hessian          ...  (Almloef) done
Evaluating the coordinates              ...  done
Calculating the B-matrix                .... done
Calculating the G-matrix                .... done
Diagonalizing the G-matrix              .... done
Imposing constraints:
 Iter   0:  RMS(Cart)=    0.0000000000 RMS(Int)=    0.0000000000
CONVERGED
Small eigenvalue found = 2.384e-02
The first mode is                       ....   93
The number of degrees of freedom        ....   90
Storing new coordinates                 .... done

    -----------------------------------------------------------------
                    Redundant Internal Coordinates


    -----------------------------------------------------------------
         Definition                    Initial Value    Approx d2E/dq
    -----------------------------------------------------------------
      1. B(C   1,C   0)                  1.3832         0.640595 C 
      2. B(C   2,C   0)                  1.4300         0.539360 C 
      3. B(H   3,C   0)                  1.1004         0.346589   
      4. B(C   4,C   2)                  1.4355         0.528646 C 
      5. B(C   5,C   4)                  1.4353         0.528931 C 
      6. B(C   6,C   1)                  1.4246         0.550201 C 
      7. B(C   6,C   5)                  1.4338         0.531883 C 
      8. B(C   7,C   6)                  1.4349         0.529798 C 
      9. B(C   8,C   5)                  1.4246         0.550154 C 
     10. B(C   9,C   8)                  1.3829         0.641424 C 
     11. B(C  10,C   7)                  1.4367         0.526294 C 
     12. B(C  10,C   9)                  1.4299         0.539653 C 
     13. B(H  11,C   9)                  1.1007         0.346166   
     14. B(C  12,C   1)                  1.4842         0.442006 C 
     15. B(N  13,C  12)                  1.4014         0.536699 C 
     16. B(C  14,C   7)                  1.4917         0.430067 C 
     17. B(C  14,N  13)                  1.4116         0.516826 C 
     18. B(C  15,C   4)                  1.4924         0.428929 C 
     19. B(C  16,C   8)                  1.4845         0.441559 C 
     20. B(N  17,C  15)                  1.4131         0.514140 C 
     21. B(N  17,C  16)                  1.4003         0.538898 C 
     22. B(O  18,C  12)                  1.2289         1.011515 C 
     23. B(O  19,C  14)                  1.2307         1.004587 C 
     24. B(O  20,C  16)                  1.2291         1.010517 C 
     25. B(O  21,C  15)                  1.2298         1.007916 C 
     26. B(C  22,N  13)                  1.4651         0.424629 C 
     27. B(H  23,C  22)                  1.1027         0.343692   
     28. B(H  24,C  22)                  1.1071         0.338151   
     29. B(H  25,C  22)                  1.1063         0.339213   
     30. B(C  26,N  17)                  1.4651         0.424698 C 
     31. B(H  27,C  26)                  1.1062         0.339309   
     32. B(H  28,C  26)                  1.1072         0.338070   
     33. B(H  29,C  26)                  1.1027         0.343683   
     34. B(H  30,C   2)                  1.0800         0.373574   
     35. B(H  31,C  10)                  1.0800         0.373574   
     36. A(C   1,C   0,C   2)          124.8140         0.425836 C 
     37. A(C   1,C   0,H   3)          114.6839         0.352577   
     38. A(C   2,C   0,H   3)          120.4979         0.342512   
     39. A(C   0,C   1,C  12)          117.2747         0.410996 C 
     40. A(C   6,C   1,C  12)          121.8801         0.400099 C 
     41. A(C   0,C   1,C   6)          120.8433         0.427356 C 
     42. A(C   4,C   2,H  30)          129.4428         0.345683   
     43. A(C   0,C   2,H  30)          115.1590         0.346851   
     44. A(C   0,C   2,C   4)          115.2830         0.411506 C 
     45. A(C   5,C   4,C  15)          116.5541         0.395247 C 
     46. A(C   2,C   4,C   5)          119.7301         0.410083 C 
     47. A(C   2,C   4,C  15)          123.5785         0.395209 C 
     48. A(C   4,C   5,C   8)          121.0355         0.412995 C 
     49. A(C   6,C   5,C   8)          115.9252         0.413403 C 
     50. A(C   4,C   5,C   6)          123.0238         0.410527 C 
     51. A(C   1,C   6,C   7)          121.0443         0.413121 C 
     52. A(C   5,C   6,C   7)          123.0394         0.410647 C 
     53. A(C   1,C   6,C   5)          115.9040         0.413409 C 
     54. A(C   6,C   7,C  10)          119.6520         0.409878 C 
     55. A(C   6,C   7,C  14)          116.6557         0.395544 C 
     56. A(C  10,C   7,C  14)          123.5451         0.395084 C 
     57. A(C   5,C   8,C   9)          120.8552         0.427449 C 
     58. A(C   9,C   8,C  16)          117.2182         0.411017 C 
     59. A(C   5,C   8,C  16)          121.9253         0.400022 C 
     60. A(C  10,C   9,H  11)          120.6054         0.342473   
     61. A(C   8,C   9,C  10)          124.7595         0.425976 C 
     62. A(C   8,C   9,H  11)          114.6311         0.352581   
     63. A(C   7,C  10,C   9)          115.3425         0.411220 C 
     64. A(C   9,C  10,H  31)          115.0895         0.346883   
     65. A(C   7,C  10,H  31)          129.4502         0.345424   
     66. A(C   1,C  12,N  13)          114.6959         0.395809 C 
     67. A(C   1,C  12,O  18)          123.1583         0.443132 C 
     68. A(N  13,C  12,O  18)          122.1185         0.455993 C 
     69. A(C  12,N  13,C  22)          118.1279         0.390534 C 
     70. A(C  14,N  13,C  22)          116.0789         0.387970 C 
     71. A(C  12,N  13,C  14)          125.5462         0.404247 C 
     72. A(C   7,C  14,O  19)          124.2763         0.440397 C 
     73. A(N  13,C  14,O  19)          117.3721         0.452307 C 
     74. A(C   7,C  14,N  13)          118.3476         0.391320 C 
     75. A(C   4,C  15,O  21)          124.3550         0.440450 C 
     76. A(N  17,C  15,O  21)          117.3150         0.452150 C 
     77. A(C   4,C  15,N  17)          118.3256         0.390783 C 
     78. A(C   8,C  16,O  20)          123.0946         0.442972 C 
     79. A(N  17,C  16,O  20)          122.2012         0.456251 C 
     80. A(C   8,C  16,N  17)          114.6757         0.396023 C 
     81. A(C  15,N  17,C  16)          125.5160         0.404167 C 
     82. A(C  15,N  17,C  26)          116.0671         0.387629 C 
     83. A(C  16,N  17,C  26)          118.1333         0.390825 C 
     84. A(N  13,C  22,H  23)          107.2781         0.326725   
     85. A(N  13,C  22,H  24)          110.2616         0.325852   
     86. A(H  23,C  22,H  24)          110.6109         0.285897   
     87. A(N  13,C  22,H  25)          109.8841         0.326021   
     88. A(H  23,C  22,H  25)          110.9244         0.286037   
     89. A(H  24,C  22,H  25)          107.8948         0.285314   
     90. A(N  17,C  26,H  27)          109.8571         0.326045   
     91. A(N  17,C  26,H  28)          110.2869         0.325848   
     92. A(H  27,C  26,H  28)          107.8992         0.285316   
     93. A(N  17,C  26,H  29)          107.2893         0.326733   
     94. A(H  27,C  26,H  29)          110.9549         0.286049   
     95. A(H  28,C  26,H  29)          110.5665         0.285885   
     96. D(C   6,C   1,C   0,C   2)      0.1298         0.028515 C 
     97. D(C  12,C   1,C   0,H   3)      0.3821         0.028515   
     98. D(C   6,C   1,C   0,H   3)   -179.1286         0.028515   
     99. D(C  12,C   1,C   0,C   2)    179.6404         0.028515 C 
    100. D(C   4,C   2,C   0,H   3)   -175.5455         0.019876   
    101. D(C   4,C   2,C   0,C   1)      5.2366         0.019876 C 
    102. D(H  30,C   2,C   0,H   3)      7.9825         0.019876   
    103. D(H  30,C   2,C   0,C   1)   -171.2354         0.019876   
    104. D(C  15,C   4,C   2,C   0)    168.4178         0.019073 C 
    105. D(C   5,C   4,C   2,H  30)    168.6923         0.019073   
    106. D(C  15,C   4,C   2,H  30)    -15.7182         0.019073   
    107. D(C   5,C   4,C   2,C   0)     -7.1716         0.019073 C 
    108. D(C   6,C   5,C   4,C   2)      4.3114         0.019094 C 
    109. D(C   6,C   5,C   4,C  15)   -171.5813         0.019094 C 
    110. D(C   8,C   5,C   4,C   2)   -174.2001         0.019094 C 
    111. D(C   8,C   5,C   4,C  15)      9.9072         0.019094 C 
    112. D(C   7,C   6,C   1,C   0)    177.8645         0.020709 C 
    113. D(C   7,C   6,C   1,C  12)     -1.6233         0.020709 C 
    114. D(C   5,C   6,C   1,C   0)     -3.3755         0.020709 C 
    115. D(C   7,C   6,C   5,C   4)    179.8957         0.019314 C 
    116. D(C   1,C   6,C   5,C   4)      1.1630         0.019314 C 
    117. D(C   7,C   6,C   5,C   8)     -1.5224         0.019314 C 
    118. D(C   5,C   6,C   1,C  12)    177.1367         0.020709 C 
    119. D(C   1,C   6,C   5,C   8)    179.7449         0.019314 C 
    120. D(C  10,C   7,C   6,C   1)    174.5450         0.019159 C 
    121. D(C  10,C   7,C   6,C   5)     -4.1245         0.019159 C 
    122. D(C  14,C   7,C   6,C   1)     -9.7071         0.019159 C 
    123. D(C  14,C   7,C   6,C   5)    171.6234         0.019159 C 
    124. D(C   9,C   8,C   5,C   4)   -177.7788         0.020706 C 
    125. D(C   9,C   8,C   5,C   6)      3.6088         0.020706 C 
    126. D(C  16,C   8,C   5,C   4)      1.7869         0.020706 C 
    127. D(C  16,C   8,C   5,C   6)   -176.8254         0.020706 C 
    128. D(C  10,C   9,C   8,C   5)     -0.0538         0.028594 C 
    129. D(C  10,C   9,C   8,C  16)   -179.6394         0.028594 C 
    130. D(H  11,C   9,C   8,C   5)    179.2138         0.028594   
    131. D(H  11,C   9,C   8,C  16)     -0.3717         0.028594   
    132. D(C   9,C  10,C   7,C   6)      7.2973         0.018900 C 
    133. D(H  31,C  10,C   9,C   8)    170.9360         0.019898   
    134. D(H  31,C  10,C   7,C   6)   -168.5181         0.018900   
    135. D(H  31,C  10,C   7,C  14)     16.0422         0.018900   
    136. D(C   7,C  10,C   9,C   8)     -5.4970         0.019898 C 
    137. D(C   9,C  10,C   7,C  14)   -168.1425         0.018900 C 
    138. D(C   7,C  10,C   9,H  11)    175.2765         0.019898   
    139. D(H  31,C  10,C   9,H  11)     -8.2906         0.019898   
    140. D(N  13,C  12,C   1,C   0)   -172.5080         0.013328 C 
    141. D(N  13,C  12,C   1,C   6)      6.9973         0.013328 C 
    142. D(O  18,C  12,C   1,C   0)      5.6255         0.013328 C 
    143. D(O  18,C  12,C   1,C   6)   -174.8692         0.013328 C 
    144. D(C  14,N  13,C  12,C   1)     -0.4743         0.022901 C 
    145. D(C  14,N  13,C  12,O  18)   -178.6293         0.022901 C 
    146. D(C  22,N  13,C  12,C   1)    173.5742         0.022901 C 
    147. D(C  22,N  13,C  12,O  18)     -4.5809         0.022901 C 
    148. D(N  13,C  14,C   7,C   6)     15.6305         0.012637 C 
    149. D(O  19,C  14,N  13,C  12)    168.4214         0.021167 C 
    150. D(O  19,C  14,C   7,C   6)   -163.6259         0.012637 C 
    151. D(O  19,C  14,C   7,C  10)     11.9401         0.012637 C 
    152. D(C   7,C  14,N  13,C  12)    -10.8867         0.021167 C 
    153. D(N  13,C  14,C   7,C  10)   -168.8035         0.012637 C 
    154. D(C   7,C  14,N  13,C  22)    174.9566         0.021167 C 
    155. D(O  19,C  14,N  13,C  22)     -5.7354         0.021167 C 
    156. D(N  17,C  15,C   4,C   2)    168.0646         0.012572 C 
    157. D(N  17,C  15,C   4,C   5)    -16.2168         0.012572 C 
    158. D(O  21,C  15,C   4,C   2)    -12.7223         0.012572 C 
    159. D(O  21,C  15,C   4,C   5)    162.9963         0.012572 C 
    160. D(N  17,C  16,C   8,C   5)     -7.1419         0.013301 C 
    161. D(N  17,C  16,C   8,C   9)    172.4389         0.013301 C 
    162. D(O  20,C  16,C   8,C   5)    174.7640         0.013301 C 
    163. D(O  20,C  16,C   8,C   9)     -5.6552         0.013301 C 
    164. D(C  16,N  17,C  15,C   4)     11.5518         0.020939 C 
    165. D(C  16,N  17,C  15,O  21)   -167.7171         0.020939 C 
    166. D(C  26,N  17,C  15,C   4)   -174.7074         0.020939 C 
    167. D(C  26,N  17,C  15,O  21)      6.0237         0.020939 C 
    168. D(C  15,N  17,C  16,C   8)      0.1878         0.023098 C 
    169. D(C  15,N  17,C  16,O  20)    178.3009         0.023098 C 
    170. D(C  26,N  17,C  16,C   8)   -173.4358         0.023098 C 
    171. D(C  26,N  17,C  16,O  20)      4.6772         0.023098 C 
    172. D(H  23,C  22,N  13,C  12)      8.0450         0.015373   
    173. D(H  23,C  22,N  13,C  14)   -177.3446         0.015373   
    174. D(H  24,C  22,N  13,C  12)   -112.4720         0.015373   
    175. D(H  24,C  22,N  13,C  14)     62.1384         0.015373   
    176. D(H  25,C  22,N  13,C  12)    128.7238         0.015373   
    177. D(H  25,C  22,N  13,C  14)    -56.6658         0.015373   
    178. D(H  27,C  26,N  17,C  15)     56.3082         0.015378   
    179. D(H  27,C  26,N  17,C  16)   -129.4675         0.015378   
    180. D(H  28,C  26,N  17,C  15)    -62.5003         0.015378   
    181. D(H  28,C  26,N  17,C  16)    111.7241         0.015378   
    182. D(H  29,C  26,N  17,C  15)    177.0150         0.015378   
    183. D(H  29,C  26,N  17,C  16)     -8.7606         0.015378   
    -----------------------------------------------------------------

Number of atoms                         .... 32
Number of degrees of freedom            .... 183

         *************************************************************
         *                GEOMETRY OPTIMIZATION CYCLE   1            *
         *************************************************************
---------------------------------
CARTESIAN COORDINATES (ANGSTROEM)
---------------------------------
  C     -4.988025   -1.136063    0.140218
  C     -4.074813   -0.099283    0.074032
  C     -4.655928   -2.523804    0.046080
  H     -6.034729   -0.819379    0.262793
  C     -3.251580   -2.815610   -0.011218
  C     -2.305747   -1.742331   -0.128166
  C     -2.685411   -0.359923   -0.102436
  C     -1.739924    0.713307   -0.217143
  C     -0.917166   -2.003595   -0.310271
  C     -0.003380   -0.967817   -0.376865
  C     -0.334829    0.419461   -0.276099
  H      1.042417   -1.286230   -0.505533
  C     -4.605507    1.282524    0.182938
  N     -3.663079    2.292086   -0.054676
  C     -2.301760    2.086982   -0.366895
  C     -2.687086   -4.188907    0.139191
  C     -0.387004   -3.385290   -0.426686
  N     -1.327690   -4.394487   -0.187190
  O     -5.783751    1.532772    0.426251
  O     -1.658473    3.059936   -0.759614
  O      0.790529   -3.633449   -0.676842
  O     -3.323477   -5.160378    0.543815
  C     -4.134500    3.678253   -0.108633
  H     -5.191865    3.677003    0.204278
  H     -4.032556    4.078178   -1.135950
  H     -3.524142    4.309711    0.564084
  C     -0.856114   -5.780703   -0.137196
  H     -1.477784   -6.413159   -0.798391
  H     -0.941398   -6.178301    0.892610
  H      0.196231   -5.780953   -0.466622
  H     -5.499608   -3.193578   -0.031432
  H      0.509944    1.087414   -0.194871

----------------------------
CARTESIAN COORDINATES (A.U.)
----------------------------
  NO LB      ZA    FRAG     MASS         X           Y           Z
   0 C     6.0000    0    12.011   -9.426001   -2.146848    0.264974
   1 C     6.0000    0    12.011   -7.700281   -0.187618    0.139900
   2 C     6.0000    0    12.011   -8.798429   -4.769298    0.087079
   3 H     1.0000    0     1.008  -11.403985   -1.548402    0.496607
   4 C     6.0000    0    12.011   -6.144596   -5.320732   -0.021199
   5 C     6.0000    0    12.011   -4.357230   -3.292528   -0.242199
   6 C     6.0000    0    12.011   -5.074691   -0.680156   -0.193576
   7 C     6.0000    0    12.011   -3.287980    1.347955   -0.410341
   8 C     6.0000    0    12.011   -1.733193   -3.786246   -0.586327
   9 C     6.0000    0    12.011   -0.006387   -1.828909   -0.712172
  10 C     6.0000    0    12.011   -0.632735    0.792666   -0.521751
  11 H     1.0000    0     1.008    1.969883   -2.430622   -0.955319
  12 C     6.0000    0    12.011   -8.703147    2.423619    0.345703
  13 N     7.0000    0    14.007   -6.922216    4.331415   -0.103323
  14 C     6.0000    0    12.011   -4.349696    3.943824   -0.693331
  15 C     6.0000    0    12.011   -5.077857   -7.915887    0.263033
  16 C     6.0000    0    12.011   -0.731332   -6.397271   -0.806320
  17 N     7.0000    0    14.007   -2.508970   -8.304377   -0.353738
  18 O     8.0000    0    15.999  -10.929705    2.896519    0.805498
  19 O     8.0000    0    15.999   -3.134060    5.782441   -1.435462
  20 O     8.0000    0    15.999    1.493883   -6.866224   -1.279046
  21 O     8.0000    0    15.999   -6.280461   -9.751701    1.027661
  22 C     6.0000    0    12.011   -7.813073    6.950891   -0.205287
  23 H     1.0000    0     1.008   -9.811203    6.948529    0.386029
  24 H     1.0000    0     1.008   -7.620426    7.706640   -2.146634
  25 H     1.0000    0     1.008   -6.659663    8.144174    1.065964
  26 C     6.0000    0    12.011   -1.617821  -10.923946   -0.259263
  27 H     1.0000    0     1.008   -2.792607  -12.119114   -1.508740
  28 H     1.0000    0     1.008   -1.778984  -11.675297    1.686788
  29 H     1.0000    0     1.008    0.370823  -10.924418   -0.881788
  30 H     1.0000    0     1.008  -10.392753   -6.034988   -0.059398
  31 H     1.0000    0     1.008    0.963655    2.054915   -0.368253

--------------------------------
INTERNAL COORDINATES (ANGSTROEM)
--------------------------------
 C      0   0   0     0.000000000000     0.00000000     0.00000000
 C      1   0   0     1.383202628663     0.00000000     0.00000000
 C      1   2   0     1.430026385608   124.81396373     0.00000000
 H      1   2   3     1.100410219008   114.68393893   180.74166167
 C      3   1   2     1.435488456082   115.28303465     5.23656581
 C      5   3   1     1.435341321928   119.73007789   352.82835322
 C      2   1   3     1.424609449017   120.84331959     0.12977373
 C      7   2   1     1.434895813611   121.04427183   177.86447523
 C      6   5   3     1.424632690304   121.03550436   185.79988084
 C      9   6   5     1.382850563118   120.85518268   182.22116880
 C     10   9   6     1.429878482823   124.75948215   359.94616026
 H     10   9   6     1.100742321346   114.63109967   179.21381149
 C      2   1   3     1.484212661218   117.27466836   179.64044258
 N     13   2   1     1.401373033858   114.69589946   187.49202889
 C     14  13   2     1.411643642899   125.54619509   359.52572127
 C      5   3   1     1.492387682047   123.57850667   168.41784085
 C      9   6   5     1.484488218712   121.92526951     1.78692852
 N     17   9   6     1.400259643574   114.67567743   352.85810292
 O     13   2   1     1.228854833172   123.15830218     5.62552013
 O     15  14  13     1.230725746641   117.37214596   168.42140591
 O     17   9   6     1.229123622630   123.09463625   174.76400271
 O     16   5   3     1.229825186804   124.35504785   347.27770698
 C     14  13   2     1.465130734433   118.12793750   173.57415464
 H     23  14  13     1.102694699201   107.27812985     8.04504781
 H     23  14  13     1.107119145914   110.26158370   247.52799715
 H     23  14  13     1.106265906560   109.88411580   128.72380564
 C     18  17   9     1.465086387374   118.13331039   186.56417581
 H     27  18  17     1.106188505121   109.85714679   230.53252758
 H     27  18  17     1.107184685541   110.28686691   111.72408769
 H     27  18  17     1.102701932075   107.28933326   351.23938356
 H      3   1   2     1.080000585009   115.15900809   188.76463196
 H     11  10   9     1.080000286908   115.08952270   170.93596633

---------------------------
INTERNAL COORDINATES (A.U.)
---------------------------
 C      0   0   0     0.000000000000     0.00000000     0.00000000
 C      1   0   0     2.613874155893     0.00000000     0.00000000
 C      1   2   0     2.702358233080   124.81396373     0.00000000
 H      1   2   3     2.079473948893   114.68393893   180.74166167
 C      3   1   2     2.712680050400   115.28303465     5.23656581
 C      5   3   1     2.712402007144   119.73007789   352.82835322
 C      2   1   3     2.692121706438   120.84331959     0.12977373
 C      7   2   1     2.711560118435   121.04427183   177.86447523
 C      6   5   3     2.692165626105   121.03550436   185.79988084
 C      9   6   5     2.613208848432   120.85518268   182.22116880
 C     10   9   6     2.702078737323   124.75948215   359.94616026
 H     10   9   6     2.080101531361   114.63109967   179.21381149
 C      2   1   3     2.804755454201   117.27466836   179.64044258
 N     13   2   1     2.648211245454   114.69589946   187.49202889
 C     14  13   2     2.667619883771   125.54619509   359.52572127
 C      5   3   1     2.820204004707   123.57850667   168.41784085
 C      9   6   5     2.805276182398   121.92526951     1.78692852
 N     17   9   6     2.646107242736   114.67567743   352.85810292
 O     13   2   1     2.322199093040   123.15830218     5.62552013
 O     15  14  13     2.325734607118   117.37214596   168.42140591
 O     17   9   6     2.322707031503   123.09463625   174.76400271
 O     16   5   3     2.324032795658   124.35504785   347.27770698
 C     14  13   2     2.768695838469   118.12793750   173.57415464
 H     23  14  13     2.083790990817   107.27812985     8.04504781
 H     23  14  13     2.092151983399   110.26158370   247.52799715
 H     23  14  13     2.090539594693   109.88411580   128.72380564
 C     18  17   9     2.768612034673   118.13331039   186.56417581
 H     27  18  17     2.090393327170   109.85714679   230.53252758
 H     27  18  17     2.092275835344   110.28686691   111.72408769
 H     27  18  17     2.083804658967   107.28933326   351.23938356
 H      3   1   2     2.040905330142   115.15900809   188.76463196
 H     11  10   9     2.040904766813   115.08952270   170.93596633

---------------------
BASIS SET INFORMATION
---------------------
There are 4 groups of distinct atoms

 Group   1 Type C   : 7s4p1d contracted to 3s2p1d pattern {511/31/1}
 Group   2 Type H   : 4s1p contracted to 2s1p pattern {31/1}
 Group   3 Type N   : 7s4p1d contracted to 3s2p1d pattern {511/31/1}
 Group   4 Type O   : 7s4p1d contracted to 3s2p1d pattern {511/31/1}

Atom   0C    basis set group =>   1
Atom   1C    basis set group =>   1
Atom   2C    basis set group =>   1
Atom   3H    basis set group =>   2
Atom   4C    basis set group =>   1
Atom   5C    basis set group =>   1
Atom   6C    basis set group =>   1
Atom   7C    basis set group =>   1
Atom   8C    basis set group =>   1
Atom   9C    basis set group =>   1
Atom  10C    basis set group =>   1
Atom  11H    basis set group =>   2
Atom  12C    basis set group =>   1
Atom  13N    basis set group =>   3
Atom  14C    basis set group =>   1
Atom  15C    basis set group =>   1
Atom  16C    basis set group =>   1
Atom  17N    basis set group =>   3
Atom  18O    basis set group =>   4
Atom  19O    basis set group =>   4
Atom  20O    basis set group =>   4
Atom  21O    basis set group =>   4
Atom  22C    basis set group =>   1
Atom  23H    basis set group =>   2
Atom  24H    basis set group =>   2
Atom  25H    basis set group =>   2
Atom  26C    basis set group =>   1
Atom  27H    basis set group =>   2
Atom  28H    basis set group =>   2
Atom  29H    basis set group =>   2
Atom  30H    basis set group =>   2
Atom  31H    basis set group =>   2
---------------------------------
AUXILIARY/J BASIS SET INFORMATION
---------------------------------
There are 4 groups of distinct atoms

 Group   1 Type C   : 12s5p4d2f1g contracted to 6s4p3d1f1g pattern {711111/2111/211/2/1}
 Group   2 Type H   : 5s2p1d contracted to 3s1p1d pattern {311/2/1}
 Group   3 Type N   : 12s5p4d2f1g contracted to 6s4p3d1f1g pattern {711111/2111/211/2/1}
 Group   4 Type O   : 12s5p4d2f1g contracted to 6s4p3d1f1g pattern {711111/2111/211/2/1}

Atom   0C    basis set group =>   1
Atom   1C    basis set group =>   1
Atom   2C    basis set group =>   1
Atom   3H    basis set group =>   2
Atom   4C    basis set group =>   1
Atom   5C    basis set group =>   1
Atom   6C    basis set group =>   1
Atom   7C    basis set group =>   1
Atom   8C    basis set group =>   1
Atom   9C    basis set group =>   1
Atom  10C    basis set group =>   1
Atom  11H    basis set group =>   2
Atom  12C    basis set group =>   1
Atom  13N    basis set group =>   3
Atom  14C    basis set group =>   1
Atom  15C    basis set group =>   1
Atom  16C    basis set group =>   1
Atom  17N    basis set group =>   3
Atom  18O    basis set group =>   4
Atom  19O    basis set group =>   4
Atom  20O    basis set group =>   4
Atom  21O    basis set group =>   4
Atom  22C    basis set group =>   1
Atom  23H    basis set group =>   2
Atom  24H    basis set group =>   2
Atom  25H    basis set group =>   2
Atom  26C    basis set group =>   1
Atom  27H    basis set group =>   2
Atom  28H    basis set group =>   2
Atom  29H    basis set group =>   2
Atom  30H    basis set group =>   2
Atom  31H    basis set group =>   2
------------------------------------------------------------------------------
                           ORCA GTO INTEGRAL CALCULATION
                           -- RI-GTO INTEGRALS CHOSEN --
------------------------------------------------------------------------------

                         BASIS SET STATISTICS AND STARTUP INFO

Gaussian basis set:
 # of primitive gaussian shells          ...  314
 # of primitive gaussian functions       ...  598
 # of contracted shells                  ...  162
 # of contracted basis functions         ...  358
 Highest angular momentum                ...    2
 Maximum contraction depth               ...    5
Auxiliary gaussian basis set:
 # of primitive gaussian shells          ...  608
 # of primitive gaussian functions       ... 1700
 # of contracted shells                  ...  380
 # of contracted aux-basis functions     ... 1188
 Highest angular momentum                ...    4
 Maximum contraction depth               ...    7
Ratio of auxiliary to basis functions    ...  3.32
Integral package used                  ... LIBINT
 One Electron integrals                  ... done
 Ordering auxiliary basis shells         ... done
 Integral threshhold             Thresh  ...  2.500e-11
 Primitive cut-off               TCut    ...  2.500e-12
 Pre-screening matrix                    ... done
 Shell pair data                         ... 
 Ordering of the shell pairs             ... done (   0.001 sec) 9979 of 13203 pairs
 Determination of significant pairs      ... done (   0.000 sec)
 Creation of shell pair data             ... done (   0.001 sec)
 Storage of shell pair data              ... done (   0.007 sec)
 Shell pair data done in (   0.010 sec)
 Computing two index integrals           ... done
 Cholesky decomposition of the V-matrix  ... done


Timings:
 Total evaluation time                   ...   0.677 sec (  0.011 min)
 One electron matrix time                ...   0.219 sec (  0.004 min) = 32.3%
 Schwartz matrix evaluation time         ...   0.101 sec (  0.002 min) = 14.9%
 Two index repulsion integral time       ...   0.074 sec (  0.001 min) = 10.9%
 Cholesky decomposition of V             ...   0.256 sec (  0.004 min) = 37.8%
 Three index repulsion integral time     ...   0.000 sec (  0.000 min) =  0.0%

-------------------------------------------------------------------------------
                                 ORCA SCF
-------------------------------------------------------------------------------

------------
SCF SETTINGS
------------
Hamiltonian:
 Density Functional     Method          .... DFT(GTOs)
 Exchange Functional    Exchange        .... B88
   X-Alpha parameter    XAlpha          ....  0.666667
   Becke's b parameter  XBeta           ....  0.004200
 Correlation Functional Correlation     .... P86
 LDA part of GGA corr.  LDAOpt          .... PW91-LDA
 Gradients option       PostSCFGGA      .... off
   Density functional embedding theory  .... OFF
 RI-approximation to the Coulomb term is turned on
   Number of auxiliary basis functions  .... 1188


General Settings:
 Integral files         IntName         .... N2200_Input_Dimethyl_Naphthalene_Dicarboximide_1_Optimize_Monomer
 Hartree-Fock type      HFTyp           .... RHF
 Total Charge           Charge          ....    0
 Multiplicity           Mult            ....    1
 Number of Electrons    NEL             ....  152
 Basis Dimension        Dim             ....  358
 Nuclear Repulsion      ENuc            ....   1712.5763610150 Eh

Convergence Acceleration:
 DIIS                   CNVDIIS         .... on
   Start iteration      DIISMaxIt       ....    12
   Startup error        DIISStart       ....  0.200000
   # of expansion vecs  DIISMaxEq       ....     5
   Bias factor          DIISBfac        ....   1.050
   Max. coefficient     DIISMaxC        ....  10.000
 Newton-Raphson         CNVNR           .... off
 SOSCF                  CNVSOSCF        .... on
   Start iteration      SOSCFMaxIt      ....   150
   Startup grad/error   SOSCFStart      ....  0.003300
 Level Shifting         CNVShift        .... on
   Level shift para.    LevelShift      ....    0.2500
   Turn off err/grad.   ShiftErr        ....    0.0010
 Zerner damping         CNVZerner       .... off
 Static damping         CNVDamp         .... on
   Fraction old density DampFac         ....    0.7000
   Max. Damping (<1)    DampMax         ....    0.9800
   Min. Damping (>=0)   DampMin         ....    0.0000
   Turn off err/grad.   DampErr         ....    0.1000
 Fernandez-Rico         CNVRico         .... off

SCF Procedure:
 Maximum # iterations   MaxIter         ....   125
 SCF integral mode      SCFMode         .... Direct
   Integral package                     .... LIBINT
 Reset frequency        DirectResetFreq ....    20
 Integral Threshold     Thresh          ....  2.500e-11 Eh
 Primitive CutOff       TCut            ....  2.500e-12 Eh

Convergence Tolerance:
 Convergence Check Mode ConvCheckMode   .... Total+1el-Energy
 Convergence forced     ConvForced      .... 0
 Energy Change          TolE            ....  1.000e-08 Eh
 1-El. energy change                    ....  1.000e-05 Eh
 Orbital Gradient       TolG            ....  1.000e-05
 Orbital Rotation angle TolX            ....  1.000e-05
 DIIS Error             TolErr          ....  5.000e-07


Diagonalization of the overlap matrix:
Smallest eigenvalue                        ... 2.570e-04
Time for diagonalization                   ...    0.160 sec
Threshold for overlap eigenvalues          ... 1.000e-08
Number of eigenvalues below threshold      ... 0
Time for construction of square roots      ...    0.119 sec
Total time needed                          ...    0.280 sec

-------------------
DFT GRID GENERATION
-------------------

General Integration Accuracy     IntAcc      ...  4.340
Radial Grid Type                 RadialGrid  ... Gauss-Chebyshev
Angular Grid (max. acc.)         AngularGrid ... Lebedev-194
Angular grid pruning method      GridPruning ... 3 (G Style)
Weight generation scheme         WeightScheme... Becke
Basis function cutoff            BFCut       ...    1.0000e-11
Integration weight cutoff        WCut        ...    1.0000e-14
Grids for H and He will be reduced by one unit

# of grid points (after initial pruning)     ...  87784 (   0.0 sec)
# of grid points (after weights+screening)   ...  78200 (   0.4 sec)
nearest neighbour list constructed           ...    0.0 sec
Grid point re-assignment to atoms done       ...    0.0 sec
Grid point division into batches done        ...    0.1 sec
Reduced shell lists constructed in    0.7 sec

Total number of grid points                  ...    78200
Total number of batches                      ...     1236
Average number of points per batch           ...       63
Average number of grid points per atom       ...     2444
Average number of shells per batch           ...    77.78 (48.01%)
Average number of basis functions per batch  ...   165.75 (46.30%)
Average number of large shells per batch     ...    52.92 (68.04%)
Average number of large basis fcns per batch ...   113.26 (68.33%)
Maximum spatial batch extension              ...  18.37, 20.53, 21.66 au
Average spatial batch extension              ...   2.71,  2.59,  3.15 au

Time for grid setup =    1.144 sec

------------------------------
INITIAL GUESS: MODEL POTENTIAL
------------------------------
Loading Hartree-Fock densities                     ... done
Calculating cut-offs                               ... done
Setting up the integral package                    ... done
Initializing the effective Hamiltonian             ... done
Starting the Coulomb interaction                   ... done (   0.5 sec)
Reading the grid                                   ... done
Mapping shells                                     ... done
Starting the XC term evaluation                    ... done (   0.9 sec)
  promolecular density results
     # of electrons  =    151.993948314
     EX              =   -131.144872082
     EC              =     -5.654591727
     EX+EC           =   -136.799463809
Transforming the Hamiltonian                       ... done (   0.0 sec)
Diagonalizing the Hamiltonian                      ... done (   0.0 sec)
Back transforming the eigenvectors                 ... done (   0.0 sec)
Now organizing SCF variables                       ... done
                      ------------------
                      INITIAL GUESS DONE (   2.7 sec)
                      ------------------
--------------
SCF ITERATIONS
--------------
ITER       Energy         Delta-E        Max-DP      RMS-DP      [F,P]     Damp
               ***  Starting incremental Fock matrix formation  ***
  0  -1025.0266776908   0.000000000000 0.14733263  0.00292925  0.2440484 0.7000
  1  -1025.2714613030  -0.244783612165 0.07365033  0.00146482  0.0625225 0.7000
                               ***Turning on DIIS***
  2  -1025.3278503424  -0.056389039409 0.06053866  0.00163210  0.0314311 0.0000
  3  -1025.4822524053  -0.154402062910 0.05040112  0.00089336  0.0436198 0.0000
  4  -1025.4950672093  -0.012814804016 0.01374727  0.00031621  0.0247630 0.0000
  5  -1025.4996986979  -0.004631488623 0.00335658  0.00009637  0.0043024 0.0000
                      *** Initiating the SOSCF procedure ***
                           *** Shutting down DIIS ***
                      *** Re-Reading the Fockian *** 
                      *** Removing any level shift *** 
ITER      Energy       Delta-E        Grad      Rot      Max-DP    RMS-DP
  6  -1025.49988811  -0.0001894100  0.000423  0.000423  0.001242  0.000038
               *** Restarting incremental Fock matrix formation ***
  7  -1025.49991688  -0.0000287764  0.000144  0.000941  0.000594  0.000017
  8  -1025.49991475   0.0000021335  0.000243  0.000600  0.000418  0.000010
  9  -1025.49991813  -0.0000033837  0.000073  0.000292  0.000368  0.000008
 10  -1025.49991747   0.0000006648  0.000125  0.000203  0.000331  0.000006
 11  -1025.49991834  -0.0000008699  0.000029  0.000150  0.000145  0.000004
 12  -1025.49991823   0.0000001131  0.000036  0.000095  0.000109  0.000002
 13  -1025.49991841  -0.0000001859  0.000008  0.000028  0.000061  0.000001
 14  -1025.49991842  -0.0000000066  0.000015  0.000017  0.000041  0.000001
                  ***Gradient check signals convergence***
              ***Rediagonalizing the Fockian in SOSCF/NRSCF***

               *****************************************************
               *                     SUCCESS                       *
               *           SCF CONVERGED AFTER  15 CYCLES          *
               *****************************************************

Setting up the final grid:

General Integration Accuracy     IntAcc      ...  5.010
Radial Grid Type                 RadialGrid  ... Gauss-Chebyshev
Angular Grid (max. acc.)         AngularGrid ... Lebedev-434
Angular grid pruning method      GridPruning ... 3 (G Style)
Weight generation scheme         WeightScheme... Becke
Basis function cutoff            BFCut       ...    1.0000e-11
Integration weight cutoff        WCut        ...    1.0000e-14
Grids for H and He will be reduced by one unit

# of grid points (after initial pruning)     ... 302636 (   0.1 sec)
# of grid points (after weights+screening)   ... 266311 (   1.3 sec)
nearest neighbour list constructed           ...    0.0 sec
Grid point re-assignment to atoms done       ...    0.0 sec
Grid point division into batches done        ...    1.5 sec
Reduced shell lists constructed in    3.4 sec

Total number of grid points                  ...   266311
Total number of batches                      ...     4180
Average number of points per batch           ...       63
Average number of grid points per atom       ...     8322
Average number of shells per batch           ...    71.41 (44.08%)
Average number of basis functions per batch  ...   151.26 (42.25%)
Average number of large shells per batch     ...    47.79 (66.93%)
Average number of large basis fcns per batch ...   101.57 (67.15%)
Maximum spatial batch extension              ...  21.38, 22.15, 23.20 au
Average spatial batch extension              ...   1.83,  1.82,  2.00 au

Final grid set up in    5.0 sec
Final integration                            ... done (   3.3 sec)
Change in XC energy                          ...    -0.000492476
Integrated number of electrons               ...   151.999979746
Previous integrated no of electrons          ...   151.999442116

----------------
TOTAL SCF ENERGY
----------------

Total Energy       :        -1025.50041090 Eh          -27905.28486 eV

Components:
Nuclear Repulsion  :         1712.57636101 Eh           46601.57196 eV
Electronic Energy  :        -2738.07677191 Eh          -74506.85682 eV
One Electron Energy:        -4796.38723063 Eh         -130516.33187 eV
Two Electron Energy:         2058.31045872 Eh           56009.47505 eV

Virial components:
Potential Energy   :        -2040.15732625 Eh          -55515.50320 eV
Kinetic Energy     :         1014.65691535 Eh           27610.21834 eV
Virial Ratio       :            2.01068686


DFT components:
N(Alpha)           :       75.999989872916 electrons
N(Beta)            :       75.999989872916 electrons
N(Total)           :      151.999979745831 electrons
E(X)               :     -132.862854230163 Eh       
E(C)               :       -5.659240078986 Eh       
E(XC)              :     -138.522094309150 Eh       
DFET-embed. en.    :        0.000000000000 Eh       

---------------
SCF CONVERGENCE
---------------

  Last Energy change         ...   -1.5132e-09  Tolerance :   1.0000e-08
  Last MAX-Density change    ...    1.3875e-05  Tolerance :   1.0000e-07
  Last RMS-Density change    ...    3.0090e-07  Tolerance :   5.0000e-09
  Last Orbital Gradient      ...    2.2391e-06  Tolerance :   1.0000e-05
  Last Orbital Rotation      ...    1.3497e-05  Tolerance :   1.0000e-05

             **** THE GBW FILE WAS UPDATED (N2200_Input_Dimethyl_Naphthalene_Dicarboximide_1_Optimize_Monomer.gbw) ****
             **** DENSITY FILE WAS UPDATED (N2200_Input_Dimethyl_Naphthalene_Dicarboximide_1_Optimize_Monomer.scfp) ****
             **** ENERGY FILE WAS UPDATED (N2200_Input_Dimethyl_Naphthalene_Dicarboximide_1_Optimize_Monomer.en.tmp) ****
             **** THE GBW FILE WAS UPDATED (N2200_Input_Dimethyl_Naphthalene_Dicarboximide_1_Optimize_Monomer.gbw) ****
             **** DENSITY FILE WAS UPDATED (N2200_Input_Dimethyl_Naphthalene_Dicarboximide_1_Optimize_Monomer.scfp) ****
----------------
ORBITAL ENERGIES
----------------

  NO   OCC          E(Eh)            E(eV) 
   0   2.0000     -18.780552      -511.0448 
   1   2.0000     -18.780419      -511.0412 
   2   2.0000     -18.780221      -511.0358 
   3   2.0000     -18.779751      -511.0230 
   4   2.0000     -14.084760      -383.2658 
   5   2.0000     -14.084749      -383.2655 
   6   2.0000     -10.041303      -273.2377 
   7   2.0000     -10.040989      -273.2292 
   8   2.0000     -10.039042      -273.1762 
   9   2.0000     -10.038910      -273.1726 
  10   2.0000      -9.977429      -271.4997 
  11   2.0000      -9.977306      -271.4963 
  12   2.0000      -9.973666      -271.3972 
  13   2.0000      -9.973556      -271.3943 
  14   2.0000      -9.970834      -271.3202 
  15   2.0000      -9.970799      -271.3192 
  16   2.0000      -9.963314      -271.1156 
  17   2.0000      -9.963186      -271.1121 
  18   2.0000      -9.957391      -270.9544 
  19   2.0000      -9.957230      -270.9500 
  20   2.0000      -9.956746      -270.9368 
  21   2.0000      -9.956634      -270.9338 
  22   2.0000      -0.980625       -26.6842 
  23   2.0000      -0.980294       -26.6752 
  24   2.0000      -0.959669       -26.1139 
  25   2.0000      -0.959390       -26.1063 
  26   2.0000      -0.869018       -23.6472 
  27   2.0000      -0.867393       -23.6030 
  28   2.0000      -0.835761       -22.7422 
  29   2.0000      -0.782780       -21.3005 
  30   2.0000      -0.763556       -20.7774 
  31   2.0000      -0.709686       -19.3115 
  32   2.0000      -0.706403       -19.2222 
  33   2.0000      -0.680710       -18.5230 
  34   2.0000      -0.652068       -17.7437 
  35   2.0000      -0.645346       -17.5608 
  36   2.0000      -0.609107       -16.5747 
  37   2.0000      -0.592423       -16.1206 
  38   2.0000      -0.591485       -16.0951 
  39   2.0000      -0.583538       -15.8789 
  40   2.0000      -0.536928       -14.6106 
  41   2.0000      -0.514235       -13.9931 
  42   2.0000      -0.508257       -13.8304 
  43   2.0000      -0.490773       -13.3546 
  44   2.0000      -0.467678       -12.7262 
  45   2.0000      -0.452680       -12.3181 
  46   2.0000      -0.447590       -12.1795 
  47   2.0000      -0.445530       -12.1235 
  48   2.0000      -0.438567       -11.9340 
  49   2.0000      -0.434150       -11.8138 
  50   2.0000      -0.424038       -11.5387 
  51   2.0000      -0.407237       -11.0815 
  52   2.0000      -0.407033       -11.0759 
  53   2.0000      -0.398087       -10.8325 
  54   2.0000      -0.392073       -10.6688 
  55   2.0000      -0.391547       -10.6545 
  56   2.0000      -0.387724       -10.5505 
  57   2.0000      -0.380816       -10.3625 
  58   2.0000      -0.372814       -10.1448 
  59   2.0000      -0.370460       -10.0807 
  60   2.0000      -0.370121       -10.0715 
  61   2.0000      -0.365207        -9.9378 
  62   2.0000      -0.356502        -9.7009 
  63   2.0000      -0.351485        -9.5644 
  64   2.0000      -0.350726        -9.5437 
  65   2.0000      -0.334676        -9.1070 
  66   2.0000      -0.318870        -8.6769 
  67   2.0000      -0.292285        -7.9535 
  68   2.0000      -0.270153        -7.3512 
  69   2.0000      -0.259629        -7.0649 
  70   2.0000      -0.255943        -6.9646 
  71   2.0000      -0.253852        -6.9077 
  72   2.0000      -0.252041        -6.8584 
  73   2.0000      -0.242104        -6.5880 
  74   2.0000      -0.236955        -6.4479 
  75   2.0000      -0.232785        -6.3344 
  76   0.0000      -0.157756        -4.2928 
  77   0.0000      -0.101005        -2.7485 
  78   0.0000      -0.088931        -2.4199 
  79   0.0000      -0.080320        -2.1856 
  80   0.0000      -0.029865        -0.8127 
  81   0.0000      -0.025971        -0.7067 
  82   0.0000       0.019628         0.5341 
  83   0.0000       0.044029         1.1981 
  84   0.0000       0.052863         1.4385 
  85   0.0000       0.057982         1.5778 
  86   0.0000       0.060065         1.6344 
  87   0.0000       0.060908         1.6574 
  88   0.0000       0.093467         2.5434 
  89   0.0000       0.097608         2.6560 
  90   0.0000       0.099163         2.6984 
  91   0.0000       0.107442         2.9237 
  92   0.0000       0.110082         2.9955 
  93   0.0000       0.113406         3.0859 
  94   0.0000       0.115636         3.1466 
  95   0.0000       0.118321         3.2197 
  96   0.0000       0.138257         3.7622 
  97   0.0000       0.145961         3.9718 
  98   0.0000       0.153811         4.1854 
  99   0.0000       0.157039         4.2732 
 100   0.0000       0.169769         4.6197 
 101   0.0000       0.170932         4.6513 
 102   0.0000       0.173175         4.7123 
 103   0.0000       0.176776         4.8103 
 104   0.0000       0.189219         5.1489 
 105   0.0000       0.201568         5.4850 
 106   0.0000       0.207219         5.6387 
 107   0.0000       0.208609         5.6765 
 108   0.0000       0.236544         6.4367 
 109   0.0000       0.245661         6.6848 
 110   0.0000       0.254008         6.9119 
 111   0.0000       0.256303         6.9743 
 112   0.0000       0.263143         7.1605 
 113   0.0000       0.280784         7.6405 
 114   0.0000       0.287097         7.8123 
 115   0.0000       0.301256         8.1976 
 116   0.0000       0.305201         8.3050 
 117   0.0000       0.313254         8.5241 
 118   0.0000       0.321646         8.7524 
 119   0.0000       0.332120         9.0374 
 120   0.0000       0.355002         9.6601 
 121   0.0000       0.355215         9.6659 
 122   0.0000       0.358681         9.7602 
 123   0.0000       0.371786        10.1168 
 124   0.0000       0.382657        10.4126 
 125   0.0000       0.385075        10.4784 
 126   0.0000       0.389808        10.6072 
 127   0.0000       0.399730        10.8772 
 128   0.0000       0.412111        11.2141 
 129   0.0000       0.415964        11.3189 
 130   0.0000       0.420529        11.4432 
 131   0.0000       0.426651        11.6098 
 132   0.0000       0.442672        12.0457 
 133   0.0000       0.453484        12.3399 
 134   0.0000       0.462443        12.5837 
 135   0.0000       0.465220        12.6593 
 136   0.0000       0.470781        12.8106 
 137   0.0000       0.491443        13.3728 
 138   0.0000       0.497562        13.5393 
 139   0.0000       0.508939        13.8489 
 140   0.0000       0.514354        13.9963 
 141   0.0000       0.524661        14.2767 
 142   0.0000       0.525266        14.2932 
 143   0.0000       0.532446        14.4886 
 144   0.0000       0.549141        14.9429 
 145   0.0000       0.556681        15.1481 
 146   0.0000       0.563005        15.3201 
 147   0.0000       0.563378        15.3303 
 148   0.0000       0.569568        15.4987 
 149   0.0000       0.574306        15.6277 
 150   0.0000       0.583190        15.8694 
 151   0.0000       0.584007        15.8916 
 152   0.0000       0.589392        16.0382 
 153   0.0000       0.593331        16.1454 
 154   0.0000       0.595452        16.2031 
 155   0.0000       0.598902        16.2969 
 156   0.0000       0.608299        16.5527 
 157   0.0000       0.608696        16.5635 
 158   0.0000       0.617263        16.7966 
 159   0.0000       0.618203        16.8222 
 160   0.0000       0.619551        16.8588 
 161   0.0000       0.632303        17.2058 
 162   0.0000       0.633147        17.2288 
 163   0.0000       0.641503        17.4562 
 164   0.0000       0.655095        17.8260 
 165   0.0000       0.655682        17.8420 
 166   0.0000       0.669699        18.2234 
 167   0.0000       0.686727        18.6868 
 168   0.0000       0.694324        18.8935 
 169   0.0000       0.699336        19.0299 
 170   0.0000       0.713841        19.4246 
 171   0.0000       0.722662        19.6646 
 172   0.0000       0.733963        19.9721 
 173   0.0000       0.740839        20.1592 
 174   0.0000       0.741298        20.1717 
 175   0.0000       0.751839        20.4586 
 176   0.0000       0.758040        20.6273 
 177   0.0000       0.773703        21.0535 
 178   0.0000       0.783777        21.3277 
 179   0.0000       0.812245        22.1023 
 180   0.0000       0.830766        22.6063 
 181   0.0000       0.849735        23.1225 
 182   0.0000       0.868415        23.6308 
 183   0.0000       0.868859        23.6429 
 184   0.0000       0.906833        24.6762 
 185   0.0000       0.918389        24.9906 
 186   0.0000       0.939061        25.5531 
 187   0.0000       0.950185        25.8558 
 188   0.0000       0.965566        26.2744 
 189   0.0000       0.972060        26.4511 
 190   0.0000       0.995570        27.0908 
 191   0.0000       1.005366        27.3574 
 192   0.0000       1.006751        27.3951 
 193   0.0000       1.024816        27.8867 
 194   0.0000       1.042990        28.3812 
 195   0.0000       1.062984        28.9253 
 196   0.0000       1.063311        28.9342 
 197   0.0000       1.070428        29.1278 
 198   0.0000       1.079765        29.3819 
 199   0.0000       1.104102        30.0441 
 200   0.0000       1.122958        30.5572 
 201   0.0000       1.134965        30.8840 
 202   0.0000       1.137661        30.9573 
 203   0.0000       1.140589        31.0370 
 204   0.0000       1.161882        31.6164 
 205   0.0000       1.175637        31.9907 
 206   0.0000       1.176355        32.0102 
 207   0.0000       1.180435        32.1213 
 208   0.0000       1.182319        32.1725 
 209   0.0000       1.198893        32.6235 
 210   0.0000       1.208769        32.8923 
 211   0.0000       1.216870        33.1127 
 212   0.0000       1.228701        33.4346 
 213   0.0000       1.239601        33.7312 
 214   0.0000       1.250205        34.0198 
 215   0.0000       1.268258        34.5111 
 216   0.0000       1.268880        34.5280 
 217   0.0000       1.306420        35.5495 
 218   0.0000       1.308914        35.6174 
 219   0.0000       1.320699        35.9380 
 220   0.0000       1.339124        36.4394 
 221   0.0000       1.359110        36.9833 
 222   0.0000       1.383813        37.6555 
 223   0.0000       1.386033        37.7159 
 224   0.0000       1.402111        38.1534 
 225   0.0000       1.402796        38.1720 
 226   0.0000       1.427396        38.8414 
 227   0.0000       1.436512        39.0895 
 228   0.0000       1.438938        39.1555 
 229   0.0000       1.440922        39.2095 
 230   0.0000       1.451626        39.5008 
 231   0.0000       1.469270        39.9809 
 232   0.0000       1.519127        41.3376 
 233   0.0000       1.520393        41.3720 
 234   0.0000       1.526436        41.5364 
 235   0.0000       1.570455        42.7342 
 236   0.0000       1.572591        42.7924 
 237   0.0000       1.574125        42.8341 
 238   0.0000       1.593273        43.3552 
 239   0.0000       1.597116        43.4597 
 240   0.0000       1.614690        43.9379 
 241   0.0000       1.625968        44.2448 
 242   0.0000       1.627228        44.2791 
 243   0.0000       1.628096        44.3027 
 244   0.0000       1.639710        44.6188 
 245   0.0000       1.646128        44.7934 
 246   0.0000       1.652953        44.9791 
 247   0.0000       1.668779        45.4098 
 248   0.0000       1.683844        45.8197 
 249   0.0000       1.685812        45.8733 
 250   0.0000       1.689995        45.9871 
 251   0.0000       1.693239        46.0754 
 252   0.0000       1.698915        46.2298 
 253   0.0000       1.720774        46.8246 
 254   0.0000       1.742445        47.4143 
 255   0.0000       1.755595        47.7722 
 256   0.0000       1.760314        47.9006 
 257   0.0000       1.769136        48.1406 
 258   0.0000       1.784718        48.5646 
 259   0.0000       1.799331        48.9623 
 260   0.0000       1.825685        49.6794 
 261   0.0000       1.835668        49.9511 
 262   0.0000       1.836490        49.9734 
 263   0.0000       1.841367        50.1062 
 264   0.0000       1.844782        50.1991 
 265   0.0000       1.855652        50.4949 
 266   0.0000       1.872758        50.9603 
 267   0.0000       1.891572        51.4723 
 268   0.0000       1.898057        51.6488 
 269   0.0000       1.899135        51.6781 
 270   0.0000       1.914855        52.1058 
 271   0.0000       1.938701        52.7547 
 272   0.0000       1.946056        52.9549 
 273   0.0000       1.970215        53.6123 
 274   0.0000       1.975206        53.7481 
 275   0.0000       1.980807        53.9005 
 276   0.0000       1.990701        54.1697 
 277   0.0000       1.992697        54.2240 
 278   0.0000       2.004315        54.5402 
 279   0.0000       2.026372        55.1404 
 280   0.0000       2.029116        55.2151 
 281   0.0000       2.046535        55.6890 
 282   0.0000       2.081716        56.6464 
 283   0.0000       2.094462        56.9932 
 284   0.0000       2.095022        57.0084 
 285   0.0000       2.107314        57.3429 
 286   0.0000       2.142286        58.2946 
 287   0.0000       2.146301        58.4038 
 288   0.0000       2.159787        58.7708 
 289   0.0000       2.166697        58.9588 
 290   0.0000       2.175692        59.2036 
 291   0.0000       2.182601        59.3916 
 292   0.0000       2.205784        60.0224 
 293   0.0000       2.223947        60.5167 
 294   0.0000       2.259751        61.4910 
 295   0.0000       2.291631        62.3584 
 296   0.0000       2.294472        62.4358 
 297   0.0000       2.309216        62.8370 
 298   0.0000       2.328228        63.3543 
 299   0.0000       2.336836        63.5885 
 300   0.0000       2.361852        64.2693 
 301   0.0000       2.368006        64.4367 
 302   0.0000       2.387861        64.9770 
 303   0.0000       2.396113        65.2016 
 304   0.0000       2.403897        65.4134 
 305   0.0000       2.421742        65.8990 
 306   0.0000       2.433304        66.2136 
 307   0.0000       2.453336        66.7587 
 308   0.0000       2.481873        67.5352 
 309   0.0000       2.484572        67.6086 
 310   0.0000       2.493420        67.8494 
 311   0.0000       2.500753        68.0490 
 312   0.0000       2.510516        68.3146 
 313   0.0000       2.520105        68.5755 
 314   0.0000       2.533197        68.9318 
 315   0.0000       2.542257        69.1783 
 316   0.0000       2.567821        69.8740 
 317   0.0000       2.581832        70.2552 
 318   0.0000       2.584135        70.3179 
 319   0.0000       2.603611        70.8479 
 320   0.0000       2.606323        70.9216 
 321   0.0000       2.612689        71.0949 
 322   0.0000       2.643715        71.9391 
 323   0.0000       2.661501        72.4231 
 324   0.0000       2.669632        72.6444 
 325   0.0000       2.689366        73.1814 
 326   0.0000       2.691775        73.2469 
 327   0.0000       2.709799        73.7374 
 328   0.0000       2.735934        74.4486 
 329   0.0000       2.738326        74.5136 
 330   0.0000       2.745917        74.7202 
 331   0.0000       2.778856        75.6165 
 332   0.0000       2.794759        76.0493 
 333   0.0000       2.812428        76.5301 
 334   0.0000       2.814282        76.5805 
 335   0.0000       2.829727        77.0008 
 336   0.0000       2.836190        77.1767 
 337   0.0000       2.853941        77.6597 
 338   0.0000       2.877986        78.3140 
 339   0.0000       2.884702        78.4967 
 340   0.0000       2.894831        78.7724 
 341   0.0000       2.959972        80.5449 
 342   0.0000       3.005726        81.7900 
 343   0.0000       3.008171        81.8565 
 344   0.0000       3.040079        82.7247 
 345   0.0000       3.042614        82.7937 
 346   0.0000       3.141141        85.4748 
 347   0.0000       3.178746        86.4981 
 348   0.0000       3.236971        88.0824 
 349   0.0000       3.248439        88.3945 
 350   0.0000       3.281359        89.2903 
 351   0.0000       3.351163        91.1898 
 352   0.0000       3.424987        93.1986 
 353   0.0000       3.489076        94.9426 
 354   0.0000       3.494949        95.1024 
 355   0.0000       3.537966        96.2730 
 356   0.0000       3.551450        96.6399 
 357   0.0000       3.577129        97.3386 

                    ********************************
                    * MULLIKEN POPULATION ANALYSIS *
                    ********************************

-----------------------
MULLIKEN ATOMIC CHARGES
-----------------------
   0 C :   -0.048341
   1 C :   -0.062275
   2 C :    0.006573
   3 H :    0.031339
   4 C :   -0.004432
   5 C :    0.124488
   6 C :    0.124576
   7 C :   -0.005075
   8 C :   -0.062747
   9 C :   -0.048581
  10 C :    0.007131
  11 H :    0.031662
  12 C :    0.148662
  13 N :   -0.253475
  14 C :    0.123413
  15 C :    0.123723
  16 C :    0.148676
  17 N :   -0.253683
  18 O :   -0.175225
  19 O :   -0.175262
  20 O :   -0.175815
  21 O :   -0.174059
  22 C :    0.071090
  23 H :    0.068908
  24 H :    0.061711
  25 H :    0.058131
  26 C :    0.071069
  27 H :    0.058020
  28 H :    0.061788
  29 H :    0.068961
  30 H :    0.024411
  31 H :    0.024638
Sum of atomic charges:   -0.0000000

--------------------------------
MULLIKEN REDUCED ORBITAL CHARGES
--------------------------------
  0 C s       :     3.262862  s :     3.262862
      pz      :     0.918280  p :     2.753953
      px      :     0.912685
      py      :     0.922988
      dz2     :     0.002259  d :     0.031526
      dxz     :     0.002433
      dyz     :     0.005851
      dx2y2   :     0.010252
      dxy     :     0.010731
  1 C s       :     3.156262  s :     3.156262
      pz      :     1.001235  p :     2.868628
      px      :     0.964339
      py      :     0.903054
      dz2     :     0.003042  d :     0.037385
      dxz     :     0.006255
      dyz     :     0.004344
      dx2y2   :     0.012604
      dxy     :     0.011139
  2 C s       :     3.303070  s :     3.303070
      pz      :     0.924644  p :     2.660630
      px      :     0.859645
      py      :     0.876341
      dz2     :     0.002187  d :     0.029726
      dxz     :     0.003793
      dyz     :     0.003737
      dx2y2   :     0.009631
      dxy     :     0.010378
  3 H s       :     0.945849  s :     0.945849
      pz      :     0.004278  p :     0.022812
      px      :     0.013368
      py      :     0.005166
  4 C s       :     3.154839  s :     3.154839
      pz      :     1.003093  p :     2.814300
      px      :     0.863713
      py      :     0.947494
      dz2     :     0.002913  d :     0.035292
      dxz     :     0.005809
      dyz     :     0.004061
      dx2y2   :     0.010238
      dxy     :     0.012271
  5 C s       :     3.120109  s :     3.120109
      pz      :     0.970456  p :     2.716543
      px      :     0.878619
      py      :     0.867467
      dz2     :     0.003042  d :     0.038861
      dxz     :     0.006045
      dyz     :     0.005909
      dx2y2   :     0.012121
      dxy     :     0.011742
  6 C s       :     3.120215  s :     3.120215
      pz      :     0.970445  p :     2.716334
      px      :     0.878697
      py      :     0.867191
      dz2     :     0.003035  d :     0.038876
      dxz     :     0.006053
      dyz     :     0.005911
      dx2y2   :     0.012136
      dxy     :     0.011742
  7 C s       :     3.155714  s :     3.155714
      pz      :     1.003468  p :     2.814089
      px      :     0.864243
      py      :     0.946378
      dz2     :     0.002913  d :     0.035271
      dxz     :     0.005785
      dyz     :     0.004077
      dx2y2   :     0.010243
      dxy     :     0.012252
  8 C s       :     3.156367  s :     3.156367
      pz      :     1.000737  p :     2.868984
      px      :     0.964332
      py      :     0.903914
      dz2     :     0.003050  d :     0.037397
      dxz     :     0.006259
      dyz     :     0.004358
      dx2y2   :     0.012599
      dxy     :     0.011132
  9 C s       :     3.262823  s :     3.262823
      pz      :     0.918139  p :     2.754215
      px      :     0.913230
      py      :     0.922846
      dz2     :     0.002261  d :     0.031542
      dxz     :     0.002451
      dyz     :     0.005849
      dx2y2   :     0.010231
      dxy     :     0.010750
 10 C s       :     3.302488  s :     3.302488
      pz      :     0.923855  p :     2.660683
      px      :     0.859570
      py      :     0.877258
      dz2     :     0.002187  d :     0.029697
      dxz     :     0.003786
      dyz     :     0.003742
      dx2y2   :     0.009623
      dxy     :     0.010360
 11 H s       :     0.945522  s :     0.945522
      pz      :     0.004287  p :     0.022817
      px      :     0.013349
      py      :     0.005181
 12 C s       :     3.017961  s :     3.017961
      pz      :     0.876103  p :     2.726621
      px      :     0.881837
      py      :     0.968680
      dz2     :     0.007721  d :     0.106756
      dxz     :     0.022036
      dyz     :     0.009355
      dx2y2   :     0.024200
      dxy     :     0.043444
 13 N s       :     3.452606  s :     3.452606
      pz      :     1.518169  p :     3.776450
      px      :     1.106138
      py      :     1.152143
      dz2     :     0.002446  d :     0.024419
      dxz     :     0.003381
      dyz     :     0.004164
      dx2y2   :     0.006962
      dxy     :     0.007466
 14 C s       :     3.049466  s :     3.049466
      pz      :     0.874351  p :     2.722387
      px      :     0.875440
      py      :     0.972596
      dz2     :     0.009931  d :     0.104733
      dxz     :     0.016746
      dyz     :     0.014382
      dx2y2   :     0.041364
      dxy     :     0.022311
 15 C s       :     3.050138  s :     3.050138
      pz      :     0.873594  p :     2.721392
      px      :     0.875007
      py      :     0.972791
      dz2     :     0.010198  d :     0.104747
      dxz     :     0.016785
      dyz     :     0.014468
      dx2y2   :     0.041076
      dxy     :     0.022221
 16 C s       :     3.017682  s :     3.017682
      pz      :     0.876263  p :     2.726833
      px      :     0.881663
      py      :     0.968908
      dz2     :     0.007818  d :     0.106808
      dxz     :     0.021987
      dyz     :     0.009453
      dx2y2   :     0.024165
      dxy     :     0.043385
 17 N s       :     3.452709  s :     3.452709
      pz      :     1.516796  p :     3.776557
      px      :     1.108089
      py      :     1.151672
      dz2     :     0.002452  d :     0.024417
      dxz     :     0.003388
      dyz     :     0.004179
      dx2y2   :     0.006938
      dxy     :     0.007460
 18 O s       :     3.738374  s :     3.738374
      pz      :     1.383458  p :     4.419882
      px      :     1.322507
      py      :     1.713917
      dz2     :     0.002095  d :     0.016970
      dxz     :     0.005113
      dyz     :     0.000402
      dx2y2   :     0.005410
      dxy     :     0.003949
 19 O s       :     3.744529  s :     3.744529
      pz      :     1.355063  p :     4.413858
      px      :     1.609240
      py      :     1.449555
      dz2     :     0.002378  d :     0.016875
      dxz     :     0.001953
      dyz     :     0.003929
      dx2y2   :     0.003616
      dxy     :     0.004999
 20 O s       :     3.738604  s :     3.738604
      pz      :     1.383583  p :     4.420255
      px      :     1.322277
      py      :     1.714395
      dz2     :     0.002104  d :     0.016956
      dxz     :     0.005117
      dyz     :     0.000407
      dx2y2   :     0.005397
      dxy     :     0.003931
 21 O s       :     3.744134  s :     3.744134
      pz      :     1.354358  p :     4.413002
      px      :     1.609709
      py      :     1.448935
      dz2     :     0.002416  d :     0.016922
      dxz     :     0.001955
      dyz     :     0.003978
      dx2y2   :     0.003611
      dxy     :     0.004963
 22 C s       :     3.016869  s :     3.016869
      pz      :     1.051394  p :     2.877351
      px      :     1.025160
      py      :     0.800797
      dz2     :     0.006582  d :     0.034691
      dxz     :     0.003395
      dyz     :     0.008485
      dx2y2   :     0.009615
      dxy     :     0.006614
 23 H s       :     0.907883  s :     0.907883
      pz      :     0.005801  p :     0.023209
      px      :     0.013783
      py      :     0.003625
 24 H s       :     0.916440  s :     0.916440
      pz      :     0.012245  p :     0.021849
      px      :     0.005364
      py      :     0.004240
 25 H s       :     0.920085  s :     0.920085
      pz      :     0.008272  p :     0.021784
      px      :     0.007571
      py      :     0.005942
 26 C s       :     3.016886  s :     3.016886
      pz      :     1.051503  p :     2.877346
      px      :     1.024919
      py      :     0.800924
      dz2     :     0.006579  d :     0.034698
      dxz     :     0.003468
      dyz     :     0.008414
      dx2y2   :     0.009563
      dxy     :     0.006675
 27 H s       :     0.920197  s :     0.920197
      pz      :     0.008175  p :     0.021783
      px      :     0.007658
      py      :     0.005950
 28 H s       :     0.916365  s :     0.916365
      pz      :     0.012276  p :     0.021847
      px      :     0.005342
      py      :     0.004229
 29 H s       :     0.907843  s :     0.907843
      pz      :     0.005877  p :     0.023196
      px      :     0.013701
      py      :     0.003619
 30 H s       :     0.952873  s :     0.952873
      pz      :     0.004758  p :     0.022716
      px      :     0.009660
      py      :     0.008298
 31 H s       :     0.952646  s :     0.952646
      pz      :     0.004759  p :     0.022717
      px      :     0.009671
      py      :     0.008287


                     *******************************
                     * LOEWDIN POPULATION ANALYSIS *
                     *******************************

----------------------
LOEWDIN ATOMIC CHARGES
----------------------
   0 C :    0.017944
   1 C :   -0.048338
   2 C :    0.031316
   3 H :    0.046630
   4 C :   -0.037643
   5 C :   -0.001070
   6 C :   -0.001061
   7 C :   -0.037759
   8 C :   -0.048260
   9 C :    0.017644
  10 C :    0.031805
  11 H :    0.046768
  12 C :    0.065173
  13 N :   -0.012966
  14 C :    0.067379
  15 C :    0.067759
  16 C :    0.064875
  17 N :   -0.013183
  18 O :   -0.158902
  19 O :   -0.154359
  20 O :   -0.159366
  21 O :   -0.153073
  22 C :    0.020452
  23 H :    0.037389
  24 H :    0.039616
  25 H :    0.038707
  26 C :    0.020420
  27 H :    0.038659
  28 H :    0.039616
  29 H :    0.037482
  30 H :    0.048183
  31 H :    0.048162

-------------------------------
LOEWDIN REDUCED ORBITAL CHARGES
-------------------------------
  0 C s       :     2.872451  s :     2.872451
      pz      :     0.915498  p :     3.024419
      px      :     1.061613
      py      :     1.047307
      dz2     :     0.005776  d :     0.085186
      dxz     :     0.004638
      dyz     :     0.012474
      dx2y2   :     0.031377
      dxy     :     0.030920
  1 C s       :     2.861189  s :     2.861189
      pz      :     0.977037  p :     3.082260
      px      :     1.056701
      py      :     1.048522
      dz2     :     0.008394  d :     0.104888
      dxz     :     0.013181
      dyz     :     0.008990
      dx2y2   :     0.038526
      dxy     :     0.035797
  2 C s       :     2.880928  s :     2.880928
      pz      :     0.917666  p :     3.007913
      px      :     1.036896
      py      :     1.053351
      dz2     :     0.005423  d :     0.079843
      dxz     :     0.007840
      dyz     :     0.007212
      dx2y2   :     0.029639
      dxy     :     0.029729
  3 H s       :     0.882047  s :     0.882047
      pz      :     0.012811  p :     0.071322
      px      :     0.042104
      py      :     0.016407
  4 C s       :     2.876339  s :     2.876339
      pz      :     0.979311  p :     3.064460
      px      :     1.053101
      py      :     1.032049
      dz2     :     0.007741  d :     0.096843
      dxz     :     0.011803
      dyz     :     0.008355
      dx2y2   :     0.032217
      dxy     :     0.036727
  5 C s       :     2.844389  s :     2.844389
      pz      :     0.964390  p :     3.049851
      px      :     1.043210
      py      :     1.042251
      dz2     :     0.007659  d :     0.106830
      dxz     :     0.012693
      dyz     :     0.012053
      dx2y2   :     0.038007
      dxy     :     0.036419
  6 C s       :     2.844315  s :     2.844315
      pz      :     0.964147  p :     3.049861
      px      :     1.043337
      py      :     1.042376
      dz2     :     0.007651  d :     0.106885
      dxz     :     0.012690
      dyz     :     0.012054
      dx2y2   :     0.038070
      dxy     :     0.036419
  7 C s       :     2.876370  s :     2.876370
      pz      :     0.979565  p :     3.064580
      px      :     1.052794
      py      :     1.032220
      dz2     :     0.007743  d :     0.096810
      dxz     :     0.011750
      dyz     :     0.008385
      dx2y2   :     0.032254
      dxy     :     0.036677
  8 C s       :     2.861233  s :     2.861233
      pz      :     0.976831  p :     3.082112
      px      :     1.056647
      py      :     1.048634
      dz2     :     0.008406  d :     0.104916
      dxz     :     0.013207
      dyz     :     0.009036
      dx2y2   :     0.038498
      dxy     :     0.035767
  9 C s       :     2.872486  s :     2.872486
      pz      :     0.915663  p :     3.024634
      px      :     1.061594
      py      :     1.047377
      dz2     :     0.005783  d :     0.085236
      dxz     :     0.004686
      dyz     :     0.012481
      dx2y2   :     0.031317
      dxy     :     0.030969
 10 C s       :     2.881190  s :     2.881190
      pz      :     0.917155  p :     3.007272
      px      :     1.036662
      py      :     1.053455
      dz2     :     0.005417  d :     0.079732
      dxz     :     0.007832
      dyz     :     0.007228
      dx2y2   :     0.029592
      dxy     :     0.029663
 11 H s       :     0.881900  s :     0.881900
      pz      :     0.012837  p :     0.071333
      px      :     0.042028
      py      :     0.016467
 12 C s       :     2.838187  s :     2.838187
      pz      :     0.872843  p :     2.845424
      px      :     0.982501
      py      :     0.990081
      dz2     :     0.017406  d :     0.251215
      dxz     :     0.044902
      dyz     :     0.019278
      dx2y2   :     0.062232
      dxy     :     0.107397
 13 N s       :     3.105516  s :     3.105516
      pz      :     1.467286  p :     3.845557
      px      :     1.191969
      py      :     1.186301
      dz2     :     0.005573  d :     0.061893
      dxz     :     0.007394
      dyz     :     0.007316
      dx2y2   :     0.020321
      dxy     :     0.021289
 14 C s       :     2.847669  s :     2.847669
      pz      :     0.884650  p :     2.840270
      px      :     0.935313
      py      :     1.020307
      dz2     :     0.020582  d :     0.244683
      dxz     :     0.036960
[...]
      dxz     :     0.003406
      dyz     :     0.008471
      dx2y2   :     0.009648
      dxy     :     0.006575
 23 H s       :     0.907566  s :     0.907566
      pz      :     0.005797  p :     0.023200
      px      :     0.013796
      py      :     0.003607
 24 H s       :     0.916553  s :     0.916553
      pz      :     0.012241  p :     0.021846
      px      :     0.005367
      py      :     0.004238
 25 H s       :     0.919987  s :     0.919987
      pz      :     0.008257  p :     0.021798
      px      :     0.007636
      py      :     0.005905
 26 C s       :     3.017063  s :     3.017063
      pz      :     1.051674  p :     2.877031
      px      :     1.025141
      py      :     0.800216
      dz2     :     0.006581  d :     0.034694
      dxz     :     0.003473
      dyz     :     0.008409
      dx2y2   :     0.009599
      dxy     :     0.006631
 27 H s       :     0.920093  s :     0.920093
      pz      :     0.008168  p :     0.021795
      px      :     0.007713
      py      :     0.005914
 28 H s       :     0.916460  s :     0.916460
      pz      :     0.012268  p :     0.021843
      px      :     0.005346
      py      :     0.004229
 29 H s       :     0.907548  s :     0.907548
      pz      :     0.005868  p :     0.023189
      px      :     0.013719
      py      :     0.003602
 30 H s       :     0.945876  s :     0.945876
      pz      :     0.004421  p :     0.021951
      px      :     0.008095
      py      :     0.009435
 31 H s       :     0.945768  s :     0.945768
      pz      :     0.004413  p :     0.021951
      px      :     0.008089
      py      :     0.009449


                     *******************************
                     * LOEWDIN POPULATION ANALYSIS *
                     *******************************

----------------------
LOEWDIN ATOMIC CHARGES
----------------------
   0 C :    0.019209
   1 C :   -0.047941
   2 C :    0.027151
   3 H :    0.047676
   4 C :   -0.039179
   5 C :   -0.001753
   6 C :   -0.001746
   7 C :   -0.039299
   8 C :   -0.047818
   9 C :    0.019007
  10 C :    0.027604
  11 H :    0.047734
  12 C :    0.065537
  13 N :   -0.012641
  14 C :    0.067831
  15 C :    0.068190
  16 C :    0.065225
  17 N :   -0.012874
  18 O :   -0.158387
  19 O :   -0.155200
  20 O :   -0.158859
  21 O :   -0.153904
  22 C :    0.020589
  23 H :    0.037559
  24 H :    0.039659
  25 H :    0.038741
  26 C :    0.020548
  27 H :    0.038692
  28 H :    0.039658
  29 H :    0.037641
  30 H :    0.050710
  31 H :    0.050641

-------------------------------
LOEWDIN REDUCED ORBITAL CHARGES
-------------------------------
  0 C s       :     2.871912  s :     2.871912
      pz      :     0.916726  p :     3.023790
      px      :     1.061376
      py      :     1.045688
      dz2     :     0.005738  d :     0.085089
      dxz     :     0.004640
      dyz     :     0.012452
      dx2y2   :     0.032086
      dxy     :     0.030173
  1 C s       :     2.860831  s :     2.860831
      pz      :     0.977606  p :     3.082312
      px      :     1.057558
      py      :     1.047147
      dz2     :     0.008343  d :     0.104797
      dxz     :     0.013189
      dyz     :     0.008935
      dx2y2   :     0.038340
      dxy     :     0.035990
  2 C s       :     2.886545  s :     2.886545
      pz      :     0.917754  p :     3.007159
      px      :     1.042372
      py      :     1.047034
      dz2     :     0.005358  d :     0.079145
      dxz     :     0.007510
      dyz     :     0.007373
      dx2y2   :     0.029238
      dxy     :     0.029665
  3 H s       :     0.881755  s :     0.881755
      pz      :     0.012660  p :     0.070568
      px      :     0.042449
      py      :     0.015459
  4 C s       :     2.877455  s :     2.877455
      pz      :     0.977053  p :     3.065174
      px      :     1.057587
      py      :     1.030535
      dz2     :     0.007729  d :     0.096550
      dxz     :     0.011725
      dyz     :     0.008281
      dx2y2   :     0.032080
      dxy     :     0.036735
  5 C s       :     2.844587  s :     2.844587
      pz      :     0.963680  p :     3.050244
      px      :     1.043585
      py      :     1.042980
      dz2     :     0.007598  d :     0.106921
      dxz     :     0.012685
      dyz     :     0.011926
      dx2y2   :     0.038362
      dxy     :     0.036350
  6 C s       :     2.844516  s :     2.844516
      pz      :     0.963416  p :     3.050249
      px      :     1.043735
      py      :     1.043098
      dz2     :     0.007592  d :     0.106981
      dxz     :     0.012682
      dyz     :     0.011928
      dx2y2   :     0.038429
      dxy     :     0.036349
  7 C s       :     2.877488  s :     2.877488
      pz      :     0.977253  p :     3.065296
      px      :     1.057347
      py      :     1.030696
      dz2     :     0.007731  d :     0.096515
      dxz     :     0.011673
      dyz     :     0.008310
      dx2y2   :     0.032114
      dxy     :     0.036687
  8 C s       :     2.860861  s :     2.860861
      pz      :     0.977393  p :     3.082139
      px      :     1.057500
      py      :     1.047246
      dz2     :     0.008353  d :     0.104818
      dxz     :     0.013215
      dyz     :     0.008979
      dx2y2   :     0.038307
      dxy     :     0.035964
  9 C s       :     2.871838  s :     2.871838
      pz      :     0.916913  p :     3.024002
      px      :     1.061320
      py      :     1.045770
      dz2     :     0.005744  d :     0.085152
      dxz     :     0.004681
      dyz     :     0.012462
      dx2y2   :     0.032075
      dxy     :     0.030190
 10 C s       :     2.886845  s :     2.886845
      pz      :     0.917227  p :     3.006526
      px      :     1.042163
      py      :     1.047135
      dz2     :     0.005353  d :     0.079025
      dxz     :     0.007476
      dyz     :     0.007396
      dx2y2   :     0.029170
      dxy     :     0.029631
 11 H s       :     0.881670  s :     0.881670
      pz      :     0.012692  p :     0.070596
      px      :     0.042424
      py      :     0.015480
 12 C s       :     2.838138  s :     2.838138
      pz      :     0.872496  p :     2.845134
      px      :     0.982662
      py      :     0.989975
      dz2     :     0.017114  d :     0.251192
      dxz     :     0.044910
      dyz     :     0.018914
      dx2y2   :     0.062590
      dxy     :     0.107663
 13 N s       :     3.105382  s :     3.105382
      pz      :     1.468604  p :     3.845389
      px      :     1.190648
      py      :     1.186137
      dz2     :     0.005569  d :     0.061870
      dxz     :     0.007308
      dyz     :     0.007251
      dx2y2   :     0.020381
      dxy     :     0.021361
 14 C s       :     2.847653  s :     2.847653
      pz      :     0.883460  p :     2.839843
      px      :     0.935282
      py      :     1.021101
      dz2     :     0.020175  d :     0.244673
      dxz     :     0.036704
      dyz     :     0.029363
      dx2y2   :     0.102731
      dxy     :     0.055700
 15 C s       :     2.848040  s :     2.848040
      pz      :     0.883860  p :     2.839096
      px      :     0.934349
      py      :     1.020887
      dz2     :     0.020612  d :     0.244674
      dxz     :     0.036961
      dyz     :     0.029710
      dx2y2   :     0.102048
      dxy     :     0.055343
 16 C s       :     2.837936  s :     2.837936
      pz      :     0.872851  p :     2.845489
      px      :     0.982570
      py      :     0.990069
      dz2     :     0.017270  d :     0.251350
      dxz     :     0.044891
      dyz     :     0.019167
      dx2y2   :     0.062515
      dxy     :     0.107507
 17 N s       :     3.105534  s :     3.105534
      pz      :     1.467851  p :     3.845476
      px      :     1.191620
      py      :     1.186005
      dz2     :     0.005570  d :     0.061864
      dxz     :     0.007363
      dyz     :     0.007298
      dx2y2   :     0.020310
      dxy     :     0.021323
 18 O s       :     3.556215  s :     3.556215
      pz      :     1.389995  p :     4.572272
      px      :     1.449241
      py      :     1.733035
      dz2     :     0.004060  d :     0.029900
      dxz     :     0.007289
      dyz     :     0.000547
      dx2y2   :     0.011189
      dxy     :     0.006815
 19 O s       :     3.560812  s :     3.560812
      pz      :     1.371495  p :     4.564785
      px      :     1.654649
      py      :     1.538641
      dz2     :     0.003937  d :     0.029603
      dxz     :     0.003158
      dyz     :     0.006292
      dx2y2   :     0.006017
      dxy     :     0.010198
 20 O s       :     3.556396  s :     3.556396
      pz      :     1.390380  p :     4.572586
      px      :     1.448759
      py      :     1.733446
      dz2     :     0.004050  d :     0.029877
      dxz     :     0.007332
      dyz     :     0.000555
      dx2y2   :     0.011160
      dxy     :     0.006779
 21 O s       :     3.560262  s :     3.560262
      pz      :     1.371469  p :     4.563959
      px      :     1.654420
      py      :     1.538071
      dz2     :     0.003941  d :     0.029684
      dxz     :     0.003194
      dyz     :     0.006437
      dx2y2   :     0.006024
      dxy     :     0.010089
 22 C s       :     2.846374  s :     2.846374
      pz      :     1.091046  p :     3.044949
      px      :     1.076873
      py      :     0.877029
      dz2     :     0.016901  d :     0.088088
      dxz     :     0.008246
      dyz     :     0.022054
      dx2y2   :     0.024956
      dxy     :     0.015931
 23 H s       :     0.891223  s :     0.891223
      pz      :     0.015448  p :     0.071218
      px      :     0.044349
      py      :     0.011421
 24 H s       :     0.895489  s :     0.895489
      pz      :     0.038323  p :     0.064851
      px      :     0.013087
      py      :     0.013441
 25 H s       :     0.896393  s :     0.896393
      pz      :     0.023154  p :     0.064866
      px      :     0.022361
      py      :     0.019351
 26 C s       :     2.846375  s :     2.846375
      pz      :     1.091194  p :     3.044975
      px      :     1.076680
      py      :     0.877101
      dz2     :     0.016882  d :     0.088102
      dxz     :     0.008458
      dyz     :     0.021855
      dx2y2   :     0.024795
      dxy     :     0.016112
 27 H s       :     0.896436  s :     0.896436
      pz      :     0.022823  p :     0.064872
      px      :     0.022668
      py      :     0.019381
 28 H s       :     0.895510  s :     0.895510
      pz      :     0.038440  p :     0.064832
      px      :     0.012985
      py      :     0.013406
 29 H s       :     0.891188  s :     0.891188
      pz      :     0.015710  p :     0.071170
      px      :     0.044056
      py      :     0.011404
 30 H s       :     0.880108  s :     0.880108
      pz      :     0.012729  p :     0.069183
      px      :     0.026069
      py      :     0.030384
 31 H s       :     0.880148  s :     0.880148
      pz      :     0.012709  p :     0.069212
      px      :     0.026074
      py      :     0.030428


                      *****************************
                      * MAYER POPULATION ANALYSIS *
                      *****************************

  NA   - Mulliken gross atomic population
  ZA   - Total nuclear charge
  QA   - Mulliken gross atomic charge
  VA   - Mayer's total valence
  BVA  - Mayer's bonded valence
  FA   - Mayer's free valence

  ATOM       NA         ZA         QA         VA         BVA        FA
  0 C      6.0327     6.0000    -0.0327     3.8289     3.8289     0.0000
  1 C      6.0545     6.0000    -0.0545     3.7331     3.7331    -0.0000
  2 C      5.9951     6.0000     0.0049     3.7697     3.7697    -0.0000
  3 H      0.9662     1.0000     0.0338     1.0107     1.0107     0.0000
  4 C      6.0308     6.0000    -0.0308     3.6675     3.6675     0.0000
  5 C      5.8795     6.0000     0.1205     3.8119     3.8119    -0.0000
  6 C      5.8794     6.0000     0.1206     3.8121     3.8121     0.0000
  7 C      6.0316     6.0000    -0.0316     3.6673     3.6673     0.0000
  8 C      6.0546     6.0000    -0.0546     3.7330     3.7330    -0.0000
  9 C      6.0328     6.0000    -0.0328     3.8290     3.8290    -0.0000
 10 C      5.9947     6.0000     0.0053     3.7699     3.7699     0.0000
 11 H      0.9661     1.0000     0.0339     1.0108     1.0108     0.0000
 12 C      5.8521     6.0000     0.1479     4.1556     4.1556     0.0000
 13 N      7.2532     7.0000    -0.2532     3.2246     3.2246    -0.0000
 14 C      5.8761     6.0000     0.1239     4.1836     4.1836    -0.0000
 15 C      5.8759     6.0000     0.1241     4.1828     4.1828     0.0000
 16 C      5.8522     6.0000     0.1478     4.1559     4.1559     0.0000
 17 N      7.2534     7.0000    -0.2534     3.2241     3.2241     0.0000
 18 O      8.1742     8.0000    -0.1742     2.3727     2.3727    -0.0000
 19 O      8.1782     8.0000    -0.1782     2.3507     2.3507    -0.0000
 20 O      8.1748     8.0000    -0.1748     2.3723     2.3723     0.0000
 21 O      8.1769     8.0000    -0.1769     2.3517     2.3517     0.0000
 22 C      5.9287     6.0000     0.0713     3.9148     3.9148    -0.0000
 23 H      0.9308     1.0000     0.0692     1.0279     1.0279    -0.0000
 24 H      0.9384     1.0000     0.0616     0.9973     0.9973    -0.0000
 25 H      0.9418     1.0000     0.0582     0.9984     0.9984    -0.0000
 26 C      5.9288     6.0000     0.0712     3.9150     3.9150     0.0000
 27 H      0.9419     1.0000     0.0581     0.9984     0.9984    -0.0000
 28 H      0.9383     1.0000     0.0617     0.9972     0.9972     0.0000
 29 H      0.9307     1.0000     0.0693     1.0278     1.0278    -0.0000
 30 H      0.9678     1.0000     0.0322     0.9998     0.9998     0.0000
 31 H      0.9677     1.0000     0.0323     1.0000     1.0000     0.0000

  Mayer bond orders larger than 0.100000
B(  0-C ,  1-C ) :   1.4672 B(  0-C ,  2-C ) :   1.2348 B(  0-C ,  3-H ) :   0.9559 
B(  1-C ,  6-C ) :   1.2223 B(  1-C , 12-C ) :   0.9268 B(  2-C ,  4-C ) :   1.3833 
B(  2-C , 30-H ) :   0.9828 B(  4-C ,  5-C ) :   1.2394 B(  4-C , 15-C ) :   0.9483 
B(  5-C ,  6-C ) :   1.2433 B(  5-C ,  8-C ) :   1.2224 B(  6-C ,  7-C ) :   1.2395 
B(  7-C , 10-C ) :   1.3825 B(  7-C , 14-C ) :   0.9493 B(  8-C ,  9-C ) :   1.4670 
B(  8-C , 16-C ) :   0.9263 B(  9-C , 10-C ) :   1.2356 B(  9-C , 11-H ) :   0.9559 
B( 10-C , 31-H ) :   0.9824 B( 12-C , 13-N ) :   1.0743 B( 12-C , 18-O ) :   2.0901 
B( 13-N , 14-C ) :   1.0513 B( 13-N , 22-C ) :   0.9502 B( 14-C , 19-O ) :   2.1009 
B( 15-C , 17-N ) :   1.0489 B( 15-C , 21-O ) :   2.1027 B( 16-C , 17-N ) :   1.0759 
B( 16-C , 20-O ) :   2.0893 B( 17-N , 26-C ) :   0.9503 B( 22-C , 23-H ) :   0.9438 
B( 22-C , 24-H ) :   0.9655 B( 22-C , 25-H ) :   0.9655 B( 26-C , 27-H ) :   0.9655 
B( 26-C , 28-H ) :   0.9656 B( 26-C , 29-H ) :   0.9438 

-------
TIMINGS
-------

Total SCF time: 0 days 0 hours 0 min 24 sec 

Total time                  ....      24.299 sec
Sum of individual times     ....      23.901 sec  ( 98.4%)

Fock matrix formation       ....      17.481 sec  ( 71.9%)
  Split-RI-J                ....       7.642 sec  ( 43.7% of F)
  XC integration            ....       9.419 sec  ( 53.9% of F)
    Basis function eval.    ....       3.394 sec  ( 36.0% of XC)
    Density eval.           ....       2.287 sec  ( 24.3% of XC)
    XC-Functional eval.     ....       1.020 sec  ( 10.8% of XC)
    XC-Potential eval.      ....       2.276 sec  ( 24.2% of XC)
Diagonalization             ....       0.016 sec  (  0.1%)
Density matrix formation    ....       0.019 sec  (  0.1%)
Population analysis         ....       0.121 sec  (  0.5%)
Initial guess               ....       0.019 sec  (  0.1%)
Orbital Transformation      ....       0.000 sec  (  0.0%)
Orbital Orthonormalization  ....       0.012 sec  (  0.0%)
DIIS solution               ....       0.005 sec  (  0.0%)
SOSCF solution              ....       0.294 sec  (  1.2%)
Grid generation             ....       5.947 sec  ( 24.5%)


-------------------------------------------------------------------------------
                          DFT DISPERSION CORRECTION                            
                                                                               
                              DFTD3 V3.1  Rev 1                                
                          USING Becke-Johnson damping                          
-------------------------------------------------------------------------------
The BP86 functional is recognized
Active option DFTDOPT                   ...         4   

molecular C6(AA) [au] = 13930.979516 


            DFT-D V3
 parameters
 s6 scaling factor         :     1.0000 
 a1 scaling factor         :     0.3946 
 s8 scaling factor         :     3.2822 
 a2 scaling factor         :     4.8516 
 ad hoc parameters k1-k3   :    16.0000     1.3333    -4.0000 

 Edisp/kcal,au: -47.063829618945  -0.075000978541 
 E6   /kcal   : -17.341946056 
 E8   /kcal   : -29.721883563 
 % E8         :  63.152284470 

-------------------------   ----------------
Dispersion correction           -0.075000979
-------------------------   ----------------


-------------------------   --------------------
FINAL SINGLE POINT ENERGY     -1025.582150584659
-------------------------   --------------------

                                *** OPTIMIZATION RUN DONE ***

                            ***************************************
                            *     ORCA property calculations      *
                            ***************************************

                                    ---------------------
                                    Active property flags
                                    ---------------------
   (+) Dipole Moment


------------------------------------------------------------------------------
                       ORCA ELECTRIC PROPERTIES CALCULATION
------------------------------------------------------------------------------

Dipole Moment Calculation                       ... on
Quadrupole Moment Calculation                   ... off
Polarizability Calculation                      ... off
GBWName                                         ... N2200_Input_Dimethyl_Naphthalene_Dicarboximide_1_Optimize_Monomer.gbw
Electron density file                           ... N2200_Input_Dimethyl_Naphthalene_Dicarboximide_1_Optimize_Monomer.scfp
The origin for moment calculation is the CENTER OF MASS  = (-4.715138, -1.986628 -0.222372)

-------------
DIPOLE MOMENT
-------------
                                X             Y             Z
Electronic contribution:     -0.00568      -0.00449       0.02733
Nuclear contribution   :     -0.00186      -0.00360      -0.03113
                        -----------------------------------------
Total Dipole Moment    :     -0.00754      -0.00809      -0.00380
                        -----------------------------------------
Magnitude (a.u.)       :      0.01169
Magnitude (Debye)      :      0.02972



--------------------
Rotational spectrum 
--------------------
 
Rotational constants in cm-1:     0.020381     0.006760     0.005106 
Rotational constants in MHz :   611.013074   202.647178   153.087311 

 Dipole components along the rotational axes: 
x,y,z [a.u.] :     0.005177    -0.009026    -0.005331 
x,y,z [Debye]:     0.013158    -0.022943    -0.013549 

 

Timings for individual modules:

Sum of individual times         ...      392.856 sec (=   6.548 min)
GTO integral calculation        ...        6.441 sec (=   0.107 min)   1.6 %
SCF iterations                  ...      245.337 sec (=   4.089 min)  62.4 %
SCF Gradient evaluation         ...      136.142 sec (=   2.269 min)  34.7 %
Geometry relaxation             ...        4.935 sec (=   0.082 min)   1.3 %
                             ****ORCA TERMINATED NORMALLY****
TOTAL RUN TIME: 0 days 0 hours 6 minutes 38 seconds 774 msec
