
                                 *****************
                                 * O   R   C   A *
                                 *****************

           --- An Ab Initio, DFT and Semiempirical electronic structure package ---

                  #######################################################
                  #                        -***-                        #
                  #          Department of theory and spectroscopy      #
                  #               Directorship: Frank Neese             #
                  #        Max Planck Institute fuer Kohlenforschung    #
                  #                Kaiser Wilhelm Platz 1               #
                  #                 D-45470 Muelheim/Ruhr               #
                  #                      Germany                        #
                  #                                                     #
                  #                  All rights reserved                #
                  #                        -***-                        #
                  #######################################################


                         Program Version 4.2.0 -  RELEASE  -


 With contributions from (in alphabetic order):
   Daniel Aravena         : Magnetic Suceptibility
   Michael Atanasov       : Ab Initio Ligand Field Theory (pilot matlab implementation)
   Alexander A. Auer      : GIAO ZORA, VPT2
   Ute Becker             : Parallelization
   Giovanni Bistoni       : ED, misc. LED, open-shell LED, HFLED
   Martin Brehm           : Molecular dynamics
   Dmytro Bykov           : SCF Hessian
   Vijay G. Chilkuri      : MRCI spin determinant printing, contributions to CSF-ICE
   Dipayan Datta          : RHF DLPNO-CCSD density
   Achintya Kumar Dutta   : EOM-CC, STEOM-CC
   Dmitry Ganyushin       : Spin-Orbit,Spin-Spin,Magnetic field MRCI
   Miquel Garcia          : C-PCM Hessian, Gaussian charge scheme
   Yang Guo               : DLPNO-NEVPT2, CIM, IAO-localization
   Andreas Hansen         : Spin unrestricted coupled pair/coupled cluster methods
   Benjamin Helmich-Paris : CASSCF linear response (MC-RPA)
   Lee Huntington         : MR-EOM, pCC
   Robert Izsak           : Overlap fitted RIJCOSX, COSX-SCS-MP3, EOM
   Christian Kollmar      : KDIIS, OOCD, Brueckner-CCSD(T), CCSD density
   Simone Kossmann        : Meta GGA functionals, TD-DFT gradient, OOMP2, MP2 Hessian
   Martin Krupicka        : AUTO-CI
   Lucas Lang             : DCDCAS
   Dagmar Lenk            : GEPOL surface, SMD
   Dimitrios Liakos       : Extrapolation schemes; Compound Job, initial MDCI parallelization
   Dimitrios Manganas     : Further ROCIS development; embedding schemes
   Dimitrios Pantazis     : SARC Basis sets
   Taras Petrenko         : DFT Hessian,TD-DFT gradient, ASA, ECA, R-Raman, ABS, FL, XAS/XES, NRVS
   Peter Pinski           : DLPNO-MP2, DLPNO-MP2 Gradient
   Christoph Reimann      : Effective Core Potentials
   Marius Retegan         : Local ZFS, SOC
   Christoph Riplinger    : Optimizer, TS searches, QM/MM, DLPNO-CCSD(T), (RO)-DLPNO pert. Triples
   Tobias Risthaus        : Range-separated hybrids, TD-DFT gradient, RPA, STAB
   Michael Roemelt        : Original ROCIS implementation
   Masaaki Saitow         : Open-shell DLPNO-CCSD energy and density
   Barbara Sandhoefer     : DKH picture change effects
   Avijit Sen             : IP-ROCIS
   Kantharuban Sivalingam : CASSCF convergence, NEVPT2, FIC-MRCI
   Bernardo de Souza      : ESD, SOC TD-DFT
   Georgi Stoychev        : AutoAux, RI-MP2 NMR
   Willem Van den Heuvel  : Paramagnetic NMR
   Boris Wezisla          : Elementary symmetry handling
   Frank Wennmohs         : Technical directorship


 We gratefully acknowledge several colleagues who have allowed us to
 interface, adapt or use parts of their codes:
   Stefan Grimme, W. Hujo, H. Kruse,             : VdW corrections, initial TS optimization,
                  C. Bannwarth                     DFT functionals, gCP, sTDA/sTD-DF
   Ed Valeev, F. Pavosevic, A. Kumar             : LibInt (2-el integral package), F12 methods
   Garnet Chan, S. Sharma, J. Yang, R. Olivares  : DMRG
   Ulf Ekstrom                                   : XCFun DFT Library
   Mihaly Kallay                                 : mrcc  (arbitrary order and MRCC methods)
   Andreas Klamt, Michael Diedenhofen            : otool_cosmo (COSMO solvation model)
   Jiri Pittner, Ondrej Demel                    : Mk-CCSD
   Frank Weinhold                                : gennbo (NPA and NBO analysis)
   Christopher J. Cramer and Donald G. Truhlar   : smd solvation model
   Lars Goerigk                                  : TD-DFT with DH, B97 family of functionals
   V. Asgeirsson, H. Jonsson                     : NEB implementation
   FAccTs GmbH                                   : IRC, NEB, NEB-TS, Multilevel, MM, QM/MM, CI optimization
   S Lehtola, MJT Oliveira, MAL Marques          : LibXC Library


 Your calculation uses the libint2 library for the computation of 2-el integrals
 For citations please refer to: http://libint.valeyev.net

 Your ORCA version has been built with support for libXC version: 4.2.3
 For citations please refer to: https://tddft.org/programs/libxc/

 This ORCA versions uses:
   CBLAS   interface :  Fast vector & matrix operations
   LAPACKE interface :  Fast linear algebra routines
   SCALAPACK package :  Parallel linear algebra routines


Your calculation utilizes the atom-pairwise dispersion correction
with the Becke-Johnson damping scheme (D3BJ)
Cite in your paper:
S.Grimme, S.Ehrlich, L.Goerigk, J Comput Chem, (2011), 32, 1456–1465 
S.Grimme, J.Antony, S.Ehrlich and H.Krieg, J.Chem.Phys., 132, (2010), 154104 
   

----- Orbital basis set information -----
Your calculation utilizes the basis: def2-SVP
   F. Weigend and R. Ahlrichs, Phys. Chem. Chem. Phys. 7, 3297 (2005).

----- AuxJ basis set information -----
Your calculation utilizes the auxiliary basis: def2/J
   F. Weigend, Phys. Chem. Chem. Phys. 8, 1057 (2006).

================================================================================
                                        WARNINGS
                       Please study these warnings very carefully!
================================================================================


WARNING: Geometry Optimization
  ===> : Switching off AutoStart
         For restart on a previous wavefunction, please use MOREAD

INFO   : the flag for use of LIBINT has been found!

================================================================================
                                       INPUT FILE
================================================================================
NAME = N2200_Input_Methylthiophene_With_Sidechain_1_Optimize_Monomer.inp
|  1> ! RI BP86 def2-SVP def2/J D3BJ TIGHTSCF  Opt Grid3 FinalGrid5
|  2> %maxcore 3000
|  3> %geom
|  4> optimizehydrogens true
|  5> end
|  6> 
|  7> 
|  8> *xyz 0 1
|  9> C	-2.478178	-1.740674	0.000194
| 10> C	-2.057388	-0.422334	0.002314
| 11> S	-1.104518	-2.747414	0.003144
| 12> C	0.040372	-1.448654	0.001874
| 13> C	-0.627868	-0.219044	0.002284
| 14> H	-2.759508	0.401726	0.002364
| 15> C	0.002722	1.165066	0.001444
| 16> C	-0.976988	2.347156	0.002254
| 17> H	0.636162	1.255276	-0.889106
| 18> H	0.637032	1.256276	0.891224
| 19> C	-0.252208	3.697106	-0.007436
| 20> H	-1.620168	2.294466	0.889644
| 21> H	-1.629448	2.288736	-0.877956
| 22> C	-1.254618	4.855186	0.004094
| 23> H	0.383132	3.768036	-0.898446
| 24> H	0.404922	3.770506	0.867424
| 25> C	-0.554928	6.213886	-0.025036
| 26> H	-1.882008	4.786486	0.901314
| 27> H	-1.922168	4.770586	-0.862246
| 28> C	-1.559998	7.355986	-0.005036
| 29> H	0.063372	6.295516	-0.926436
| 30> H	0.113852	6.308656	0.838174
| 31> H	-2.229328	7.305676	-0.869946
| 32> H	-1.041508	8.319516	-0.033066
| 33> H	-2.170528	7.325696	0.903234
| 34> H	-3.499162	-2.092783	-0.003060
| 35> H	1.094706	-1.682705	0.001344
| 36> **                         ****END OF INPUT****
================================================================================

                       *****************************
                       * Geometry Optimization Run *
                       *****************************

Geometry optimization settings:
Update method            Update   .... BFGS
Choice of coordinates    CoordSys .... Z-matrix Internals
Initial Hessian          InHess   .... Almoef's Model

Convergence Tolerances:
Energy Change            TolE     ....  5.0000e-06 Eh
Max. Gradient            TolMAXG  ....  3.0000e-04 Eh/bohr
RMS Gradient             TolRMSG  ....  1.0000e-04 Eh/bohr
Max. Displacement        TolMAXD  ....  4.0000e-03 bohr
RMS Displacement         TolRMSD  ....  2.0000e-03 bohr
Strict Convergence                ....  False
------------------------------------------------------------------------------
                        ORCA OPTIMIZATION COORDINATE SETUP
------------------------------------------------------------------------------

The optimization will be done in new redundant internal coordinates
Making redundant internal coordinates   ...  (new redundants) done
Evaluating the initial hessian          ...  (Almloef) done
Evaluating the coordinates              ...  done
Calculating the B-matrix                .... done
Calculating the G-matrix                .... done
Diagonalizing the G-matrix              .... done
Imposing constraints:
 Iter   0:  RMS(Cart)=    0.0000000000 RMS(Int)=    0.0000000000
CONVERGED
Small eigenvalue found = 3.730e-03
Small eigenvalue found = 2.145e-02
Small eigenvalue found = 2.901e-02
The first mode is                       ....   68
The number of degrees of freedom        ....   75
Storing new coordinates                 .... done

    -----------------------------------------------------------------
                    Redundant Internal Coordinates


    -----------------------------------------------------------------
         Definition                    Initial Value    Approx d2E/dq
    -----------------------------------------------------------------
      1. B(C   1,C   0)                  1.3839         0.639032 C 
      2. B(S   2,C   0)                  1.7031         0.533347 C 
      3. B(C   3,S   2)                  1.7313         0.480744 C 
      4. B(C   4,C   1)                  1.4439         0.512555 C 
      5. B(C   4,C   3)                  1.3995         0.603458 C 
      6. B(H   5,C   1)                  1.0826         0.370008   
      7. B(C   6,C   4)                  1.5210         0.386149 C 
      8. B(C   7,C   6)                  1.5353         0.366361 C 
      9. B(H   8,C   6)                  1.0966         0.351514   
     10. B(H   9,C   6)                  1.0965         0.351565   
     11. B(C  10,C   7)                  1.5322         0.370511 C 
     12. B(H  11,C   7)                  1.0972         0.350659   
     13. B(H  12,C   7)                  1.0972         0.350677   
     14. B(C  13,C  10)                  1.5317         0.371248 C 
     15. B(H  14,C  10)                  1.0966         0.351442   
     16. B(H  15,C  10)                  1.0966         0.351441   
     17. B(C  16,C  13)                  1.5286         0.375563 C 
     18. B(H  17,C  13)                  1.0970         0.350998   
     19. B(H  18,C  13)                  1.0970         0.351007   
     20. B(C  19,C  16)                  1.5215         0.385426 C 
     21. B(H  20,C  16)                  1.0961         0.352094   
     22. B(H  21,C  16)                  1.0961         0.352153   
     23. B(H  22,C  19)                  1.0948         0.353796   
     24. B(H  23,C  19)                  1.0945         0.354150   
     25. B(H  24,C  19)                  1.0948         0.353787   
     26. B(H  25,C   0)                  1.0800         0.373575   
     27. B(H  26,C   3)                  1.0800         0.373575   
     28. A(S   2,C   0,H  25)          124.7350         0.364254   
     29. A(C   1,C   0,H  25)          126.7301         0.356940   
     30. A(C   1,C   0,S   2)          108.5349         0.448370 C 
     31. A(C   0,C   1,H   5)          121.8660         0.356359   
     32. A(C   0,C   1,C   4)          115.7958         0.421788 C 
     33. A(C   4,C   1,H   5)          122.3382         0.343340   
     34. A(C   0,S   2,C   3)           95.1596         0.449604 C 
     35. A(S   2,C   3,H  26)          118.8809         0.357860   
     36. A(C   4,C   3,H  26)          131.0383         0.353489   
     37. A(S   2,C   3,C   4)          110.0808         0.435501 C 
     38. A(C   1,C   4,C   3)          110.4285         0.417501 C 
     39. A(C   1,C   4,C   6)          122.5873         0.385929 C 
     40. A(C   3,C   4,C   6)          126.9842         0.397106 C 
     41. A(C   7,C   6,H   9)          107.7378         0.322014   
     42. A(H   8,C   6,H   9)          108.5419         0.288653   
     43. A(C   4,C   6,C   7)          115.8546         0.364198 C 
     44. A(C   4,C   6,H   8)          108.3489         0.324797   
     45. A(C   7,C   6,H   8)          107.8005         0.322006   
     46. A(C   4,C   6,H   9)          108.3654         0.324805   
     47. A(C   6,C   7,C  10)          112.1165         0.361635 C 
     48. A(C   6,C   7,H  11)          109.7252         0.321878   
     49. A(C  10,C   7,H  11)          108.9473         0.322472   
     50. A(C   6,C   7,H  12)          109.7575         0.321881   
     51. A(C  10,C   7,H  12)          108.8515         0.322475   
     52. A(H  11,C   7,H  12)          107.3175         0.288429   
     53. A(C   7,C  10,H  14)          109.6438         0.322590   
     54. A(C  13,C  10,H  14)          109.6559         0.322695   
     55. A(C   7,C  10,H  15)          109.7168         0.322590   
     56. A(C  13,C  10,H  15)          109.6060         0.322695   
     57. A(C   7,C  10,C  13)          110.8862         0.362454 C 
     58. A(H  14,C  10,H  15)          107.2592         0.288628   
     59. A(C  16,C  13,H  18)          109.3939         0.323242   
     60. A(H  17,C  13,H  18)          107.0424         0.288515   
     61. A(C  10,C  13,C  16)          111.8604         0.363293 C 
     62. A(C  10,C  13,H  17)          109.4571         0.322628   
     63. A(C  16,C  13,H  17)          109.4542         0.323240   
     64. A(C  10,C  13,H  18)          109.5119         0.322630   
     65. A(C  13,C  16,H  20)          109.8814         0.323406   
     66. A(C  19,C  16,H  20)          109.1188         0.324785   
     67. A(C  13,C  16,H  21)          109.9466         0.323415   
     68. A(C  19,C  16,H  21)          109.1355         0.324794   
     69. A(C  13,C  16,C  19)          111.3830         0.365630 C 
     70. A(H  20,C  16,H  21)          107.2790         0.288803   
     71. A(C  16,C  19,H  22)          111.0374         0.325043   
     72. A(C  16,C  19,H  23)          110.3369         0.325096   
     73. A(H  22,C  19,H  23)          108.0491         0.289278   
     74. A(C  16,C  19,H  24)          111.0089         0.325041   
     75. A(H  22,C  19,H  24)          108.2520         0.289231   
     76. A(H  23,C  19,H  24)          108.0452         0.289276   
     77. D(H   5,C   1,C   0,S   2)   -179.9173         0.028367   
     78. D(C   4,C   1,C   0,S   2)      0.1778         0.028367 C 
     79. D(C   4,C   1,C   0,H  25)   -179.8064         0.028367   
     80. D(H   5,C   1,C   0,H  25)      0.0985         0.028367   
     81. D(C   3,S   2,C   0,C   1)     -0.1770         0.005744 C 
     82. D(C   3,S   2,C   0,H  25)    179.8076         0.005744   
     83. D(C   4,C   3,S   2,C   0)      0.1367         0.004913 C 
     84. D(H  26,C   3,S   2,C   0)   -179.8876         0.004913   
     85. D(C   3,C   4,C   1,C   0)     -0.0806         0.017907 C 
     86. D(C   3,C   4,C   1,H   5)   -179.9849         0.017907   
     87. D(C   6,C   4,C   1,C   0)    179.8651         0.017907 C 
     88. D(C   6,C   4,C   1,H   5)     -0.0392         0.017907   
     89. D(C   1,C   4,C   3,S   2)     -0.0559         0.025120 C 
     90. D(C   1,C   4,C   3,H  26)    179.9724         0.025120   
     91. D(C   6,C   4,C   3,S   2)   -179.9986         0.025120 C 
     92. D(C   6,C   4,C   3,H  26)      0.0296         0.025120   
     93. D(C   7,C   6,C   4,C   1)      0.0677         0.011106 C 
     94. D(C   7,C   6,C   4,C   3)   -179.9959         0.011106 C 
     95. D(H   8,C   6,C   4,C   1)   -121.1724         0.011106   
     96. D(H   8,C   6,C   4,C   3)     58.7639         0.011106   
     97. D(H   9,C   6,C   4,C   1)    121.2389         0.011106   
     98. D(H   9,C   6,C   4,C   3)    -58.8248         0.011106   
     99. D(H  12,C   7,C   6,H   9)    179.9488         0.010743   
    100. D(C  10,C   7,C   6,H   9)     58.8465         0.010743   
    101. D(H  12,C   7,C   6,C   4)    -58.5442         0.010743   
    102. D(H  11,C   7,C   6,C   4)     59.1523         0.010743   
    103. D(C  10,C   7,C   6,H   8)    -58.1129         0.010743   
    104. D(H  11,C   7,C   6,H   8)   -179.3142         0.010743   
    105. D(H  11,C   7,C   6,H   9)    -62.3548         0.010743   
    106. D(C  10,C   7,C   6,C   4)   -179.6464         0.010743 C 
    107. D(H  12,C   7,C   6,H   8)     62.9893         0.010743   
    108. D(C  13,C  10,C   7,C   6)   -179.5800         0.010972 C 
    109. D(H  15,C  10,C   7,H  11)     63.2844         0.010972   
    110. D(C  13,C  10,C   7,H  12)     58.7971         0.010972   
    111. D(H  14,C  10,C   7,C   6)     59.1896         0.010972   
    112. D(H  14,C  10,C   7,H  11)   -179.1623         0.010972   
    113. D(H  14,C  10,C   7,H  12)    -62.4333         0.010972   
    114. D(C  13,C  10,C   7,H  11)    -57.9319         0.010972   
    115. D(H  15,C  10,C   7,C   6)    -58.3636         0.010972   
    116. D(H  15,C  10,C   7,H  12)   -179.9865         0.010972   
    117. D(C  16,C  13,C  10,C   7)   -179.2027         0.011013 C 
    118. D(C  16,C  13,C  10,H  14)    -57.9794         0.011013   
    119. D(C  16,C  13,C  10,H  15)     59.5157         0.011013   
    120. D(H  17,C  13,C  10,C   7)     59.3089         0.011013   
    121. D(H  17,C  13,C  10,H  14)   -179.4678         0.011013   
    122. D(H  17,C  13,C  10,H  15)    -61.9727         0.011013   
    123. D(H  18,C  13,C  10,C   7)    -57.7530         0.011013   
    124. D(H  18,C  13,C  10,H  14)     63.4703         0.011013   
    125. D(H  18,C  13,C  10,H  15)   -179.0346         0.011013   
    126. D(C  19,C  16,C  13,C  10)   -179.6663         0.011256 C 
    127. D(C  19,C  16,C  13,H  17)    -58.1762         0.011256   
    128. D(C  19,C  16,C  13,H  18)     58.8159         0.011256   
    129. D(H  20,C  16,C  13,C  10)     59.2941         0.011256   
    130. D(H  20,C  16,C  13,H  17)   -179.2158         0.011256   
    131. D(H  20,C  16,C  13,H  18)    -62.2237         0.011256   
    132. D(H  21,C  16,C  13,C  10)    -58.5616         0.011256   
    133. D(H  21,C  16,C  13,H  17)     62.9285         0.011256   
    134. D(H  21,C  16,C  13,H  18)    179.9206         0.011256   
    135. D(H  22,C  19,C  16,C  13)    -59.8494         0.011823   
    136. D(H  22,C  19,C  16,H  20)     61.6350         0.011823   
    137. D(H  22,C  19,C  16,H  21)    178.5732         0.011823   
    138. D(H  23,C  19,C  16,C  13)   -179.6233         0.011823   
    139. D(H  23,C  19,C  16,H  20)    -58.1390         0.011823   
    140. D(H  23,C  19,C  16,H  21)     58.7992         0.011823   
    141. D(H  24,C  19,C  16,C  13)     60.6260         0.011823   
    142. D(H  24,C  19,C  16,H  20)   -177.8897         0.011823   
    143. D(H  24,C  19,C  16,H  21)    -60.9515         0.011823   
    -----------------------------------------------------------------

Number of atoms                         .... 27
Number of degrees of freedom            .... 143

         *************************************************************
         *                GEOMETRY OPTIMIZATION CYCLE   1            *
         *************************************************************
---------------------------------
CARTESIAN COORDINATES (ANGSTROEM)
---------------------------------
  C     -2.478178   -1.740674    0.000194
  C     -2.057388   -0.422334    0.002314
  S     -1.104518   -2.747414    0.003144
  C      0.040372   -1.448654    0.001874
  C     -0.627868   -0.219044    0.002284
  H     -2.759508    0.401726    0.002364
  C      0.002722    1.165066    0.001444
  C     -0.976988    2.347156    0.002254
  H      0.636162    1.255276   -0.889106
  H      0.637032    1.256276    0.891224
  C     -0.252208    3.697106   -0.007436
  H     -1.620168    2.294466    0.889644
  H     -1.629448    2.288736   -0.877956
  C     -1.254618    4.855186    0.004094
  H      0.383132    3.768036   -0.898446
  H      0.404922    3.770506    0.867424
  C     -0.554928    6.213886   -0.025036
  H     -1.882008    4.786486    0.901314
  H     -1.922168    4.770586   -0.862246
  C     -1.559998    7.355986   -0.005036
  H      0.063372    6.295516   -0.926436
  H      0.113852    6.308656    0.838174
  H     -2.229328    7.305676   -0.869946
  H     -1.041508    8.319516   -0.033066
  H     -2.170528    7.325696    0.903234
  H     -3.499162   -2.092783   -0.003060
  H      1.094706   -1.682705    0.001344

----------------------------
CARTESIAN COORDINATES (A.U.)
----------------------------
  NO LB      ZA    FRAG     MASS         X           Y           Z
   0 C     6.0000    0    12.011   -4.683078   -3.289397    0.000367
   1 C     6.0000    0    12.011   -3.887900   -0.798096    0.004373
   2 S    16.0000    0    32.060   -2.087237   -5.191860    0.005941
   3 C     6.0000    0    12.011    0.076292   -2.737559    0.003541
   4 C     6.0000    0    12.011   -1.186499   -0.413933    0.004316
   5 H     1.0000    0     1.008   -5.214714    0.759152    0.004467
   6 C     6.0000    0    12.011    0.005144    2.201656    0.002729
   7 C     6.0000    0    12.011   -1.846240    4.435482    0.004259
   8 H     1.0000    0     1.008    1.202172    2.372128   -1.680167
   9 H     1.0000    0     1.008    1.203816    2.374018    1.684169
  10 C     6.0000    0    12.011   -0.476604    6.986518   -0.014052
  11 H     1.0000    0     1.008   -3.061674    4.335912    1.681184
  12 H     1.0000    0     1.008   -3.079210    4.325084   -1.659096
  13 C     6.0000    0    12.011   -2.370884    9.174972    0.007737
  14 H     1.0000    0     1.008    0.724015    7.120556   -1.697817
  15 H     1.0000    0     1.008    0.765192    7.125224    1.639194
  16 C     6.0000    0    12.011   -1.048662   11.742543   -0.047311
  17 H     1.0000    0     1.008   -3.556480    9.045148    1.703237
  18 H     1.0000    0     1.008   -3.632371    9.015101   -1.629409
  19 C     6.0000    0    12.011   -2.947969   13.900799   -0.009517
  20 H     1.0000    0     1.008    0.119756   11.896801   -1.750710
  21 H     1.0000    0     1.008    0.215149   11.921632    1.583919
  22 H     1.0000    0     1.008   -4.212819   13.805727   -1.643960
  23 H     1.0000    0     1.008   -1.968165   15.721607   -0.062486
  24 H     1.0000    0     1.008   -4.101703   13.843559    1.706865
  25 H     1.0000    0     1.008   -6.612458   -3.954787   -0.005783
  26 H     1.0000    0     1.008    2.068695   -3.179852    0.002540

--------------------------------
INTERNAL COORDINATES (ANGSTROEM)
--------------------------------
 C      0   0   0     0.000000000000     0.00000000     0.00000000
 C      1   0   0     1.383867433716     0.00000000     0.00000000
 S      1   2   0     1.703078367457   108.53492756     0.00000000
 C      3   1   2     1.731344062456    95.15964436   359.82298886
 C      4   3   1     1.399459044703   110.08081071     0.13668093
 H      2   1   3     1.082611370945   121.86599316   180.08265692
 C      5   4   3     1.520988147817   126.98415824   180.00136966
 C      7   5   4     1.535307496334   115.85456269   180.00407960
 H      7   5   4     1.096568912654   108.34890717    58.76392614
 H      7   5   4     1.096529474570   108.36541718   301.17522409
 C      8   7   5     1.532241804351   112.11648099   180.35359786
 H      8   7   5     1.097231862735   109.72520404    59.15226427
 H      8   7   5     1.097217659400   109.75750735   301.45580624
 C     11   8   7     1.531701026767   110.88615763   180.42003347
 H     11   8   7     1.096625186926   109.64380251    59.18960699
 H     11   8   7     1.096625467742   109.71680665   301.63635612
 C     14  11   8     1.528554985272   111.86041343   180.79726535
 H     14  11   8     1.096969293326   109.45713469    59.30885013
 H     14  11   8     1.096961785159   109.51187324   302.24700700
 C     17  14  11     1.521498641110   111.38304980   180.33370416
 H     17  14  11     1.096120571333   109.88136126    59.29414297
 H     17  14  11     1.096074607588   109.94663159   301.43840205
 H     20  17  14     1.094807313229   111.03742355   300.15064275
 H     20  17  14     1.094535345204   110.33685356   180.37665717
 H     20  17  14     1.094814485609   111.00891744    60.62597062
 H      1   2   3     1.079999844747   126.73010775   180.01579502
 H      4   3   1     1.080000155119   118.88091196   180.11237274

---------------------------
INTERNAL COORDINATES (A.U.)
---------------------------
 C      0   0   0     0.000000000000     0.00000000     0.00000000
 C      1   0   0     2.615130455376     0.00000000     0.00000000
 S      1   2   0     3.218351699099   108.53492756     0.00000000
 C      3   1   2     3.271766121632    95.15964436   359.82298886
 C      4   3   1     2.644594330127   110.08081071     0.13668093
 H      2   1   3     2.045839000556   121.86599316   180.08265692
 C      5   4   3     2.874251052314   126.98415824   180.00136966
 C      7   5   4     2.901310699428   115.85456269   180.00407960
 H      7   5   4     2.072214931889   108.34890717    58.76392614
 H      7   5   4     2.072140404709   108.36541718   301.17522409
 C      8   7   5     2.895517381168   112.11648099   180.35359786
 H      8   7   5     2.073467725981   109.72520404    59.15226427
 H      8   7   5     2.073440885569   109.75750735   301.45580624
 C     11   8   7     2.894495459636   110.88615763   180.42003347
 H     11   8   7     2.072321274850   109.64380251    59.18960699
 H     11   8   7     2.072321805515   109.71680665   301.63635612
 C     14  11   8     2.888550302804   111.86041343   180.79726535
 H     14  11   8     2.072971541707   109.45713469    59.30885013
 H     14  11   8     2.072957353329   109.51187324   302.24700700
 C     17  14  11     2.875215744832   111.38304980   180.33370416
 H     17  14  11     2.071367689577   109.88136126    59.29414297
 H     17  14  11     2.071280830687   109.94663159   301.43840205
 H     20  17  14     2.068885991417   111.03742355   300.15064275
 H     20  17  14     2.068372046332   110.33685356   180.37665717
 H     20  17  14     2.068899545251   111.00891744    60.62597062
 H      1   2   3     2.040903931249   126.73010775   180.01579502
 H      4   3   1     2.040904517767   118.88091196   180.11237274

---------------------
BASIS SET INFORMATION
---------------------
There are 3 groups of distinct atoms

 Group   1 Type C   : 7s4p1d contracted to 3s2p1d pattern {511/31/1}
 Group   2 Type S   : 10s7p1d contracted to 4s3p1d pattern {5311/511/1}
 Group   3 Type H   : 4s1p contracted to 2s1p pattern {31/1}

Atom   0C    basis set group =>   1
Atom   1C    basis set group =>   1
Atom   2S    basis set group =>   2
Atom   3C    basis set group =>   1
Atom   4C    basis set group =>   1
Atom   5H    basis set group =>   3
Atom   6C    basis set group =>   1
Atom   7C    basis set group =>   1
Atom   8H    basis set group =>   3
Atom   9H    basis set group =>   3
Atom  10C    basis set group =>   1
Atom  11H    basis set group =>   3
Atom  12H    basis set group =>   3
Atom  13C    basis set group =>   1
Atom  14H    basis set group =>   3
Atom  15H    basis set group =>   3
Atom  16C    basis set group =>   1
Atom  17H    basis set group =>   3
Atom  18H    basis set group =>   3
Atom  19C    basis set group =>   1
Atom  20H    basis set group =>   3
Atom  21H    basis set group =>   3
Atom  22H    basis set group =>   3
Atom  23H    basis set group =>   3
Atom  24H    basis set group =>   3
Atom  25H    basis set group =>   3
Atom  26H    basis set group =>   3
---------------------------------
AUXILIARY/J BASIS SET INFORMATION
---------------------------------
There are 3 groups of distinct atoms

 Group   1 Type C   : 12s5p4d2f1g contracted to 6s4p3d1f1g pattern {711111/2111/211/2/1}
 Group   2 Type S   : 14s5p5d2f1g contracted to 8s4p3d1f1g pattern {71111111/2111/311/2/1}
 Group   3 Type H   : 5s2p1d contracted to 3s1p1d pattern {311/2/1}

Atom   0C    basis set group =>   1
Atom   1C    basis set group =>   1
Atom   2S    basis set group =>   2
Atom   3C    basis set group =>   1
Atom   4C    basis set group =>   1
Atom   5H    basis set group =>   3
Atom   6C    basis set group =>   1
Atom   7C    basis set group =>   1
Atom   8H    basis set group =>   3
Atom   9H    basis set group =>   3
Atom  10C    basis set group =>   1
Atom  11H    basis set group =>   3
Atom  12H    basis set group =>   3
Atom  13C    basis set group =>   1
Atom  14H    basis set group =>   3
Atom  15H    basis set group =>   3
Atom  16C    basis set group =>   1
Atom  17H    basis set group =>   3
Atom  18H    basis set group =>   3
Atom  19C    basis set group =>   1
Atom  20H    basis set group =>   3
Atom  21H    basis set group =>   3
Atom  22H    basis set group =>   3
Atom  23H    basis set group =>   3
Atom  24H    basis set group =>   3
Atom  25H    basis set group =>   3
Atom  26H    basis set group =>   3
------------------------------------------------------------------------------
                           ORCA GTO INTEGRAL CALCULATION
                           -- RI-GTO INTEGRALS CHOSEN --
------------------------------------------------------------------------------

                         BASIS SET STATISTICS AND STARTUP INFO

Gaussian basis set:
 # of primitive gaussian shells          ...  218
 # of primitive gaussian functions       ...  388
 # of contracted shells                  ...  116
 # of contracted basis functions         ...  238
 Highest angular momentum                ...    2
 Maximum contraction depth               ...    5
Auxiliary gaussian basis set:
 # of primitive gaussian shells          ...  395
 # of primitive gaussian functions       ... 1033
 # of contracted shells                  ...  247
 # of contracted aux-basis functions     ...  717
 Highest angular momentum                ...    4
 Maximum contraction depth               ...    7
Ratio of auxiliary to basis functions    ...  3.01
Integral package used                  ... LIBINT
 One Electron integrals                  ... done
 Ordering auxiliary basis shells         ... done
 Integral threshhold             Thresh  ...  2.500e-11
 Primitive cut-off               TCut    ...  2.500e-12
 Pre-screening matrix                    ... done
 Shell pair data                         ... 
 Ordering of the shell pairs             ... done (   0.001 sec) 5405 of 6786 pairs
 Determination of significant pairs      ... done (   0.000 sec)
 Creation of shell pair data             ... done (   0.001 sec)
 Storage of shell pair data              ... done (   0.006 sec)
 Shell pair data done in (   0.008 sec)
 Computing two index integrals           ... done
 Cholesky decomposition of the V-matrix  ... done


Timings:
 Total evaluation time                   ...   1.286 sec (  0.021 min)
 One electron matrix time                ...   0.260 sec (  0.004 min) = 20.2%
 Schwartz matrix evaluation time         ...   0.146 sec (  0.002 min) = 11.4%
 Two index repulsion integral time       ...   0.375 sec (  0.006 min) = 29.1%
 Cholesky decomposition of V             ...   0.467 sec (  0.008 min) = 36.3%
 Three index repulsion integral time     ...   0.000 sec (  0.000 min) =  0.0%

-------------------------------------------------------------------------------
                                 ORCA SCF
-------------------------------------------------------------------------------

------------
SCF SETTINGS
------------
Hamiltonian:
 Density Functional     Method          .... DFT(GTOs)
 Exchange Functional    Exchange        .... B88
   X-Alpha parameter    XAlpha          ....  0.666667
   Becke's b parameter  XBeta           ....  0.004200
 Correlation Functional Correlation     .... P86
 LDA part of GGA corr.  LDAOpt          .... PW91-LDA
 Gradients option       PostSCFGGA      .... off
   Density functional embedding theory  .... OFF
 RI-approximation to the Coulomb term is turned on
   Number of auxiliary basis functions  .... 717


General Settings:
 Integral files         IntName         .... N2200_Input_Methylthiophene_With_Sidechain_1_Optimize_Monomer
 Hartree-Fock type      HFTyp           .... RHF
 Total Charge           Charge          ....    0
 Multiplicity           Mult            ....    1
 Number of Electrons    NEL             ....   92
 Basis Dimension        Dim             ....  238
 Nuclear Repulsion      ENuc            ....    643.9136758605 Eh

Convergence Acceleration:
 DIIS                   CNVDIIS         .... on
   Start iteration      DIISMaxIt       ....    12
   Startup error        DIISStart       ....  0.200000
   # of expansion vecs  DIISMaxEq       ....     5
   Bias factor          DIISBfac        ....   1.050
   Max. coefficient     DIISMaxC        ....  10.000
 Newton-Raphson         CNVNR           .... off
 SOSCF                  CNVSOSCF        .... on
   Start iteration      SOSCFMaxIt      ....   150
   Startup grad/error   SOSCFStart      ....  0.003300
 Level Shifting         CNVShift        .... on
   Level shift para.    LevelShift      ....    0.2500
   Turn off err/grad.   ShiftErr        ....    0.0010
 Zerner damping         CNVZerner       .... off
 Static damping         CNVDamp         .... on
   Fraction old density DampFac         ....    0.7000
   Max. Damping (<1)    DampMax         ....    0.9800
   Min. Damping (>=0)   DampMin         ....    0.0000
   Turn off err/grad.   DampErr         ....    0.1000
 Fernandez-Rico         CNVRico         .... off

SCF Procedure:
 Maximum # iterations   MaxIter         ....   125
 SCF integral mode      SCFMode         .... Direct
   Integral package                     .... LIBINT
 Reset frequency        DirectResetFreq ....    20
 Integral Threshold     Thresh          ....  2.500e-11 Eh
 Primitive CutOff       TCut            ....  2.500e-12 Eh

Convergence Tolerance:
 Convergence Check Mode ConvCheckMode   .... Total+1el-Energy
 Convergence forced     ConvForced      .... 0
 Energy Change          TolE            ....  1.000e-08 Eh
 1-El. energy change                    ....  1.000e-05 Eh
 Orbital Gradient       TolG            ....  1.000e-05
 Orbital Rotation angle TolX            ....  1.000e-05
 DIIS Error             TolErr          ....  5.000e-07


Diagonalization of the overlap matrix:
Smallest eigenvalue                        ... 7.356e-04
Time for diagonalization                   ...    0.122 sec
Threshold for overlap eigenvalues          ... 1.000e-08
Number of eigenvalues below threshold      ... 0
Time for construction of square roots      ...    0.013 sec
Total time needed                          ...    0.136 sec

-------------------
DFT GRID GENERATION
-------------------

General Integration Accuracy     IntAcc      ...  4.340
Radial Grid Type                 RadialGrid  ... Gauss-Chebyshev
Angular Grid (max. acc.)         AngularGrid ... Lebedev-194
Angular grid pruning method      GridPruning ... 3 (G Style)
Weight generation scheme         WeightScheme... Becke
Basis function cutoff            BFCut       ...    1.0000e-11
Integration weight cutoff        WCut        ...    1.0000e-14
Grids for H and He will be reduced by one unit

# of grid points (after initial pruning)     ...  60816 (   0.0 sec)
# of grid points (after weights+screening)   ...  55119 (   0.3 sec)
nearest neighbour list constructed           ...    0.0 sec
Grid point re-assignment to atoms done       ...    0.0 sec
Grid point division into batches done        ...    0.1 sec
Reduced shell lists constructed in    0.4 sec

Total number of grid points                  ...    55119
Total number of batches                      ...      874
Average number of points per batch           ...       63
Average number of grid points per atom       ...     2041
Average number of shells per batch           ...    63.01 (54.32%)
Average number of basis functions per batch  ...   122.60 (51.51%)
Average number of large shells per batch     ...    45.94 (72.91%)
Average number of large basis fcns per batch ...    88.70 (72.35%)
Maximum spatial batch extension              ...  19.52, 19.85, 21.21 au
Average spatial batch extension              ...   2.91,  2.63,  2.92 au

Time for grid setup =    0.722 sec

------------------------------
INITIAL GUESS: MODEL POTENTIAL
------------------------------
Loading Hartree-Fock densities                     ... done
Calculating cut-offs                               ... done
Setting up the integral package                    ... done
Initializing the effective Hamiltonian             ... done
Starting the Coulomb interaction                   ... done (   0.2 sec)
Reading the grid                                   ... done
Mapping shells                                     ... done
Starting the XC term evaluation                    ... done (   0.5 sec)
  promolecular density results
     # of electrons  =     91.996878242
     EX              =    -81.205524308
     EC              =     -3.420697258
     EX+EC           =    -84.626221566
Transforming the Hamiltonian                       ... done (   0.0 sec)
Diagonalizing the Hamiltonian                      ... done (   0.0 sec)
Back transforming the eigenvectors                 ... done (   0.0 sec)
Now organizing SCF variables                       ... done
                      ------------------
                      INITIAL GUESS DONE (   1.5 sec)
                      ------------------
--------------
SCF ITERATIONS
--------------
ITER       Energy         Delta-E        Max-DP      RMS-DP      [F,P]     Damp
               ***  Starting incremental Fock matrix formation  ***
  0   -788.2046858211   0.000000000000 0.07583347  0.00213377  0.1631549 0.7000
  1   -788.3596660570  -0.154980235878 0.05070432  0.00147594  0.0787120 0.7000
                               ***Turning on DIIS***
  2   -788.4094778772  -0.049811820146 0.10144272  0.00212226  0.0228886 0.0000
  3   -788.4787334910  -0.069255613845 0.03500429  0.00118145  0.0497471 0.0000
  4   -788.5068381211  -0.028104630099 0.02644861  0.00037170  0.0122001 0.0000
  5   -788.5085410513  -0.001702930212 0.00638063  0.00012443  0.0039962 0.0000
                      *** Initiating the SOSCF procedure ***
                           *** Shutting down DIIS ***
                      *** Re-Reading the Fockian *** 
                      *** Removing any level shift *** 
ITER      Energy       Delta-E        Grad      Rot      Max-DP    RMS-DP
  6   -788.50870660  -0.0001655528  0.000792  0.000792  0.002235  0.000045
               *** Restarting incremental Fock matrix formation ***
  7   -788.50871997  -0.0000133667  0.000193  0.000749  0.002042  0.000039
  8   -788.50872043  -0.0000004591  0.000303  0.001127  0.001148  0.000016
  9   -788.50872236  -0.0000019347  0.000228  0.000895  0.001103  0.000014
 10   -788.50872235   0.0000000171  0.000140  0.000262  0.000422  0.000006
 11   -788.50872280  -0.0000004492  0.000054  0.000381  0.000501  0.000006
 12   -788.50872282  -0.0000000265  0.000059  0.000132  0.000125  0.000003
 13   -788.50872287  -0.0000000508  0.000036  0.000130  0.000173  0.000003
 14   -788.50872288  -0.0000000011  0.000032  0.000054  0.000088  0.000001
 15   -788.50872290  -0.0000000254  0.000009  0.000064  0.000091  0.000001
 16   -788.50872290   0.0000000013  0.000006  0.000029  0.000049  0.000001
                  ***Gradient check signals convergence***
              ***Rediagonalizing the Fockian in SOSCF/NRSCF***

               *****************************************************
               *                     SUCCESS                       *
               *           SCF CONVERGED AFTER  17 CYCLES          *
               *****************************************************

Setting up the final grid:

General Integration Accuracy     IntAcc      ...  5.010
Radial Grid Type                 RadialGrid  ... Gauss-Chebyshev
Angular Grid (max. acc.)         AngularGrid ... Lebedev-434
Angular grid pruning method      GridPruning ... 3 (G Style)
Weight generation scheme         WeightScheme... Becke
Basis function cutoff            BFCut       ...    1.0000e-11
Integration weight cutoff        WCut        ...    1.0000e-14
Grids for H and He will be reduced by one unit

# of grid points (after initial pruning)     ... 225792 (   0.1 sec)
# of grid points (after weights+screening)   ... 201844 (   0.8 sec)
nearest neighbour list constructed           ...    0.0 sec
Grid point re-assignment to atoms done       ...    0.0 sec
Grid point division into batches done        ...    1.0 sec
Reduced shell lists constructed in    2.1 sec

Total number of grid points                  ...   201844
Total number of batches                      ...     3170
Average number of points per batch           ...       63
Average number of grid points per atom       ...     7476
Average number of shells per batch           ...    58.72 (50.62%)
Average number of basis functions per batch  ...   113.34 (47.62%)
Average number of large shells per batch     ...    42.22 (71.90%)
Average number of large basis fcns per batch ...    80.67 (71.17%)
Maximum spatial batch extension              ...  20.52, 15.58, 19.58 au
Average spatial batch extension              ...   1.91,  1.80,  1.93 au

Final grid set up in    3.1 sec
Final integration                            ... done (   1.9 sec)
Change in XC energy                          ...     0.000057351
Integrated number of electrons               ...    91.999963227
Previous integrated no of electrons          ...    92.001648610

----------------
TOTAL SCF ENERGY
----------------

Total Energy       :         -788.50866555 Eh          -21456.41161 eV

Components:
Nuclear Repulsion  :          643.91367586 Eh           17521.78191 eV
Electronic Energy  :        -1432.42234141 Eh          -38978.19352 eV
One Electron Energy:        -2352.36027137 Eh          -64010.97724 eV
Two Electron Energy:          919.93792995 Eh           25032.78372 eV

Virial components:
Potential Energy   :        -1571.12249692 Eh          -42752.41663 eV
Kinetic Energy     :          782.61383137 Eh           21296.00502 eV
Virial Ratio       :            2.00753224


DFT components:
N(Alpha)           :       45.999981613541 electrons
N(Beta)            :       45.999981613541 electrons
N(Total)           :       91.999963227083 electrons
E(X)               :      -82.487549411445 Eh       
E(C)               :       -3.419716593665 Eh       
E(XC)              :      -85.907266005109 Eh       
DFET-embed. en.    :        0.000000000000 Eh       

---------------
SCF CONVERGENCE
---------------

  Last Energy change         ...   -4.7253e-09  Tolerance :   1.0000e-08
  Last MAX-Density change    ...    5.8632e-06  Tolerance :   1.0000e-07
  Last RMS-Density change    ...    1.5809e-07  Tolerance :   5.0000e-09
  Last Orbital Gradient      ...    1.1105e-06  Tolerance :   1.0000e-05
  Last Orbital Rotation      ...    6.3327e-06  Tolerance :   1.0000e-05

             **** THE GBW FILE WAS UPDATED (N2200_Input_Methylthiophene_With_Sidechain_1_Optimize_Monomer.gbw) ****
             **** DENSITY FILE WAS UPDATED (N2200_Input_Methylthiophene_With_Sidechain_1_Optimize_Monomer.scfp) ****
             **** ENERGY FILE WAS UPDATED (N2200_Input_Methylthiophene_With_Sidechain_1_Optimize_Monomer.en.tmp) ****
             **** THE GBW FILE WAS UPDATED (N2200_Input_Methylthiophene_With_Sidechain_1_Optimize_Monomer.gbw) ****
             **** DENSITY FILE WAS UPDATED (N2200_Input_Methylthiophene_With_Sidechain_1_Optimize_Monomer.scfp) ****
----------------
ORBITAL ENERGIES
----------------

  NO   OCC          E(Eh)            E(eV) 
   0   2.0000     -88.110464     -2397.6076 
   1   2.0000      -9.930680      -270.2275 
   2   2.0000      -9.930637      -270.2264 
   3   2.0000      -9.922377      -270.0016 
   4   2.0000      -9.916443      -269.8401 
   5   2.0000      -9.910376      -269.6750 
   6   2.0000      -9.909288      -269.6454 
   7   2.0000      -9.906723      -269.5756 
   8   2.0000      -9.905269      -269.5361 
   9   2.0000      -9.904866      -269.5251 
  10   2.0000      -9.899768      -269.3864 
  11   2.0000      -7.707450      -209.7304 
  12   2.0000      -5.734238      -156.0365 
  13   2.0000      -5.729579      -155.9098 
  14   2.0000      -5.727315      -155.8482 
  15   2.0000      -0.798722       -21.7343 
  16   2.0000      -0.735097       -20.0030 
  17   2.0000      -0.706956       -19.2372 
  18   2.0000      -0.667672       -18.1683 
  19   2.0000      -0.647367       -17.6158 
  20   2.0000      -0.622693       -16.9443 
  21   2.0000      -0.570569       -15.5260 
  22   2.0000      -0.527858       -14.3637 
  23   2.0000      -0.517306       -14.0766 
  24   2.0000      -0.501807       -13.6549 
  25   2.0000      -0.477698       -12.9988 
  26   2.0000      -0.443257       -12.0616 
  27   2.0000      -0.437934       -11.9168 
  28   2.0000      -0.409076       -11.1315 
  29   2.0000      -0.388402       -10.5690 
  30   2.0000      -0.371998       -10.1226 
  31   2.0000      -0.368177       -10.0186 
  32   2.0000      -0.364984        -9.9317 
  33   2.0000      -0.358780        -9.7629 
  34   2.0000      -0.336463        -9.1556 
  35   2.0000      -0.334545        -9.1034 
  36   2.0000      -0.326209        -8.8766 
  37   2.0000      -0.316097        -8.6014 
  38   2.0000      -0.304803        -8.2941 
  39   2.0000      -0.295480        -8.0404 
  40   2.0000      -0.292633        -7.9629 
  41   2.0000      -0.289226        -7.8703 
  42   2.0000      -0.285611        -7.7719 
  43   2.0000      -0.270484        -7.3602 
  44   2.0000      -0.215520        -5.8646 
  45   2.0000      -0.205229        -5.5846 
  46   0.0000      -0.042716        -1.1624 
  47   0.0000       0.021463         0.5840 
  48   0.0000       0.026866         0.7311 
  49   0.0000       0.037466         1.0195 
  50   0.0000       0.051571         1.4033 
  51   0.0000       0.058013         1.5786 
  52   0.0000       0.061630         1.6770 
  53   0.0000       0.063142         1.7182 
  54   0.0000       0.082741         2.2515 
  55   0.0000       0.088489         2.4079 
  56   0.0000       0.099173         2.6986 
  57   0.0000       0.102305         2.7838 
  58   0.0000       0.113028         3.0757 
  59   0.0000       0.127920         3.4809 
  60   0.0000       0.132632         3.6091 
  61   0.0000       0.136178         3.7056 
  62   0.0000       0.138676         3.7736 
  63   0.0000       0.153601         4.1797 
  64   0.0000       0.154012         4.1909 
  65   0.0000       0.159983         4.3534 
  66   0.0000       0.171125         4.6565 
  67   0.0000       0.178862         4.8671 
  68   0.0000       0.185793         5.0557 
  69   0.0000       0.209026         5.6879 
  70   0.0000       0.224378         6.1056 
  71   0.0000       0.256070         6.9680 
  72   0.0000       0.265412         7.2222 
  73   0.0000       0.295696         8.0463 
  74   0.0000       0.311655         8.4806 
  75   0.0000       0.334015         9.0890 
  76   0.0000       0.374545        10.1919 
  77   0.0000       0.382582        10.4106 
  78   0.0000       0.383630        10.4391 
  79   0.0000       0.387577        10.5465 
  80   0.0000       0.392432        10.6786 
  81   0.0000       0.395304        10.7568 
  82   0.0000       0.399908        10.8820 
  83   0.0000       0.404829        11.0160 
  84   0.0000       0.436766        11.8850 
  85   0.0000       0.452009        12.2998 
  86   0.0000       0.454166        12.3585 
  87   0.0000       0.465538        12.6679 
  88   0.0000       0.475929        12.9507 
  89   0.0000       0.485520        13.2117 
  90   0.0000       0.501178        13.6377 
  91   0.0000       0.512722        13.9519 
  92   0.0000       0.535458        14.5706 
  93   0.0000       0.544070        14.8049 
  94   0.0000       0.568871        15.4798 
  95   0.0000       0.573511        15.6060 
  96   0.0000       0.582819        15.8593 
  97   0.0000       0.588219        16.0063 
  98   0.0000       0.597787        16.2666 
  99   0.0000       0.598368        16.2824 
 100   0.0000       0.603386        16.4190 
 101   0.0000       0.605568        16.4783 
 102   0.0000       0.608698        16.5635 
 103   0.0000       0.621647        16.9159 
 104   0.0000       0.627376        17.0718 
 105   0.0000       0.633707        17.2440 
 106   0.0000       0.636969        17.3328 
 107   0.0000       0.641767        17.4634 
 108   0.0000       0.645732        17.5712 
 109   0.0000       0.648777        17.6541 
 110   0.0000       0.650172        17.6921 
 111   0.0000       0.657802        17.8997 
 112   0.0000       0.658071        17.9070 
 113   0.0000       0.661029        17.9875 
 114   0.0000       0.674806        18.3624 
 115   0.0000       0.675640        18.3851 
 116   0.0000       0.688633        18.7387 
 117   0.0000       0.690238        18.7823 
 118   0.0000       0.693012        18.8578 
 119   0.0000       0.703325        19.1385 
 120   0.0000       0.720765        19.6130 
 121   0.0000       0.723297        19.6819 
 122   0.0000       0.736779        20.0488 
 123   0.0000       0.753745        20.5105 
 124   0.0000       0.770063        20.9545 
 125   0.0000       0.806252        21.9392 
 126   0.0000       0.843781        22.9604 
 127   0.0000       0.921976        25.0883 
 128   0.0000       0.943020        25.6609 
 129   0.0000       0.946059        25.7436 
 130   0.0000       0.955545        26.0017 
 131   0.0000       0.970122        26.3984 
 132   0.0000       0.989601        26.9284 
 133   0.0000       1.000323        27.2202 
 134   0.0000       1.032682        28.1007 
 135   0.0000       1.064167        28.9575 
 136   0.0000       1.074707        29.2443 
 137   0.0000       1.088922        29.6311 
 138   0.0000       1.107544        30.1378 
 139   0.0000       1.142401        31.0863 
 140   0.0000       1.179514        32.0962 
 141   0.0000       1.206683        32.8355 
 142   0.0000       1.210109        32.9287 
 143   0.0000       1.250426        34.0258 
 144   0.0000       1.259286        34.2669 
 145   0.0000       1.275918        34.7195 
 146   0.0000       1.296969        35.2923 
 147   0.0000       1.318811        35.8867 
 148   0.0000       1.323169        36.0053 
 149   0.0000       1.342034        36.5186 
 150   0.0000       1.385074        37.6898 
 151   0.0000       1.406188        38.2643 
 152   0.0000       1.473826        40.1048 
 153   0.0000       1.494632        40.6710 
 154   0.0000       1.536598        41.8130 
 155   0.0000       1.542417        41.9713 
 156   0.0000       1.593559        43.3630 
 157   0.0000       1.618917        44.0530 
 158   0.0000       1.631949        44.4076 
 159   0.0000       1.638435        44.5841 
 160   0.0000       1.673005        45.5248 
 161   0.0000       1.683084        45.7990 
 162   0.0000       1.689014        45.9604 
 163   0.0000       1.702746        46.3341 
 164   0.0000       1.703284        46.3487 
 165   0.0000       1.713228        46.6193 
 166   0.0000       1.719733        46.7963 
 167   0.0000       1.723805        46.9071 
 168   0.0000       1.730779        47.0969 
 169   0.0000       1.741225        47.3811 
 170   0.0000       1.743589        47.4455 
 171   0.0000       1.746409        47.5222 
 172   0.0000       1.770766        48.1850 
 173   0.0000       1.775681        48.3187 
 174   0.0000       1.777631        48.3718 
 175   0.0000       1.786075        48.6016 
 176   0.0000       1.795370        48.8545 
 177   0.0000       1.833449        49.8907 
 178   0.0000       1.839446        50.0539 
 179   0.0000       1.845567        50.2204 
 180   0.0000       1.852149        50.3995 
 181   0.0000       1.863637        50.7121 
 182   0.0000       1.865111        50.7522 
 183   0.0000       1.892488        51.4972 
 184   0.0000       1.900789        51.7231 
 185   0.0000       1.922714        52.3197 
 186   0.0000       1.933704        52.6188 
 187   0.0000       1.936774        52.7023 
 188   0.0000       1.963863        53.4394 
 189   0.0000       1.981575        53.9214 
 190   0.0000       1.985361        54.0244 
 191   0.0000       1.997051        54.3425 
 192   0.0000       2.030577        55.2548 
 193   0.0000       2.060845        56.0784 
 194   0.0000       2.081484        56.6401 
 195   0.0000       2.084533        56.7230 
 196   0.0000       2.152959        58.5850 
 197   0.0000       2.163718        58.8778 
 198   0.0000       2.200120        59.8683 
 199   0.0000       2.248545        61.1860 
 200   0.0000       2.256969        61.4153 
 201   0.0000       2.292559        62.3837 
 202   0.0000       2.292746        62.3888 
 203   0.0000       2.318047        63.0773 
 204   0.0000       2.320809        63.1524 
 205   0.0000       2.335091        63.5410 
 206   0.0000       2.357170        64.1419 
 207   0.0000       2.378933        64.7341 
 208   0.0000       2.382137        64.8212 
 209   0.0000       2.404658        65.4341 
 210   0.0000       2.409964        65.5785 
 211   0.0000       2.447037        66.5873 
 212   0.0000       2.451061        66.6968 
 213   0.0000       2.500452        68.0407 
 214   0.0000       2.511189        68.3329 
 215   0.0000       2.528816        68.8126 
 216   0.0000       2.531209        68.8777 
 217   0.0000       2.560287        69.6689 
 218   0.0000       2.583973        70.3135 
 219   0.0000       2.608882        70.9913 
 220   0.0000       2.626348        71.4666 
 221   0.0000       2.671912        72.7064 
 222   0.0000       2.726411        74.1894 
 223   0.0000       2.754781        74.9614 
 224   0.0000       2.762472        75.1707 
 225   0.0000       2.797762        76.1310 
 226   0.0000       2.832126        77.0661 
 227   0.0000       2.834718        77.1366 
 228   0.0000       2.865335        77.9697 
 229   0.0000       2.918051        79.4042 
 230   0.0000       2.922520        79.5258 
 231   0.0000       2.968542        80.7781 
 232   0.0000       2.980576        81.1056 
 233   0.0000       3.002564        81.7039 
 234   0.0000       3.011723        81.9531 
 235   0.0000       3.020357        82.1881 
 236   0.0000       3.028358        82.4058 
 237   0.0000       3.238441        88.1225 

                    ********************************
                    * MULLIKEN POPULATION ANALYSIS *
                    ********************************

-----------------------
MULLIKEN ATOMIC CHARGES
-----------------------
   0 C :   -0.087744
   1 C :   -0.010419
   2 S :    0.086902
   3 C :   -0.148724
   4 C :   -0.039293
   5 H :   -0.007531
   6 C :    0.108475
   7 C :   -0.077220
   8 H :    0.023026
   9 H :    0.023125
  10 C :    0.002144
  11 H :    0.020368
  12 H :    0.020682
  13 C :   -0.034813
  14 H :    0.006534
  15 H :    0.006736
  16 C :   -0.042709
  17 H :    0.007308
  18 H :    0.007170
  19 C :   -0.021452
  20 H :    0.013544
  21 H :    0.013594
  22 H :    0.021243
  23 H :    0.021363
  24 H :    0.021243
  25 H :    0.036745
  26 H :    0.029704
Sum of atomic charges:    0.0000000

--------------------------------
MULLIKEN REDUCED ORBITAL CHARGES
--------------------------------
  0 C s       :     3.163661  s :     3.163661
      pz      :     1.122531  p :     2.890903
      px      :     0.834077
      py      :     0.934295
      dz2     :     0.002837  d :     0.033180
      dxz     :     0.003166
      dyz     :     0.006549
      dx2y2   :     0.007928
      dxy     :     0.012700
  1 C s       :     3.204706  s :     3.204706
      pz      :     1.034584  p :     2.773643
      px      :     0.931826
      py      :     0.807234
      dz2     :     0.002528  d :     0.032069
      dxz     :     0.004630
      dyz     :     0.004594
      dx2y2   :     0.009497
      dxy     :     0.010820
  2 S s       :     5.844930  s :     5.844930
      pz      :     3.614074  p :     9.949234
      px      :     2.988848
      py      :     3.346312
      dz2     :     0.012255  d :     0.118933
      dxz     :     0.028586
      dyz     :     0.012348
      dx2y2   :     0.021190
      dxy     :     0.044554
  3 C s       :     3.236023  s :     3.236023
      pz      :     1.144594  p :     2.881294
      px      :     0.833025
      py      :     0.903675
      dz2     :     0.002865  d :     0.031406
      dxz     :     0.002620
      dyz     :     0.006147
      dx2y2   :     0.007958
      dxy     :     0.011815
  4 C s       :     3.094108  s :     3.094108
      pz      :     1.011132  p :     2.905786
      px      :     0.953891
      py      :     0.940763
      dz2     :     0.002792  d :     0.039399
      dxz     :     0.006272
      dyz     :     0.006936
      dx2y2   :     0.011919
      dxy     :     0.011481
  5 H s       :     0.984156  s :     0.984156
      pz      :     0.005802  p :     0.023375
      px      :     0.007856
      py      :     0.009717
  6 C s       :     2.898285  s :     2.898285
      pz      :     0.998530  p :     2.960161
      px      :     1.044246
      py      :     0.917384
      dz2     :     0.005004  d :     0.033079
      dxz     :     0.009626
      dyz     :     0.004432
      dx2y2   :     0.006963
      dxy     :     0.007055
  7 C s       :     3.039112  s :     3.039112
      pz      :     1.008052  p :     3.004085
      px      :     1.028720
      py      :     0.967312
      dz2     :     0.004793  d :     0.034024
      dxz     :     0.010706
      dyz     :     0.003929
      dx2y2   :     0.006425
      dxy     :     0.008170
  8 H s       :     0.954503  s :     0.954503
      pz      :     0.010331  p :     0.022471
      px      :     0.007452
      py      :     0.004688
  9 H s       :     0.954401  s :     0.954401
      pz      :     0.010321  p :     0.022474
      px      :     0.007462
      py      :     0.004691
 10 C s       :     2.998410  s :     2.998410
      pz      :     1.002456  p :     2.965512
      px      :     1.012974
      py      :     0.950082
      dz2     :     0.004731  d :     0.033934
      dxz     :     0.010806
      dyz     :     0.003893
      dx2y2   :     0.006619
      dxy     :     0.007884
 11 H s       :     0.957713  s :     0.957713
      pz      :     0.010284  p :     0.021919
      px      :     0.007253
      py      :     0.004382
 12 H s       :     0.957392  s :     0.957392
      pz      :     0.010204  p :     0.021926
      px      :     0.007333
      py      :     0.004390
 13 C s       :     3.027944  s :     3.027944
      pz      :     1.000916  p :     2.972743
      px      :     1.015308
      py      :     0.956518
      dz2     :     0.004724  d :     0.034127
      dxz     :     0.010712
      dyz     :     0.003931
      dx2y2   :     0.006717
      dxy     :     0.008043
 14 H s       :     0.971471  s :     0.971471
      pz      :     0.010352  p :     0.021996
      px      :     0.007225
      py      :     0.004419
 15 H s       :     0.971269  s :     0.971269
      pz      :     0.010173  p :     0.021995
      px      :     0.007399
      py      :     0.004423
 16 C s       :     3.022432  s :     3.022432
      pz      :     1.007093  p :     2.985304
      px      :     1.011379
      py      :     0.966832
      dz2     :     0.004952  d :     0.034973
      dxz     :     0.010620
      dyz     :     0.004048
      dx2y2   :     0.007213
      dxy     :     0.008140
 17 H s       :     0.970755  s :     0.970755
      pz      :     0.010438  p :     0.021937
      px      :     0.007182
      py      :     0.004317
 18 H s       :     0.970891  s :     0.970891
      pz      :     0.010104  p :     0.021939
      px      :     0.007506
      py      :     0.004329
 19 C s       :     2.991232  s :     2.991232
      pz      :     1.015111  p :     3.003354
      px      :     0.996014
      py      :     0.992230
      dz2     :     0.004746  d :     0.026866
      dxz     :     0.009247
      dyz     :     0.001440
      dx2y2   :     0.005197
      dxy     :     0.006234
 20 H s       :     0.964605  s :     0.964605
      pz      :     0.010350  p :     0.021851
      px      :     0.007112
      py      :     0.004389
 21 H s       :     0.964555  s :     0.964555
      pz      :     0.009934  p :     0.021851
      px      :     0.007509
      py      :     0.004408
 22 H s       :     0.955848  s :     0.955848
      pz      :     0.010061  p :     0.022910
      px      :     0.007867
      py      :     0.004982
 23 H s       :     0.955942  s :     0.955942
      pz      :     0.005421  p :     0.022695
      px      :     0.006534
      py      :     0.010740
 24 H s       :     0.955851  s :     0.955851
      pz      :     0.010527  p :     0.022906
      px      :     0.007393
      py      :     0.004985
 25 H s       :     0.939921  s :     0.939921
      pz      :     0.006007  p :     0.023334
      px      :     0.012736
      py      :     0.004591
 26 H s       :     0.946995  s :     0.946995
      pz      :     0.006217  p :     0.023301
      px      :     0.013288
      py      :     0.003796


                     *******************************
                     * LOEWDIN POPULATION ANALYSIS *
                     *******************************

----------------------
LOEWDIN ATOMIC CHARGES
----------------------
   0 C :   -0.214490
   1 C :   -0.080560
   2 S :    0.439376
   3 C :   -0.213274
   4 C :   -0.064431
   5 H :    0.025946
   6 C :   -0.034223
   7 C :   -0.041268
   8 H :    0.035238
   9 H :    0.035254
  10 C :   -0.038570
  11 H :    0.023635
  12 H :    0.023615
  13 C :   -0.041445
  14 H :    0.021788
  15 H :    0.021818
  16 C :   -0.046834
  17 H :    0.021625
  18 H :    0.021563
  19 C :   -0.068743
  20 H :    0.022521
  21 H :    0.022529
  22 H :    0.024269
  23 H :    0.025786
  24 H :    0.024274
  25 H :    0.030211
  26 H :    0.024391

-------------------------------
LOEWDIN REDUCED ORBITAL CHARGES
-------------------------------
  0 C s       :     2.931042  s :     2.931042
      pz      :     1.110950  p :     3.201163
      px      :     1.025908
      py      :     1.064305
      dz2     :     0.006073  d :     0.082286
      dxz     :     0.005349
      dyz     :     0.014069
      dx2y2   :     0.022668
      dxy     :     0.034128
  1 C s       :     2.876514  s :     2.876514
      pz      :     1.028393  p :     3.116217
      px      :     1.035198
      py      :     1.052626
      dz2     :     0.006237  d :     0.087829
      dxz     :     0.009496
      dyz     :     0.009659
      dx2y2   :     0.031765
      dxy     :     0.030671
  2 S s       :     5.493784  s :     5.493784
      pz      :     3.565217  p :     9.920267
      px      :     2.983520
      py      :     3.371530
      dz2     :     0.015723  d :     0.146573
      dxz     :     0.034916
      dyz     :     0.011624
      dx2y2   :     0.023627
      dxy     :     0.060684
  3 C s       :     2.939765  s :     2.939765
      pz      :     1.136436  p :     3.195249
      px      :     1.031207
      py      :     1.027606
      dz2     :     0.005905  d :     0.078260
      dxz     :     0.004239
      dyz     :     0.013174
      dx2y2   :     0.022259
      dxy     :     0.032682
  4 C s       :     2.873893  s :     2.873893
      pz      :     0.992539  p :     3.088037
      px      :     1.050787
      py      :     1.044711
      dz2     :     0.006952  d :     0.102500
      dxz     :     0.012511
      dyz     :     0.012993
      dx2y2   :     0.037321
      dxy     :     0.032723
  5 H s       :     0.902401  s :     0.902401
      pz      :     0.016773  p :     0.071653
      px      :     0.024823
      py      :     0.030057
  6 C s       :     2.835562  s :     2.835562
      pz      :     1.063664  p :     3.112695
      px      :     1.048178
      py      :     1.000853
      dz2     :     0.014872  d :     0.085966
      dxz     :     0.024295
      dyz     :     0.008275
      dx2y2   :     0.017215
      dxy     :     0.021309
  7 C s       :     2.842554  s :     2.842554
      pz      :     1.064974  p :     3.112542
      px      :     1.041189
      py      :     1.006379
      dz2     :     0.014368  d :     0.086172
      dxz     :     0.026532
      dyz     :     0.006794
      dx2y2   :     0.015472
      dxy     :     0.023005
  8 H s       :     0.897757  s :     0.897757
      pz      :     0.030819  p :     0.067005
      px      :     0.022853
      py      :     0.013333
  9 H s       :     0.897736  s :     0.897736
      pz      :     0.030784  p :     0.067010
      px      :     0.022880
      py      :     0.013346
 10 C s       :     2.841211  s :     2.841211
      pz      :     1.063537  p :     3.110942
      px      :     1.040267
      py      :     1.007139
      dz2     :     0.014330  d :     0.086416
      dxz     :     0.026523
      dyz     :     0.006822
      dx2y2   :     0.015928
      dxy     :     0.022812
 11 H s       :     0.909666  s :     0.909666
      pz      :     0.030495  p :     0.066699
      px      :     0.022849
      py      :     0.013355
 12 H s       :     0.909672  s :     0.909672
      pz      :     0.030207  p :     0.066713
      px      :     0.023131
      py      :     0.013376
 13 C s       :     2.842815  s :     2.842815
      pz      :     1.062900  p :     3.111701
      px      :     1.039201
      py      :     1.009601
      dz2     :     0.014395  d :     0.086929
      dxz     :     0.026384
      dyz     :     0.006915
      dx2y2   :     0.016217
      dxy     :     0.023018
 14 H s       :     0.911942  s :     0.911942
      pz      :     0.030286  p :     0.066271
      px      :     0.022512
      py      :     0.013472
 15 H s       :     0.911910  s :     0.911910
      pz      :     0.029636  p :     0.066273
      px      :     0.023143
      py      :     0.013494
 16 C s       :     2.838987  s :     2.838987
      pz      :     1.062683  p :     3.119743
      px      :     1.042214
      py      :     1.014846
      dz2     :     0.014682  d :     0.088104
      dxz     :     0.026393
      dyz     :     0.007229
      dx2y2   :     0.016519
      dxy     :     0.023281
 17 H s       :     0.912252  s :     0.912252
      pz      :     0.030470  p :     0.066123
      px      :     0.022290
      py      :     0.013363
 18 H s       :     0.912307  s :     0.912307
      pz      :     0.029250  p :     0.066130
      px      :     0.023468
      py      :     0.013412
 19 C s       :     2.840080  s :     2.840080
      pz      :     1.067680  p :     3.158245
      px      :     1.050175
      py      :     1.040390
      dz2     :     0.013812  d :     0.070418
      dxz     :     0.023291
      dyz     :     0.002449
      dx2y2   :     0.012255
      dxy     :     0.018610
 20 H s       :     0.911611  s :     0.911611
      pz      :     0.030593  p :     0.065868
      px      :     0.021712
      py      :     0.013563
 21 H s       :     0.911585  s :     0.911585
      pz      :     0.029113  p :     0.065886
      px      :     0.023150
      py      :     0.013623
 22 H s       :     0.910168  s :     0.910168
      pz      :     0.029235  p :     0.065563
      px      :     0.023142
      py      :     0.013185
 23 H s       :     0.908375  s :     0.908375
      pz      :     0.012887  p :     0.065840
      px      :     0.019069
      py      :     0.033884
 24 H s       :     0.910169  s :     0.910169
      pz      :     0.030941  p :     0.065557
      px      :     0.021461
      py      :     0.013155
 25 H s       :     0.894480  s :     0.894480
      pz      :     0.018464  p :     0.075309
      px      :     0.042347
      py      :     0.014498
 26 H s       :     0.899550  s :     0.899550
      pz      :     0.019298  p :     0.076059
      px      :     0.044263
      py      :     0.012498


                      *****************************
                      * MAYER POPULATION ANALYSIS *
                      *****************************

  NA   - Mulliken gross atomic population
  ZA   - Total nuclear charge
  QA   - Mulliken gross atomic charge
  VA   - Mayer's total valence
  BVA  - Mayer's bonded valence
  FA   - Mayer's free valence

  ATOM       NA         ZA         QA         VA         BVA        FA
  0 C      6.0877     6.0000    -0.0877     3.7637     3.7637     0.0000
  1 C      6.0104     6.0000    -0.0104     3.9416     3.9416    -0.0000
  2 S     15.9131    16.0000     0.0869     2.5758     2.5758     0.0000
  3 C      6.1487     6.0000    -0.1487     3.7797     3.7797     0.0000
  4 C      6.0393     6.0000    -0.0393     4.0077     4.0077     0.0000
  5 H      1.0075     1.0000    -0.0075     0.9993     0.9993    -0.0000
  6 C      5.8915     6.0000     0.1085     3.9654     3.9654    -0.0000
  7 C      6.0772     6.0000    -0.0772     4.1649     4.1649    -0.0000
  8 H      0.9770     1.0000     0.0230     0.9872     0.9872     0.0000
  9 H      0.9769     1.0000     0.0231     0.9871     0.9871     0.0000
 10 C      5.9979     6.0000     0.0021     4.0697     4.0697     0.0000
 11 H      0.9796     1.0000     0.0204     0.9790     0.9790    -0.0000
 12 H      0.9793     1.0000     0.0207     0.9790     0.9790    -0.0000
 13 C      6.0348     6.0000    -0.0348     4.0950     4.0950     0.0000
 14 H      0.9935     1.0000     0.0065     0.9863     0.9863     0.0000
 15 H      0.9933     1.0000     0.0067     0.9861     0.9861     0.0000
 16 C      6.0427     6.0000    -0.0427     4.1287     4.1287     0.0000
 17 H      0.9927     1.0000     0.0073     0.9854     0.9854     0.0000
 18 H      0.9928     1.0000     0.0072     0.9856     0.9856     0.0000
 19 C      6.0215     6.0000    -0.0215     4.0228     4.0228     0.0000
 20 H      0.9865     1.0000     0.0135     0.9783     0.9783     0.0000
 21 H      0.9864     1.0000     0.0136     0.9783     0.9783     0.0000
 22 H      0.9788     1.0000     0.0212     0.9902     0.9902     0.0000
 23 H      0.9786     1.0000     0.0214     0.9828     0.9828     0.0000
 24 H      0.9788     1.0000     0.0212     0.9901     0.9901     0.0000
 25 H      0.9633     1.0000     0.0367     0.9946     0.9946    -0.0000
 26 H      0.9703     1.0000     0.0297     1.0006     1.0006    -0.0000

  Mayer bond orders larger than 0.100000
B(  0-C ,  1-C ) :   1.4927 B(  0-C ,  2-S ) :   1.1919 B(  0-C ,  3-C ) :   0.1080 
B(  0-C , 25-H ) :   0.9603 B(  1-C ,  4-C ) :   1.3334 B(  1-C ,  5-H ) :   0.9756 
B(  2-S ,  3-C ) :   1.1683 B(  3-C ,  4-C ) :   1.4988 B(  3-C , 26-H ) :   0.9743 
B(  4-C ,  6-C ) :   1.0245 B(  6-C ,  7-C ) :   1.1217 B(  6-C ,  8-H ) :   0.9115 
B(  6-C ,  9-H ) :   0.9115 B(  7-C , 10-C ) :   1.0882 B(  7-C , 11-H ) :   0.9271 
B(  7-C , 12-H ) :   0.9270 B( 10-C , 13-C ) :   1.0898 B( 10-C , 14-H ) :   0.9310 
B( 10-C , 15-H ) :   0.9311 B( 13-C , 16-C ) :   1.0931 B( 13-C , 17-H ) :   0.9361 
B( 13-C , 18-H ) :   0.9361 B( 16-C , 19-C ) :   1.1178 B( 16-C , 20-H ) :   0.9383 
B( 16-C , 21-H ) :   0.9383 B( 19-C , 22-H ) :   0.9656 B( 19-C , 23-H ) :   0.9599 
B( 19-C , 24-H ) :   0.9656 

-------
TIMINGS
-------

Total SCF time: 0 days 0 hours 0 min 28 sec 

Total time                  ....      28.353 sec
Sum of individual times     ....      27.856 sec  ( 98.2%)

Fock matrix formation       ....      23.019 sec  ( 81.2%)
  Split-RI-J                ....       8.785 sec  ( 38.2% of F)
  XC integration            ....      13.874 sec  ( 60.3% of F)
    Basis function eval.    ....       4.127 sec  ( 29.7% of XC)
    Density eval.           ....       2.134 sec  ( 15.4% of XC)
    XC-Functional eval.     ....       1.062 sec  (  7.7% of XC)
    XC-Potential eval.      ....       2.483 sec  ( 17.9% of XC)
Diagonalization             ....       0.046 sec  (  0.2%)
Density matrix formation    ....       0.023 sec  (  0.1%)
Population analysis         ....       0.022 sec  (  0.1%)
Initial guess               ....       0.755 sec  (  2.7%)
Orbital Transformation      ....       0.000 sec  (  0.0%)
Orbital Orthonormalization  ....       0.000 sec  (  0.0%)
DIIS solution               ....       0.070 sec  (  0.2%)
SOSCF solution              ....       0.090 sec  (  0.3%)
Grid generation             ....       3.832 sec  ( 13.5%)


-------------------------------------------------------------------------------
                          DFT DISPERSION CORRECTION                            
                                                                               
                              DFTD3 V3.1  Rev 1                                
                          USING Becke-Johnson damping                          
-------------------------------------------------------------------------------
The BP86 functional is recognized
Active option DFTDOPT                   ...         4   

molecular C6(AA) [au] = 7163.638458 


            DFT-D V3
 parameters
 s6 scaling factor         :     1.0000 
 a1 scaling factor         :     0.3946 
 s8 scaling factor         :     3.2822 
 a2 scaling factor         :     4.8516 
 ad hoc parameters k1-k3   :    16.0000     1.3333    -4.0000 

 Edisp/kcal,au: -25.767826428069  -0.041063640860 
 E6   /kcal   :  -9.916791759 
 E8   /kcal   : -15.851034669 
 % E8         :  61.514830183 

-------------------------   ----------------
Dispersion correction           -0.041063641
-------------------------   ----------------


-------------------------   --------------------
FINAL SINGLE POINT ENERGY      -788.549729193621
-------------------------   --------------------

------------------------------------------------------------------------------
                         ORCA SCF GRADIENT CALCULATION
------------------------------------------------------------------------------

Gradient of the Kohn-Sham DFT energy:
Kohn-Sham wavefunction type      ... RKS
Hartree-Fock exchange scaling    ...    0.000
Number of operators              ...    1
Number of atoms                  ...   27
Basis set dimensions             ...  238
Integral neglect threshold       ... 2.5e-11
Integral primitive cutoff        ... 2.5e-12

Nuclear repulsion gradient       ... done
One Electron Gradient            ... done
Pre-screening matrix             ... done
RI-J gradient                    ... done
Exchange-correlation gradient    ... done
Dispersion correction            ... done

------------------
CARTESIAN GRADIENT
------------------

   1   C   :   -0.015261441   -0.020189295   -0.000214080
   2   C   :   -0.004867198   -0.002680682    0.000187045
   3   S   :   -0.010905905    0.025930825    0.000246188
   4   C   :    0.024003751   -0.010714313   -0.000132493
   5   C   :    0.008104947    0.003057234   -0.000003633
   6   H   :    0.007278262   -0.008435895    0.000029098
   7   C   :    0.012472260    0.007006878   -0.000059483
   8   C   :   -0.015010142    0.003026040    0.000146142
   9   H   :   -0.009216112   -0.000698253    0.005428904
  10   H   :   -0.009293069   -0.000658858   -0.005402133
  11   C   :    0.019599426    0.004746705   -0.000304823
  12   H   :    0.006418245    0.000869769   -0.006637256
  13   H   :    0.006487782    0.000952780    0.006550018
  14   C   :   -0.020894218   -0.001527782    0.000433171
  15   H   :   -0.006778943   -0.000868003    0.007440223
  16   H   :   -0.006976995   -0.000855309   -0.007246410
  17   C   :    0.016109899    0.000191200   -0.000358600
  18   H   :    0.006566214    0.000785780   -0.007502934
  19   H   :    0.006868803    0.000971543    0.007210510
  20   C   :   -0.007605043    0.000083340    0.000154956
  21   H   :   -0.007308804    0.000678342    0.007482652
  22   H   :   -0.007704977    0.000556057   -0.007108121
  23   H   :    0.006697518   -0.000201646    0.007129948
  24   H   :   -0.002062481   -0.009984791    0.000163804
  25   H   :    0.006271094   -0.000388166   -0.007514031
  26   H   :    0.008819876    0.007810119   -0.000079792
  27   H   :   -0.011812748    0.000536380   -0.000038871

Difference to translation invariance:
           :    0.0000000000   -0.0000000000   -0.0000000000

Norm of the cartesian gradient     ...    0.0745443257
RMS gradient                       ...    0.0082827029
MAX gradient                       ...    0.0259308251

-------
TIMINGS
-------

Total SCF gradient time            ...       11.612 sec

One electron gradient       ....       0.252 sec  (  2.2%)
Prescreening matrices       ....       0.090 sec  (  0.8%)
RI-J Coulomb gradient       ....       2.023 sec  ( 17.4%)
XC gradient                 ....       9.039 sec  ( 77.8%)
------------------------------------------------------------------------------
                         ORCA GEOMETRY RELAXATION STEP
------------------------------------------------------------------------------

Reading the OPT-File                    .... done
Getting information on internals        .... done
Copying old internal coords+grads       .... done
Making the new internal coordinates     .... (new redundants).... done
Validating the new internal coordinates .... (new redundants).... done
Calculating the B-matrix                .... done
Calculating the G,G- and P matrices     .... done
Transforming gradient to internals      .... done
Projecting the internal gradient        .... done
Number of atoms                         ....  27
Number of internal coordinates          .... 143
Current Energy                          ....  -788.549729194 Eh
Current gradient norm                   ....     0.074544326 Eh/bohr
Maximum allowed component of the step   ....  0.300
Current trust radius                    ....  0.300
Evaluating the initial hessian          ....  (Almloef) done
Projecting the Hessian                  .... done
Forming the augmented Hessian           .... done
Diagonalizing the augmented Hessian     .... done
Last element of RFO vector              ....  0.992095865
Lowest eigenvalues of augmented Hessian:
 -0.005079018  0.011823044  0.019260434  0.019651833  0.023770562
Length of the computed step             ....  0.126481982
The final length of the internal step   ....  0.126481982
Converting the step to cartesian space:
 Initial RMS(Int)=    0.0105769547
Transforming coordinates:
 Iter   0:  RMS(Cart)=    0.0140241025 RMS(Int)=    0.9098474962
 Iter   1:  RMS(Cart)=    0.0000898090 RMS(Int)=    0.0000669948
 Iter   2:  RMS(Cart)=    0.0000011920 RMS(Int)=    0.0000008524
 Iter   3:  RMS(Cart)=    0.0000000121 RMS(Int)=    0.0000000085
Imposing constraints:
 Iter   0:  RMS(Cart)=    0.0000188984 RMS(Int)=    0.0000012002
 Iter   1:  RMS(Cart)=    0.0000054920 RMS(Int)=    0.0000003620
 Iter   2:  RMS(Cart)=    0.0000015963 RMS(Int)=    0.0000001197
 Iter   3:  RMS(Cart)=    0.0000004650 RMS(Int)=    0.0000000502
 Iter   4:  RMS(Cart)=    0.0000001378 RMS(Int)=    0.0000000283
 Iter   5:  RMS(Cart)=    0.0000000453 RMS(Int)=    0.0000000186
CONVERGED
done
[...]
      pz      :     1.143173  p :     2.884684
      px      :     0.836416
      py      :     0.905095
      dz2     :     0.002850  d :     0.031292
      dxz     :     0.002647
      dyz     :     0.006152
      dx2y2   :     0.007979
      dxy     :     0.011664
  4 C s       :     3.091727  s :     3.091727
      pz      :     1.010852  p :     2.902363
      px      :     0.954068
      py      :     0.937444
      dz2     :     0.002802  d :     0.039267
      dxz     :     0.006281
      dyz     :     0.006908
      dx2y2   :     0.011932
      dxy     :     0.011344
  5 H s       :     0.976597  s :     0.976597
      pz      :     0.005556  p :     0.022687
      px      :     0.007647
      py      :     0.009485
  6 C s       :     2.925556  s :     2.925556
      pz      :     1.006399  p :     2.957183
      px      :     1.030039
      py      :     0.920745
      dz2     :     0.004515  d :     0.032694
      dxz     :     0.009644
      dyz     :     0.004414
      dx2y2   :     0.007065
      dxy     :     0.007056
  7 C s       :     3.050552  s :     3.050552
      pz      :     1.007238  p :     2.992735
      px      :     1.021517
      py      :     0.963980
      dz2     :     0.004625  d :     0.033464
      dxz     :     0.010383
      dyz     :     0.003916
      dx2y2   :     0.006364
      dxy     :     0.008175
  8 H s       :     0.953016  s :     0.953016
      pz      :     0.010074  p :     0.021742
      px      :     0.007355
      py      :     0.004312
  9 H s       :     0.952911  s :     0.952911
      pz      :     0.010052  p :     0.021738
      px      :     0.007377
      py      :     0.004309
 10 C s       :     3.016100  s :     3.016100
      pz      :     1.003011  p :     2.960381
      px      :     1.007243
      py      :     0.950127
      dz2     :     0.004567  d :     0.033405
      dxz     :     0.010477
      dyz     :     0.003867
      dx2y2   :     0.006578
      dxy     :     0.007917
 11 H s       :     0.953628  s :     0.953628
      pz      :     0.010027  p :     0.021256
      px      :     0.007094
      py      :     0.004135
 12 H s       :     0.953274  s :     0.953274
      pz      :     0.009945  p :     0.021265
      px      :     0.007177
      py      :     0.004143
 13 C s       :     3.045735  s :     3.045735
      pz      :     1.002446  p :     2.967268
      px      :     1.009579
      py      :     0.955244
      dz2     :     0.004569  d :     0.033683
      dxz     :     0.010421
      dyz     :     0.003947
      dx2y2   :     0.006675
      dxy     :     0.008072
 14 H s       :     0.967183  s :     0.967183
      pz      :     0.010054  p :     0.021238
      px      :     0.007034
      py      :     0.004149
 15 H s       :     0.966969  s :     0.966969
      pz      :     0.009871  p :     0.021236
      px      :     0.007213
      py      :     0.004152
 16 C s       :     3.036244  s :     3.036244
      pz      :     1.008655  p :     2.974693
      px      :     1.002911
      py      :     0.963127
      dz2     :     0.004718  d :     0.034328
      dxz     :     0.010372
      dyz     :     0.003968
      dx2y2   :     0.007141
      dxy     :     0.008128
 17 H s       :     0.966608  s :     0.966608
      pz      :     0.010122  p :     0.021161
      px      :     0.006994
      py      :     0.004045
 18 H s       :     0.966766  s :     0.966766
      pz      :     0.009793  p :     0.021163
      px      :     0.007311
      py      :     0.004060
 19 C s       :     3.015417  s :     3.015417
      pz      :     1.014345  p :     2.995345
      px      :     0.994341
      py      :     0.986658
      dz2     :     0.004457  d :     0.026091
      dxz     :     0.008952
      dyz     :     0.001430
      dx2y2   :     0.005408
      dxy     :     0.005843
 20 H s       :     0.961222  s :     0.961222
      pz      :     0.010050  p :     0.021110
      px      :     0.006944
      py      :     0.004116
 21 H s       :     0.961271  s :     0.961271
      pz      :     0.009646  p :     0.021112
      px      :     0.007330
      py      :     0.004136
 22 H s       :     0.952994  s :     0.952994
      pz      :     0.009770  p :     0.022155
      px      :     0.007639
      py      :     0.004746
 23 H s       :     0.951777  s :     0.951777
      pz      :     0.005247  p :     0.021868
      px      :     0.005996
      py      :     0.010625
 24 H s       :     0.953037  s :     0.953037
      pz      :     0.010176  p :     0.022151
      px      :     0.007229
      py      :     0.004746
 25 H s       :     0.930128  s :     0.930128
      pz      :     0.005758  p :     0.022599
      px      :     0.012184
      py      :     0.004657
 26 H s       :     0.940885  s :     0.940885
      pz      :     0.005908  p :     0.022543
      px      :     0.013103
      py      :     0.003532


                     *******************************
                     * LOEWDIN POPULATION ANALYSIS *
                     *******************************

----------------------
LOEWDIN ATOMIC CHARGES
----------------------
   0 C :   -0.217321
   1 C :   -0.083573
   2 S :    0.439053
   3 C :   -0.217369
   4 C :   -0.066366
   5 H :    0.029805
   6 C :   -0.039011
   7 C :   -0.045090
   8 H :    0.036898
   9 H :    0.036873
  10 C :   -0.043039
  11 H :    0.026253
  12 H :    0.026252
  13 C :   -0.045804
  14 H :    0.024192
  15 H :    0.024211
  16 C :   -0.051877
  17 H :    0.023763
  18 H :    0.023705
  19 C :   -0.075122
  20 H :    0.024872
  21 H :    0.024865
  22 H :    0.026596
  23 H :    0.027374
  24 H :    0.026591
  25 H :    0.033846
  26 H :    0.029423

-------------------------------
LOEWDIN REDUCED ORBITAL CHARGES
-------------------------------
  0 C s       :     2.936401  s :     2.936401
      pz      :     1.112821  p :     3.198844
      px      :     1.022372
      py      :     1.063651
      dz2     :     0.006036  d :     0.082076
      dxz     :     0.005329
      dyz     :     0.014109
      dx2y2   :     0.021400
      dxy     :     0.035202
  1 C s       :     2.880537  s :     2.880537
      pz      :     1.029935  p :     3.115716
      px      :     1.034550
      py      :     1.051231
      dz2     :     0.006196  d :     0.087321
      dxz     :     0.009526
      dyz     :     0.009661
      dx2y2   :     0.031715
      dxy     :     0.030222
  2 S s       :     5.494354  s :     5.494354
      pz      :     3.564383  p :     9.919979
      px      :     2.984196
      py      :     3.371400
      dz2     :     0.015745  d :     0.146615
      dxz     :     0.034954
      dyz     :     0.011612
      dx2y2   :     0.023486
      dxy     :     0.060818
  3 C s       :     2.944387  s :     2.944387
      pz      :     1.136123  p :     3.195360
      px      :     1.030517
      py      :     1.028720
      dz2     :     0.005847  d :     0.077622
      dxz     :     0.004225
      dyz     :     0.013144
      dx2y2   :     0.022309
      dxy     :     0.032097
  4 C s       :     2.874202  s :     2.874202
      pz      :     0.993746  p :     3.089763
      px      :     1.050417
      py      :     1.045600
      dz2     :     0.006982  d :     0.102401
      dxz     :     0.012535
      dyz     :     0.013028
      dx2y2   :     0.037341
      dxy     :     0.032515
  5 H s       :     0.901350  s :     0.901350
      pz      :     0.015793  p :     0.068845
      px      :     0.023904
      py      :     0.029148
  6 C s       :     2.843978  s :     2.843978
      pz      :     1.065176  p :     3.110287
      px      :     1.042192
      py      :     1.002919
      dz2     :     0.013257  d :     0.084746
      dxz     :     0.024458
      dyz     :     0.008229
      dx2y2   :     0.017500
      dxy     :     0.021303
  7 C s       :     2.850018  s :     2.850018
      pz      :     1.062862  p :     3.110178
      px      :     1.039183
      py      :     1.008133
      dz2     :     0.013719  d :     0.084894
      dxz     :     0.025921
      dyz     :     0.006827
      dx2y2   :     0.015342
      dxy     :     0.023085
  8 H s       :     0.898967  s :     0.898967
      pz      :     0.029374  p :     0.064135
      px      :     0.022544
      py      :     0.012218
  9 H s       :     0.898996  s :     0.898996
      pz      :     0.029285  p :     0.064131
      px      :     0.022628
      py      :     0.012218
 10 C s       :     2.849658  s :     2.849658
      pz      :     1.061187  p :     3.108308
      px      :     1.037981
      py      :     1.009140
      dz2     :     0.013666  d :     0.085074
      dxz     :     0.025881
      dyz     :     0.006798
      dx2y2   :     0.015840
      dxy     :     0.022890
 11 H s       :     0.909575  s :     0.909575
      pz      :     0.029623  p :     0.064173
      px      :     0.022140
      py      :     0.012409
 12 H s       :     0.909553  s :     0.909553
      pz      :     0.029327  p :     0.064195
      px      :     0.022434
      py      :     0.012434
 13 C s       :     2.851493  s :     2.851493
      pz      :     1.060681  p :     3.108646
      px      :     1.037011
      py      :     1.010954
      dz2     :     0.013746  d :     0.085664
      dxz     :     0.025793
      dyz     :     0.006971
      dx2y2   :     0.016122
      dxy     :     0.023031
 14 H s       :     0.912293  s :     0.912293
      pz      :     0.029316  p :     0.063515
      px      :     0.021753
      py      :     0.012446
 15 H s       :     0.912270  s :     0.912270
      pz      :     0.028645  p :     0.063519
      px      :     0.022411
      py      :     0.012463
 16 C s       :     2.847737  s :     2.847737
      pz      :     1.060967  p :     3.117457
      px      :     1.039474
      py      :     1.017017
      dz2     :     0.013864  d :     0.086683
      dxz     :     0.025953
      dyz     :     0.007072
      dx2y2   :     0.016509
      dxy     :     0.023285
 17 H s       :     0.912839  s :     0.912839
      pz      :     0.029486  p :     0.063398
      px      :     0.021569
      py      :     0.012343
 18 H s       :     0.912894  s :     0.912894
      pz      :     0.028273  p :     0.063401
      px      :     0.022726
      py      :     0.012402
 19 C s       :     2.852061  s :     2.852061
      pz      :     1.066380  p :     3.154527
      px      :     1.049605
      py      :     1.038542
      dz2     :     0.013025  d :     0.068534
      dxz     :     0.022621
      dyz     :     0.002438
      dx2y2   :     0.012899
      dxy     :     0.017551
 20 H s       :     0.912103  s :     0.912103
      pz      :     0.029521  p :     0.063025
      px      :     0.021106
      py      :     0.012399
 21 H s       :     0.912106  s :     0.912106
      pz      :     0.028076  p :     0.063029
      px      :     0.022506
      py      :     0.012447
 22 H s       :     0.910342  s :     0.910342
      pz      :     0.028365  p :     0.063061
      px      :     0.022522
      py      :     0.012174
 23 H s       :     0.909269  s :     0.909269
      pz      :     0.012252  p :     0.063357
      px      :     0.017360
      py      :     0.033745
 24 H s       :     0.910349  s :     0.910349
      pz      :     0.029872  p :     0.063060
      px      :     0.021042
      py      :     0.012146
 25 H s       :     0.893590  s :     0.893590
      pz      :     0.017445  p :     0.072564
      px      :     0.040551
      py      :     0.014568
 26 H s       :     0.897612  s :     0.897612
      pz      :     0.018088  p :     0.072965
      px      :     0.043458
      py      :     0.011420


                      *****************************
                      * MAYER POPULATION ANALYSIS *
                      *****************************

  NA   - Mulliken gross atomic population
  ZA   - Total nuclear charge
  QA   - Mulliken gross atomic charge
  VA   - Mayer's total valence
  BVA  - Mayer's bonded valence
  FA   - Mayer's free valence

  ATOM       NA         ZA         QA         VA         BVA        FA
  0 C      6.1030     6.0000    -0.1030     3.7609     3.7609     0.0000
  1 C      6.0120     6.0000    -0.0120     3.9285     3.9285     0.0000
  2 S     15.9136    16.0000     0.0864     2.5804     2.5804    -0.0000
  3 C      6.1519     6.0000    -0.1519     3.7788     3.7788    -0.0000
  4 C      6.0334     6.0000    -0.0334     4.0112     4.0112     0.0000
  5 H      0.9993     1.0000     0.0007     0.9990     0.9990     0.0000
  6 C      5.9154     6.0000     0.0846     3.9640     3.9640     0.0000
  7 C      6.0768     6.0000    -0.0768     4.1494     4.1494     0.0000
  8 H      0.9748     1.0000     0.0252     0.9855     0.9855     0.0000
  9 H      0.9746     1.0000     0.0254     0.9855     0.9855    -0.0000
 10 C      6.0099     6.0000    -0.0099     4.0636     4.0636    -0.0000
 11 H      0.9749     1.0000     0.0251     0.9785     0.9785     0.0000
 12 H      0.9745     1.0000     0.0255     0.9785     0.9785     0.0000
 13 C      6.0467     6.0000    -0.0467     4.0839     4.0839    -0.0000
 14 H      0.9884     1.0000     0.0116     0.9853     0.9853    -0.0000
 15 H      0.9882     1.0000     0.0118     0.9851     0.9851     0.0000
 16 C      6.0453     6.0000    -0.0453     4.1146     4.1146    -0.0000
 17 H      0.9878     1.0000     0.0122     0.9846     0.9846    -0.0000
 18 H      0.9879     1.0000     0.0121     0.9847     0.9847    -0.0000
 19 C      6.0369     6.0000    -0.0369     4.0171     4.0171     0.0000
 20 H      0.9823     1.0000     0.0177     0.9780     0.9780    -0.0000
 21 H      0.9824     1.0000     0.0176     0.9779     0.9779    -0.0000
 22 H      0.9751     1.0000     0.0249     0.9885     0.9885     0.0000
 23 H      0.9736     1.0000     0.0264     0.9814     0.9814     0.0000
 24 H      0.9752     1.0000     0.0248     0.9885     0.9885     0.0000
 25 H      0.9527     1.0000     0.0473     0.9925     0.9925     0.0000
 26 H      0.9634     1.0000     0.0366     0.9991     0.9991    -0.0000

  Mayer bond orders larger than 0.100000
B(  0-C ,  1-C ) :   1.4860 B(  0-C ,  2-S ) :   1.1946 B(  0-C ,  3-C ) :   0.1085 
B(  0-C , 25-H ) :   0.9595 B(  1-C ,  4-C ) :   1.3326 B(  1-C ,  5-H ) :   0.9729 
B(  2-S ,  3-C ) :   1.1686 B(  3-C ,  4-C ) :   1.5018 B(  3-C , 26-H ) :   0.9692 
B(  4-C ,  6-C ) :   1.0258 B(  6-C ,  7-C ) :   1.1167 B(  6-C ,  8-H ) :   0.9119 
B(  6-C ,  9-H ) :   0.9120 B(  7-C , 10-C ) :   1.0850 B(  7-C , 11-H ) :   0.9265 
B(  7-C , 12-H ) :   0.9264 B( 10-C , 13-C ) :   1.0868 B( 10-C , 14-H ) :   0.9306 
B( 10-C , 15-H ) :   0.9306 B( 13-C , 16-C ) :   1.0880 B( 13-C , 17-H ) :   0.9355 
B( 13-C , 18-H ) :   0.9356 B( 16-C , 19-C ) :   1.1145 B( 16-C , 20-H ) :   0.9375 
B( 16-C , 21-H ) :   0.9375 B( 19-C , 22-H ) :   0.9647 B( 19-C , 23-H ) :   0.9602 
B( 19-C , 24-H ) :   0.9646 

-------
TIMINGS
-------

Total SCF time: 0 days 0 hours 0 min 17 sec 

Total time                  ....      17.425 sec
Sum of individual times     ....      14.892 sec  ( 85.5%)

Fock matrix formation       ....      10.241 sec  ( 58.8%)
  Split-RI-J                ....       2.219 sec  ( 21.7% of F)
  XC integration            ....       4.523 sec  ( 44.2% of F)
    Basis function eval.    ....       1.482 sec  ( 32.8% of XC)
    Density eval.           ....       0.791 sec  ( 17.5% of XC)
    XC-Functional eval.     ....       0.363 sec  (  8.0% of XC)
    XC-Potential eval.      ....       0.980 sec  ( 21.7% of XC)
Diagonalization             ....       0.018 sec  (  0.1%)
Density matrix formation    ....       0.008 sec  (  0.0%)
Population analysis         ....       0.255 sec  (  1.5%)
Initial guess               ....       0.020 sec  (  0.1%)
Orbital Transformation      ....       0.000 sec  (  0.0%)
Orbital Orthonormalization  ....       0.011 sec  (  0.1%)
DIIS solution               ....       0.005 sec  (  0.0%)
SOSCF solution              ....       0.031 sec  (  0.2%)
Grid generation             ....       4.313 sec  ( 24.8%)


-------------------------------------------------------------------------------
                          DFT DISPERSION CORRECTION                            
                                                                               
                              DFTD3 V3.1  Rev 1                                
                          USING Becke-Johnson damping                          
-------------------------------------------------------------------------------
The BP86 functional is recognized
Active option DFTDOPT                   ...         4   

molecular C6(AA) [au] = 7166.508739 


            DFT-D V3
 parameters
 s6 scaling factor         :     1.0000 
 a1 scaling factor         :     0.3946 
 s8 scaling factor         :     3.2822 
 a2 scaling factor         :     4.8516 
 ad hoc parameters k1-k3   :    16.0000     1.3333    -4.0000 

 Edisp/kcal,au: -25.710477524923  -0.040972249576 
 E6   /kcal   :  -9.890736429 
 E8   /kcal   : -15.819741095 
 % E8         :  61.530327782 

-------------------------   ----------------
Dispersion correction           -0.040972250
-------------------------   ----------------


-------------------------   --------------------
FINAL SINGLE POINT ENERGY      -788.553003445612
-------------------------   --------------------

                                *** OPTIMIZATION RUN DONE ***

                            ***************************************
                            *     ORCA property calculations      *
                            ***************************************

                                    ---------------------
                                    Active property flags
                                    ---------------------
   (+) Dipole Moment


------------------------------------------------------------------------------
                       ORCA ELECTRIC PROPERTIES CALCULATION
------------------------------------------------------------------------------

Dipole Moment Calculation                       ... on
Quadrupole Moment Calculation                   ... off
Polarizability Calculation                      ... off
GBWName                                         ... N2200_Input_Methylthiophene_With_Sidechain_1_Optimize_Monomer.gbw
Electron density file                           ... N2200_Input_Methylthiophene_With_Sidechain_1_Optimize_Monomer.scfp
The origin for moment calculation is the CENTER OF MASS  = (-1.889840,  2.592383 -0.002964)

-------------
DIPOLE MOMENT
-------------
                                X             Y             Z
Electronic contribution:     -0.53919     -32.01639       0.03646
Nuclear contribution   :      0.58139      32.39538      -0.03646
                        -----------------------------------------
Total Dipole Moment    :      0.04220       0.37899      -0.00000
                        -----------------------------------------
Magnitude (a.u.)       :      0.38133
Magnitude (Debye)      :      0.96927



--------------------
Rotational spectrum 
--------------------
 
Rotational constants in cm-1:     0.139705     0.008437     0.008029 
Rotational constants in MHz :  4188.243401   252.928198   240.696215 

 Dipole components along the rotational axes: 
x,y,z [a.u.] :     0.379901     0.033016     0.000588 
x,y,z [Debye]:     0.965632     0.083919     0.001496 

 

Timings for individual modules:

Sum of individual times         ...      236.070 sec (=   3.935 min)
GTO integral calculation        ...       10.137 sec (=   0.169 min)   4.3 %
SCF iterations                  ...      145.875 sec (=   2.431 min)  61.8 %
SCF Gradient evaluation         ...       73.828 sec (=   1.230 min)  31.3 %
Geometry relaxation             ...        6.230 sec (=   0.104 min)   2.6 %
                             ****ORCA TERMINATED NORMALLY****
TOTAL RUN TIME: 0 days 0 hours 4 minutes 4 seconds 298 msec
