
                                 *****************
                                 * O   R   C   A *
                                 *****************

           --- An Ab Initio, DFT and Semiempirical electronic structure package ---

                  #######################################################
                  #                        -***-                        #
                  #          Department of theory and spectroscopy      #
                  #               Directorship: Frank Neese             #
                  #        Max Planck Institute fuer Kohlenforschung    #
                  #                Kaiser Wilhelm Platz 1               #
                  #                 D-45470 Muelheim/Ruhr               #
                  #                      Germany                        #
                  #                                                     #
                  #                  All rights reserved                #
                  #                        -***-                        #
                  #######################################################


                         Program Version 4.2.0 -  RELEASE  -


 With contributions from (in alphabetic order):
   Daniel Aravena         : Magnetic Suceptibility
   Michael Atanasov       : Ab Initio Ligand Field Theory (pilot matlab implementation)
   Alexander A. Auer      : GIAO ZORA, VPT2
   Ute Becker             : Parallelization
   Giovanni Bistoni       : ED, misc. LED, open-shell LED, HFLED
   Martin Brehm           : Molecular dynamics
   Dmytro Bykov           : SCF Hessian
   Vijay G. Chilkuri      : MRCI spin determinant printing, contributions to CSF-ICE
   Dipayan Datta          : RHF DLPNO-CCSD density
   Achintya Kumar Dutta   : EOM-CC, STEOM-CC
   Dmitry Ganyushin       : Spin-Orbit,Spin-Spin,Magnetic field MRCI
   Miquel Garcia          : C-PCM Hessian, Gaussian charge scheme
   Yang Guo               : DLPNO-NEVPT2, CIM, IAO-localization
   Andreas Hansen         : Spin unrestricted coupled pair/coupled cluster methods
   Benjamin Helmich-Paris : CASSCF linear response (MC-RPA)
   Lee Huntington         : MR-EOM, pCC
   Robert Izsak           : Overlap fitted RIJCOSX, COSX-SCS-MP3, EOM
   Christian Kollmar      : KDIIS, OOCD, Brueckner-CCSD(T), CCSD density
   Simone Kossmann        : Meta GGA functionals, TD-DFT gradient, OOMP2, MP2 Hessian
   Martin Krupicka        : AUTO-CI
   Lucas Lang             : DCDCAS
   Dagmar Lenk            : GEPOL surface, SMD
   Dimitrios Liakos       : Extrapolation schemes; Compound Job, initial MDCI parallelization
   Dimitrios Manganas     : Further ROCIS development; embedding schemes
   Dimitrios Pantazis     : SARC Basis sets
   Taras Petrenko         : DFT Hessian,TD-DFT gradient, ASA, ECA, R-Raman, ABS, FL, XAS/XES, NRVS
   Peter Pinski           : DLPNO-MP2, DLPNO-MP2 Gradient
   Christoph Reimann      : Effective Core Potentials
   Marius Retegan         : Local ZFS, SOC
   Christoph Riplinger    : Optimizer, TS searches, QM/MM, DLPNO-CCSD(T), (RO)-DLPNO pert. Triples
   Tobias Risthaus        : Range-separated hybrids, TD-DFT gradient, RPA, STAB
   Michael Roemelt        : Original ROCIS implementation
   Masaaki Saitow         : Open-shell DLPNO-CCSD energy and density
   Barbara Sandhoefer     : DKH picture change effects
   Avijit Sen             : IP-ROCIS
   Kantharuban Sivalingam : CASSCF convergence, NEVPT2, FIC-MRCI
   Bernardo de Souza      : ESD, SOC TD-DFT
   Georgi Stoychev        : AutoAux, RI-MP2 NMR
   Willem Van den Heuvel  : Paramagnetic NMR
   Boris Wezisla          : Elementary symmetry handling
   Frank Wennmohs         : Technical directorship


 We gratefully acknowledge several colleagues who have allowed us to
 interface, adapt or use parts of their codes:
   Stefan Grimme, W. Hujo, H. Kruse,             : VdW corrections, initial TS optimization,
                  C. Bannwarth                     DFT functionals, gCP, sTDA/sTD-DF
   Ed Valeev, F. Pavosevic, A. Kumar             : LibInt (2-el integral package), F12 methods
   Garnet Chan, S. Sharma, J. Yang, R. Olivares  : DMRG
   Ulf Ekstrom                                   : XCFun DFT Library
   Mihaly Kallay                                 : mrcc  (arbitrary order and MRCC methods)
   Andreas Klamt, Michael Diedenhofen            : otool_cosmo (COSMO solvation model)
   Jiri Pittner, Ondrej Demel                    : Mk-CCSD
   Frank Weinhold                                : gennbo (NPA and NBO analysis)
   Christopher J. Cramer and Donald G. Truhlar   : smd solvation model
   Lars Goerigk                                  : TD-DFT with DH, B97 family of functionals
   V. Asgeirsson, H. Jonsson                     : NEB implementation
   FAccTs GmbH                                   : IRC, NEB, NEB-TS, Multilevel, MM, QM/MM, CI optimization
   S Lehtola, MJT Oliveira, MAL Marques          : LibXC Library


 Your calculation uses the libint2 library for the computation of 2-el integrals
 For citations please refer to: http://libint.valeyev.net

 Your ORCA version has been built with support for libXC version: 4.2.3
 For citations please refer to: https://tddft.org/programs/libxc/

 This ORCA versions uses:
   CBLAS   interface :  Fast vector & matrix operations
   LAPACKE interface :  Fast linear algebra routines
   SCALAPACK package :  Parallel linear algebra routines


Your calculation utilizes the atom-pairwise dispersion correction
with the Becke-Johnson damping scheme (D3BJ)
Cite in your paper:
S.Grimme, S.Ehrlich, L.Goerigk, J Comput Chem, (2011), 32, 1456–1465 
S.Grimme, J.Antony, S.Ehrlich and H.Krieg, J.Chem.Phys., 132, (2010), 154104 
   

----- Orbital basis set information -----
Your calculation utilizes the basis: def2-SVP
   F. Weigend and R. Ahlrichs, Phys. Chem. Chem. Phys. 7, 3297 (2005).

----- AuxJ basis set information -----
Your calculation utilizes the auxiliary basis: def2/J
   F. Weigend, Phys. Chem. Chem. Phys. 8, 1057 (2006).

================================================================================
                                        WARNINGS
                       Please study these warnings very carefully!
================================================================================


WARNING: Geometry Optimization
  ===> : Switching off AutoStart
         For restart on a previous wavefunction, please use MOREAD

INFO   : the flag for use of LIBINT has been found!

================================================================================
                                       INPUT FILE
================================================================================
NAME = P3HT_Input_Methylthiophene_With_Sidechain_2_Optimize_Monomer.inp
|  1> ! RI BP86 def2-SVP def2/J D3BJ TIGHTSCF  Opt Grid3 FinalGrid5
|  2> %maxcore 3000
|  3> %geom
|  4> optimizehydrogens true
|  5> end
|  6> 
|  7> 
|  8> *xyz 0 1
|  9> C	-0.768665	1.236242	-0.001533
| 10> C	-0.172695	-0.014218	-0.010093
| 11> C	1.276945	-0.011758	-0.005283
| 12> H	-0.753445	-0.928338	-0.018433
| 13> C	1.766375	1.299552	0.002277
| 14> S	0.454755	2.418752	0.009737
| 15> C	2.112705	-1.279328	-0.008453
| 16> C	1.350365	-2.612708	-0.011573
| 17> H	2.754105	-1.265608	0.881167
| 18> H	2.755375	-1.261778	-0.897163
| 19> C	2.324735	-3.797688	0.007857
| 20> H	0.714775	-2.679168	-0.903063
| 21> H	0.693005	-2.672008	0.864497
| 22> C	1.600665	-5.146978	-0.012593
| 23> H	2.952825	-3.736538	0.905117
| 24> H	2.994605	-3.733628	-0.858443
| 25> C	2.599515	-6.306318	0.033937
| 26> H	0.989435	-5.223618	-0.919923
| 27> H	0.919505	-5.214798	0.844197
| 28> C	1.905555	-7.658938	-0.002803
| 29> H	3.202325	-6.239538	0.947287
| 30> H	3.290145	-6.236728	-0.814643
| 31> H	1.227625	-7.777498	0.848277
| 32> H	2.646085	-8.464448	0.039707
| 33> H	1.327495	-7.779668	-0.924383
| 34> H	-1.822998	1.470293	-0.001003
| 35> H	2.771721	1.694110	0.004175
| 36> **                         ****END OF INPUT****
================================================================================

                       *****************************
                       * Geometry Optimization Run *
                       *****************************

Geometry optimization settings:
Update method            Update   .... BFGS
Choice of coordinates    CoordSys .... Z-matrix Internals
Initial Hessian          InHess   .... Almoef's Model

Convergence Tolerances:
Energy Change            TolE     ....  5.0000e-06 Eh
Max. Gradient            TolMAXG  ....  3.0000e-04 Eh/bohr
RMS Gradient             TolRMSG  ....  1.0000e-04 Eh/bohr
Max. Displacement        TolMAXD  ....  4.0000e-03 bohr
RMS Displacement         TolRMSD  ....  2.0000e-03 bohr
Strict Convergence                ....  False
------------------------------------------------------------------------------
                        ORCA OPTIMIZATION COORDINATE SETUP
------------------------------------------------------------------------------

The optimization will be done in new redundant internal coordinates
Making redundant internal coordinates   ...  (new redundants) done
Evaluating the initial hessian          ...  (Almloef) done
Evaluating the coordinates              ...  done
Calculating the B-matrix                .... done
Calculating the G-matrix                .... done
Diagonalizing the G-matrix              .... done
Imposing constraints:
 Iter   0:  RMS(Cart)=    0.0000000000 RMS(Int)=    0.0000000000
CONVERGED
Small eigenvalue found = 3.788e-03
Small eigenvalue found = 2.138e-02
Small eigenvalue found = 2.811e-02
The first mode is                       ....   68
The number of degrees of freedom        ....   75
Storing new coordinates                 .... done

    -----------------------------------------------------------------
                    Redundant Internal Coordinates


    -----------------------------------------------------------------
         Definition                    Initial Value    Approx d2E/dq
    -----------------------------------------------------------------
      1. B(C   1,C   0)                  1.3852         0.635806 C 
      2. B(C   2,C   1)                  1.4497         0.501846 C 
      3. B(H   3,C   1)                  1.0830         0.369439   
      4. B(C   4,C   2)                  1.3997         0.602946 C 
      5. B(S   5,C   0)                  1.7015         0.536384 C 
      6. B(S   5,C   4)                  1.7242         0.493451 C 
      7. B(C   6,C   2)                  1.5183         0.389980 C 
      8. B(C   7,C   6)                  1.5359         0.365527 C 
      9. B(H   8,C   6)                  1.0968         0.351195   
     10. B(H   9,C   6)                  1.0969         0.351117   
     11. B(C  10,C   7)                  1.5343         0.367775 C 
     12. B(H  11,C   7)                  1.0969         0.351113   
     13. B(H  12,C   7)                  1.0969         0.351118   
     14. B(C  13,C  10)                  1.5314         0.371617 C 
     15. B(H  14,C  10)                  1.0970         0.351015   
     16. B(H  15,C  10)                  1.0970         0.351019   
     17. B(C  16,C  13)                  1.5310         0.372216 C 
     18. B(H  17,C  13)                  1.0967         0.351361   
     19. B(H  18,C  13)                  1.0967         0.351394   
     20. B(C  19,C  16)                  1.5207         0.386566 C 
     21. B(H  20,C  16)                  1.0964         0.351759   
     22. B(H  21,C  16)                  1.0963         0.351846   
     23. B(H  22,C  19)                  1.0945         0.354165   
     24. B(H  23,C  19)                  1.0950         0.353538   
     25. B(H  24,C  19)                  1.0945         0.354131   
     26. B(H  25,C   0)                  1.0800         0.373576   
     27. B(H  26,C   4)                  1.0800         0.373575   
     28. A(C   1,C   0,S   5)          108.5450         0.448421 C 
     29. A(C   1,C   0,H  25)          127.9980         0.356633   
     30. A(S   5,C   0,H  25)          123.4570         0.364608   
     31. A(C   2,C   1,H   3)          122.5259         0.342039   
     32. A(C   0,C   1,C   2)          115.3833         0.419822 C 
     33. A(C   0,C   1,H   3)          122.0907         0.355959   
     34. A(C   1,C   2,C   6)          123.3005         0.385174 C 
     35. A(C   1,C   2,C   4)          110.5654         0.415872 C 
     36. A(C   4,C   2,C   6)          126.1342         0.397736 C 
     37. A(C   2,C   4,H  26)          131.8954         0.353438   
     38. A(S   5,C   4,H  26)          118.0972         0.359452   
     39. A(C   2,C   4,S   5)          110.0075         0.437487 C 
     40. A(C   0,S   5,C   4)           95.4983         0.452207 C 
     41. A(C   7,C   6,H   9)          107.6411         0.321827   
     42. A(H   8,C   6,H   9)          108.3205         0.288554   
     43. A(C   2,C   6,C   7)          116.8436         0.364671 C 
     44. A(C   2,C   6,H   8)          108.0449         0.325276   
     45. A(C   7,C   6,H   8)          107.6233         0.321838   
     46. A(C   2,C   6,H   9)          108.1106         0.325264   
     47. A(C   6,C   7,C  10)          110.8092         0.361037 C 
     48. A(C   6,C   7,H  11)          109.9900         0.321826   
     49. A(C  10,C   7,H  11)          109.3594         0.322149   
     50. A(C   6,C   7,H  12)          110.0456         0.321827   
     51. A(C  10,C   7,H  12)          109.1918         0.322150   
     52. A(H  11,C   7,H  12)          107.3734         0.288544   
     53. A(C   7,C  10,H  14)          109.3254         0.322135   
     54. A(C  13,C  10,H  14)          109.3146         0.322684   
     55. A(C   7,C  10,H  15)          109.4335         0.322135   
     56. A(C  13,C  10,H  15)          109.2465         0.322684   
     57. A(C   7,C  10,C  13)          112.3368         0.362057 C 
     58. A(H  14,C  10,H  15)          107.0412         0.288519   
     59. A(C  16,C  13,H  18)          109.5517         0.322826   
     60. A(H  17,C  13,H  18)          107.2100         0.288611   
     61. A(C  10,C  13,C  16)          110.9965         0.362799 C 
     62. A(C  10,C  13,H  17)          109.6415         0.322736   
     63. A(C  16,C  13,H  17)          109.6240         0.322821   
     64. A(C  10,C  13,H  18)          109.7383         0.322741   
     65. A(C  13,C  16,H  20)          109.7495         0.322881   
     66. A(C  19,C  16,H  20)          108.9784         0.324892   
     67. A(C  13,C  16,H  21)          109.8406         0.322894   
     68. A(C  19,C  16,H  21)          108.9800         0.324905   
     69. A(C  13,C  16,C  19)          112.0299         0.365255 C 
     70. A(H  20,C  16,H  21)          107.1327         0.288721   
     71. A(C  16,C  19,H  22)          111.1134         0.325256   
     72. A(C  16,C  19,H  23)          110.1673         0.325162   
     73. A(H  22,C  19,H  23)          107.9993         0.289246   
     74. A(C  16,C  19,H  24)          111.0670         0.325251   
     75. A(H  22,C  19,H  24)          108.3995         0.289322   
     76. A(H  23,C  19,H  24)          107.9814         0.289242   
     77. D(C   2,C   1,C   0,S   5)      0.0969         0.028062 C 
     78. D(C   2,C   1,C   0,H  25)   -179.8625         0.028062   
     79. D(H   3,C   1,C   0,S   5)   -179.9827         0.028062   
     80. D(H   3,C   1,C   0,H  25)      0.0579         0.028062   
     81. D(C   4,C   2,C   1,H   3)    179.8571         0.017156   
     82. D(C   6,C   2,C   1,C   0)    179.7859         0.017156 C 
     83. D(C   4,C   2,C   1,C   0)     -0.2229         0.017156 C 
     84. D(C   6,C   2,C   1,H   3)     -0.1341         0.017156   
     85. D(H  26,C   4,C   2,C   6)      0.2202         0.025075   
     86. D(H  26,C   4,C   2,C   1)   -179.7707         0.025075   
     87. D(S   5,C   4,C   2,C   6)   -179.7710         0.025075 C 
     88. D(S   5,C   4,C   2,C   1)      0.2381         0.025075 C 
     89. D(C   4,S   5,C   0,C   1)      0.0394         0.005795 C 
     90. D(C   4,S   5,C   0,H  25)   -179.9989         0.005795   
     91. D(C   0,S   5,C   4,C   2)     -0.1660         0.005104 C 
     92. D(C   0,S   5,C   4,H  26)    179.8414         0.005104   
     93. D(C   7,C   6,C   2,C   1)     -0.2361         0.011315 C 
     94. D(C   7,C   6,C   2,C   4)    179.7741         0.011315 C 
     95. D(H   8,C   6,C   2,C   1)   -121.6860         0.011315   
     96. D(H   8,C   6,C   2,C   4)     58.3242         0.011315   
     97. D(H   9,C   6,C   2,C   1)    121.2893         0.011315   
     98. D(H   9,C   6,C   2,C   4)    -58.7005         0.011315   
     99. D(H  12,C   7,C   6,H   9)    179.9897         0.010697   
    100. D(C  10,C   7,C   6,H   9)     59.1246         0.010697   
    101. D(H  12,C   7,C   6,C   2)    -58.2392         0.010697   
    102. D(H  11,C   7,C   6,C   2)     59.8574         0.010697   
    103. D(C  10,C   7,C   6,H   8)    -57.4337         0.010697   
    104. D(H  11,C   7,C   6,H   8)   -178.4719         0.010697   
    105. D(H  11,C   7,C   6,H   9)    -61.9137         0.010697   
    106. D(C  10,C   7,C   6,C   2)   -179.1043         0.010697 C 
    107. D(H  12,C   7,C   6,H   8)     63.4314         0.010697   
    108. D(C  13,C  10,C   7,C   6)   -179.2748         0.010821 C 
    109. D(H  15,C  10,C   7,H  11)     63.6601         0.010821   
    110. D(C  13,C  10,C   7,H  12)     59.3559         0.010821   
    111. D(H  14,C  10,C   7,C   6)     59.1894         0.010821   
    112. D(H  14,C  10,C   7,H  11)   -179.4004         0.010821   
    113. D(H  14,C  10,C   7,H  12)    -62.1798         0.010821   
    114. D(C  13,C  10,C   7,H  11)    -57.8646         0.010821   
    115. D(H  15,C  10,C   7,C   6)    -57.7501         0.010821   
    116. D(H  15,C  10,C   7,H  12)   -179.1193         0.010821   
    117. D(C  16,C  13,C  10,C   7)   -178.9395         0.011034 C 
    118. D(C  16,C  13,C  10,H  14)    -57.3975         0.011034   
    119. D(C  16,C  13,C  10,H  15)     59.4290         0.011034   
    120. D(H  17,C  13,C  10,C   7)     59.7998         0.011034   
    121. D(H  17,C  13,C  10,H  14)   -178.6582         0.011034   
    122. D(H  17,C  13,C  10,H  15)    -61.8317         0.011034   
    123. D(H  18,C  13,C  10,C   7)    -57.7050         0.011034   
    124. D(H  18,C  13,C  10,H  14)     63.8369         0.011034   
    125. D(H  18,C  13,C  10,H  15)   -179.3366         0.011034   
    126. D(C  19,C  16,C  13,C  10)   -179.2892         0.011067 C 
    127. D(C  19,C  16,C  13,H  17)    -58.0183         0.011067   
    128. D(C  19,C  16,C  13,H  18)     59.3667         0.011067   
    129. D(H  20,C  16,C  13,C  10)     59.5109         0.011067   
    130. D(H  20,C  16,C  13,H  17)   -179.2181         0.011067   
    131. D(H  20,C  16,C  13,H  18)    -61.8331         0.011067   
    132. D(H  21,C  16,C  13,C  10)    -58.0243         0.011067   
    133. D(H  21,C  16,C  13,H  17)     63.2467         0.011067   
    134. D(H  21,C  16,C  13,H  18)   -179.3683         0.011067   
    135. D(H  22,C  19,C  16,C  13)    -59.9102         0.011890   
    136. D(H  22,C  19,C  16,H  20)     61.7333         0.011890   
    137. D(H  22,C  19,C  16,H  21)    178.3302         0.011890   
    138. D(H  23,C  19,C  16,C  13)   -179.5600         0.011890   
    139. D(H  23,C  19,C  16,H  20)    -57.9165         0.011890   
    140. D(H  23,C  19,C  16,H  21)     58.6804         0.011890   
    141. D(H  24,C  19,C  16,C  13)     60.8424         0.011890   
    142. D(H  24,C  19,C  16,H  20)   -177.5142         0.011890   
    143. D(H  24,C  19,C  16,H  21)    -60.9172         0.011890   
    -----------------------------------------------------------------

Number of atoms                         .... 27
Number of degrees of freedom            .... 143

         *************************************************************
         *                GEOMETRY OPTIMIZATION CYCLE   1            *
         *************************************************************
---------------------------------
CARTESIAN COORDINATES (ANGSTROEM)
---------------------------------
  C     -0.768665    1.236242   -0.001533
  C     -0.172695   -0.014218   -0.010093
  C      1.276945   -0.011758   -0.005283
  H     -0.753445   -0.928338   -0.018433
  C      1.766375    1.299552    0.002277
  S      0.454755    2.418752    0.009737
  C      2.112705   -1.279328   -0.008453
  C      1.350365   -2.612708   -0.011573
  H      2.754105   -1.265608    0.881167
  H      2.755375   -1.261778   -0.897163
  C      2.324735   -3.797688    0.007857
  H      0.714775   -2.679168   -0.903063
  H      0.693005   -2.672008    0.864497
  C      1.600665   -5.146978   -0.012593
  H      2.952825   -3.736538    0.905117
  H      2.994605   -3.733628   -0.858443
  C      2.599515   -6.306318    0.033937
  H      0.989435   -5.223618   -0.919923
  H      0.919505   -5.214798    0.844197
  C      1.905555   -7.658938   -0.002803
  H      3.202325   -6.239538    0.947287
  H      3.290145   -6.236728   -0.814643
  H      1.227625   -7.777498    0.848277
  H      2.646085   -8.464448    0.039707
  H      1.327495   -7.779668   -0.924383
  H     -1.822998    1.470293   -0.001003
  H      2.771721    1.694110    0.004175

----------------------------
CARTESIAN COORDINATES (A.U.)
----------------------------
  NO LB      ZA    FRAG     MASS         X           Y           Z
   0 C     6.0000    0    12.011   -1.452566    2.336159   -0.002897
   1 C     6.0000    0    12.011   -0.326346   -0.026868   -0.019073
   2 C     6.0000    0    12.011    2.413076   -0.022219   -0.009983
   3 H     1.0000    0     1.008   -1.423805   -1.754305   -0.034833
   4 C     6.0000    0    12.011    3.337965    2.455797    0.004303
   5 S    16.0000    0    32.060    0.859362    4.570779    0.018400
   6 C     6.0000    0    12.011    3.992434   -2.417580   -0.015974
   7 C     6.0000    0    12.011    2.551820   -4.937303   -0.021870
   8 H     1.0000    0     1.008    5.204504   -2.391653    1.665164
   9 H     1.0000    0     1.008    5.206904   -2.384415   -1.695392
  10 C     6.0000    0    12.011    4.393112   -7.176590    0.014848
  11 H     1.0000    0     1.008    1.350729   -5.062894   -1.706542
  12 H     1.0000    0     1.008    1.309590   -5.049363    1.633663
  13 C     6.0000    0    12.011    3.024818   -9.726379   -0.023797
  14 H     1.0000    0     1.008    5.580031   -7.061034    1.710423
  15 H     1.0000    0     1.008    5.658983   -7.055534   -1.622222
  16 C     6.0000    0    12.011    4.912371  -11.917214    0.064132
  17 H     1.0000    0     1.008    1.869761   -9.871207   -1.738403
  18 H     1.0000    0     1.008    1.737613   -9.854540    1.595301
  19 C     6.0000    0    12.011    3.600977  -14.473295   -0.005297
  20 H     1.0000    0     1.008    6.051517  -11.791018    1.790113
  21 H     1.0000    0     1.008    6.217473  -11.785708   -1.539452
  22 H     1.0000    0     1.008    2.319875  -14.697341    1.603011
  23 H     1.0000    0     1.008    5.000376  -15.995489    0.075035
  24 H     1.0000    0     1.008    2.508602  -14.701442   -1.746831
  25 H     1.0000    0     1.008   -3.444967    2.778451   -0.001895
  26 H     1.0000    0     1.008    5.237794    3.201404    0.007890

--------------------------------
INTERNAL COORDINATES (ANGSTROEM)
--------------------------------
 C      0   0   0     0.000000000000     0.00000000     0.00000000
 C      1   0   0     1.385245005802     0.00000000     0.00000000
 C      2   1   0     1.449650067189   115.38329903     0.00000000
 H      2   1   3     1.083030697857   122.09074737   179.92034844
 C      3   2   1     1.399690249520   110.56535180   359.77710742
 S      1   2   3     1.701532664805   108.54503436     0.09691270
 C      3   2   1     1.518301199170   123.30048120   179.78591197
 C      7   3   2     1.535927808981   116.84356029   359.76386193
 H      7   3   2     1.096816275773   108.04486763   238.31400367
 H      7   3   2     1.096876563475   108.11057385   121.28929570
 C      8   7   3     1.534259437709   110.80918300   180.89566654
 H      8   7   3     1.096880120979   109.98995425    59.85740649
 H      8   7   3     1.096876157321   110.04556665   301.76075897
 C     11   8   7     1.531430400475   112.33684221   180.72515745
 H     11   8   7     1.096955732106   109.32538533    59.18938507
 H     11   8   7     1.096952683802   109.43352274   302.24994340
 C     14  11   8     1.530991704419   110.99646426   181.06053314
 H     14  11   8     1.096687526782   109.64152983    59.79984229
 H     14  11   8     1.096662027290   109.73828777   302.29501180
 C     17  14  11     1.520694306427   112.02991769   180.71077196
 H     17  14  11     1.096379353600   109.74945202    59.51091842
 H     17  14  11     1.096312264549   109.84063698   301.97571880
 H     20  17  14     1.094523971825   111.11337477   300.08984511
 H     20  17  14     1.095006000486   110.16733368   180.44000918
 H     20  17  14     1.094549584487   111.06699519    60.84239265
 H      1   2   3     1.079999178884   127.99796590   180.13750287
 H      5   3   2     1.080000091428   131.89537606   180.22929660

---------------------------
INTERNAL COORDINATES (A.U.)
---------------------------
 C      0   0   0     0.000000000000     0.00000000     0.00000000
 C      1   0   0     2.617733689348     0.00000000     0.00000000
 C      2   1   0     2.739441617007   115.38329903     0.00000000
 H      2   1   3     2.046631413579   122.09074737   179.92034844
 C      3   2   1     2.645031243912   110.56535180   359.77710742
 S      1   2   3     3.215430744404   108.54503436     0.09691270
 C      3   2   1     2.869173455235   123.30048120   179.78591197
 C      7   3   2     2.902482920447   116.84356029   359.76386193
 H      7   3   2     2.072682380438   108.04486763   238.31400367
 H      7   3   2     2.072796307684   108.11057385   121.28929570
 C      8   7   3     2.899330155655   110.80918300   180.89566654
 H      8   7   3     2.072803030394   109.98995425    59.85740649
 H      8   7   3     2.072795540165   110.04556665   301.76075897
 C     11   8   7     2.893984050060   112.33684221   180.72515745
 H     11   8   7     2.072945914715   109.32538533    59.18938507
 H     11   8   7     2.072940154255   109.43352274   302.24994340
 C     14  11   8     2.893155034657   110.99646426   181.06053314
 H     14  11   8     2.072439080106   109.64152983    59.79984229
 H     14  11   8     2.072390893049   109.73828777   302.29501180
 C     17  14  11     2.873695772561   112.02991769   180.71077196
 H     17  14  11     2.071856717189   109.74945202    59.51091842
 H     17  14  11     2.071729937256   109.84063698   301.97571880
 H     20  17  14     2.068350553761   111.11337477   300.08984511
 H     20  17  14     2.069261455919   110.16733368   180.44000918
 H     20  17  14     2.068398954677   111.06699519    60.84239265
 H      1   2   3     2.040902672950   127.99796590   180.13750287
 H      5   3   2     2.040904397408   131.89537606   180.22929660

---------------------
BASIS SET INFORMATION
---------------------
There are 3 groups of distinct atoms

 Group   1 Type C   : 7s4p1d contracted to 3s2p1d pattern {511/31/1}
 Group   2 Type H   : 4s1p contracted to 2s1p pattern {31/1}
 Group   3 Type S   : 10s7p1d contracted to 4s3p1d pattern {5311/511/1}

Atom   0C    basis set group =>   1
Atom   1C    basis set group =>   1
Atom   2C    basis set group =>   1
Atom   3H    basis set group =>   2
Atom   4C    basis set group =>   1
Atom   5S    basis set group =>   3
Atom   6C    basis set group =>   1
Atom   7C    basis set group =>   1
Atom   8H    basis set group =>   2
Atom   9H    basis set group =>   2
Atom  10C    basis set group =>   1
Atom  11H    basis set group =>   2
Atom  12H    basis set group =>   2
Atom  13C    basis set group =>   1
Atom  14H    basis set group =>   2
Atom  15H    basis set group =>   2
Atom  16C    basis set group =>   1
Atom  17H    basis set group =>   2
Atom  18H    basis set group =>   2
Atom  19C    basis set group =>   1
Atom  20H    basis set group =>   2
Atom  21H    basis set group =>   2
Atom  22H    basis set group =>   2
Atom  23H    basis set group =>   2
Atom  24H    basis set group =>   2
Atom  25H    basis set group =>   2
Atom  26H    basis set group =>   2
---------------------------------
AUXILIARY/J BASIS SET INFORMATION
---------------------------------
There are 3 groups of distinct atoms

 Group   1 Type C   : 12s5p4d2f1g contracted to 6s4p3d1f1g pattern {711111/2111/211/2/1}
 Group   2 Type H   : 5s2p1d contracted to 3s1p1d pattern {311/2/1}
 Group   3 Type S   : 14s5p5d2f1g contracted to 8s4p3d1f1g pattern {71111111/2111/311/2/1}

Atom   0C    basis set group =>   1
Atom   1C    basis set group =>   1
Atom   2C    basis set group =>   1
Atom   3H    basis set group =>   2
Atom   4C    basis set group =>   1
Atom   5S    basis set group =>   3
Atom   6C    basis set group =>   1
Atom   7C    basis set group =>   1
Atom   8H    basis set group =>   2
Atom   9H    basis set group =>   2
Atom  10C    basis set group =>   1
Atom  11H    basis set group =>   2
Atom  12H    basis set group =>   2
Atom  13C    basis set group =>   1
Atom  14H    basis set group =>   2
Atom  15H    basis set group =>   2
Atom  16C    basis set group =>   1
Atom  17H    basis set group =>   2
Atom  18H    basis set group =>   2
Atom  19C    basis set group =>   1
Atom  20H    basis set group =>   2
Atom  21H    basis set group =>   2
Atom  22H    basis set group =>   2
Atom  23H    basis set group =>   2
Atom  24H    basis set group =>   2
Atom  25H    basis set group =>   2
Atom  26H    basis set group =>   2
------------------------------------------------------------------------------
                           ORCA GTO INTEGRAL CALCULATION
                           -- RI-GTO INTEGRALS CHOSEN --
------------------------------------------------------------------------------

                         BASIS SET STATISTICS AND STARTUP INFO

Gaussian basis set:
 # of primitive gaussian shells          ...  218
 # of primitive gaussian functions       ...  388
 # of contracted shells                  ...  116
 # of contracted basis functions         ...  238
 Highest angular momentum                ...    2
 Maximum contraction depth               ...    5
Auxiliary gaussian basis set:
 # of primitive gaussian shells          ...  395
 # of primitive gaussian functions       ... 1033
 # of contracted shells                  ...  247
 # of contracted aux-basis functions     ...  717
 Highest angular momentum                ...    4
 Maximum contraction depth               ...    7
Ratio of auxiliary to basis functions    ...  3.01
Integral package used                  ... LIBINT
 One Electron integrals                  ... done
 Ordering auxiliary basis shells         ... done
 Integral threshhold             Thresh  ...  2.500e-11
 Primitive cut-off               TCut    ...  2.500e-12
 Pre-screening matrix                    ... done
 Shell pair data                         ... 
 Ordering of the shell pairs             ... done (   0.001 sec) 5401 of 6786 pairs
 Determination of significant pairs      ... done (   0.000 sec)
 Creation of shell pair data             ... done (   0.001 sec)
 Storage of shell pair data              ... done (   0.007 sec)
 Shell pair data done in (   0.009 sec)
 Computing two index integrals           ... done
 Cholesky decomposition of the V-matrix  ... done


Timings:
 Total evaluation time                   ...   0.238 sec (  0.004 min)
 One electron matrix time                ...   0.043 sec (  0.001 min) = 18.0%
 Schwartz matrix evaluation time         ...   0.115 sec (  0.002 min) = 48.1%
 Two index repulsion integral time       ...   0.021 sec (  0.000 min) =  8.8%
 Cholesky decomposition of V             ...   0.025 sec (  0.000 min) = 10.6%
 Three index repulsion integral time     ...   0.000 sec (  0.000 min) =  0.0%

-------------------------------------------------------------------------------
                                 ORCA SCF
-------------------------------------------------------------------------------

------------
SCF SETTINGS
------------
Hamiltonian:
 Density Functional     Method          .... DFT(GTOs)
 Exchange Functional    Exchange        .... B88
   X-Alpha parameter    XAlpha          ....  0.666667
   Becke's b parameter  XBeta           ....  0.004200
 Correlation Functional Correlation     .... P86
 LDA part of GGA corr.  LDAOpt          .... PW91-LDA
 Gradients option       PostSCFGGA      .... off
   Density functional embedding theory  .... OFF
 RI-approximation to the Coulomb term is turned on
   Number of auxiliary basis functions  .... 717


General Settings:
 Integral files         IntName         .... P3HT_Input_Methylthiophene_With_Sidechain_2_Optimize_Monomer
 Hartree-Fock type      HFTyp           .... RHF
 Total Charge           Charge          ....    0
 Multiplicity           Mult            ....    1
 Number of Electrons    NEL             ....   92
 Basis Dimension        Dim             ....  238
 Nuclear Repulsion      ENuc            ....    643.1241922812 Eh

Convergence Acceleration:
 DIIS                   CNVDIIS         .... on
   Start iteration      DIISMaxIt       ....    12
   Startup error        DIISStart       ....  0.200000
   # of expansion vecs  DIISMaxEq       ....     5
   Bias factor          DIISBfac        ....   1.050
   Max. coefficient     DIISMaxC        ....  10.000
 Newton-Raphson         CNVNR           .... off
 SOSCF                  CNVSOSCF        .... on
   Start iteration      SOSCFMaxIt      ....   150
   Startup grad/error   SOSCFStart      ....  0.003300
 Level Shifting         CNVShift        .... on
   Level shift para.    LevelShift      ....    0.2500
   Turn off err/grad.   ShiftErr        ....    0.0010
 Zerner damping         CNVZerner       .... off
 Static damping         CNVDamp         .... on
   Fraction old density DampFac         ....    0.7000
   Max. Damping (<1)    DampMax         ....    0.9800
   Min. Damping (>=0)   DampMin         ....    0.0000
   Turn off err/grad.   DampErr         ....    0.1000
 Fernandez-Rico         CNVRico         .... off

SCF Procedure:
 Maximum # iterations   MaxIter         ....   125
 SCF integral mode      SCFMode         .... Direct
   Integral package                     .... LIBINT
 Reset frequency        DirectResetFreq ....    20
 Integral Threshold     Thresh          ....  2.500e-11 Eh
 Primitive CutOff       TCut            ....  2.500e-12 Eh

Convergence Tolerance:
 Convergence Check Mode ConvCheckMode   .... Total+1el-Energy
 Convergence forced     ConvForced      .... 0
 Energy Change          TolE            ....  1.000e-08 Eh
 1-El. energy change                    ....  1.000e-05 Eh
 Orbital Gradient       TolG            ....  1.000e-05
 Orbital Rotation angle TolX            ....  1.000e-05
 DIIS Error             TolErr          ....  5.000e-07


Diagonalization of the overlap matrix:
Smallest eigenvalue                        ... 7.461e-04
Time for diagonalization                   ...    0.019 sec
Threshold for overlap eigenvalues          ... 1.000e-08
Number of eigenvalues below threshold      ... 0
Time for construction of square roots      ...    0.011 sec
Total time needed                          ...    0.030 sec

-------------------
DFT GRID GENERATION
-------------------

General Integration Accuracy     IntAcc      ...  4.340
Radial Grid Type                 RadialGrid  ... Gauss-Chebyshev
Angular Grid (max. acc.)         AngularGrid ... Lebedev-194
Angular grid pruning method      GridPruning ... 3 (G Style)
Weight generation scheme         WeightScheme... Becke
Basis function cutoff            BFCut       ...    1.0000e-11
Integration weight cutoff        WCut        ...    1.0000e-14
Grids for H and He will be reduced by one unit

# of grid points (after initial pruning)     ...  60816 (   0.0 sec)
# of grid points (after weights+screening)   ...  55143 (   0.3 sec)
nearest neighbour list constructed           ...    0.0 sec
Grid point re-assignment to atoms done       ...    0.0 sec
Grid point division into batches done        ...    0.1 sec
Reduced shell lists constructed in    0.5 sec

Total number of grid points                  ...    55143
Total number of batches                      ...      876
Average number of points per batch           ...       62
Average number of grid points per atom       ...     2042
Average number of shells per batch           ...    62.91 (54.23%)
Average number of basis functions per batch  ...   122.27 (51.38%)
Average number of large shells per batch     ...    45.91 (72.98%)
Average number of large basis fcns per batch ...    88.56 (72.43%)
Maximum spatial batch extension              ...  22.06, 21.09, 21.21 au
Average spatial batch extension              ...   2.92,  2.69,  3.03 au

Time for grid setup =    0.835 sec

------------------------------
INITIAL GUESS: MODEL POTENTIAL
------------------------------
Loading Hartree-Fock densities                     ... done
Calculating cut-offs                               ... done
Setting up the integral package                    ... done
Initializing the effective Hamiltonian             ... done
Starting the Coulomb interaction                   ... done (   0.3 sec)
Reading the grid                                   ... done
Mapping shells                                     ... done
Starting the XC term evaluation                    ... done (   0.6 sec)
  promolecular density results
     # of electrons  =     91.996061209
     EX              =    -81.204300974
     EC              =     -3.420145420
     EX+EC           =    -84.624446394
Transforming the Hamiltonian                       ... done (   0.0 sec)
Diagonalizing the Hamiltonian                      ... done (   0.0 sec)
Back transforming the eigenvectors                 ... done (   0.0 sec)
Now organizing SCF variables                       ... done
                      ------------------
                      INITIAL GUESS DONE (   1.8 sec)
                      ------------------
--------------
SCF ITERATIONS
--------------
ITER       Energy         Delta-E        Max-DP      RMS-DP      [F,P]     Damp
               ***  Starting incremental Fock matrix formation  ***
  0   -788.2067311604   0.000000000000 0.07586499  0.00212055  0.1633178 0.7000
  1   -788.3605699739  -0.153838813487 0.05053449  0.00146811  0.0788097 0.7000
                               ***Turning on DIIS***
  2   -788.4101894971  -0.049619523261 0.10067789  0.00211949  0.0229345 0.0000
  3   -788.4790648546  -0.068875357470 0.03498256  0.00117039  0.0498079 0.0000
  4   -788.5069860961  -0.027921241500 0.02632364  0.00037019  0.0121783 0.0000
  5   -788.5086693946  -0.001683298527 0.00633351  0.00012373  0.0039812 0.0000
                      *** Initiating the SOSCF procedure ***
                           *** Shutting down DIIS ***
                      *** Re-Reading the Fockian *** 
                      *** Removing any level shift *** 
ITER      Energy       Delta-E        Grad      Rot      Max-DP    RMS-DP
  6   -788.50883454  -0.0001651421  0.000763  0.000763  0.002224  0.000045
               *** Restarting incremental Fock matrix formation ***
  7   -788.50884778  -0.0000132472  0.000203  0.000714  0.002032  0.000039
  8   -788.50884825  -0.0000004674  0.000293  0.001089  0.001147  0.000016
  9   -788.50885012  -0.0000018709  0.000220  0.000856  0.001099  0.000014
 10   -788.50885011   0.0000000088  0.000138  0.000263  0.000408  0.000006
 11   -788.50885055  -0.0000004353  0.000054  0.000366  0.000488  0.000006
 12   -788.50885058  -0.0000000290  0.000056  0.000129  0.000124  0.000002
 13   -788.50885062  -0.0000000467  0.000035  0.000134  0.000166  0.000003
 14   -788.50885063  -0.0000000036  0.000032  0.000056  0.000087  0.000001
 15   -788.50885065  -0.0000000258  0.000009  0.000063  0.000090  0.000001
 16   -788.50885065   0.0000000028  0.000006  0.000028  0.000048  0.000001
                  ***Gradient check signals convergence***
              ***Rediagonalizing the Fockian in SOSCF/NRSCF***

               *****************************************************
               *                     SUCCESS                       *
               *           SCF CONVERGED AFTER  17 CYCLES          *
               *****************************************************

Setting up the final grid:

General Integration Accuracy     IntAcc      ...  5.010
Radial Grid Type                 RadialGrid  ... Gauss-Chebyshev
Angular Grid (max. acc.)         AngularGrid ... Lebedev-434
Angular grid pruning method      GridPruning ... 3 (G Style)
Weight generation scheme         WeightScheme... Becke
Basis function cutoff            BFCut       ...    1.0000e-11
Integration weight cutoff        WCut        ...    1.0000e-14
Grids for H and He will be reduced by one unit

# of grid points (after initial pruning)     ... 225792 (   0.1 sec)
# of grid points (after weights+screening)   ... 201866 (   1.0 sec)
nearest neighbour list constructed           ...    0.0 sec
Grid point re-assignment to atoms done       ...    0.0 sec
Grid point division into batches done        ...    1.3 sec
Reduced shell lists constructed in    2.7 sec

Total number of grid points                  ...   201866
Total number of batches                      ...     3169
Average number of points per batch           ...       63
Average number of grid points per atom       ...     7477
Average number of shells per batch           ...    58.61 (50.52%)
Average number of basis functions per batch  ...   113.21 (47.57%)
Average number of large shells per batch     ...    42.11 (71.85%)
Average number of large basis fcns per batch ...    80.42 (71.03%)
Maximum spatial batch extension              ...  20.02, 20.62, 20.12 au
Average spatial batch extension              ...   1.90,  1.82,  1.91 au

Final grid set up in    3.9 sec
Final integration                            ... done (   2.8 sec)
Change in XC energy                          ...     0.000007721
Integrated number of electrons               ...    91.999952096
Previous integrated no of electrons          ...    92.001087002

----------------
TOTAL SCF ENERGY
----------------

Total Energy       :         -788.50884293 Eh          -21456.41644 eV

Components:
Nuclear Repulsion  :          643.12419228 Eh           17500.29897 eV
Electronic Energy  :        -1431.63303521 Eh          -38956.71541 eV
One Electron Energy:        -2350.78937537 Eh          -63968.23099 eV
Two Electron Energy:          919.15634016 Eh           25011.51558 eV

Virial components:
Potential Energy   :        -1571.11613994 Eh          -42752.24365 eV
Kinetic Energy     :          782.60729700 Eh           21295.82721 eV
Virial Ratio       :            2.00754088


DFT components:
N(Alpha)           :       45.999976048143 electrons
N(Beta)            :       45.999976048143 electrons
N(Total)           :       91.999952096286 electrons
E(X)               :      -82.486165284167 Eh       
E(C)               :       -3.419441620493 Eh       
E(XC)              :      -85.905606904659 Eh       
DFET-embed. en.    :        0.000000000000 Eh       

---------------
SCF CONVERGENCE
---------------

  Last Energy change         ...   -2.2344e-09  Tolerance :   1.0000e-08
  Last MAX-Density change    ...    6.6497e-06  Tolerance :   1.0000e-07
  Last RMS-Density change    ...    1.7375e-07  Tolerance :   5.0000e-09
  Last Orbital Gradient      ...    1.3222e-06  Tolerance :   1.0000e-05
  Last Orbital Rotation      ...    6.7332e-06  Tolerance :   1.0000e-05

             **** THE GBW FILE WAS UPDATED (P3HT_Input_Methylthiophene_With_Sidechain_2_Optimize_Monomer.gbw) ****
             **** DENSITY FILE WAS UPDATED (P3HT_Input_Methylthiophene_With_Sidechain_2_Optimize_Monomer.scfp) ****
             **** ENERGY FILE WAS UPDATED (P3HT_Input_Methylthiophene_With_Sidechain_2_Optimize_Monomer.en.tmp) ****
             **** THE GBW FILE WAS UPDATED (P3HT_Input_Methylthiophene_With_Sidechain_2_Optimize_Monomer.gbw) ****
             **** DENSITY FILE WAS UPDATED (P3HT_Input_Methylthiophene_With_Sidechain_2_Optimize_Monomer.scfp) ****
----------------
ORBITAL ENERGIES
----------------

  NO   OCC          E(Eh)            E(eV) 
   0   2.0000     -88.109615     -2397.5845 
   1   2.0000      -9.930918      -270.2340 
   2   2.0000      -9.930121      -270.2123 
   3   2.0000      -9.922905      -270.0160 
   4   2.0000      -9.916142      -269.8319 
   5   2.0000      -9.911735      -269.7120 
   6   2.0000      -9.909562      -269.6529 
   7   2.0000      -9.906715      -269.5754 
   8   2.0000      -9.905357      -269.5385 
   9   2.0000      -9.904949      -269.5274 
  10   2.0000      -9.899638      -269.3828 
  11   2.0000      -7.706823      -209.7133 
  12   2.0000      -5.733591      -156.0189 
  13   2.0000      -5.728883      -155.8908 
  14   2.0000      -5.726726      -155.8321 
  15   2.0000      -0.799187       -21.7470 
  16   2.0000      -0.734665       -19.9912 
  17   2.0000      -0.706731       -19.2311 
  18   2.0000      -0.667244       -18.1566 
  19   2.0000      -0.647918       -17.6308 
  20   2.0000      -0.622883       -16.9495 
  21   2.0000      -0.570295       -15.5185 
  22   2.0000      -0.527691       -14.3592 
  23   2.0000      -0.517185       -14.0733 
  24   2.0000      -0.500857       -13.6290 
  25   2.0000      -0.479102       -13.0370 
  26   2.0000      -0.443200       -12.0601 
  27   2.0000      -0.437552       -11.9064 
  28   2.0000      -0.408919       -11.1272 
  29   2.0000      -0.387658       -10.5487 
  30   2.0000      -0.372442       -10.1347 
  31   2.0000      -0.367778       -10.0078 
  32   2.0000      -0.364889        -9.9291 
  33   2.0000      -0.359635        -9.7862 
  34   2.0000      -0.336579        -9.1588 
  35   2.0000      -0.335155        -9.1200 
  36   2.0000      -0.325468        -8.8564 
  37   2.0000      -0.315984        -8.5984 
  38   2.0000      -0.304425        -8.2838 
  39   2.0000      -0.295086        -8.0297 
  40   2.0000      -0.292538        -7.9604 
  41   2.0000      -0.289731        -7.8840 
  42   2.0000      -0.285459        -7.7677 
  43   2.0000      -0.270458        -7.3595 
  44   2.0000      -0.215229        -5.8567 
  45   2.0000      -0.205122        -5.5817 
  46   0.0000      -0.042151        -1.1470 
  47   0.0000       0.020464         0.5568 
  48   0.0000       0.028453         0.7742 
  49   0.0000       0.037482         1.0199 
  50   0.0000       0.051510         1.4017 
  51   0.0000       0.059586         1.6214 
  52   0.0000       0.062234         1.6935 
  53   0.0000       0.063256         1.7213 
  54   0.0000       0.083007         2.2587 
  55   0.0000       0.088099         2.3973 
  56   0.0000       0.098458         2.6792 
  57   0.0000       0.102118         2.7788 
  58   0.0000       0.112496         3.0612 
  59   0.0000       0.126739         3.4488 
  60   0.0000       0.133964         3.6453 
  61   0.0000       0.136287         3.7086 
  62   0.0000       0.138956         3.7812 
  63   0.0000       0.152304         4.1444 
  64   0.0000       0.153907         4.1880 
  65   0.0000       0.160180         4.3587 
  66   0.0000       0.171121         4.6564 
  67   0.0000       0.178927         4.8689 
  68   0.0000       0.186076         5.0634 
  69   0.0000       0.208621         5.6769 
  70   0.0000       0.224084         6.0976 
  71   0.0000       0.255969         6.9653 
  72   0.0000       0.264638         7.2012 
  73   0.0000       0.294891         8.0244 
  74   0.0000       0.311501         8.4764 
  75   0.0000       0.332140         9.0380 
  76   0.0000       0.372871        10.1463 
  77   0.0000       0.382641        10.4122 
  78   0.0000       0.383519        10.4361 
  79   0.0000       0.387710        10.5501 
  80   0.0000       0.392312        10.6754 
  81   0.0000       0.395614        10.7652 
  82   0.0000       0.400574        10.9002 
  83   0.0000       0.404897        11.0178 
  84   0.0000       0.435961        11.8631 
  85   0.0000       0.453061        12.3284 
  86   0.0000       0.454295        12.3620 
  87   0.0000       0.466971        12.7069 
  88   0.0000       0.476002        12.9527 
  89   0.0000       0.482167        13.1204 
  90   0.0000       0.501460        13.6454 
  91   0.0000       0.512752        13.9527 
  92   0.0000       0.534366        14.5408 
  93   0.0000       0.543387        14.7863 
  94   0.0000       0.568130        15.4596 
  95   0.0000       0.572035        15.5659 
  96   0.0000       0.583755        15.8848 
  97   0.0000       0.586716        15.9654 
  98   0.0000       0.597622        16.2621 
  99   0.0000       0.597989        16.2721 
 100   0.0000       0.604025        16.4364 
 101   0.0000       0.605977        16.4895 
 102   0.0000       0.608576        16.5602 
 103   0.0000       0.622190        16.9306 
 104   0.0000       0.628602        17.1051 
 105   0.0000       0.631168        17.1750 
 106   0.0000       0.636944        17.3321 
 107   0.0000       0.641939        17.4681 
 108   0.0000       0.645280        17.5590 
 109   0.0000       0.649290        17.6681 
 110   0.0000       0.650527        17.7017 
 111   0.0000       0.658025        17.9058 
 112   0.0000       0.659178        17.9371 
 113   0.0000       0.663714        18.0606 
 114   0.0000       0.674069        18.3423 
 115   0.0000       0.674461        18.3530 
 116   0.0000       0.688284        18.7292 
 117   0.0000       0.690951        18.8017 
 118   0.0000       0.693707        18.8767 
 119   0.0000       0.705429        19.1957 
 120   0.0000       0.715783        19.4774 
 121   0.0000       0.722920        19.6717 
 122   0.0000       0.734666        19.9913 
 123   0.0000       0.752511        20.4769 
 124   0.0000       0.768915        20.9232 
 125   0.0000       0.810297        22.0493 
 126   0.0000       0.845317        23.0022 
 127   0.0000       0.921886        25.0858 
 128   0.0000       0.938377        25.5345 
 129   0.0000       0.945944        25.7405 
 130   0.0000       0.957618        26.0581 
 131   0.0000       0.965711        26.2783 
 132   0.0000       0.990388        26.9498 
 133   0.0000       0.997165        27.1342 
 134   0.0000       1.029233        28.0069 
 135   0.0000       1.064262        28.9600 
 136   0.0000       1.076922        29.3045 
 137   0.0000       1.087392        29.5894 
 138   0.0000       1.110008        30.2049 
 139   0.0000       1.140609        31.0375 
 140   0.0000       1.177185        32.0328 
 141   0.0000       1.206080        32.8191 
 142   0.0000       1.208224        32.8774 
 143   0.0000       1.248773        33.9808 
 144   0.0000       1.258921        34.2570 
 145   0.0000       1.275663        34.7126 
 146   0.0000       1.297214        35.2990 
 147   0.0000       1.317464        35.8500 
 148   0.0000       1.324054        36.0293 
 149   0.0000       1.339649        36.4537 
 150   0.0000       1.382546        37.6210 
 151   0.0000       1.410514        38.3820 
 152   0.0000       1.473780        40.1036 
 153   0.0000       1.498890        40.7869 
 154   0.0000       1.535821        41.7918 
 155   0.0000       1.546090        42.0713 
 156   0.0000       1.595526        43.4165 
 157   0.0000       1.615745        43.9667 
 158   0.0000       1.630526        44.3689 
 159   0.0000       1.638419        44.5837 
 160   0.0000       1.672895        45.5218 
 161   0.0000       1.679995        45.7150 
 162   0.0000       1.688038        45.9338 
 163   0.0000       1.702440        46.3258 
 164   0.0000       1.703577        46.3567 
 165   0.0000       1.712219        46.5918 
 166   0.0000       1.720049        46.8049 
 167   0.0000       1.721623        46.8477 
 168   0.0000       1.727729        47.0139 
 169   0.0000       1.736784        47.2603 
 170   0.0000       1.740584        47.3637 
 171   0.0000       1.747677        47.5567 
 172   0.0000       1.771308        48.1997 
 173   0.0000       1.774856        48.2963 
 174   0.0000       1.777263        48.3618 
 175   0.0000       1.785347        48.5818 
 176   0.0000       1.796010        48.8719 
 177   0.0000       1.830861        49.8203 
 178   0.0000       1.845862        50.2285 
 179   0.0000       1.847049        50.2608 
 180   0.0000       1.858280        50.5664 
 181   0.0000       1.864598        50.7383 
 182   0.0000       1.865689        50.7680 
 183   0.0000       1.891834        51.4794 
 184   0.0000       1.906554        51.8800 
 185   0.0000       1.924897        52.3791 
 186   0.0000       1.931619        52.5620 
 187   0.0000       1.934247        52.6335 
 188   0.0000       1.958336        53.2890 
 189   0.0000       1.980691        53.8973 
 190   0.0000       1.984690        54.0062 
 191   0.0000       1.999075        54.3976 
 192   0.0000       2.030406        55.2502 
 193   0.0000       2.062974        56.1364 
 194   0.0000       2.079478        56.5855 
 195   0.0000       2.083560        56.6966 
 196   0.0000       2.151651        58.5494 
 197   0.0000       2.165557        58.9278 
 198   0.0000       2.199506        59.8516 
 199   0.0000       2.244696        61.0813 
 200   0.0000       2.255983        61.3884 
 201   0.0000       2.291999        62.3685 
 202   0.0000       2.294233        62.4293 
 203   0.0000       2.315615        63.0111 
 204   0.0000       2.319598        63.1195 
 205   0.0000       2.339030        63.6482 
 206   0.0000       2.355896        64.1072 
 207   0.0000       2.376966        64.6805 
 208   0.0000       2.382468        64.8303 
 209   0.0000       2.402477        65.3747 
 210   0.0000       2.410578        65.5952 
 211   0.0000       2.444956        66.5306 
 212   0.0000       2.450976        66.6944 
 213   0.0000       2.500328        68.0374 
 214   0.0000       2.509701        68.2924 
 215   0.0000       2.528952        68.8163 
 216   0.0000       2.530980        68.8715 
 217   0.0000       2.560434        69.6730 
 218   0.0000       2.583882        70.3110 
 219   0.0000       2.606775        70.9340 
 220   0.0000       2.619675        71.2850 
 221   0.0000       2.667975        72.5993 
 222   0.0000       2.726359        74.1880 
 223   0.0000       2.755309        74.9758 
 224   0.0000       2.761630        75.1478 
 225   0.0000       2.797104        76.1131 
 226   0.0000       2.832993        77.0897 
 227   0.0000       2.835567        77.1597 
 228   0.0000       2.865494        77.9740 
 229   0.0000       2.917928        79.4009 
 230   0.0000       2.922179        79.5165 
 231   0.0000       2.971460        80.8575 
 232   0.0000       2.980345        81.0993 
 233   0.0000       3.000098        81.6368 
 234   0.0000       3.014596        82.0313 
 235   0.0000       3.020106        82.1813 
 236   0.0000       3.027654        82.3866 
 237   0.0000       3.240891        88.1891 

                    ********************************
                    * MULLIKEN POPULATION ANALYSIS *
                    ********************************

-----------------------
MULLIKEN ATOMIC CHARGES
-----------------------
   0 C :   -0.092356
   1 C :   -0.005863
   2 C :   -0.036770
   3 H :   -0.006135
   4 C :   -0.146682
   5 S :    0.086112
   6 C :    0.090668
   7 C :   -0.056096
   8 H :    0.023766
   9 H :    0.024249
  10 C :   -0.016367
  11 H :    0.019181
  12 H :    0.019684
  13 C :   -0.020941
  14 H :    0.006671
  15 H :    0.006758
  16 C :   -0.051446
  17 H :    0.007412
  18 H :    0.007428
  19 C :   -0.018113
  20 H :    0.013464
  21 H :    0.013525
  22 H :    0.020651
  23 H :    0.021824
  24 H :    0.020802
  25 H :    0.038424
  26 H :    0.030150
Sum of atomic charges:    0.0000000

--------------------------------
MULLIKEN REDUCED ORBITAL CHARGES
--------------------------------
  0 C s       :     3.167833  s :     3.167833
      pz      :     1.123201  p :     2.891331
      px      :     0.848144
      py      :     0.919985
      dz2     :     0.002844  d :     0.033192
      dxz     :     0.002983
      dyz     :     0.006743
      dx2y2   :     0.008241
      dxy     :     0.012381
  1 C s       :     3.206545  s :     3.206545
      pz      :     1.035470  p :     2.767533
      px      :     0.936836
      py      :     0.795227
      dz2     :     0.002524  d :     0.031786
      dxz     :     0.005122
      dyz     :     0.004014
      dx2y2   :     0.009577
      dxy     :     0.010548
  2 C s       :     3.092411  s :     3.092411
      pz      :     1.012210  p :     2.905042
      px      :     0.961352
      py      :     0.931480
      dz2     :     0.002788  d :     0.039318
      dxz     :     0.006308
      dyz     :     0.006898
      dx2y2   :     0.012564
      dxy     :     0.010760
  3 H s       :     0.982904  s :     0.982904
      pz      :     0.005798  p :     0.023231
      px      :     0.006551
      py      :     0.010881
  4 C s       :     3.234880  s :     3.234880
      pz      :     1.144808  p :     2.880224
      px      :     0.816313
      py      :     0.919103
      dz2     :     0.002878  d :     0.031579
      dxz     :     0.002763
      dyz     :     0.006104
      dx2y2   :     0.006962
      dxy     :     0.012871
  5 S s       :     5.843521  s :     5.843521
      pz      :     3.611006  p :     9.950064
      px      :     2.986285
      py      :     3.352772
      dz2     :     0.012334  d :     0.120304
      dxz     :     0.029157
      dyz     :     0.012444
      dx2y2   :     0.020500
      dxy     :     0.045868
  6 C s       :     2.914080  s :     2.914080
      pz      :     0.999358  p :     2.962049
      px      :     1.041822
      py      :     0.920869
      dz2     :     0.004980  d :     0.033203
      dxz     :     0.009650
      dyz     :     0.004468
      dx2y2   :     0.006518
      dxy     :     0.007587
  7 C s       :     3.025844  s :     3.025844
      pz      :     1.007666  p :     2.996412
      px      :     1.023449
      py      :     0.965298
      dz2     :     0.004781  d :     0.033840
      dxz     :     0.010732
      dyz     :     0.003885
      dx2y2   :     0.006461
      dxy     :     0.007982
  8 H s       :     0.953712  s :     0.953712
      pz      :     0.010361  p :     0.022522
      px      :     0.007485
      py      :     0.004675
  9 H s       :     0.953236  s :     0.953236
      pz      :     0.010348  p :     0.022515
      px      :     0.007495
      py      :     0.004672
 10 C s       :     3.012767  s :     3.012767
      pz      :     1.003672  p :     2.969634
      px      :     1.014493
      py      :     0.951469
      dz2     :     0.004717  d :     0.033966
      dxz     :     0.010745
      dyz     :     0.003921
      dx2y2   :     0.006627
      dxy     :     0.007956
 11 H s       :     0.958951  s :     0.958951
      pz      :     0.010305  p :     0.021868
      px      :     0.007192
      py      :     0.004370
 12 H s       :     0.958440  s :     0.958440
      pz      :     0.010136  p :     0.021876
      px      :     0.007374
      py      :     0.004366
 13 C s       :     3.018516  s :     3.018516
      pz      :     1.000090  p :     2.968455
      px      :     1.010808
      py      :     0.957557
      dz2     :     0.004752  d :     0.033970
      dxz     :     0.010714
      dyz     :     0.003878
      dx2y2   :     0.006634
      dxy     :     0.007991
 14 H s       :     0.971296  s :     0.971296
      pz      :     0.010456  p :     0.022033
      px      :     0.007178
      py      :     0.004399
 15 H s       :     0.971210  s :     0.971210
      pz      :     0.010119  p :     0.022032
      px      :     0.007511
      py      :     0.004402
 16 C s       :     3.029353  s :     3.029353
      pz      :     1.007362  p :     2.987119
      px      :     1.012176
      py      :     0.967582
      dz2     :     0.004972  d :     0.034973
      dxz     :     0.010592
      dyz     :     0.004015
      dx2y2   :     0.007210
      dxy     :     0.008185
 17 H s       :     0.970675  s :     0.970675
      pz      :     0.010522  p :     0.021913
      px      :     0.007059
      py      :     0.004332
 18 H s       :     0.970658  s :     0.970658
      pz      :     0.009973  p :     0.021913
      px      :     0.007619
      py      :     0.004322
 19 C s       :     2.988501  s :     2.988501
      pz      :     1.014571  p :     3.002749
      px      :     0.998848
      py      :     0.989330
      dz2     :     0.004793  d :     0.026863
      dxz     :     0.008065
      dyz     :     0.002596
      dx2y2   :     0.003823
      dxy     :     0.007586
 20 H s       :     0.964679  s :     0.964679
      pz      :     0.010494  p :     0.021857
      px      :     0.006975
      py      :     0.004388
 21 H s       :     0.964619  s :     0.964619
      pz      :     0.009792  p :     0.021856
      px      :     0.007676
      py      :     0.004388
 22 H s       :     0.956423  s :     0.956423
      pz      :     0.009920  p :     0.022926
      px      :     0.008161
      py      :     0.004846
 23 H s       :     0.955463  s :     0.955463
      pz      :     0.005439  p :     0.022712
      px      :     0.008477
      py      :     0.008796
 24 H s       :     0.956290  s :     0.956290
      pz      :     0.010683  p :     0.022908
      px      :     0.007375
      py      :     0.004850
 25 H s       :     0.938276  s :     0.938276
      pz      :     0.005997  p :     0.023300
      px      :     0.013452
      py      :     0.003850
 26 H s       :     0.946532  s :     0.946532
      pz      :     0.006224  p :     0.023318
      px      :     0.012347
      py      :     0.004748


                     *******************************
                     * LOEWDIN POPULATION ANALYSIS *
                     *******************************

----------------------
LOEWDIN ATOMIC CHARGES
----------------------
   0 C :   -0.214849
   1 C :   -0.080117
   2 C :   -0.064424
   3 H :    0.026284
   4 C :   -0.215286
   5 S :    0.442007
   6 C :   -0.035352
   7 C :   -0.040516
   8 H :    0.035463
   9 H :    0.035561
  10 C :   -0.039197
  11 H :    0.023460
  12 H :    0.023507
  13 C :   -0.041158
  14 H :    0.021860
  15 H :    0.021850
  16 C :   -0.046888
  17 H :    0.021513
  18 H :    0.021510
  19 C :   -0.068720
  20 H :    0.022499
  21 H :    0.022501
  22 H :    0.024101
  23 H :    0.026155
  24 H :    0.024114
  25 H :    0.029716
  26 H :    0.024405

-------------------------------
LOEWDIN REDUCED ORBITAL CHARGES
-------------------------------
  0 C s       :     2.931571  s :     2.931571
      pz      :     1.111471  p :     3.200888
      px      :     1.035483
      py      :     1.053934
      dz2     :     0.006073  d :     0.082390
      dxz     :     0.004852
      dyz     :     0.014593
      dx2y2   :     0.022716
      dxy     :     0.034154
  1 C s       :     2.878164  s :     2.878164
      pz      :     1.029656  p :     3.115036
      px      :     1.033316
      py      :     1.052063
      dz2     :     0.006191  d :     0.086917
      dxz     :     0.010751
      dyz     :     0.008164
      dx2y2   :     0.031679
      dxy     :     0.030131
  2 C s       :     2.874741  s :     2.874741
      pz      :     0.993555  p :     3.087446
      px      :     1.046082
      py      :     1.047809
      dz2     :     0.006934  d :     0.102238
      dxz     :     0.012057
      dyz     :     0.013409
      dx2y2   :     0.039356
      dxy     :     0.030482
  3 H s       :     0.902334  s :     0.902334
      pz      :     0.016714  p :     0.071382
      px      :     0.020681
      py      :     0.033987
  4 C s       :     2.938706  s :     2.938706
      pz      :     1.136608  p :     3.197722
      px      :     1.020541
      py      :     1.040572
      dz2     :     0.005948  d :     0.078858
      dxz     :     0.004580
      dyz     :     0.013052
      dx2y2   :     0.020279
      dxy     :     0.035000
  5 S s       :     5.489803  s :     5.489803
      pz      :     3.561796  p :     9.919789
      px      :     2.978497
      py      :     3.379496
      dz2     :     0.015861  d :     0.148402
      dxz     :     0.035722
      dyz     :     0.011653
      dx2y2   :     0.022444
      dxy     :     0.062722
  6 C s       :     2.835541  s :     2.835541
      pz      :     1.063632  p :     3.113489
      px      :     1.046945
      py      :     1.002912
      dz2     :     0.014879  d :     0.086322
      dxz     :     0.024652
      dyz     :     0.007997
      dx2y2   :     0.016261
      dxy     :     0.022533
  7 C s       :     2.842561  s :     2.842561
      pz      :     1.065535  p :     3.112313
      px      :     1.042781
      py      :     1.003996
      dz2     :     0.014267  d :     0.085642
      dxz     :     0.026563
      dyz     :     0.006746
      dx2y2   :     0.015380
      dxy     :     0.022685
  8 H s       :     0.897549  s :     0.897549
      pz      :     0.030756  p :     0.066988
      px      :     0.023052
      py      :     0.013180
  9 H s       :     0.897471  s :     0.897471
      pz      :     0.030698  p :     0.066968
      px      :     0.023079
      py      :     0.013191
 10 C s       :     2.841984  s :     2.841984
      pz      :     1.063656  p :     3.110714
      px      :     1.039558
      py      :     1.007500
      dz2     :     0.014348  d :     0.086499
      dxz     :     0.026386
      dyz     :     0.006826
      dx2y2   :     0.016040
      dxy     :     0.022899
 11 H s       :     0.909862  s :     0.909862
      pz      :     0.030675  p :     0.066678
      px      :     0.022600
      py      :     0.013403
 12 H s       :     0.909795  s :     0.909795
      pz      :     0.030062  p :     0.066698
      px      :     0.023252
      py      :     0.013383
 13 C s       :     2.842891  s :     2.842891
      pz      :     1.062946  p :     3.111769
      px      :     1.040008
      py      :     1.008815
      dz2     :     0.014420  d :     0.086497
      dxz     :     0.026391
      dyz     :     0.006826
      dx2y2   :     0.015928
      dxy     :     0.022932
 14 H s       :     0.911907  s :     0.911907
      pz      :     0.030514  p :     0.066233
      px      :     0.022387
      py      :     0.013333
 15 H s       :     0.911912  s :     0.911912
      pz      :     0.029276  p :     0.066238
      px      :     0.023604
      py      :     0.013357
 16 C s       :     2.839549  s :     2.839549
      pz      :     1.062732  p :     3.119277
      px      :     1.042028
      py      :     1.014517
      dz2     :     0.014743  d :     0.088062
      dxz     :     0.026261
      dyz     :     0.007176
      dx2y2   :     0.016585
      dxy     :     0.023297
 17 H s       :     0.912319  s :     0.912319
      pz      :     0.030907  p :     0.066169
      px      :     0.021819
      py      :     0.013443
 18 H s       :     0.912309  s :     0.912309
      pz      :     0.028907  p :     0.066181
      px      :     0.023860
      py      :     0.013415
 19 C s       :     2.839823  s :     2.839823
      pz      :     1.067450  p :     3.158424
      px      :     1.058615
      py      :     1.032359
      dz2     :     0.013937  d :     0.070473
      dxz     :     0.020885
      dyz     :     0.004805
      dx2y2   :     0.010022
      dxy     :     0.020825
 20 H s       :     0.911670  s :     0.911670
      pz      :     0.031050  p :     0.065830
      px      :     0.021313
      py      :     0.013467
 21 H s       :     0.911646  s :     0.911646
      pz      :     0.028547  p :     0.065853
      px      :     0.023832
      py      :     0.013474
 22 H s       :     0.910298  s :     0.910298
      pz      :     0.028721  p :     0.065600
      px      :     0.023291
      py      :     0.013589
 23 H s       :     0.908095  s :     0.908095
      pz      :     0.012886  p :     0.065750
      px      :     0.024923
      py      :     0.027941
 24 H s       :     0.910304  s :     0.910304
      pz      :     0.031495  p :     0.065582
      px      :     0.020488
      py      :     0.013599
 25 H s       :     0.894990  s :     0.894990
      pz      :     0.018454  p :     0.075294
      px      :     0.044104
      py      :     0.012736
 26 H s       :     0.899488  s :     0.899488
      pz      :     0.019302  p :     0.076107
      px      :     0.041635
      py      :     0.015171


                      *****************************
                      * MAYER POPULATION ANALYSIS *
                      *****************************

  NA   - Mulliken gross atomic population
  ZA   - Total nuclear charge
  QA   - Mulliken gross atomic charge
  VA   - Mayer's total valence
  BVA  - Mayer's bonded valence
  FA   - Mayer's free valence

  ATOM       NA         ZA         QA         VA         BVA        FA
  0 C      6.0924     6.0000    -0.0924     3.7660     3.7660    -0.0000
  1 C      6.0059     6.0000    -0.0059     3.9289     3.9289    -0.0000
  2 C      6.0368     6.0000    -0.0368     3.9999     3.9999     0.0000
  3 H      1.0061     1.0000    -0.0061     0.9980     0.9980    -0.0000
  4 C      6.1467     6.0000    -0.1467     3.7790     3.7790     0.0000
  5 S     15.9139    16.0000     0.0861     2.5838     2.5838    -0.0000
  6 C      5.9093     6.0000     0.0907     3.9772     3.9772     0.0000
  7 C      6.0561     6.0000    -0.0561     4.1445     4.1445     0.0000
  8 H      0.9762     1.0000     0.0238     0.9873     0.9873     0.0000
  9 H      0.9758     1.0000     0.0242     0.9869     0.9869     0.0000
 10 C      6.0164     6.0000    -0.0164     4.0865     4.0865    -0.0000
 11 H      0.9808     1.0000     0.0192     0.9793     0.9793     0.0000
 12 H      0.9803     1.0000     0.0197     0.9794     0.9794     0.0000
 13 C      6.0209     6.0000    -0.0209     4.0809     4.0809    -0.0000
 14 H      0.9933     1.0000     0.0067     0.9865     0.9865    -0.0000
 15 H      0.9932     1.0000     0.0068     0.9862     0.9862     0.0000
 16 C      6.0514     6.0000    -0.0514     4.1378     4.1378     0.0000
 17 H      0.9926     1.0000     0.0074     0.9851     0.9851    -0.0000
 18 H      0.9926     1.0000     0.0074     0.9851     0.9851    -0.0000
 19 C      6.0181     6.0000    -0.0181     4.0182     4.0182     0.0000
 20 H      0.9865     1.0000     0.0135     0.9782     0.9782     0.0000
 21 H      0.9865     1.0000     0.0135     0.9784     0.9784     0.0000
 22 H      0.9793     1.0000     0.0207     0.9902     0.9902     0.0000
 23 H      0.9782     1.0000     0.0218     0.9834     0.9834    -0.0000
 24 H      0.9792     1.0000     0.0208     0.9900     0.9900     0.0000
 25 H      0.9616     1.0000     0.0384     0.9943     0.9943    -0.0000
 26 H      0.9699     1.0000     0.0301     1.0004     1.0004     0.0000

  Mayer bond orders larger than 0.100000
B(  0-C ,  1-C ) :   1.4879 B(  0-C ,  4-C ) :   0.1075 B(  0-C ,  5-S ) :   1.1958 
B(  0-C , 25-H ) :   0.9621 B(  1-C ,  2-C ) :   1.3302 B(  1-C ,  3-H ) :   0.9781 
B(  2-C ,  4-C ) :   1.4955 B(  2-C ,  6-C ) :   1.0248 B(  4-C ,  5-S ) :   1.1712 
B(  4-C , 26-H ) :   0.9753 B(  6-C ,  7-C ) :   1.1197 B(  6-C ,  8-H ) :   0.9140 
B(  6-C ,  9-H ) :   0.9137 B(  7-C , 10-C ) :   1.0896 B(  7-C , 11-H ) :   0.9268 
B(  7-C , 12-H ) :   0.9270 B( 10-C , 13-C ) :   1.0879 B( 10-C , 14-H ) :   0.9325 
B( 10-C , 15-H ) :   0.9326 B( 13-C , 16-C ) :   1.0947 B( 13-C , 17-H ) :   0.9353 
B( 13-C , 18-H ) :   0.9352 B( 16-C , 19-C ) :   1.1167 B( 16-C , 20-H ) :   0.9389 
B( 16-C , 21-H ) :   0.9391 B( 19-C , 22-H ) :   0.9655 B( 19-C , 23-H ) :   0.9600 
B( 19-C , 24-H ) :   0.9656 

-------
TIMINGS
-------

Total SCF time: 0 days 0 hours 0 min 33 sec 

Total time                  ....      33.807 sec
Sum of individual times     ....      33.189 sec  ( 98.2%)

Fock matrix formation       ....      27.179 sec  ( 80.4%)
  Split-RI-J                ....       9.862 sec  ( 36.3% of F)
  XC integration            ....      16.415 sec  ( 60.4% of F)
    Basis function eval.    ....       5.973 sec  ( 36.4% of XC)
    Density eval.           ....       3.578 sec  ( 21.8% of XC)
    XC-Functional eval.     ....       1.571 sec  (  9.6% of XC)
    XC-Potential eval.      ....       3.922 sec  ( 23.9% of XC)
Diagonalization             ....       0.072 sec  (  0.2%)
Density matrix formation    ....       0.020 sec  (  0.1%)
Population analysis         ....       0.027 sec  (  0.1%)
Initial guess               ....       0.999 sec  (  3.0%)
Orbital Transformation      ....       0.000 sec  (  0.0%)
Orbital Orthonormalization  ....       0.000 sec  (  0.0%)
DIIS solution               ....       0.066 sec  (  0.2%)
SOSCF solution              ....       0.079 sec  (  0.2%)
Grid generation             ....       4.747 sec  ( 14.0%)


-------------------------------------------------------------------------------
                          DFT DISPERSION CORRECTION                            
                                                                               
                              DFTD3 V3.1  Rev 1                                
                          USING Becke-Johnson damping                          
-------------------------------------------------------------------------------
The BP86 functional is recognized
Active option DFTDOPT                   ...         4   

molecular C6(AA) [au] = 7164.230620 


            DFT-D V3
 parameters
 s6 scaling factor         :     1.0000 
 a1 scaling factor         :     0.3946 
 s8 scaling factor         :     3.2822 
 a2 scaling factor         :     4.8516 
 ad hoc parameters k1-k3   :    16.0000     1.3333    -4.0000 

 Edisp/kcal,au: -25.717232950185  -0.040983015030 
 E6   /kcal   :  -9.894262664 
 E8   /kcal   : -15.822970286 
 % E8         :  61.526721467 

-------------------------   ----------------
Dispersion correction           -0.040983015
-------------------------   ----------------


-------------------------   --------------------
FINAL SINGLE POINT ENERGY      -788.549825947320
-------------------------   --------------------

------------------------------------------------------------------------------
                         ORCA SCF GRADIENT CALCULATION
------------------------------------------------------------------------------

Gradient of the Kohn-Sham DFT energy:
Kohn-Sham wavefunction type      ... RKS
Hartree-Fock exchange scaling    ...    0.000
Number of operators              ...    1
Number of atoms                  ...   27
Basis set dimensions             ...  238
Integral neglect threshold       ... 2.5e-11
Integral primitive cutoff        ... 2.5e-12

Nuclear repulsion gradient       ... done
One Electron Gradient            ... done
Pre-screening matrix             ... done
RI-J gradient                    ... done
Exchange-correlation gradient    ... done
Dispersion correction            ... done

------------------
CARTESIAN GRADIENT
------------------

   1   C   :   -0.018145203    0.017658279    0.000122516
   2   C   :   -0.008616812    0.001021608   -0.000250318
   3   C   :    0.010894109   -0.001801803    0.000340082
   4   H   :    0.005557479    0.009383596    0.000053091
   5   C   :    0.022218279    0.014470813   -0.000076986
   6   S   :   -0.005274378   -0.030247356   -0.000057048
   7   C   :    0.013220944   -0.004306495    0.000012812
   8   C   :   -0.014884291   -0.005146352   -0.000230434
   9   H   :   -0.009100360   -0.000628349   -0.005399621
  10   H   :   -0.009112155   -0.000611617    0.005333089
  11   C   :    0.019978534   -0.000586308    0.000545071
  12   H   :    0.006408642    0.000442849    0.006997659
  13   H   :    0.006566025    0.000271870   -0.006811962
  14   C   :   -0.020831894   -0.003175608   -0.000729123
  15   H   :   -0.006635872   -0.000711885   -0.007389449
  16   H   :   -0.006989683   -0.000786956    0.007050448
  17   C   :    0.015571829    0.003234518    0.000633356
  18   H   :    0.006560279    0.000848629    0.007703551
  19   H   :    0.007111051    0.000721853   -0.007206348
  20   C   :   -0.007168149   -0.002006669   -0.000281326
  21   H   :   -0.006641607   -0.002530571   -0.007536850
  22   H   :   -0.007321001   -0.002575277    0.006904269
  23   H   :    0.006821937    0.001903849   -0.007014821
  24   H   :   -0.004223062    0.008979762   -0.000257131
  25   H   :    0.006060384    0.001932360    0.007665125
  26   H   :    0.010089431   -0.004850309    0.000002089
  27   H   :   -0.012114457   -0.000904433   -0.000121742

Difference to translation invariance:
           :   -0.0000000000   -0.0000000000   -0.0000000000

Norm of the cartesian gradient     ...    0.0761023632
RMS gradient                       ...    0.0084558181
MAX gradient                       ...    0.0302473556

-------
TIMINGS
-------

Total SCF gradient time            ...       16.489 sec

One electron gradient       ....       0.272 sec  (  1.6%)
Prescreening matrices       ....       0.117 sec  (  0.7%)
RI-J Coulomb gradient       ....       2.290 sec  ( 13.9%)
XC gradient                 ....      13.620 sec  ( 82.6%)
------------------------------------------------------------------------------
                         ORCA GEOMETRY RELAXATION STEP
------------------------------------------------------------------------------

Reading the OPT-File                    .... done
Getting information on internals        .... done
Copying old internal coords+grads       .... done
Making the new internal coordinates     .... (new redundants).... done
Validating the new internal coordinates .... (new redundants).... done
Calculating the B-matrix                .... done
Calculating the G,G- and P matrices     .... done
Transforming gradient to internals      .... done
Projecting the internal gradient        .... done
Number of atoms                         ....  27
Number of internal coordinates          .... 143
Current Energy                          ....  -788.549825947 Eh
Current gradient norm                   ....     0.076102363 Eh/bohr
Maximum allowed component of the step   ....  0.300
Current trust radius                    ....  0.300
Evaluating the initial hessian          ....  (Almloef) done
Projecting the Hessian                  .... done
Forming the augmented Hessian           .... done
Diagonalizing the augmented Hessian     .... done
Last element of RFO vector              ....  0.992158333
Lowest eigenvalues of augmented Hessian:
 -0.005034817  0.011889841  0.019196638  0.019832560  0.023417419
Length of the computed step             ....  0.125975222
The final length of the internal step   ....  0.125975222
Converting the step to cartesian space:
 Initial RMS(Int)=    0.0105345773
Transforming coordinates:
 Iter   0:  RMS(Cart)=    0.0139690204 RMS(Int)=    0.5255021885
 Iter   1:  RMS(Cart)=    0.0000913482 RMS(Int)=    0.0000659957
 Iter   2:  RMS(Cart)=    0.0000012133 RMS(Int)=    0.0000008486
 Iter   3:  RMS(Cart)=    0.0000000132 RMS(Int)=    0.0000000090
Imposing constraints:
 Iter   0:  RMS(Cart)=    0.0000179166 RMS(Int)=    0.0000012216
 Iter   1:  RMS(Cart)=    0.0000051877 RMS(Int)=    0.0000003851
 Iter   2:  RMS(Cart)=    0.0000015049 RMS(Int)=    0.0000001412
 Iter   3:  RMS(Cart)=    0.0000004380 RMS(Int)=    0.0000000645
 Iter   4:  RMS(Cart)=    0.0000001291 RMS(Int)=    0.0000000347
 Iter   5:  RMS(Cart)=    0.0000000398 RMS(Int)=    0.0000000200
CONVERGED
done
[...]
      pz      :     0.005547  p :     0.022539
      px      :     0.006323
      py      :     0.010669
  4 C s       :     3.232677  s :     3.232677
      pz      :     1.143485  p :     2.884294
      px      :     0.818039
      py      :     0.922770
      dz2     :     0.002858  d :     0.031425
      dxz     :     0.002786
      dyz     :     0.006115
      dx2y2   :     0.007200
      dxy     :     0.012465
  5 S s       :     5.843785  s :     5.843785
      pz      :     3.611126  p :     9.947967
      px      :     2.984645
      py      :     3.352196
      dz2     :     0.012352  d :     0.120404
      dxz     :     0.029194
      dyz     :     0.012479
      dx2y2   :     0.020477
      dxy     :     0.045902
  6 C s       :     2.939475  s :     2.939475
      pz      :     1.006803  p :     2.959542
      px      :     1.028463
      py      :     0.924276
      dz2     :     0.004502  d :     0.032814
      dxz     :     0.009640
      dyz     :     0.004463
      dx2y2   :     0.006623
      dxy     :     0.007586
  7 C s       :     3.038616  s :     3.038616
      pz      :     1.006767  p :     2.985755
      px      :     1.017033
      py      :     0.961955
      dz2     :     0.004629  d :     0.033294
      dxz     :     0.010422
      dyz     :     0.003855
      dx2y2   :     0.006425
      dxy     :     0.007964
  8 H s       :     0.952608  s :     0.952608
      pz      :     0.010102  p :     0.021797
      px      :     0.007397
      py      :     0.004298
  9 H s       :     0.952075  s :     0.952075
      pz      :     0.010081  p :     0.021792
      px      :     0.007418
      py      :     0.004292
 10 C s       :     3.029660  s :     3.029660
      pz      :     1.004123  p :     2.964503
      px      :     1.008972
      py      :     0.951407
      dz2     :     0.004554  d :     0.033443
      dxz     :     0.010408
      dyz     :     0.003908
      dx2y2   :     0.006602
      dxy     :     0.007972
 11 H s       :     0.954616  s :     0.954616
      pz      :     0.010036  p :     0.021175
      px      :     0.007018
      py      :     0.004121
 12 H s       :     0.954128  s :     0.954128
      pz      :     0.009866  p :     0.021189
      px      :     0.007204
      py      :     0.004119
 13 C s       :     3.036998  s :     3.036998
      pz      :     1.001730  p :     2.963171
      px      :     1.004957
      py      :     0.956485
      dz2     :     0.004591  d :     0.033524
      dxz     :     0.010445
      dyz     :     0.003873
      dx2y2   :     0.006590
      dxy     :     0.008024
 14 H s       :     0.967173  s :     0.967173
      pz      :     0.010162  p :     0.021288
      px      :     0.006988
      py      :     0.004138
 15 H s       :     0.967077  s :     0.967077
      pz      :     0.009821  p :     0.021286
      px      :     0.007326
      py      :     0.004139
 16 C s       :     3.042559  s :     3.042559
      pz      :     1.008789  p :     2.976016
      px      :     1.004321
      py      :     0.962906
      dz2     :     0.004743  d :     0.034327
      dxz     :     0.010221
      dyz     :     0.004065
      dx2y2   :     0.007083
      dxy     :     0.008217
 17 H s       :     0.966451  s :     0.966451
      pz      :     0.010201  p :     0.021125
      px      :     0.006865
      py      :     0.004059
 18 H s       :     0.966501  s :     0.966501
      pz      :     0.009659  p :     0.021129
      px      :     0.007417
      py      :     0.004053
 19 C s       :     3.013082  s :     3.013082
      pz      :     1.014084  p :     2.994726
      px      :     0.998109
      py      :     0.982532
      dz2     :     0.004482  d :     0.026076
      dxz     :     0.007837
      dyz     :     0.002524
      dx2y2   :     0.003988
      dxy     :     0.007244
 20 H s       :     0.961332  s :     0.961332
      pz      :     0.010196  p :     0.021130
      px      :     0.006820
      py      :     0.004114
 21 H s       :     0.961376  s :     0.961376
      pz      :     0.009514  p :     0.021132
      px      :     0.007497
      py      :     0.004121
 22 H s       :     0.953554  s :     0.953554
      pz      :     0.009628  p :     0.022165
      px      :     0.007935
      py      :     0.004601
 23 H s       :     0.951191  s :     0.951191
      pz      :     0.005270  p :     0.021899
      px      :     0.007912
      py      :     0.008717
 24 H s       :     0.953500  s :     0.953500
      pz      :     0.010319  p :     0.022149
      px      :     0.007238
      py      :     0.004592
 25 H s       :     0.929498  s :     0.929498
      pz      :     0.005752  p :     0.022596
      px      :     0.013077
      py      :     0.003767
 26 H s       :     0.940943  s :     0.940943
      pz      :     0.005909  p :     0.022561
      px      :     0.012330
      py      :     0.004322


                     *******************************
                     * LOEWDIN POPULATION ANALYSIS *
                     *******************************

----------------------
LOEWDIN ATOMIC CHARGES
----------------------
   0 C :   -0.218222
   1 C :   -0.083058
   2 C :   -0.066500
   3 H :    0.029885
   4 C :   -0.219751
   5 S :    0.442335
   6 C :   -0.040119
   7 C :   -0.044428
   8 H :    0.036997
   9 H :    0.037072
  10 C :   -0.043624
  11 H :    0.026108
  12 H :    0.026136
  13 C :   -0.045533
  14 H :    0.024196
  15 H :    0.024166
  16 C :   -0.051862
  17 H :    0.023687
  18 H :    0.023676
  19 C :   -0.075167
  20 H :    0.024824
  21 H :    0.024811
  22 H :    0.026498
  23 H :    0.027684
  24 H :    0.026489
  25 H :    0.033948
  26 H :    0.029752

-------------------------------
LOEWDIN REDUCED ORBITAL CHARGES
-------------------------------
  0 C s       :     2.936602  s :     2.936602
      pz      :     1.113300  p :     3.199583
      px      :     1.032389
      py      :     1.053893
      dz2     :     0.006038  d :     0.082037
      dxz     :     0.004840
      dyz     :     0.014618
      dx2y2   :     0.021866
      dxy     :     0.034675
  1 C s       :     2.882233  s :     2.882233
      pz      :     1.030599  p :     3.114416
      px      :     1.033460
      py      :     1.050357
      dz2     :     0.006147  d :     0.086409
      dxz     :     0.010772
      dyz     :     0.008160
      dx2y2   :     0.031573
      dxy     :     0.029758
  2 C s       :     2.875196  s :     2.875196
      pz      :     0.994277  p :     3.089235
      px      :     1.046031
      py      :     1.048927
      dz2     :     0.006960  d :     0.102069
      dxz     :     0.012072
      dyz     :     0.013423
      dx2y2   :     0.039214
      dxy     :     0.030400
  3 H s       :     0.901479  s :     0.901479
      pz      :     0.015738  p :     0.068637
      px      :     0.019712
      py      :     0.033187
  4 C s       :     2.943119  s :     2.943119
      pz      :     1.136387  p :     3.198513
      px      :     1.020406
      py      :     1.041720
      dz2     :     0.005889  d :     0.078119
      dxz     :     0.004574
      dyz     :     0.013009
      dx2y2   :     0.020898
      dxy     :     0.033749
  5 S s       :     5.490110  s :     5.490110
      pz      :     3.561852  p :     9.918901
      px      :     2.978036
      py      :     3.379014
      dz2     :     0.015899  d :     0.148653
      dxz     :     0.035754
      dyz     :     0.011684
      dx2y2   :     0.022497
      dxy     :     0.062819
  6 C s       :     2.843892  s :     2.843892
      pz      :     1.065005  p :     3.111110
      px      :     1.041039
      py      :     1.005067
      dz2     :     0.013293  d :     0.085117
      dxz     :     0.024744
      dyz     :     0.007996
      dx2y2   :     0.016593
      dxy     :     0.022491
  7 C s       :     2.850246  s :     2.850246
      pz      :     1.063136  p :     3.109822
      px      :     1.040795
      py      :     1.005890
      dz2     :     0.013660  d :     0.084360
      dxz     :     0.025963
      dyz     :     0.006745
      dx2y2   :     0.015310
      dxy     :     0.022682
  8 H s       :     0.898864  s :     0.898864
      pz      :     0.029321  p :     0.064139
      px      :     0.022756
      py      :     0.012063
  9 H s       :     0.898794  s :     0.898794
      pz      :     0.029234  p :     0.064134
      px      :     0.022828
      py      :     0.012072
 10 C s       :     2.850368  s :     2.850368
      pz      :     1.061345  p :     3.108078
      px      :     1.037213
      py      :     1.009520
      dz2     :     0.013690  d :     0.085179
      dxz     :     0.025719
      dyz     :     0.006834
      dx2y2   :     0.016009
      dxy     :     0.022927
 11 H s       :     0.909806  s :     0.909806
      pz      :     0.029797  p :     0.064086
      px      :     0.021858
      py      :     0.012430
 12 H s       :     0.909742  s :     0.909742
      pz      :     0.029177  p :     0.064121
      px      :     0.022530
      py      :     0.012414
 13 C s       :     2.851680  s :     2.851680
      pz      :     1.060703  p :     3.108633
      px      :     1.037605
      py      :     1.010326
      dz2     :     0.013754  d :     0.085220
      dxz     :     0.025839
      dyz     :     0.006845
      dx2y2   :     0.015832
      dxy     :     0.022951
 14 H s       :     0.912285  s :     0.912285
      pz      :     0.029555  p :     0.063520
      px      :     0.021629
      py      :     0.012335
 15 H s       :     0.912311  s :     0.912311
      pz      :     0.028294  p :     0.063523
      px      :     0.022871
      py      :     0.012358
 16 C s       :     2.848208  s :     2.848208
      pz      :     1.061019  p :     3.117006
      px      :     1.039569
      py      :     1.016418
      dz2     :     0.013945  d :     0.086648
      dxz     :     0.025513
      dyz     :     0.007342
      dx2y2   :     0.016470
      dxy     :     0.023378
 17 H s       :     0.912909  s :     0.912909
      pz      :     0.029903  p :     0.063404
      px      :     0.021096
      py      :     0.012405
 18 H s       :     0.912912  s :     0.912912
      pz      :     0.027914  p :     0.063412
      px      :     0.023117
      py      :     0.012381
 19 C s       :     2.851813  s :     2.851813
      pz      :     1.066278  p :     3.154781
      px      :     1.057847
      py      :     1.030657
      dz2     :     0.013085  d :     0.068573
      dxz     :     0.020327
      dyz     :     0.004703
      dx2y2   :     0.010386
      dxy     :     0.020072
 20 H s       :     0.912142  s :     0.912142
      pz      :     0.029995  p :     0.063034
      px      :     0.020664
      py      :     0.012375
 21 H s       :     0.912151  s :     0.912151
      pz      :     0.027542  p :     0.063038
      px      :     0.023106
      py      :     0.012391
 22 H s       :     0.910457  s :     0.910457
      pz      :     0.027822  p :     0.063045
      px      :     0.022742
      py      :     0.012481
 23 H s       :     0.908961  s :     0.908961
      pz      :     0.012280  p :     0.063355
      px      :     0.023195
      py      :     0.027881
 24 H s       :     0.910468  s :     0.910468
      pz      :     0.030373  p :     0.063043
      px      :     0.020210
      py      :     0.012459
 25 H s       :     0.893495  s :     0.893495
      pz      :     0.017441  p :     0.072557
      px      :     0.042902
      py      :     0.012214
 26 H s       :     0.897286  s :     0.897286
      pz      :     0.018084  p :     0.072962
      px      :     0.041347
      py      :     0.013530


                      *****************************
                      * MAYER POPULATION ANALYSIS *
                      *****************************

  NA   - Mulliken gross atomic population
  ZA   - Total nuclear charge
  QA   - Mulliken gross atomic charge
  VA   - Mayer's total valence
  BVA  - Mayer's bonded valence
  FA   - Mayer's free valence

  ATOM       NA         ZA         QA         VA         BVA        FA
  0 C      6.1045     6.0000    -0.1045     3.7637     3.7637     0.0000
  1 C      6.0094     6.0000    -0.0094     3.9212     3.9212     0.0000
  2 C      6.0332     6.0000    -0.0332     4.0095     4.0095     0.0000
  3 H      0.9984     1.0000     0.0016     0.9976     0.9976     0.0000
  4 C      6.1484     6.0000    -0.1484     3.7783     3.7783    -0.0000
  5 S     15.9122    16.0000     0.0878     2.5849     2.5849     0.0000
  6 C      5.9318     6.0000     0.0682     3.9745     3.9745     0.0000
  7 C      6.0577     6.0000    -0.0577     4.1303     4.1303     0.0000
  8 H      0.9744     1.0000     0.0256     0.9857     0.9857     0.0000
  9 H      0.9739     1.0000     0.0261     0.9854     0.9854     0.0000
 10 C      6.0276     6.0000    -0.0276     4.0799     4.0799     0.0000
 11 H      0.9758     1.0000     0.0242     0.9787     0.9787    -0.0000
 12 H      0.9753     1.0000     0.0247     0.9788     0.9788     0.0000
 13 C      6.0337     6.0000    -0.0337     4.0701     4.0701    -0.0000
 14 H      0.9885     1.0000     0.0115     0.9856     0.9856     0.0000
 15 H      0.9884     1.0000     0.0116     0.9854     0.9854    -0.0000
 16 C      6.0529     6.0000    -0.0529     4.1231     4.1231    -0.0000
 17 H      0.9876     1.0000     0.0124     0.9842     0.9842     0.0000
 18 H      0.9876     1.0000     0.0124     0.9842     0.9842     0.0000
 19 C      6.0339     6.0000    -0.0339     4.0126     4.0126     0.0000
 20 H      0.9825     1.0000     0.0175     0.9779     0.9779    -0.0000
 21 H      0.9825     1.0000     0.0175     0.9780     0.9780     0.0000
 22 H      0.9757     1.0000     0.0243     0.9885     0.9885     0.0000
 23 H      0.9731     1.0000     0.0269     0.9819     0.9819     0.0000
 24 H      0.9756     1.0000     0.0244     0.9884     0.9884    -0.0000
 25 H      0.9521     1.0000     0.0479     0.9926     0.9926    -0.0000
 26 H      0.9635     1.0000     0.0365     0.9992     0.9992     0.0000

  Mayer bond orders larger than 0.100000
B(  0-C ,  1-C ) :   1.4849 B(  0-C ,  4-C ) :   0.1075 B(  0-C ,  5-S ) :   1.1967 
B(  0-C , 25-H ) :   0.9600 B(  1-C ,  2-C ) :   1.3304 B(  1-C ,  3-H ) :   0.9744 
B(  2-C ,  4-C ) :   1.5014 B(  2-C ,  6-C ) :   1.0263 B(  4-C ,  5-S ) :   1.1699 
B(  4-C , 26-H ) :   0.9694 B(  6-C ,  7-C ) :   1.1145 B(  6-C ,  8-H ) :   0.9140 
B(  6-C ,  9-H ) :   0.9138 B(  7-C , 10-C ) :   1.0866 B(  7-C , 11-H ) :   0.9264 
B(  7-C , 12-H ) :   0.9265 B( 10-C , 13-C ) :   1.0845 B( 10-C , 14-H ) :   0.9319 
B( 10-C , 15-H ) :   0.9320 B( 13-C , 16-C ) :   1.0896 B( 13-C , 17-H ) :   0.9349 
B( 13-C , 18-H ) :   0.9348 B( 16-C , 19-C ) :   1.1133 B( 16-C , 20-H ) :   0.9381 
B( 16-C , 21-H ) :   0.9382 B( 19-C , 22-H ) :   0.9646 B( 19-C , 23-H ) :   0.9603 
B( 19-C , 24-H ) :   0.9646 

-------
TIMINGS
-------

Total SCF time: 0 days 0 hours 0 min 13 sec 

Total time                  ....      13.284 sec
Sum of individual times     ....      12.977 sec  ( 97.7%)

Fock matrix formation       ....       8.835 sec  ( 66.5%)
  Split-RI-J                ....       3.224 sec  ( 36.5% of F)
  XC integration            ....       5.376 sec  ( 60.8% of F)
    Basis function eval.    ....       2.104 sec  ( 39.1% of XC)
    Density eval.           ....       1.008 sec  ( 18.8% of XC)
    XC-Functional eval.     ....       0.517 sec  (  9.6% of XC)
    XC-Potential eval.      ....       1.133 sec  ( 21.1% of XC)
Diagonalization             ....       0.007 sec  (  0.1%)
Density matrix formation    ....       0.010 sec  (  0.1%)
Population analysis         ....       0.030 sec  (  0.2%)
Initial guess               ....       0.012 sec  (  0.1%)
Orbital Transformation      ....       0.000 sec  (  0.0%)
Orbital Orthonormalization  ....       0.007 sec  (  0.0%)
DIIS solution               ....       0.001 sec  (  0.0%)
SOSCF solution              ....       0.047 sec  (  0.4%)
Grid generation             ....       4.035 sec  ( 30.4%)


-------------------------------------------------------------------------------
                          DFT DISPERSION CORRECTION                            
                                                                               
                              DFTD3 V3.1  Rev 1                                
                          USING Becke-Johnson damping                          
-------------------------------------------------------------------------------
The BP86 functional is recognized
Active option DFTDOPT                   ...         4   

molecular C6(AA) [au] = 7167.058414 


            DFT-D V3
 parameters
 s6 scaling factor         :     1.0000 
 a1 scaling factor         :     0.3946 
 s8 scaling factor         :     3.2822 
 a2 scaling factor         :     4.8516 
 ad hoc parameters k1-k3   :    16.0000     1.3333    -4.0000 

 Edisp/kcal,au: -25.664554824880  -0.040899067103 
 E6   /kcal   :  -9.870509992 
 E8   /kcal   : -15.794044833 
 % E8         :  61.540303117 

-------------------------   ----------------
Dispersion correction           -0.040899067
-------------------------   ----------------


-------------------------   --------------------
FINAL SINGLE POINT ENERGY      -788.553033411817
-------------------------   --------------------

                                *** OPTIMIZATION RUN DONE ***

                            ***************************************
                            *     ORCA property calculations      *
                            ***************************************

                                    ---------------------
                                    Active property flags
                                    ---------------------
   (+) Dipole Moment


------------------------------------------------------------------------------
                       ORCA ELECTRIC PROPERTIES CALCULATION
------------------------------------------------------------------------------

Dipole Moment Calculation                       ... on
Quadrupole Moment Calculation                   ... off
Polarizability Calculation                      ... off
GBWName                                         ... P3HT_Input_Methylthiophene_With_Sidechain_2_Optimize_Monomer.gbw
Electron density file                           ... P3HT_Input_Methylthiophene_With_Sidechain_2_Optimize_Monomer.scfp
The origin for moment calculation is the CENTER OF MASS  = ( 2.346839, -3.086330  0.001980)

-------------
DIPOLE MOMENT
-------------
                                X             Y             Z
Electronic contribution:     -6.32123      31.56860       0.01725
Nuclear contribution   :      6.42449     -31.93196      -0.01669
                        -----------------------------------------
Total Dipole Moment    :      0.10326      -0.36336       0.00056
                        -----------------------------------------
Magnitude (a.u.)       :      0.37775
Magnitude (Debye)      :      0.96016



--------------------
Rotational spectrum 
--------------------
 
Rotational constants in cm-1:     0.145753     0.008338     0.007958 
Rotational constants in MHz :  4369.578327   249.953908   238.567620 

 Dipole components along the rotational axes: 
x,y,z [a.u.] :    -0.376854     0.025996     0.000255 
x,y,z [Debye]:    -0.957886     0.066077     0.000647 

 

Timings for individual modules:

Sum of individual times         ...      231.788 sec (=   3.863 min)
GTO integral calculation        ...        2.400 sec (=   0.040 min)   1.0 %
SCF iterations                  ...      140.240 sec (=   2.337 min)  60.5 %
SCF Gradient evaluation         ...       87.920 sec (=   1.465 min)  37.9 %
Geometry relaxation             ...        1.228 sec (=   0.020 min)   0.5 %
                             ****ORCA TERMINATED NORMALLY****
TOTAL RUN TIME: 0 days 0 hours 3 minutes 53 seconds 572 msec
