
                                 *****************
                                 * O   R   C   A *
                                 *****************

           --- An Ab Initio, DFT and Semiempirical electronic structure package ---

                  #######################################################
                  #                        -***-                        #
                  #          Department of theory and spectroscopy      #
                  #               Directorship: Frank Neese             #
                  #        Max Planck Institute fuer Kohlenforschung    #
                  #                Kaiser Wilhelm Platz 1               #
                  #                 D-45470 Muelheim/Ruhr               #
                  #                      Germany                        #
                  #                                                     #
                  #                  All rights reserved                #
                  #                        -***-                        #
                  #######################################################


                         Program Version 4.2.0 -  RELEASE  -


 With contributions from (in alphabetic order):
   Daniel Aravena         : Magnetic Suceptibility
   Michael Atanasov       : Ab Initio Ligand Field Theory (pilot matlab implementation)
   Alexander A. Auer      : GIAO ZORA, VPT2
   Ute Becker             : Parallelization
   Giovanni Bistoni       : ED, misc. LED, open-shell LED, HFLED
   Martin Brehm           : Molecular dynamics
   Dmytro Bykov           : SCF Hessian
   Vijay G. Chilkuri      : MRCI spin determinant printing, contributions to CSF-ICE
   Dipayan Datta          : RHF DLPNO-CCSD density
   Achintya Kumar Dutta   : EOM-CC, STEOM-CC
   Dmitry Ganyushin       : Spin-Orbit,Spin-Spin,Magnetic field MRCI
   Miquel Garcia          : C-PCM Hessian, Gaussian charge scheme
   Yang Guo               : DLPNO-NEVPT2, CIM, IAO-localization
   Andreas Hansen         : Spin unrestricted coupled pair/coupled cluster methods
   Benjamin Helmich-Paris : CASSCF linear response (MC-RPA)
   Lee Huntington         : MR-EOM, pCC
   Robert Izsak           : Overlap fitted RIJCOSX, COSX-SCS-MP3, EOM
   Christian Kollmar      : KDIIS, OOCD, Brueckner-CCSD(T), CCSD density
   Simone Kossmann        : Meta GGA functionals, TD-DFT gradient, OOMP2, MP2 Hessian
   Martin Krupicka        : AUTO-CI
   Lucas Lang             : DCDCAS
   Dagmar Lenk            : GEPOL surface, SMD
   Dimitrios Liakos       : Extrapolation schemes; Compound Job, initial MDCI parallelization
   Dimitrios Manganas     : Further ROCIS development; embedding schemes
   Dimitrios Pantazis     : SARC Basis sets
   Taras Petrenko         : DFT Hessian,TD-DFT gradient, ASA, ECA, R-Raman, ABS, FL, XAS/XES, NRVS
   Peter Pinski           : DLPNO-MP2, DLPNO-MP2 Gradient
   Christoph Reimann      : Effective Core Potentials
   Marius Retegan         : Local ZFS, SOC
   Christoph Riplinger    : Optimizer, TS searches, QM/MM, DLPNO-CCSD(T), (RO)-DLPNO pert. Triples
   Tobias Risthaus        : Range-separated hybrids, TD-DFT gradient, RPA, STAB
   Michael Roemelt        : Original ROCIS implementation
   Masaaki Saitow         : Open-shell DLPNO-CCSD energy and density
   Barbara Sandhoefer     : DKH picture change effects
   Avijit Sen             : IP-ROCIS
   Kantharuban Sivalingam : CASSCF convergence, NEVPT2, FIC-MRCI
   Bernardo de Souza      : ESD, SOC TD-DFT
   Georgi Stoychev        : AutoAux, RI-MP2 NMR
   Willem Van den Heuvel  : Paramagnetic NMR
   Boris Wezisla          : Elementary symmetry handling
   Frank Wennmohs         : Technical directorship


 We gratefully acknowledge several colleagues who have allowed us to
 interface, adapt or use parts of their codes:
   Stefan Grimme, W. Hujo, H. Kruse,             : VdW corrections, initial TS optimization,
                  C. Bannwarth                     DFT functionals, gCP, sTDA/sTD-DF
   Ed Valeev, F. Pavosevic, A. Kumar             : LibInt (2-el integral package), F12 methods
   Garnet Chan, S. Sharma, J. Yang, R. Olivares  : DMRG
   Ulf Ekstrom                                   : XCFun DFT Library
   Mihaly Kallay                                 : mrcc  (arbitrary order and MRCC methods)
   Andreas Klamt, Michael Diedenhofen            : otool_cosmo (COSMO solvation model)
   Jiri Pittner, Ondrej Demel                    : Mk-CCSD
   Frank Weinhold                                : gennbo (NPA and NBO analysis)
   Christopher J. Cramer and Donald G. Truhlar   : smd solvation model
   Lars Goerigk                                  : TD-DFT with DH, B97 family of functionals
   V. Asgeirsson, H. Jonsson                     : NEB implementation
   FAccTs GmbH                                   : IRC, NEB, NEB-TS, Multilevel, MM, QM/MM, CI optimization
   S Lehtola, MJT Oliveira, MAL Marques          : LibXC Library


 Your calculation uses the libint2 library for the computation of 2-el integrals
 For citations please refer to: http://libint.valeyev.net

 Your ORCA version has been built with support for libXC version: 4.2.3
 For citations please refer to: https://tddft.org/programs/libxc/

 This ORCA versions uses:
   CBLAS   interface :  Fast vector & matrix operations
   LAPACKE interface :  Fast linear algebra routines
   SCALAPACK package :  Parallel linear algebra routines


Your calculation utilizes the atom-pairwise dispersion correction
with the Becke-Johnson damping scheme (D3BJ)
Cite in your paper:
S.Grimme, S.Ehrlich, L.Goerigk, J Comput Chem, (2011), 32, 1456–1465 
S.Grimme, J.Antony, S.Ehrlich and H.Krieg, J.Chem.Phys., 132, (2010), 154104 
   

----- Orbital basis set information -----
Your calculation utilizes the basis: def2-SVP
   F. Weigend and R. Ahlrichs, Phys. Chem. Chem. Phys. 7, 3297 (2005).

----- AuxJ basis set information -----
Your calculation utilizes the auxiliary basis: def2/J
   F. Weigend, Phys. Chem. Chem. Phys. 8, 1057 (2006).

================================================================================
                                        WARNINGS
                       Please study these warnings very carefully!
================================================================================


WARNING: Geometry Optimization
  ===> : Switching off AutoStart
         For restart on a previous wavefunction, please use MOREAD

INFO   : the flag for use of LIBINT has been found!

================================================================================
                                       INPUT FILE
================================================================================
NAME = P3HT_Optimize_Monomer.inp
|  1> ! RI BP86 def2-SVP def2/J D3BJ TIGHTSCF  Opt Grid3 FinalGrid5
|  2> %maxcore 3000
|  3> %geom
|  4> Constraints
|  5> {D 1 0 27 32 0.0 C}
|  6> {D 5 0 27 28 0.0 C}
|  7> {D 2 4 10 15 0.0 C}
|  8> {D 5 4 10 11 0.0 C}
|  9> {D 12 14 20 25 0.0 C}
| 10> {D 15 14 20 21 0.0 C}
| 11> end
| 12> end
| 13> 
| 14> *xyz 0 1
| 15> C	-4.023439	-0.467788	0.000042
| 16> C	-3.012199	-1.414258	-0.000018
| 17> C	-1.672829	-0.879618	0.000002
| 18> H	-3.200989	-2.481668	-0.000098
| 19> C	-1.686449	0.512502	0.000072
| 20> S	-3.314109	1.079612	0.000232
| 21> C	-0.483339	-1.788098	-0.000048
| 22> H	-0.790919	-2.839838	-0.000068
| 23> H	0.125611	-1.633238	0.895672
| 24> H	0.125571	-1.633188	-0.895788
| 25> C	-0.595439	1.485382	0.000052
| 26> C	-0.699979	2.864542	0.000012
| 27> C	0.557471	3.569082	0.000002
| 28> H	-1.650559	3.385492	0.000002
| 29> C	1.633471	2.684192	0.000012
| 30> S	1.055051	1.058082	0.000042
| 31> C	0.596081	5.065472	-0.000028
| 32> H	-0.416099	5.485372	-0.000028
| 33> H	1.097881	5.442672	-0.896088
| 34> H	1.097871	5.442702	0.896032
| 35> C	3.075931	2.925602	-0.000008
| 36> C	4.091471	1.975852	-0.000008
| 37> C	5.416781	2.524692	-0.000018
| 38> H	3.906331	0.908132	-0.000008
| 39> C	5.366821	3.901082	-0.000018
| 40> S	3.772791	4.496622	-0.000008
| 41> H	6.198931	4.592172	-0.000018
| 42> C	-5.468029	-0.712458	0.000012
| 43> C	-6.572499	0.149352	-0.000048
| 44> C	-7.816949	-0.584858	-0.000038
| 45> C	-7.650549	-1.943748	-0.000008
| 46> H	-8.794559	-0.116108	-0.000058
| 47> S	-6.011999	-2.367618	0.000032
| 48> H	-8.418399	-2.704988	0.000002
| 49> C	6.672971	1.722552	-0.000018
| 50> H	6.460131	0.648772	-0.000018
| 51> H	7.270681	1.950052	0.888602
| 52> H	7.270671	1.950052	-0.888638
| 53> C	-6.631429	1.646242	-0.000098
| 54> H	-5.671919	2.151642	-0.000678
| 55> H	-7.175989	1.992732	0.885722
| 56> H	-7.176889	1.992632	-0.885398
| 57> **                         ****END OF INPUT****
================================================================================

                       *****************************
                       * Geometry Optimization Run *
                       *****************************

Geometry optimization settings:
Update method            Update   .... BFGS
Choice of coordinates    CoordSys .... Z-matrix Internals
Initial Hessian          InHess   .... Almoef's Model

Convergence Tolerances:
Energy Change            TolE     ....  5.0000e-06 Eh
Max. Gradient            TolMAXG  ....  3.0000e-04 Eh/bohr
RMS Gradient             TolRMSG  ....  1.0000e-04 Eh/bohr
Max. Displacement        TolMAXD  ....  4.0000e-03 bohr
RMS Displacement         TolRMSD  ....  2.0000e-03 bohr
Strict Convergence                ....  False
------------------------------------------------------------------------------
                        ORCA OPTIMIZATION COORDINATE SETUP
------------------------------------------------------------------------------

The optimization will be done in new redundant internal coordinates
Making redundant internal coordinates   ...  (new redundants) done
Evaluating the initial hessian          ...  (Almloef) done
Evaluating the coordinates              ...  done
Calculating the B-matrix                .... done
Calculating the G-matrix                .... done
Diagonalizing the G-matrix              .... done
Imposing constraints:
 Iter   0:  RMS(Cart)=    0.0000665050 RMS(Int)=    0.0000493385
 Iter   1:  RMS(Cart)=    0.0000332499 RMS(Int)=    0.0000249155
 Iter   2:  RMS(Cart)=    0.0000166240 RMS(Int)=    0.0000126134
 Iter   3:  RMS(Cart)=    0.0000083117 RMS(Int)=    0.0000064052
 Iter   4:  RMS(Cart)=    0.0000041559 RMS(Int)=    0.0000032651
 Iter   5:  RMS(Cart)=    0.0000020781 RMS(Int)=    0.0000016722
 Iter   6:  RMS(Cart)=    0.0000010393 RMS(Int)=    0.0000008613
 Iter   7:  RMS(Cart)=    0.0000005198 RMS(Int)=    0.0000004467
 Iter   8:  RMS(Cart)=    0.0000002600 RMS(Int)=    0.0000002335
 Iter   9:  RMS(Cart)=    0.0000001301 RMS(Int)=    0.0000001232
 Iter  10:  RMS(Cart)=    0.0000000651 RMS(Int)=    0.0000000657
CONVERGED
Small eigenvalue found = 1.354e-03
Small eigenvalue found = 4.840e-03
Small eigenvalue found = 5.259e-03
Small eigenvalue found = 1.494e-02
Small eigenvalue found = 1.720e-02
Small eigenvalue found = 2.618e-02
Small eigenvalue found = 2.973e-02
The first mode is                       ....  101
The number of degrees of freedom        ....  120
Storing new coordinates                 .... done

    -----------------------------------------------------------------
                    Redundant Internal Coordinates


    -----------------------------------------------------------------
         Definition                    Initial Value    Approx d2E/dq
    -----------------------------------------------------------------
      1. B(C   1,C   0)                  1.3851         0.636221   
      2. B(C   2,C   1)                  1.4421         0.515895   
      3. B(H   3,C   1)                  1.0840         0.368157   
      4. B(C   4,C   2)                  1.3922         0.619798   
      5. B(S   5,C   0)                  1.7022         0.535007   
      6. B(S   5,C   4)                  1.7236         0.494567   
      7. B(C   6,C   2)                  1.4967         0.422130   
      8. B(H   7,C   6)                  1.0958         0.352517   
      9. B(H   8,C   6)                  1.0941         0.354680   
     10. B(H   9,C   6)                  1.0941         0.354679   
     11. B(C  10,C   4)                  1.4618         0.479976   
     12. B(C  11,C  10)                  1.3831         0.640798   
     13. B(C  12,C  11)                  1.4414         0.517340   
     14. B(H  13,C  11)                  1.0840         0.368166   
     15. B(C  14,C  12)                  1.3931         0.617657   
     16. B(S  15,C  10)                  1.7049         0.529779   
     17. B(S  15,C  14)                  1.7259         0.490417   
     18. B(C  16,C  12)                  1.4969         0.421896   
     19. B(H  17,C  16)                  1.0958         0.352481   
     20. B(H  18,C  16)                  1.0941         0.354746   
     21. B(H  19,C  16)                  1.0941         0.354738   
     22. B(C  20,C  14)                  1.4625         0.478669   
     23. B(C  21,C  20)                  1.3904         0.623768   
     24. B(C  22,C  21)                  1.4345         0.530649   
     25. B(H  23,C  21)                  1.0837         0.368596   
     26. B(C  24,C  22)                  1.3773         0.654646   
     27. B(S  25,C  20)                  1.7186         0.503715   
     28. B(S  25,C  24)                  1.7016         0.536161   
     29. B(H  26,C  24)                  1.0817         0.371288   
     30. B(C  27,C   0)                  1.4652         0.474046   
     31. B(C  28,C  27)                  1.4009         0.600233   
     32. B(C  29,C  28)                  1.4449         0.510691   
     33. B(C  30,C  29)                  1.3690         0.674806   
     34. B(H  31,C  29)                  1.0842         0.367881   
     35. B(S  32,C  27)                  1.7423         0.461853   
     36. B(S  32,C  30)                  1.6925         0.554508   
     37. B(H  33,C  30)                  1.0812         0.371877   
     38. B(C  34,C  22)                  1.4905         0.431993   
     39. B(H  35,C  34)                  1.0947         0.353974   
     40. B(H  36,C  34)                  1.0948         0.353763   
     41. B(H  37,C  34)                  1.0948         0.353770   
     42. B(C  38,C  28)                  1.4980         0.420100   
     43. B(H  39,C  38)                  1.0845         0.367482   
     44. B(H  40,C  38)                  1.0960         0.352213   
     45. B(H  41,C  38)                  1.0960         0.352218   
     46. A(C   1,C   0,C  27)          127.2820         0.415630   
     47. A(S   5,C   0,C  27)          124.2397         0.425117   
     48. A(C   1,C   0,S   5)          108.4783         0.448264   
     49. A(C   0,C   1,H   3)          123.0751         0.355789   
     50. A(C   0,C   1,C   2)          115.1344         0.421945   
     51. A(C   2,C   1,H   3)          121.7906         0.343425   
     52. A(C   1,C   2,C   6)          120.8685         0.392422   
     53. A(C   1,C   2,C   4)          111.2000         0.419980   
     54. A(C   4,C   2,C   6)          127.9315         0.405289   
     55. A(C   2,C   4,C  10)          131.1636         0.414617   
     56. A(S   5,C   4,C  10)          119.0665         0.420121   
     57. A(C   2,C   4,S   5)          109.7699         0.439847   
     58. A(C   0,S   5,C   4)           95.4174         0.452181   
     59. A(H   7,C   6,H   9)          106.9830         0.289181   
     60. A(C   2,C   6,H   9)          110.8776         0.330089   
     61. A(H   7,C   6,H   8)          106.9828         0.289181   
     62. A(C   2,C   6,H   8)          110.8778         0.330089   
     63. A(C   2,C   6,H   7)          111.0695         0.329755   
     64. A(H   8,C   6,H   9)          109.9037         0.289458   
     65. A(C   4,C  10,C  11)          127.3894         0.417082   
     66. A(C   4,C  10,S  15)          123.7611         0.425316   
     67. A(C  11,C  10,S  15)          108.8495         0.448049   
     68. A(C  10,C  11,C  12)          114.9269         0.422697   
     69. A(C  10,C  11,H  13)          123.0589         0.356224   
     70. A(C  12,C  11,H  13)          122.0142         0.343588   
     71. A(C  11,C  12,C  14)          111.3049         0.419930   
     72. A(C  11,C  12,C  16)          120.7396         0.392576   
     73. A(C  14,C  12,C  16)          127.9555         0.405002   
     74. A(C  12,C  14,C  20)          131.0655         0.414162   
     75. A(S  15,C  14,C  20)          119.0818         0.419287   
     76. A(C  12,C  14,S  15)          109.8526         0.438904   
     77. A(C  10,S  15,C  14)           95.0661         0.450684   
     78. A(C  12,C  16,H  19)          110.8848         0.330068   
     79. A(H  17,C  16,H  19)          106.9487         0.289184   
     80. A(H  18,C  16,H  19)          109.9711         0.289474   
     81. A(C  12,C  16,H  17)          111.0530         0.329720   
     82. A(H  17,C  16,H  18)          106.9499         0.289185   
     83. A(C  12,C  16,H  18)          110.8852         0.330069   
     84. A(C  14,C  20,C  21)          127.4164         0.414887   
     85. A(C  14,C  20,S  25)          123.4217         0.421293   
     86. A(C  21,C  20,S  25)          109.1620         0.441815   
     87. A(C  20,C  21,C  22)          114.4218         0.422581   
     88. A(C  20,C  21,H  23)          123.2455         0.354670   
     89. A(C  22,C  21,H  23)          122.3327         0.345123   
     90. A(C  21,C  22,C  24)          110.4167         0.426249   
     91. A(C  21,C  22,C  34)          124.9442         0.395966   
     92. A(C  24,C  22,C  34)          124.6391         0.410908   
     93. A(C  22,C  24,S  25)          112.5648         0.450770   
     94. A(C  22,C  24,H  26)          127.6318         0.358034   
     95. A(S  25,C  24,H  26)          119.8034         0.364199   
     96. A(C  20,S  25,C  24)           93.4347         0.453869   
     97. A(C   0,C  27,C  28)          132.4224         0.411354   
     98. A(C   0,C  27,S  32)          117.8061         0.414116   
     99. A(C  28,C  27,S  32)          109.7715         0.431955   
    100. A(C  27,C  28,C  38)          130.2191         0.402659   
    101. A(C  29,C  28,C  38)          118.2856         0.391397   
    102. A(C  27,C  28,C  29)          111.4953         0.416832   
    103. A(C  28,C  29,C  30)          113.5588         0.425638   
    104. A(C  28,C  29,H  31)          123.8429         0.342799   
    105. A(C  30,C  29,H  31)          122.5983         0.359322   
    106. A(C  29,C  30,S  32)          111.4850         0.456046   
    107. A(C  29,C  30,H  33)          127.7710         0.359984   
    108. A(S  32,C  30,H  33)          120.7440         0.366402   
    109. A(C  27,S  32,C  30)           93.6895         0.449508   
    110. A(C  22,C  34,H  36)          110.3832         0.331211   
    111. A(H  35,C  34,H  36)          108.0578         0.289251   
    112. A(C  22,C  34,H  37)          110.3829         0.331212   
    113. A(H  35,C  34,H  37)          108.0578         0.289252   
    114. A(H  36,C  34,H  37)          108.5151         0.289225   
    115. A(C  22,C  34,H  35)          111.3487         0.331243   
    116. A(C  28,C  38,H  39)          115.5225         0.331767   
    117. A(C  28,C  38,H  40)          109.5972         0.329446   
    118. A(H  39,C  38,H  40)          107.0197         0.290755   
    119. A(C  28,C  38,H  41)          109.5970         0.329447   
    120. A(H  39,C  38,H  41)          107.0141         0.290755   
    121. A(H  40,C  38,H  41)          107.7968         0.288827   
    122. D(C   2,C   1,C   0,C  27)    179.9976         0.028101   
    123. D(H   3,C   1,C   0,C  27)     -0.0009         0.028101   
    124. D(H   3,C   1,C   0,S   5)    179.9983         0.028101   
    125. D(C   2,C   1,C   0,S   5)     -0.0032         0.028101   
    126. D(C   4,C   2,C   1,C   0)     -0.0005         0.018145   
    127. D(C   4,C   2,C   1,H   3)    179.9981         0.018145   
    128. D(C   6,C   2,C   1,C   0)    179.9995         0.018145   
    129. D(C   6,C   2,C   1,H   3)     -0.0019         0.018145   
    130. D(C  10,C   4,C   2,C   1)   -179.9960         0.026581   
    131. D(C  10,C   4,C   2,C   6)      0.0040         0.026581   
    132. D(S   5,C   4,C   2,C   1)      0.0038         0.026581   
    133. D(S   5,C   4,C   2,C   6)   -179.9962         0.026581   
    134. D(C   0,S   5,C   4,C   2)     -0.0050         0.005121   
    135. D(C   0,S   5,C   4,C  10)    179.9949         0.005121   
    136. D(C   4,S   5,C   0,C   1)      0.0046         0.005772   
    137. D(C   4,S   5,C   0,C  27)   -179.9962         0.005772   
    138. D(H   7,C   6,C   2,C   1)     -0.0017         0.013173   
    139. D(H   8,C   6,C   2,C   4)     61.1854         0.013173   
    140. D(H   9,C   6,C   2,C   1)    118.8113         0.013173   
    141. D(H   7,C   6,C   2,C   4)    179.9983         0.013173   
    142. D(H   8,C   6,C   2,C   1)   -118.8146         0.013173   
    143. D(H   9,C   6,C   2,C   4)    -61.1887         0.013173   
    144. D(C  11,C  10,C   4,C   2)    179.9998         0.015685   
    145. D(C  11,C  10,C   4,S   5)     -0.0000         0.015685 C 
    146. D(S  15,C  10,C   4,C   2)     -0.0000         0.015685 C 
    147. D(S  15,C  10,C   4,S   5)   -179.9998         0.015685   
    148. D(C  12,C  11,C  10,C   4)    179.9993         0.028534   
    149. D(C  12,C  11,C  10,S  15)     -0.0008         0.028534   
    150. D(H  13,C  11,C  10,C   4)      0.0001         0.028534   
    151. D(H  13,C  11,C  10,S  15)    180.0000         0.028534   
    152. D(C  14,C  12,C  11,C  10)      0.0010         0.018249   
    153. D(C  14,C  12,C  11,H  13)   -179.9998         0.018249   
    154. D(C  16,C  12,C  11,C  10)   -179.9995         0.018249   
    155. D(C  16,C  12,C  11,H  13)     -0.0003         0.018249   
    156. D(S  15,C  14,C  12,C  11)     -0.0007         0.026387   
    157. D(S  15,C  14,C  12,C  16)    179.9998         0.026387   
    158. D(C  20,C  14,C  12,C  11)    179.9997         0.026387   
    159. D(C  20,C  14,C  12,C  16)      0.0002         0.026387   
    160. D(C  14,S  15,C  10,C   4)   -179.9998         0.005685   
    161. D(C  14,S  15,C  10,C  11)      0.0004         0.005685   
    162. D(C  10,S  15,C  14,C  12)      0.0002         0.005058   
    163. D(C  10,S  15,C  14,C  20)    179.9999         0.005058   
    164. D(H  17,C  16,C  12,C  11)      0.0006         0.013158   
    165. D(H  18,C  16,C  12,C  11)   -118.7652         0.013158   
    166. D(H  17,C  16,C  12,C  14)   -179.9999         0.013158   
    167. D(H  19,C  16,C  12,C  11)    118.7646         0.013158   
    168. D(H  18,C  16,C  12,C  14)     61.2343         0.013158   
    169. D(H  19,C  16,C  12,C  14)    -61.2359         0.013158   
    170. D(C  21,C  20,C  14,C  12)    179.9997         0.015600   
    171. D(C  21,C  20,C  14,S  15)     -0.0000         0.015600 C 
    172. D(S  25,C  20,C  14,C  12)      0.0000         0.015600 C 
    173. D(S  25,C  20,C  14,S  15)   -179.9997         0.015600   
    174. D(C  22,C  21,C  20,C  14)   -179.9999         0.026944   
    175. D(C  22,C  21,C  20,S  25)     -0.0002         0.026944   
    176. D(H  23,C  21,C  20,C  14)      0.0006         0.026944   
    177. D(H  23,C  21,C  20,S  25)   -179.9998         0.026944   
    178. D(C  24,C  22,C  21,C  20)      0.0002         0.019222   
    179. D(C  24,C  22,C  21,H  23)    179.9998         0.019222   
    180. D(C  34,C  22,C  21,C  20)    179.9998         0.019222   
    181. D(C  34,C  22,C  21,H  23)     -0.0006         0.019222   
    182. D(S  25,C  24,C  22,C  21)     -0.0001         0.029870   
    183. D(S  25,C  24,C  22,C  34)   -179.9997         0.029870   
    184. D(H  26,C  24,C  22,C  21)    179.9996         0.029870   
    185. D(H  26,C  24,C  22,C  34)      0.0000         0.029870   
    186. D(C  24,S  25,C  20,C  14)    179.9998         0.005263   
    187. D(C  24,S  25,C  20,C  21)      0.0001         0.005263   
    188. D(C  20,S  25,C  24,C  22)      0.0000         0.005791   
    189. D(C  20,S  25,C  24,H  26)   -179.9997         0.005791   
    190. D(C  28,C  27,C   0,C   1)    179.9991         0.015301   
    191. D(C  28,C  27,C   0,S   5)      0.0000         0.015301 C 
    192. D(S  32,C  27,C   0,C   1)     -0.0000         0.015301 C 
    193. D(S  32,C  27,C   0,S   5)   -179.9991         0.015301   
    194. D(C  29,C  28,C  27,C   0)   -179.9982         0.024838   
    195. D(C  29,C  28,C  27,S  32)      0.0009         0.024838   
    196. D(C  38,C  28,C  27,C   0)      0.0008         0.024838   
    197. D(C  38,C  28,C  27,S  32)    180.0000         0.024838   
    198. D(C  30,C  29,C  28,C  27)     -0.0012         0.017774   
    199. D(C  30,C  29,C  28,C  38)    179.9996         0.017774   
    200. D(H  31,C  29,C  28,C  27)    179.9989         0.017774   
    201. D(H  31,C  29,C  28,C  38)     -0.0003         0.017774   
    202. D(S  32,C  30,C  29,C  28)      0.0010         0.031881   
    203. D(S  32,C  30,C  29,H  31)   -179.9992         0.031881   
    204. D(H  33,C  30,C  29,C  28)   -180.0000         0.031881   
    205. D(H  33,C  30,C  29,H  31)     -0.0001         0.031881   
    206. D(C  30,S  32,C  27,C   0)    179.9989         0.004638   
    207. D(C  30,S  32,C  27,C  28)     -0.0004         0.004638   
    208. D(C  27,S  32,C  30,C  29)     -0.0003         0.006107   
    209. D(C  27,S  32,C  30,H  33)   -179.9995         0.006107   
    210. D(H  35,C  34,C  22,C  21)      0.0005         0.013780   
    211. D(H  35,C  34,C  22,C  24)   -180.0000         0.013780   
    212. D(H  36,C  34,C  22,C  21)   -120.0178         0.013780   
    213. D(H  36,C  34,C  22,C  24)     59.9818         0.013780   
    214. D(H  37,C  34,C  22,C  21)    120.0184         0.013780   
    215. D(H  37,C  34,C  22,C  24)    -59.9820         0.013780   
    216. D(H  39,C  38,C  28,C  27)      0.0346         0.013050   
    217. D(H  39,C  38,C  28,C  29)   -179.9664         0.013050   
    218. D(H  40,C  38,C  28,C  27)   -120.9150         0.013050   
    219. D(H  40,C  38,C  28,C  29)     59.0840         0.013050   
    220. D(H  41,C  38,C  28,C  27)    120.9767         0.013050   
    221. D(H  41,C  38,C  28,C  29)    -59.0243         0.013050   
    -----------------------------------------------------------------

Number of atoms                         .... 42
Number of degrees of freedom            .... 221

         *************************************************************
         *                GEOMETRY OPTIMIZATION CYCLE   1            *
         *************************************************************
---------------------------------
CARTESIAN COORDINATES (ANGSTROEM)
---------------------------------
  C     -4.023439   -0.467788    0.000030
  C     -3.012199   -1.414258    0.000064
  C     -1.672829   -0.879618    0.000115
  H     -3.200989   -2.481668    0.000032
  C     -1.686449    0.512502    0.000108
  S     -3.314109    1.079612    0.000150
  C     -0.483339   -1.788098    0.000166
  H     -0.790919   -2.839838    0.000190
  H      0.125572   -1.633189    0.895904
  H      0.125610   -1.633237   -0.895556
  C     -0.595439    1.485382    0.000070
  C     -0.699979    2.864542    0.000063
  C      0.557471    3.569082    0.000037
  H     -1.650559    3.385492    0.000088
  C      1.633471    2.684192    0.000003
  S      1.055051    1.058082    0.000022
  C      0.596081    5.065472    0.000039
  H     -0.416099    5.485372    0.000072
  H      1.097860    5.442691   -0.896025
  H      1.097892    5.442683    0.896095
  C      3.075931    2.925602   -0.000037
  C      4.091471    1.975852   -0.000063
  C      5.416781    2.524692   -0.000098
  H      3.906331    0.908132   -0.000065
  C      5.366821    3.901082   -0.000092
  S      3.772791    4.496622   -0.000051
  H      6.198931    4.592172   -0.000108
  C     -5.468029   -0.712458   -0.000071
  C     -6.572499    0.149352   -0.000097
  C     -7.816949   -0.584858   -0.000168
  C     -7.650549   -1.943748   -0.000221
  H     -8.794559   -0.116108   -0.000181
  S     -6.011999   -2.367618   -0.000161
  H     -8.418399   -2.704988   -0.000278
  C      6.672971    1.722552   -0.000126
  H      6.460131    0.648772   -0.000125
  H      7.270699    1.950049    0.888483
  H      7.270653    1.950055   -0.888757
  C     -6.631429    1.646242   -0.000045
  H     -5.671919    2.151642   -0.000567
  H     -7.176010    1.992670    0.885787
  H     -7.176868    1.992694   -0.885333

----------------------------
CARTESIAN COORDINATES (A.U.)
----------------------------
  NO LB      ZA    FRAG     MASS         X           Y           Z
   0 C     6.0000    0    12.011   -7.603198   -0.883991    0.000057
   1 C     6.0000    0    12.011   -5.692231   -2.672560    0.000122
   2 C     6.0000    0    12.011   -3.161189   -1.662237    0.000217
   3 H     1.0000    0     1.008   -6.048993   -4.689673    0.000060
   4 C     6.0000    0    12.011   -3.186927    0.968488    0.000204
   5 S    16.0000    0    32.060   -6.262758    2.040171    0.000283
   6 C     6.0000    0    12.011   -0.913378   -3.379016    0.000314
   7 H     1.0000    0     1.008   -1.494620   -5.366516    0.000358
   8 H     1.0000    0     1.008    0.237297   -3.086281    1.693013
   9 H     1.0000    0     1.008    0.237369   -3.086370   -1.692355
  10 C     6.0000    0    12.011   -1.125217    2.806965    0.000132
  11 C     6.0000    0    12.011   -1.322769    5.413200    0.000118
  12 C     6.0000    0    12.011    1.053468    6.744588    0.000071
  13 H     1.0000    0     1.008   -3.119104    6.397653    0.000166
  14 C     6.0000    0    12.011    3.086813    5.072388    0.000006
  15 S    16.0000    0    32.060    1.993757    1.999485    0.000042
  16 C     6.0000    0    12.011    1.126430    9.572355    0.000074
  17 H     1.0000    0     1.008   -0.786313   10.365851    0.000136
  18 H     1.0000    0     1.008    2.074654   10.285196   -1.693241
  19 H     1.0000    0     1.008    2.074716   10.285179    1.693375
  20 C     6.0000    0    12.011    5.812667    5.528587   -0.000070
  21 C     6.0000    0    12.011    7.731760    3.733819   -0.000120
  22 C     6.0000    0    12.011   10.236233    4.770976   -0.000185
  23 H     1.0000    0     1.008    7.381896    1.716121   -0.000123
  24 C     6.0000    0    12.011   10.141822    7.371977   -0.000175
  25 S    16.0000    0    32.060    7.129542    8.497384   -0.000096
  26 H     1.0000    0     1.008   11.714282    8.677947   -0.000203
  27 C     6.0000    0    12.011  -10.333077   -1.346351   -0.000134
  28 C     6.0000    0    12.011  -12.420223    0.282234   -0.000184
  29 C     6.0000    0    12.011  -14.771893   -1.105221   -0.000317
  30 C     6.0000    0    12.011  -14.457442   -3.673151   -0.000417
  31 H     1.0000    0     1.008  -16.619308   -0.219412   -0.000342
  32 S    16.0000    0    32.060  -11.361032   -4.474150   -0.000303
  33 H     1.0000    0     1.008  -15.908469   -5.111687   -0.000525
  34 C     6.0000    0    12.011   12.610088    3.255152   -0.000238
  35 H     1.0000    0     1.008   12.207878    1.226001   -0.000237
  36 H     1.0000    0     1.008   13.739630    3.685058    1.678989
  37 H     1.0000    0     1.008   13.739543    3.685070   -1.679508
  38 C     6.0000    0    12.011  -12.531585    3.110947   -0.000084
  39 H     1.0000    0     1.008  -10.718374    4.066014   -0.001071
  40 H     1.0000    0     1.008  -13.560694    3.765601    1.673894
  41 H     1.0000    0     1.008  -13.562315    3.765645   -1.673038

--------------------------------
INTERNAL COORDINATES (ANGSTROEM)
--------------------------------
 C      0   0   0     0.000000000000     0.00000000     0.00000000
 C      1   0   0     1.385067435939     0.00000000     0.00000000
 C      2   1   0     1.442134503748   115.13437785     0.00000000
 H      2   1   3     1.083976834900   123.07505919   180.00138764
 C      3   2   1     1.392186626749   111.19999397     0.00000000
 S      1   2   3     1.702232606021   108.47830730     0.00000000
 C      3   2   1     1.496737242471   120.86846746   179.99959046
 H      7   3   2     1.095793084665   111.06950462     0.00000000
 H      7   3   2     1.094127981774   110.87775204   241.18546379
 H      7   3   2     1.094129171442   110.87759982   118.81131910
 C      5   3   2     1.461779160783   131.16361632   180.00329493
 C     11   5   3     1.383116379341   127.38944252   179.99400151
 C     12  11   5     1.441373343100   114.92687233   179.99994799
 H     12  11   5     1.083970128278   123.05894930     0.00000000
 C     13  12  11     1.393128246860   111.30492526     0.00000000
 S     11   5   3     1.704905431454   123.76106030     0.00000000
 C     13  12  11     1.496888026908   120.73961295   180.00054286
 H     17  13  12     1.095821318646   111.05295590     0.00000000
 H     17  13  12     1.094077969616   110.88522735   241.23485499
 H     17  13  12     1.094083726504   110.88476565   118.76463490
 C     15  13  12     1.462521671668   131.06554967   179.99918951
 C     21  15  13     1.390448328454   127.41635092   180.00062877
 C     22  21  15     1.434458762670   114.42179515   180.00054783
 H     22  21  15     1.083652535640   123.24554960     0.00000000
 C     23  22  21     1.377296421871   110.41671991     0.00000000
 S     25  23  22     1.701646124375   112.56481703     0.00000000
 H     25  23  22     1.081671133108   127.63175314   179.99957380
 C      1   2   3     1.465163362189   127.28196394   179.99867819
 C     28   1   2     1.400917720853   132.42238871   180.00626469
 C     29  28   1     1.444894503658   111.49526436   180.00073931
 C     30  29  28     1.369040172164   113.55879766     0.00000000
 H     30  29  28     1.084180739084   123.84287351   179.99874492
 S     31  30  29     1.692486892416   111.48495377     0.00000000
 H     31  30  29     1.081240010451   127.77104366   180.00018764
 C     23  22  21     1.490450232547   124.94421671   179.99990226
 H     35  23  22     1.094670888441   111.34866711     0.00000000
 H     35  23  22     1.094832863272   110.38324565   239.98224701
 H     35  23  22     1.094827403932   110.38288127   120.01846738
 C     29  28   1     1.498049538400   130.21913281     0.00000000
 H     39  29  28     1.084476342066   115.52252013     0.03464006
 H     39  29  28     1.096028277965   109.59720525   239.08499560
 H     39  29  28     1.096024057081   109.59698392   120.97672205

---------------------------
INTERNAL COORDINATES (A.U.)
---------------------------
 C      0   0   0     0.000000000000     0.00000000     0.00000000
 C      1   0   0     2.617398130938     0.00000000     0.00000000
 C      2   1   0     2.725239260362   115.13437785     0.00000000
 H      2   1   3     2.048419353476   123.07505919   180.00138764
 C      3   2   1     2.630851451864   111.19999397     0.00000000
 S      1   2   3     3.216753441610   108.47830730     0.00000000
 C      3   2   1     2.828423482711   120.86846746   179.99959046
 H      7   3   2     2.070748829462   111.06950462     0.00000000
 H      7   3   2     2.067602241012   110.87775204   241.18546379
 H      7   3   2     2.067604489159   110.87759982   118.81131910
 C      5   3   2     2.762362282153   131.16361632   180.00329493
 C     11   5   3     2.613711168294   127.38944252   179.99400151
 C     12  11   5     2.723800875194   114.92687233   179.99994799
 H     12  11   5     2.048406679798   123.05894930     0.00000000
 C     13  12  11     2.632630855996   111.30492526     0.00000000
 S     11   5   3     3.221804349682   123.76106030     0.00000000
 C     13  12  11     2.828708424002   120.73961295   180.00054286
 H     17  13  12     2.070802183954   111.05295590     0.00000000
 H     17  13  12     2.067507731732   110.88522735   241.23485499
 H     17  13  12     2.067518610672   110.88476565   118.76463490
 C     15  13  12     2.763765424378   131.06554967   179.99918951
 C     21  15  13     2.627566544146   127.41635092   180.00062877
 C     22  21  15     2.710734211849   114.42179515   180.00054783
 H     22  21  15     2.047806516690   123.24554960     0.00000000
 C     23  22  21     2.602713042567   110.41671991     0.00000000
 S     25  23  22     3.215645151917   112.56481703     0.00000000
 H     25  23  22     2.044062208543   127.63175314   179.99957380
 C      1   2   3     2.768757495992   127.28196394   179.99867819
 C     28   1   2     2.647350828569   132.42238871   180.00626469
 C     29  28   1     2.730454904321   111.49526436   180.00073931
 C     30  29  28     2.587110991727   113.55879766     0.00000000
 H     30  29  28     2.048804676540   123.84287351   179.99874492
 S     31  30  29     3.198336711918   111.48495377     0.00000000
 H     31  30  29     2.043247504790   127.77104366   180.00018764
 C     23  22  21     2.816542755753   124.94421671   179.99990226
 H     35  23  22     2.068628185930   111.34866711     0.00000000
 H     35  23  22     2.068934274001   110.38324565   239.98224701
 H     35  23  22     2.068923957343   110.38288127   120.01846738
 C     29  28   1     2.830903362623   130.21913281     0.00000000
 H     39  29  28     2.049363285221   115.52252013     0.03464006
 H     39  29  28     2.071193280388   109.59720525   239.08499560
 H     39  29  28     2.071185304072   109.59698392   120.97672205

---------------------
BASIS SET INFORMATION
---------------------
There are 3 groups of distinct atoms

 Group   1 Type C   : 7s4p1d contracted to 3s2p1d pattern {511/31/1}
 Group   2 Type H   : 4s1p contracted to 2s1p pattern {31/1}
 Group   3 Type S   : 10s7p1d contracted to 4s3p1d pattern {5311/511/1}

Atom   0C    basis set group =>   1
Atom   1C    basis set group =>   1
Atom   2C    basis set group =>   1
Atom   3H    basis set group =>   2
Atom   4C    basis set group =>   1
Atom   5S    basis set group =>   3
Atom   6C    basis set group =>   1
Atom   7H    basis set group =>   2
Atom   8H    basis set group =>   2
Atom   9H    basis set group =>   2
Atom  10C    basis set group =>   1
Atom  11C    basis set group =>   1
Atom  12C    basis set group =>   1
Atom  13H    basis set group =>   2
Atom  14C    basis set group =>   1
Atom  15S    basis set group =>   3
Atom  16C    basis set group =>   1
Atom  17H    basis set group =>   2
Atom  18H    basis set group =>   2
Atom  19H    basis set group =>   2
Atom  20C    basis set group =>   1
Atom  21C    basis set group =>   1
Atom  22C    basis set group =>   1
Atom  23H    basis set group =>   2
Atom  24C    basis set group =>   1
Atom  25S    basis set group =>   3
Atom  26H    basis set group =>   2
Atom  27C    basis set group =>   1
Atom  28C    basis set group =>   1
Atom  29C    basis set group =>   1
Atom  30C    basis set group =>   1
Atom  31H    basis set group =>   2
Atom  32S    basis set group =>   3
Atom  33H    basis set group =>   2
Atom  34C    basis set group =>   1
Atom  35H    basis set group =>   2
Atom  36H    basis set group =>   2
Atom  37H    basis set group =>   2
Atom  38C    basis set group =>   1
Atom  39H    basis set group =>   2
Atom  40H    basis set group =>   2
Atom  41H    basis set group =>   2
---------------------------------
AUXILIARY/J BASIS SET INFORMATION
---------------------------------
There are 3 groups of distinct atoms

 Group   1 Type C   : 12s5p4d2f1g contracted to 6s4p3d1f1g pattern {711111/2111/211/2/1}
 Group   2 Type H   : 5s2p1d contracted to 3s1p1d pattern {311/2/1}
 Group   3 Type S   : 14s5p5d2f1g contracted to 8s4p3d1f1g pattern {71111111/2111/311/2/1}

Atom   0C    basis set group =>   1
Atom   1C    basis set group =>   1
Atom   2C    basis set group =>   1
Atom   3H    basis set group =>   2
Atom   4C    basis set group =>   1
Atom   5S    basis set group =>   3
Atom   6C    basis set group =>   1
Atom   7H    basis set group =>   2
Atom   8H    basis set group =>   2
Atom   9H    basis set group =>   2
Atom  10C    basis set group =>   1
Atom  11C    basis set group =>   1
Atom  12C    basis set group =>   1
Atom  13H    basis set group =>   2
Atom  14C    basis set group =>   1
Atom  15S    basis set group =>   3
Atom  16C    basis set group =>   1
Atom  17H    basis set group =>   2
Atom  18H    basis set group =>   2
Atom  19H    basis set group =>   2
Atom  20C    basis set group =>   1
Atom  21C    basis set group =>   1
Atom  22C    basis set group =>   1
Atom  23H    basis set group =>   2
Atom  24C    basis set group =>   1
Atom  25S    basis set group =>   3
Atom  26H    basis set group =>   2
Atom  27C    basis set group =>   1
Atom  28C    basis set group =>   1
Atom  29C    basis set group =>   1
Atom  30C    basis set group =>   1
Atom  31H    basis set group =>   2
Atom  32S    basis set group =>   3
Atom  33H    basis set group =>   2
Atom  34C    basis set group =>   1
Atom  35H    basis set group =>   2
Atom  36H    basis set group =>   2
Atom  37H    basis set group =>   2
Atom  38C    basis set group =>   1
Atom  39H    basis set group =>   2
Atom  40H    basis set group =>   2
Atom  41H    basis set group =>   2
------------------------------------------------------------------------------
                           ORCA GTO INTEGRAL CALCULATION
                           -- RI-GTO INTEGRALS CHOSEN --
------------------------------------------------------------------------------

                         BASIS SET STATISTICS AND STARTUP INFO

Gaussian basis set:
 # of primitive gaussian shells          ...  402
 # of primitive gaussian functions       ...  750
 # of contracted shells                  ...  206
 # of contracted basis functions         ...  442
 Highest angular momentum                ...    2
 Maximum contraction depth               ...    5
Auxiliary gaussian basis set:
 # of primitive gaussian shells          ...  732
 # of primitive gaussian functions       ... 1996
 # of contracted shells                  ...  458
 # of contracted aux-basis functions     ... 1382
 Highest angular momentum                ...    4
 Maximum contraction depth               ...    7
Ratio of auxiliary to basis functions    ...  3.13
Integral package used                  ... LIBINT
 One Electron integrals                  ... done
 Ordering auxiliary basis shells         ... done
 Integral threshhold             Thresh  ...  2.500e-11
 Primitive cut-off               TCut    ...  2.500e-12
 Pre-screening matrix                    ... done
 Shell pair data                         ... 
 Ordering of the shell pairs             ... done (   0.002 sec) 12728 of 21321 pairs
 Determination of significant pairs      ... done (   0.000 sec)
 Creation of shell pair data             ... done (   0.002 sec)
 Storage of shell pair data              ... done (   0.219 sec)
 Shell pair data done in (   0.223 sec)
 Computing two index integrals           ... done
 Cholesky decomposition of the V-matrix  ... done


Timings:
 Total evaluation time                   ...   0.753 sec (  0.013 min)
 One electron matrix time                ...   0.289 sec (  0.005 min) = 38.3%
 Schwartz matrix evaluation time         ...   0.136 sec (  0.002 min) = 18.0%
 Two index repulsion integral time       ...   0.046 sec (  0.001 min) =  6.0%
 Cholesky decomposition of V             ...   0.043 sec (  0.001 min) =  5.7%
 Three index repulsion integral time     ...   0.000 sec (  0.000 min) =  0.0%

-------------------------------------------------------------------------------
                                 ORCA SCF
-------------------------------------------------------------------------------

------------
SCF SETTINGS
------------
Hamiltonian:
 Density Functional     Method          .... DFT(GTOs)
 Exchange Functional    Exchange        .... B88
   X-Alpha parameter    XAlpha          ....  0.666667
   Becke's b parameter  XBeta           ....  0.004200
 Correlation Functional Correlation     .... P86
 LDA part of GGA corr.  LDAOpt          .... PW91-LDA
 Gradients option       PostSCFGGA      .... off
   Density functional embedding theory  .... OFF
 RI-approximation to the Coulomb term is turned on
   Number of auxiliary basis functions  .... 1382


General Settings:
 Integral files         IntName         .... P3HT_Optimize_Monomer
 Hartree-Fock type      HFTyp           .... RHF
 Total Charge           Charge          ....    0
 Multiplicity           Mult            ....    1
 Number of Electrons    NEL             ....  202
 Basis Dimension        Dim             ....  442
 Nuclear Repulsion      ENuc            ....   2424.5442508682 Eh

Convergence Acceleration:
 DIIS                   CNVDIIS         .... on
   Start iteration      DIISMaxIt       ....    12
   Startup error        DIISStart       ....  0.200000
   # of expansion vecs  DIISMaxEq       ....     5
   Bias factor          DIISBfac        ....   1.050
   Max. coefficient     DIISMaxC        ....  10.000
 Newton-Raphson         CNVNR           .... off
 SOSCF                  CNVSOSCF        .... on
   Start iteration      SOSCFMaxIt      ....   150
   Startup grad/error   SOSCFStart      ....  0.003300
 Level Shifting         CNVShift        .... on
   Level shift para.    LevelShift      ....    0.2500
   Turn off err/grad.   ShiftErr        ....    0.0010
 Zerner damping         CNVZerner       .... off
 Static damping         CNVDamp         .... on
   Fraction old density DampFac         ....    0.7000
   Max. Damping (<1)    DampMax         ....    0.9800
   Min. Damping (>=0)   DampMin         ....    0.0000
   Turn off err/grad.   DampErr         ....    0.1000
 Fernandez-Rico         CNVRico         .... off

SCF Procedure:
 Maximum # iterations   MaxIter         ....   125
 SCF integral mode      SCFMode         .... Direct
   Integral package                     .... LIBINT
 Reset frequency        DirectResetFreq ....    20
 Integral Threshold     Thresh          ....  2.500e-11 Eh
 Primitive CutOff       TCut            ....  2.500e-12 Eh

Convergence Tolerance:
 Convergence Check Mode ConvCheckMode   .... Total+1el-Energy
 Convergence forced     ConvForced      .... 0
 Energy Change          TolE            ....  1.000e-08 Eh
 1-El. energy change                    ....  1.000e-05 Eh
 Orbital Gradient       TolG            ....  1.000e-05
 Orbital Rotation angle TolX            ....  1.000e-05
 DIIS Error             TolErr          ....  5.000e-07


Diagonalization of the overlap matrix:
Smallest eigenvalue                        ... 4.073e-04
Time for diagonalization                   ...    0.028 sec
Threshold for overlap eigenvalues          ... 1.000e-08
Number of eigenvalues below threshold      ... 0
Time for construction of square roots      ...    0.019 sec
Total time needed                          ...    0.048 sec

-------------------
DFT GRID GENERATION
-------------------

General Integration Accuracy     IntAcc      ...  4.340
Radial Grid Type                 RadialGrid  ... Gauss-Chebyshev
Angular Grid (max. acc.)         AngularGrid ... Lebedev-194
Angular grid pruning method      GridPruning ... 3 (G Style)
Weight generation scheme         WeightScheme... Becke
Basis function cutoff            BFCut       ...    1.0000e-11
Integration weight cutoff        WCut        ...    1.0000e-14
Grids for H and He will be reduced by one unit

# of grid points (after initial pruning)     ... 107404 (   0.1 sec)
# of grid points (after weights+screening)   ...  95933 (   0.7 sec)
nearest neighbour list constructed           ...    0.0 sec
Grid point re-assignment to atoms done       ...    0.0 sec
Grid point division into batches done        ...    0.1 sec
Reduced shell lists constructed in    0.9 sec

Total number of grid points                  ...    95933
Total number of batches                      ...     1524
Average number of points per batch           ...       62
Average number of grid points per atom       ...     2284
Average number of shells per batch           ...    74.36 (36.10%)
Average number of basis functions per batch  ...   152.61 (34.53%)
Average number of large shells per batch     ...    48.77 (65.58%)
Average number of large basis fcns per batch ...   101.43 (66.46%)
Maximum spatial batch extension              ...  18.61, 19.85, 21.34 au
Average spatial batch extension              ...   2.62,  2.80,  3.06 au

Time for grid setup =    1.658 sec

------------------------------
INITIAL GUESS: MODEL POTENTIAL
------------------------------
Loading Hartree-Fock densities                     ... done
Calculating cut-offs                               ... done
Setting up the integral package                    ... done
Initializing the effective Hamiltonian             ... done
Starting the Coulomb interaction                   ... done (   0.8 sec)
Reading the grid                                   ... done
Mapping shells                                     ... done
Starting the XC term evaluation                    ... done (   1.0 sec)
  promolecular density results
     # of electrons  =    201.987414537
     EX              =   -208.396895331
     EC              =     -7.873058724
     EX+EC           =   -216.269954056
Transforming the Hamiltonian                       ... done (   0.0 sec)
Diagonalizing the Hamiltonian                      ... done (   0.0 sec)
Back transforming the eigenvectors                 ... done (   0.0 sec)
Now organizing SCF variables                       ... done
                      ------------------
                      INITIAL GUESS DONE (   3.6 sec)
                      ------------------
--------------
SCF ITERATIONS
--------------
ITER       Energy         Delta-E        Max-DP      RMS-DP      [F,P]     Damp
               ***  Starting incremental Fock matrix formation  ***
  0  -2364.3050837950   0.000000000000 0.07376520  0.00162821  0.1592913 0.7000
  1  -2364.5860237645  -0.280939969475 0.04941799  0.00111161  0.0752362 0.7000
                               ***Turning on DIIS***
  2  -2364.6729079283  -0.086884163771 0.10735191  0.00156094  0.0212991 0.0000
  3  -2364.7885464358  -0.115638507565 0.03088835  0.00092464  0.0477296 0.0000
  4  -2364.8418746190  -0.053328183188 0.01961400  0.00029040  0.0132114 0.0000
  5  -2364.8456565544  -0.003781935366 0.00742121  0.00010911  0.0046594 0.0000
                      *** Initiating the SOSCF procedure ***
                           *** Shutting down DIIS ***
                      *** Re-Reading the Fockian *** 
                      *** Removing any level shift *** 
ITER      Energy       Delta-E        Grad      Rot      Max-DP    RMS-DP
  6  -2364.84613329  -0.0004767329  0.001527  0.001527  0.003011  0.000040
               *** Restarting incremental Fock matrix formation ***
  7  -2364.84619367  -0.0000603778  0.000654  0.004996  0.003266  0.000045
  8  -2364.84619876  -0.0000050902  0.000577  0.002162  0.001538  0.000029
  9  -2364.84620186  -0.0000031039  0.000484  0.002761  0.001853  0.000026
 10  -2364.84620958  -0.0000077188  0.000170  0.000687  0.001131  0.000013
 11  -2364.84621007  -0.0000004940  0.000163  0.001142  0.000949  0.000012
 12  -2364.84621230  -0.0000022247  0.000087  0.000368  0.000414  0.000007
 13  -2364.84621185   0.0000004492  0.000105  0.000372  0.000320  0.000006
 14  -2364.84621294  -0.0000010894  0.000023  0.000118  0.000168  0.000002
 15  -2364.84621284   0.0000001012  0.000041  0.000097  0.000097  0.000002
 16  -2364.84621300  -0.0000001661  0.000011  0.000074  0.000103  0.000001
 17  -2364.84621295   0.0000000499  0.000020  0.000046  0.000069  0.000001
 18  -2364.84621299  -0.0000000361  0.000003  0.000018  0.000023  0.000000
 19  -2364.84621300  -0.0000000134  0.000007  0.000015  0.000018  0.000000
                  ***Gradient check signals convergence***
              ***Rediagonalizing the Fockian in SOSCF/NRSCF***

               *****************************************************
               *                     SUCCESS                       *
               *           SCF CONVERGED AFTER  20 CYCLES          *
               *****************************************************

Setting up the final grid:

General Integration Accuracy     IntAcc      ...  5.010
Radial Grid Type                 RadialGrid  ... Gauss-Chebyshev
Angular Grid (max. acc.)         AngularGrid ... Lebedev-434
Angular grid pruning method      GridPruning ... 3 (G Style)
Weight generation scheme         WeightScheme... Becke
Basis function cutoff            BFCut       ...    1.0000e-11
Integration weight cutoff        WCut        ...    1.0000e-14
Grids for H and He will be reduced by one unit

# of grid points (after initial pruning)     ... 381376 (   0.2 sec)
# of grid points (after weights+screening)   ... 336668 (   2.6 sec)
nearest neighbour list constructed           ...    0.0 sec
Grid point re-assignment to atoms done       ...    0.0 sec
Grid point division into batches done        ...    1.7 sec
Reduced shell lists constructed in    4.1 sec

Total number of grid points                  ...   336668
Total number of batches                      ...     5278
Average number of points per batch           ...       63
Average number of grid points per atom       ...     8016
Average number of shells per batch           ...    67.90 (32.96%)
Average number of basis functions per batch  ...   138.74 (31.39%)
Average number of large shells per batch     ...    44.18 (65.06%)
Average number of large basis fcns per batch ...    91.32 (65.82%)
Maximum spatial batch extension              ...  19.10, 19.92, 23.08 au
Average spatial batch extension              ...   1.83,  1.88,  1.98 au

Final grid set up in   31.7 sec
Final integration                            ... done (   3.7 sec)
Change in XC energy                          ...    -0.000785997
Integrated number of electrons               ...   202.000032037
Previous integrated no of electrons          ...   201.999512715

----------------
TOTAL SCF ENERGY
----------------

Total Energy       :        -2364.84699900 Eh          -64350.75837 eV

Components:
Nuclear Repulsion  :         2424.54425087 Eh           65975.20318 eV
Electronic Energy  :        -4789.39124987 Eh         -130325.96155 eV
One Electron Energy:        -8067.08691515 Eh         -219516.59497 eV
Two Electron Energy:         3277.69566528 Eh           89190.63342 eV

Virial components:
Potential Energy   :        -4716.69008488 Eh         -128347.66228 eV
Kinetic Energy     :         2351.84308588 Eh           63996.90391 eV
Virial Ratio       :            2.00552924


DFT components:
N(Alpha)           :      101.000016018272 electrons
N(Beta)            :      101.000016018272 electrons
N(Total)           :      202.000032036545 electrons
E(X)               :     -210.271923130174 Eh       
E(C)               :       -7.873711052146 Eh       
E(XC)              :     -218.145634182320 Eh       
DFET-embed. en.    :        0.000000000000 Eh       

---------------
SCF CONVERGENCE
---------------

  Last Energy change         ...   -3.5234e-09  Tolerance :   1.0000e-08
  Last MAX-Density change    ...    8.6939e-06  Tolerance :   1.0000e-07
  Last RMS-Density change    ...    1.2211e-07  Tolerance :   5.0000e-09
  Last Orbital Gradient      ...    8.3769e-07  Tolerance :   1.0000e-05
  Last Orbital Rotation      ...    5.5265e-06  Tolerance :   1.0000e-05

             **** THE GBW FILE WAS UPDATED (P3HT_Optimize_Monomer.gbw) ****
             **** DENSITY FILE WAS UPDATED (P3HT_Optimize_Monomer.scfp) ****
             **** ENERGY FILE WAS UPDATED (P3HT_Optimize_Monomer.en.tmp) ****
             **** THE GBW FILE WAS UPDATED (P3HT_Optimize_Monomer.gbw) ****
             **** DENSITY FILE WAS UPDATED (P3HT_Optimize_Monomer.scfp) ****
----------------
ORBITAL ENERGIES
----------------

  NO   OCC          E(Eh)            E(eV) 
   0   2.0000     -88.115831     -2397.7537 
   1   2.0000     -88.115174     -2397.7358 
   2   2.0000     -88.114822     -2397.7262 
   3   2.0000     -88.114365     -2397.7138 
   4   2.0000      -9.951273      -270.7879 
   5   2.0000      -9.950563      -270.7686 
   6   2.0000      -9.949396      -270.7368 
   7   2.0000      -9.948713      -270.7182 
   8   2.0000      -9.947848      -270.6947 
   9   2.0000      -9.946738      -270.6645 
  10   2.0000      -9.935591      -270.3612 
  11   2.0000      -9.929761      -270.2025 
  12   2.0000      -9.928228      -270.1608 
  13   2.0000      -9.927617      -270.1442 
  14   2.0000      -9.927468      -270.1401 
  15   2.0000      -9.923269      -270.0259 
  16   2.0000      -9.916697      -269.8470 
  17   2.0000      -9.916437      -269.8400 
  18   2.0000      -9.916405      -269.8391 
  19   2.0000      -9.916218      -269.8340 
  20   2.0000      -9.916071      -269.8300 
  21   2.0000      -9.915836      -269.8236 
  22   2.0000      -9.914737      -269.7937 
  23   2.0000      -9.913674      -269.7648 
  24   2.0000      -7.712772      -209.8752 
  25   2.0000      -7.712292      -209.8621 
  26   2.0000      -7.711763      -209.8477 
  27   2.0000      -7.711747      -209.8473 
  28   2.0000      -5.739728      -156.1859 
  29   2.0000      -5.739341      -156.1754 
  30   2.0000      -5.738890      -156.1631 
  31   2.0000      -5.738797      -156.1606 
  32   2.0000      -5.734963      -156.0563 
  33   2.0000      -5.734778      -156.0512 
  34   2.0000      -5.734184      -156.0351 
  35   2.0000      -5.734027      -156.0308 
  36   2.0000      -5.732326      -155.9845 
  37   2.0000      -5.731264      -155.9556 
  38   2.0000      -5.731047      -155.9497 
  39   2.0000      -5.730785      -155.9426 
  40   2.0000      -0.828427       -22.5426 
  41   2.0000      -0.819179       -22.2910 
  42   2.0000      -0.807752       -21.9800 
  43   2.0000      -0.798783       -21.7360 
  44   2.0000      -0.718648       -19.5554 
  45   2.0000      -0.705116       -19.1872 
  46   2.0000      -0.698816       -19.0157 
  47   2.0000      -0.695397       -18.9227 
  48   2.0000      -0.693310       -18.8659 
  49   2.0000      -0.676337       -18.4041 
  50   2.0000      -0.648077       -17.6351 
  51   2.0000      -0.631525       -17.1847 
  52   2.0000      -0.616990       -16.7892 
  53   2.0000      -0.615875       -16.7588 
  54   2.0000      -0.610839       -16.6218 
  55   2.0000      -0.593283       -16.1440 
  56   2.0000      -0.548743       -14.9321 
  57   2.0000      -0.532611       -14.4931 
  58   2.0000      -0.515281       -14.0215 
  59   2.0000      -0.502446       -13.6723 
  60   2.0000      -0.489579       -13.3221 
  61   2.0000      -0.475404       -12.9364 
  62   2.0000      -0.462629       -12.5888 
  63   2.0000      -0.460376       -12.5275 
  64   2.0000      -0.449316       -12.2265 
  65   2.0000      -0.445185       -12.1141 
  66   2.0000      -0.421200       -11.4614 
  67   2.0000      -0.397483       -10.8161 
  68   2.0000      -0.394301       -10.7295 
  69   2.0000      -0.388594       -10.5742 
  70   2.0000      -0.387123       -10.5342 
  71   2.0000      -0.385939       -10.5019 
  72   2.0000      -0.384373       -10.4593 
  73   2.0000      -0.382338       -10.4039 
  74   2.0000      -0.382265       -10.4020 
  75   2.0000      -0.372071       -10.1246 
  76   2.0000      -0.363189        -9.8829 
  77   2.0000      -0.356406        -9.6983 
  78   2.0000      -0.353383        -9.6160 
  79   2.0000      -0.352024        -9.5791 
  80   2.0000      -0.347111        -9.4454 
  81   2.0000      -0.347065        -9.4441 
  82   2.0000      -0.339711        -9.2440 
  83   2.0000      -0.336372        -9.1531 
  84   2.0000      -0.334832        -9.1112 
  85   2.0000      -0.328063        -8.9271 
  86   2.0000      -0.323897        -8.8137 
  87   2.0000      -0.320886        -8.7317 
  88   2.0000      -0.317346        -8.6354 
  89   2.0000      -0.308471        -8.3939 
  90   2.0000      -0.302962        -8.2440 
  91   2.0000      -0.293997        -8.0001 
  92   2.0000      -0.288194        -7.8422 
  93   2.0000      -0.268702        -7.3117 
  94   2.0000      -0.235853        -6.4179 
  95   2.0000      -0.223329        -6.0771 
  96   2.0000      -0.221181        -6.0186 
  97   2.0000      -0.219064        -5.9610 
  98   2.0000      -0.216832        -5.9003 
  99   2.0000      -0.197417        -5.3720 
 100   2.0000      -0.165069        -4.4918 
 101   0.0000      -0.085734        -2.3329 
 102   0.0000      -0.058468        -1.5910 
 103   0.0000      -0.030052        -0.8178 
 104   0.0000      -0.006615        -0.1800 
 105   0.0000      -0.003407        -0.0927 
 106   0.0000       0.001244         0.0339 
 107   0.0000       0.008335         0.2268 
 108   0.0000       0.009113         0.2480 
 109   0.0000       0.014573         0.3966 
 110   0.0000       0.030229         0.8226 
 111   0.0000       0.036287         0.9874 
 112   0.0000       0.045495         1.2380 
 113   0.0000       0.050645         1.3781 
 114   0.0000       0.052316         1.4236 
 115   0.0000       0.060555         1.6478 
 116   0.0000       0.062982         1.7138 
 117   0.0000       0.069032         1.8785 
 118   0.0000       0.072385         1.9697 
 119   0.0000       0.074653         2.0314 
 120   0.0000       0.080489         2.1902 
 121   0.0000       0.086028         2.3409 
 122   0.0000       0.092912         2.5283 
 123   0.0000       0.097149         2.6436 
 124   0.0000       0.103897         2.8272 
 125   0.0000       0.110895         3.0176 
 126   0.0000       0.118285         3.2187 
 127   0.0000       0.121648         3.3102 
 128   0.0000       0.128490         3.4964 
 129   0.0000       0.129576         3.5259 
 130   0.0000       0.131361         3.5745 
 131   0.0000       0.135612         3.6902 
 132   0.0000       0.137305         3.7362 
 133   0.0000       0.153315         4.1719 
 134   0.0000       0.171737         4.6732 
 135   0.0000       0.182166         4.9570 
 136   0.0000       0.183744         4.9999 
 137   0.0000       0.192937         5.2501 
 138   0.0000       0.206801         5.6273 
 139   0.0000       0.219578         5.9750 
 140   0.0000       0.223555         6.0833 
 141   0.0000       0.234782         6.3887 
 142   0.0000       0.247777         6.7424 
 143   0.0000       0.250288         6.8107 
 144   0.0000       0.255159         6.9432 
 145   0.0000       0.266371         7.2483 
 146   0.0000       0.268389         7.3032 
 147   0.0000       0.274282         7.4636 
 148   0.0000       0.282163         7.6781 
 149   0.0000       0.284920         7.7531 
 150   0.0000       0.307470         8.3667 
 151   0.0000       0.311688         8.4815 
 152   0.0000       0.318102         8.6560 
 153   0.0000       0.325484         8.8569 
 154   0.0000       0.335531         9.1303 
 155   0.0000       0.338663         9.2155 
 156   0.0000       0.348616         9.4863 
 157   0.0000       0.352764         9.5992 
 158   0.0000       0.360486         9.8093 
 159   0.0000       0.365741         9.9523 
 160   0.0000       0.368824        10.0362 
 161   0.0000       0.374766        10.1979 
 162   0.0000       0.378476        10.2989 
 163   0.0000       0.384064        10.4509 
 164   0.0000       0.387253        10.5377 
 165   0.0000       0.392685        10.6855 
 166   0.0000       0.401423        10.9233 
 167   0.0000       0.401786        10.9331 
 168   0.0000       0.403591        10.9823 
 169   0.0000       0.404209        10.9991 
 170   0.0000       0.406639        11.0652 
 171   0.0000       0.407241        11.0816 
 172   0.0000       0.418545        11.3892 
 173   0.0000       0.423348        11.5199 
 174   0.0000       0.437241        11.8979 
 175   0.0000       0.448429        12.2024 
 176   0.0000       0.449258        12.2249 
 177   0.0000       0.454508        12.3678 
 178   0.0000       0.460744        12.5375 
 179   0.0000       0.464650        12.6438 
 180   0.0000       0.471570        12.8321 
 181   0.0000       0.476297        12.9607 
 182   0.0000       0.480340        13.0707 
 183   0.0000       0.488655        13.2970 
 184   0.0000       0.489248        13.3131 
 185   0.0000       0.495949        13.4955 
 186   0.0000       0.510092        13.8803 
 187   0.0000       0.520556        14.1651 
 188   0.0000       0.520705        14.1691 
 189   0.0000       0.524800        14.2805 
 190   0.0000       0.531763        14.4700 
 191   0.0000       0.542942        14.7742 
 192   0.0000       0.543284        14.7835 
 193   0.0000       0.546582        14.8733 
 194   0.0000       0.554605        15.0916 
 195   0.0000       0.556201        15.1350 
 196   0.0000       0.565812        15.3965 
 197   0.0000       0.570508        15.5243 
 198   0.0000       0.577024        15.7016 
 199   0.0000       0.577491        15.7143 
 200   0.0000       0.578819        15.7505 
 201   0.0000       0.592713        16.1286 
 202   0.0000       0.592723        16.1288 
 203   0.0000       0.597685        16.2638 
 204   0.0000       0.598935        16.2979 
 205   0.0000       0.602436        16.3931 
 206   0.0000       0.606201        16.4956 
 207   0.0000       0.609153        16.5759 
 208   0.0000       0.611539        16.6408 
 209   0.0000       0.615877        16.7589 
 210   0.0000       0.618557        16.8318 
 211   0.0000       0.621091        16.9008 
 212   0.0000       0.627374        17.0717 
 213   0.0000       0.629327        17.1248 
 214   0.0000       0.630095        17.1458 
 215   0.0000       0.632764        17.2184 
 216   0.0000       0.635116        17.2824 
 217   0.0000       0.638713        17.3803 
 218   0.0000       0.640240        17.4218 
 219   0.0000       0.642557        17.4849 
 220   0.0000       0.646227        17.5847 
 221   0.0000       0.648723        17.6527 
 222   0.0000       0.649799        17.6819 
 223   0.0000       0.651858        17.7379 
 224   0.0000       0.654870        17.8199 
 225   0.0000       0.658295        17.9131 
 226   0.0000       0.663038        18.0422 
 227   0.0000       0.668963        18.2034 
 228   0.0000       0.670713        18.2510 
 229   0.0000       0.672401        18.2970 
 230   0.0000       0.681576        18.5466 
 231   0.0000       0.685219        18.6458 
 232   0.0000       0.689694        18.7675 
 233   0.0000       0.694677        18.9031 
 234   0.0000       0.698487        19.0068 
 235   0.0000       0.709170        19.2975 
 236   0.0000       0.714923        19.4540 
 237   0.0000       0.717362        19.5204 
 238   0.0000       0.723318        19.6825 
 239   0.0000       0.736317        20.0362 
 240   0.0000       0.736568        20.0430 
 241   0.0000       0.749016        20.3818 
 242   0.0000       0.751600        20.4521 
 243   0.0000       0.768930        20.9236 
 244   0.0000       0.779464        21.2103 
 245   0.0000       0.795191        21.6383 
 246   0.0000       0.798393        21.7254 
 247   0.0000       0.818108        22.2618 
 248   0.0000       0.819125        22.2895 
 249   0.0000       0.821955        22.3665 
 250   0.0000       0.842878        22.9359 
 251   0.0000       0.843668        22.9574 
 252   0.0000       0.845255        23.0006 
 253   0.0000       0.845531        23.0081 
 254   0.0000       0.865116        23.5410 
 255   0.0000       0.874582        23.7986 
 256   0.0000       0.899239        24.4695 
 257   0.0000       0.901577        24.5332 
 258   0.0000       0.918404        24.9910 
 259   0.0000       0.926099        25.2004 
 260   0.0000       0.954817        25.9819 
 261   0.0000       0.972968        26.4758 
 262   0.0000       0.987655        26.8755 
 263   0.0000       1.002227        27.2720 
 264   0.0000       1.013269        27.5725 
 265   0.0000       1.022298        27.8181 
 266   0.0000       1.041596        28.3433 
 267   0.0000       1.065226        28.9863 
 268   0.0000       1.066939        29.0329 
 269   0.0000       1.078645        29.3514 
 270   0.0000       1.086241        29.5581 
 271   0.0000       1.093840        29.7649 
 272   0.0000       1.105253        30.0755 
 273   0.0000       1.111943        30.2575 
 274   0.0000       1.122365        30.5411 
 275   0.0000       1.132308        30.8117 
 276   0.0000       1.144371        31.1399 
 277   0.0000       1.149710        31.2852 
 278   0.0000       1.163285        31.6546 
 279   0.0000       1.171450        31.8768 
 280   0.0000       1.174862        31.9696 
 281   0.0000       1.176581        32.0164 
 282   0.0000       1.187419        32.3113 
 283   0.0000       1.201965        32.7071 
 284   0.0000       1.206766        32.8378 
 285   0.0000       1.211886        32.9771 
 286   0.0000       1.217905        33.1409 
 287   0.0000       1.221225        33.2312 
 288   0.0000       1.221492        33.2385 
 289   0.0000       1.233859        33.5750 
 290   0.0000       1.240321        33.7509 
 291   0.0000       1.253154        34.1001 
 292   0.0000       1.275664        34.7126 
 293   0.0000       1.300949        35.4006 
 294   0.0000       1.303881        35.4804 
 295   0.0000       1.308590        35.6085 
 296   0.0000       1.323800        36.0224 
 297   0.0000       1.348978        36.7076 
 298   0.0000       1.354526        36.8585 
 299   0.0000       1.376381        37.4532 
 300   0.0000       1.408180        38.3185 
 301   0.0000       1.418354        38.5954 
 302   0.0000       1.435454        39.0607 
 303   0.0000       1.445274        39.3279 
 304   0.0000       1.460506        39.7424 
 305   0.0000       1.461512        39.7698 
 306   0.0000       1.464041        39.8386 
 307   0.0000       1.467857        39.9424 
 308   0.0000       1.470043        40.0019 
 309   0.0000       1.475472        40.1496 
 310   0.0000       1.489951        40.5436 
 311   0.0000       1.506031        40.9812 
 312   0.0000       1.519467        41.3468 
 313   0.0000       1.543200        41.9926 
 314   0.0000       1.589346        43.2483 
 315   0.0000       1.597238        43.4630 
 316   0.0000       1.599811        43.5331 
 317   0.0000       1.612890        43.8890 
 318   0.0000       1.619331        44.0642 
 319   0.0000       1.629664        44.3454 
 320   0.0000       1.638168        44.5768 
 321   0.0000       1.641327        44.6628 
 322   0.0000       1.669371        45.4259 
 323   0.0000       1.676477        45.6192 
 324   0.0000       1.681954        45.7683 
 325   0.0000       1.684515        45.8380 
 326   0.0000       1.686833        45.9010 
 327   0.0000       1.690516        46.0013 
 328   0.0000       1.693631        46.0860 
 329   0.0000       1.701798        46.3083 
 330   0.0000       1.710657        46.5493 
 331   0.0000       1.712701        46.6050 
 332   0.0000       1.714582        46.6561 
 333   0.0000       1.718010        46.7494 
 334   0.0000       1.729441        47.0605 
 335   0.0000       1.731334        47.1120 
 336   0.0000       1.738465        47.3060 
 337   0.0000       1.741500        47.3886 
 338   0.0000       1.751994        47.6742 
 339   0.0000       1.752732        47.6943 
 340   0.0000       1.757247        47.8171 
 341   0.0000       1.767227        48.0887 
 342   0.0000       1.778535        48.3964 
 343   0.0000       1.786268        48.6068 
 344   0.0000       1.803272        49.0695 
 345   0.0000       1.818636        49.4876 
 346   0.0000       1.827273        49.7226 
 347   0.0000       1.859614        50.6027 
 348   0.0000       1.877750        51.0962 
 349   0.0000       1.881268        51.1919 
 350   0.0000       1.882462        51.2244 
 351   0.0000       1.893588        51.5272 
 352   0.0000       1.901766        51.7497 
 353   0.0000       1.916469        52.1498 
 354   0.0000       1.922825        52.3227 
 355   0.0000       1.928111        52.4666 
 356   0.0000       1.933029        52.6004 
 357   0.0000       1.933883        52.6236 
 358   0.0000       1.935223        52.6601 
 359   0.0000       1.946055        52.9549 
 360   0.0000       1.953728        53.1636 
 361   0.0000       1.960244        53.3410 
 362   0.0000       1.969103        53.5820 
 363   0.0000       1.971139        53.6374 
 364   0.0000       1.974764        53.7360 
 365   0.0000       1.985951        54.0405 
 366   0.0000       1.994477        54.2725 
 367   0.0000       2.026649        55.1479 
 368   0.0000       2.038730        55.4767 
 369   0.0000       2.050785        55.8047 
 370   0.0000       2.056176        55.9514 
 371   0.0000       2.077908        56.5427 
 372   0.0000       2.089177        56.8494 
 373   0.0000       2.093150        56.9575 
 374   0.0000       2.122919        57.7676 
 375   0.0000       2.145807        58.3904 
 376   0.0000       2.152088        58.5613 
 377   0.0000       2.153279        58.5937 
 378   0.0000       2.157900        58.7194 
 379   0.0000       2.173834        59.1530 
 380   0.0000       2.182481        59.3883 
 381   0.0000       2.187431        59.5230 
 382   0.0000       2.202766        59.9403 
 383   0.0000       2.219418        60.3934 
 384   0.0000       2.227884        60.6238 
 385   0.0000       2.235156        60.8217 
 386   0.0000       2.256992        61.4159 
 387   0.0000       2.258373        61.4534 
 388   0.0000       2.277337        61.9695 
 389   0.0000       2.290001        62.3141 
 390   0.0000       2.298047        62.5330 
 391   0.0000       2.317045        63.0500 
 392   0.0000       2.341516        63.7159 
 393   0.0000       2.352588        64.0172 
 394   0.0000       2.356841        64.1329 
 395   0.0000       2.362533        64.2878 
 396   0.0000       2.366337        64.3913 
 397   0.0000       2.390903        65.0598 
 398   0.0000       2.391875        65.0862 
 399   0.0000       2.394305        65.1524 
 400   0.0000       2.396735        65.2185 
 401   0.0000       2.400060        65.3089 
 402   0.0000       2.400363        65.3172 
 403   0.0000       2.415431        65.7272 
 404   0.0000       2.433461        66.2178 
 405   0.0000       2.507754        68.2394 
 406   0.0000       2.525033        68.7096 
 407   0.0000       2.538542        69.0772 
 408   0.0000       2.541972        69.1706 
 409   0.0000       2.561772        69.7094 
 410   0.0000       2.567057        69.8532 
 411   0.0000       2.586968        70.3950 
 412   0.0000       2.608475        70.9802 
 413   0.0000       2.612341        71.0854 
 414   0.0000       2.622542        71.3630 
 415   0.0000       2.639157        71.8151 
 416   0.0000       2.644739        71.9670 
 417   0.0000       2.649964        72.1092 
 418   0.0000       2.659095        72.3577 
 419   0.0000       2.669033        72.6281 
 420   0.0000       2.712610        73.8139 
 421   0.0000       2.723912        74.1214 
 422   0.0000       2.801469        76.2318 
 423   0.0000       2.811203        76.4967 
 424   0.0000       2.836831        77.1941 
 425   0.0000       2.841431        77.3193 
 426   0.0000       2.847574        77.4864 
 427   0.0000       2.848706        77.5172 
 428   0.0000       2.849842        77.5481 
 429   0.0000       2.857881        77.7669 
 430   0.0000       2.874953        78.2314 
 431   0.0000       2.884615        78.4944 
 432   0.0000       2.897318        78.8400 
 433   0.0000       2.921390        79.4951 
 434   0.0000       2.980300        81.0981 
 435   0.0000       3.028014        82.3965 
 436   0.0000       3.067159        83.4616 
 437   0.0000       3.085554        83.9622 
 438   0.0000       3.149323        85.6974 
 439   0.0000       3.193759        86.9066 
 440   0.0000       3.229900        87.8901 
 441   0.0000       3.243116        88.2497 

                    ********************************
                    * MULLIKEN POPULATION ANALYSIS *
                    ********************************

-----------------------
MULLIKEN ATOMIC CHARGES
-----------------------
   0 C :   -0.023609
   1 C :   -0.068681
   2 C :   -0.096033
   3 H :   -0.012450
   4 C :   -0.057102
   5 S :    0.088153
   6 C :    0.064401
   7 H :    0.021445
   8 H :    0.046247
   9 H :    0.046248
  10 C :   -0.044688
  11 C :   -0.057577
  12 C :   -0.099774
  13 H :   -0.015143
  14 C :   -0.049033
  15 S :    0.083973
  16 C :    0.062735
  17 H :    0.020000
  18 H :    0.046510
  19 H :    0.046510
  20 C :   -0.102869
  21 C :   -0.023048
  22 C :   -0.053412
  23 H :   -0.012034
  24 C :   -0.128244
  25 S :    0.099249
  26 H :    0.023577
  27 C :   -0.098843
  28 C :   -0.082649
  29 C :   -0.014284
  30 C :   -0.067163
  31 H :   -0.008947
  32 S :    0.096114
  33 H :    0.040087
  34 C :    0.059496
  35 H :    0.022079
  36 H :    0.042753
  37 H :    0.042751
  38 C :    0.057126
  39 H :    0.023245
  40 H :    0.041458
  41 H :    0.041426
Sum of atomic charges:    0.0000000

--------------------------------
MULLIKEN REDUCED ORBITAL CHARGES
--------------------------------
  0 C s       :     3.024698  s :     3.024698
      pz      :     1.092544  p :     2.955850
      px      :     0.978105
      py      :     0.885201
      dz2     :     0.003361  d :     0.043060
      dxz     :     0.008407
      dyz     :     0.007173
      dx2y2   :     0.012656
      dxy     :     0.011463
  1 C s       :     3.277282  s :     3.277282
      pz      :     1.047759  p :     2.759503
      px      :     0.923281
      py      :     0.788463
      dz2     :     0.002607  d :     0.031896
      dxz     :     0.006420
      dyz     :     0.002813
      dx2y2   :     0.009845
      dxy     :     0.010211
  2 C s       :     3.105458  s :     3.105458
      pz      :     1.014383  p :     2.949666
      px      :     0.945185
      py      :     0.990097
      dz2     :     0.002883  d :     0.040910
      dxz     :     0.006725
      dyz     :     0.006998
      dx2y2   :     0.013683
      dxy     :     0.010621
  3 H s       :     0.989044  s :     0.989044
      pz      :     0.005807  p :     0.023406
      px      :     0.004061
      py      :     0.013538
  4 C s       :     3.040930  s :     3.040930
      pz      :     1.120439  p :     2.974514
      px      :     0.853954
      py      :     1.000122
      dz2     :     0.003339  d :     0.041658
      dxz     :     0.006430
      dyz     :     0.007961
      dx2y2   :     0.011684
      dxy     :     0.012245
  5 S s       :     5.848456  s :     5.848456
      pz      :     3.656049  p :     9.946304
      px      :     3.039630
      py      :     3.250625
      dz2     :     0.012435  d :     0.117087
      dxz     :     0.023170
      dyz     :     0.014467
      dx2y2   :     0.033982
      dxy     :     0.033033
  6 C s       :     2.901005  s :     2.901005
      pz      :     1.015229  p :     3.008602
      px      :     1.005521
      py      :     0.987852
      dz2     :     0.005009  d :     0.025993
      dxz     :     0.008453
      dyz     :     0.001557
      dx2y2   :     0.005573
      dxy     :     0.005399
  7 H s       :     0.955538  s :     0.955538
      pz      :     0.005555  p :     0.023017
      px      :     0.005251
      py      :     0.012211
  8 H s       :     0.930051  s :     0.930051
      pz      :     0.010644  p :     0.023702
      px      :     0.007532
      py      :     0.005526
  9 H s       :     0.930050  s :     0.930050
      pz      :     0.010644  p :     0.023702
      px      :     0.007532
      py      :     0.005526
 10 C s       :     3.023430  s :     3.023430
      pz      :     1.096694  p :     2.978144
      px      :     0.906091
      py      :     0.975359
      dz2     :     0.003367  d :     0.043114
      dxz     :     0.007165
      dyz     :     0.008446
[...]
      px      :     1.061333
      py      :     1.026716
      dz2     :     0.007414  d :     0.103056
      dxz     :     0.016469
      dyz     :     0.013057
      dx2y2   :     0.033903
      dxy     :     0.032214
  1 C s       :     2.874348  s :     2.874348
      pz      :     1.037651  p :     3.113964
      px      :     1.036057
      py      :     1.040257
      dz2     :     0.006397  d :     0.087112
      dxz     :     0.014544
      dyz     :     0.004761
      dx2y2   :     0.029375
      dxy     :     0.032036
  2 C s       :     2.861900  s :     2.861900
      pz      :     0.997553  p :     3.093019
      px      :     1.046597
      py      :     1.048869
      dz2     :     0.007237  d :     0.105697
      dxz     :     0.012818
      dyz     :     0.013829
      dx2y2   :     0.039808
      dxy     :     0.032004
  3 H s       :     0.902778  s :     0.902778
      pz      :     0.015742  p :     0.068938
      px      :     0.011826
      py      :     0.041370
  4 C s       :     2.910961  s :     2.910961
      pz      :     1.104250  p :     3.175540
      px      :     1.003676
      py      :     1.067614
      dz2     :     0.007513  d :     0.102300
      dxz     :     0.012287
      dyz     :     0.015840
      dx2y2   :     0.032412
      dxy     :     0.034247
  5 S s       :     5.509121  s :     5.509121
      pz      :     3.642609  p :     9.929678
      px      :     3.016155
      py      :     3.270913
      dz2     :     0.015314  d :     0.128202
      dxz     :     0.022695
      dyz     :     0.012012
      dx2y2   :     0.040142
      dxy     :     0.038039
  6 C s       :     2.843696  s :     2.843696
      pz      :     1.070922  p :     3.161371
      px      :     1.035116
      py      :     1.055333
      dz2     :     0.012635  d :     0.068049
      dxz     :     0.022339
      dyz     :     0.003148
      dx2y2   :     0.015383
      dxy     :     0.014544
  7 H s       :     0.896411  s :     0.896411
      pz      :     0.012394  p :     0.063844
      px      :     0.013370
      py      :     0.038080
  8 H s       :     0.896423  s :     0.896423
      pz      :     0.030648  p :     0.065424
      px      :     0.021447
      py      :     0.013329
  9 H s       :     0.896427  s :     0.896427
      pz      :     0.030647  p :     0.065427
      px      :     0.021450
      py      :     0.013331
 10 C s       :     2.910376  s :     2.910376
      pz      :     1.080701  p :     3.168290
      px      :     1.009638
      py      :     1.077951
      dz2     :     0.007440  d :     0.104052
      dxz     :     0.012932
      dyz     :     0.016999
      dx2y2   :     0.034313
      dxy     :     0.032368
 11 C s       :     2.873803  s :     2.873803
      pz      :     1.042245  p :     3.116574
      px      :     1.038380
      py      :     1.035949
      dz2     :     0.006392  d :     0.086881
      dxz     :     0.006757
      dyz     :     0.012365
      dx2y2   :     0.031955
      dxy     :     0.029412
 12 C s       :     2.862240  s :     2.862240
      pz      :     0.996226  p :     3.091908
      px      :     1.055114
      py      :     1.040568
      dz2     :     0.007231  d :     0.105894
      dxz     :     0.014855
      dyz     :     0.012026
      dx2y2   :     0.031024
      dxy     :     0.040758
 13 H s       :     0.902870  s :     0.902870
      pz      :     0.015985  p :     0.068817
      px      :     0.034820
      py      :     0.018012
 14 C s       :     2.911510  s :     2.911510
      pz      :     1.105863  p :     3.177729
      px      :     1.059396
      py      :     1.012469
      dz2     :     0.007482  d :     0.101914
      dxz     :     0.016052
      dyz     :     0.011842
      dx2y2   :     0.036561
      dxy     :     0.029976
 15 S s       :     5.515165  s :     5.515165
      pz      :     3.635394  p :     9.922747
      px      :     3.042816
      py      :     3.244537
      dz2     :     0.015208  d :     0.127230
      dxz     :     0.021121
      dyz     :     0.014238
      dx2y2   :     0.046227
      dxy     :     0.030435
 16 C s       :     2.843642  s :     2.843642
      pz      :     1.070696  p :     3.160984
      px      :     1.074602
      py      :     1.015687
      dz2     :     0.012632  d :     0.068035
      dxz     :     0.012627
      dyz     :     0.012817
      dx2y2   :     0.016613
      dxy     :     0.013346
 17 H s       :     0.897067  s :     0.897067
      pz      :     0.012391  p :     0.063810
      px      :     0.034451
      py      :     0.016969
 18 H s       :     0.896829  s :     0.896829
      pz      :     0.030621  p :     0.065378
      px      :     0.019694
      py      :     0.015063
 19 H s       :     0.896831  s :     0.896831
      pz      :     0.030615  p :     0.065378
      px      :     0.019699
      py      :     0.015064
 20 C s       :     2.912781  s :     2.912781
      pz      :     1.087040  p :     3.171896
      px      :     1.061180
      py      :     1.023676
      dz2     :     0.007380  d :     0.103061
      dxz     :     0.016753
      dyz     :     0.012565
      dx2y2   :     0.034262
      dxy     :     0.032100
 21 C s       :     2.875759  s :     2.875759
      pz      :     1.047464  p :     3.120935
      px      :     1.034692
      py      :     1.038779
      dz2     :     0.006330  d :     0.085448
      dxz     :     0.013543
      dyz     :     0.004748
      dx2y2   :     0.028683
      dxy     :     0.032143
 22 C s       :     2.866522  s :     2.866522
      pz      :     0.984346  p :     3.091191
      px      :     1.042208
      py      :     1.064637
      dz2     :     0.007177  d :     0.107451
      dxz     :     0.012596
      dyz     :     0.015268
      dx2y2   :     0.039436
      dxy     :     0.032973
 23 H s       :     0.903475  s :     0.903475
      pz      :     0.016143  p :     0.069001
      px      :     0.011918
      py      :     0.040940
 24 C s       :     2.940092  s :     2.940092
      pz      :     1.133711  p :     3.195824
      px      :     0.996023
      py      :     1.066091
      dz2     :     0.005977  d :     0.079186
      dxz     :     0.006675
      dyz     :     0.011201
      dx2y2   :     0.025137
      dxy     :     0.030195
 25 S s       :     5.513952  s :     5.513952
      pz      :     3.601078  p :     9.915988
      px      :     3.032972
      py      :     3.281938
      dz2     :     0.015409  d :     0.133676
      dxz     :     0.027937
      dyz     :     0.011746
      dx2y2   :     0.038927
      dxy     :     0.039657
 26 H s       :     0.898642  s :     0.898642
      pz      :     0.018415  p :     0.072937
      px      :     0.031679
      py      :     0.022844
 27 C s       :     2.914057  s :     2.914057
      pz      :     1.108510  p :     3.173119
      px      :     1.058940
      py      :     1.005669
      dz2     :     0.007353  d :     0.101073
      dxz     :     0.016195
      dyz     :     0.011540
      dx2y2   :     0.037546
      dxy     :     0.028439
 28 C s       :     2.865510  s :     2.865510
      pz      :     1.004988  p :     3.097126
      px      :     1.052704
      py      :     1.039435
      dz2     :     0.007134  d :     0.103866
      dxz     :     0.013747
      dyz     :     0.012027
      dx2y2   :     0.030293
      dxy     :     0.040665
 29 C s       :     2.878553  s :     2.878553
      pz      :     1.018885  p :     3.104662
      px      :     1.033508
      py      :     1.052268
      dz2     :     0.006295  d :     0.088182
      dxz     :     0.006092
      dyz     :     0.013702
      dx2y2   :     0.030863
      dxy     :     0.031231
 30 C s       :     2.939874  s :     2.939874
      pz      :     1.092952  p :     3.172151
      px      :     0.997207
      py      :     1.081992
      dz2     :     0.005885  d :     0.081267
      dxz     :     0.008158
      dyz     :     0.011175
      dx2y2   :     0.028384
      dxy     :     0.027665
 31 H s       :     0.898574  s :     0.898574
      pz      :     0.015081  p :     0.067028
      px      :     0.035928
      py      :     0.016018
 32 S s       :     5.516903  s :     5.516903
      pz      :     3.617255  p :     9.933297
      px      :     3.069704
      py      :     3.246338
      dz2     :     0.014921  d :     0.129134
      dxz     :     0.023455
      dyz     :     0.013605
      dx2y2   :     0.048472
      dxy     :     0.028681
 33 H s       :     0.895022  s :     0.895022
      pz      :     0.017180  p :     0.072234
      px      :     0.028404
      py      :     0.026651
 34 C s       :     2.843029  s :     2.843029
      pz      :     1.071057  p :     3.151884
      px      :     1.031643
      py      :     1.049185
      dz2     :     0.012741  d :     0.067369
      dxz     :     0.021638
      dyz     :     0.003238
      dx2y2   :     0.016205
      dxy     :     0.013548
 35 H s       :     0.900033  s :     0.900033
      pz      :     0.012435  p :     0.063582
      px      :     0.012836
      py      :     0.038311
 36 H s       :     0.894048  s :     0.894048
      pz      :     0.030026  p :     0.063788
      px      :     0.020669
      py      :     0.013093
 37 H s       :     0.894047  s :     0.894047
      pz      :     0.030035  p :     0.063788
      px      :     0.020661
      py      :     0.013092
 38 C s       :     2.841799  s :     2.841799
      pz      :     1.068792  p :     3.156443
      px      :     1.072369
      py      :     1.015281
      dz2     :     0.012760  d :     0.068188
      dxz     :     0.011591
      dyz     :     0.013931
      dx2y2   :     0.017290
      dxy     :     0.012615
 39 H s       :     0.912204  s :     0.912204
      pz      :     0.012938  p :     0.070352
      px      :     0.040263
      py      :     0.017151
 40 H s       :     0.891250  s :     0.891250
      pz      :     0.030046  p :     0.064070
      px      :     0.018703
      py      :     0.015321
 41 H s       :     0.891266  s :     0.891266
      pz      :     0.029996  p :     0.064069
      px      :     0.018749
      py      :     0.015324


                      *****************************
                      * MAYER POPULATION ANALYSIS *
                      *****************************

  NA   - Mulliken gross atomic population
  ZA   - Total nuclear charge
  QA   - Mulliken gross atomic charge
  VA   - Mayer's total valence
  BVA  - Mayer's bonded valence
  FA   - Mayer's free valence

  ATOM       NA         ZA         QA         VA         BVA        FA
  0 C      6.0329     6.0000    -0.0329     3.9034     3.9034     0.0000
  1 C      6.0714     6.0000    -0.0714     3.9006     3.9006     0.0000
  2 C      6.0699     6.0000    -0.0699     4.1329     4.1329    -0.0000
  3 H      1.0004     1.0000    -0.0004     1.0001     1.0001     0.0000
  4 C      6.0567     6.0000    -0.0567     3.9159     3.9159     0.0000
  5 S     15.9229    16.0000     0.0771     2.5143     2.5143     0.0000
  6 C      5.9638     6.0000     0.0362     3.9082     3.9082    -0.0000
  7 H      0.9713     1.0000     0.0287     0.9956     0.9956     0.0000
  8 H      0.9478     1.0000     0.0522     0.9949     0.9949     0.0000
  9 H      0.9477     1.0000     0.0523     0.9949     0.9949     0.0000
 10 C      6.0594     6.0000    -0.0594     3.9036     3.9036    -0.0000
 11 C      6.0566     6.0000    -0.0566     3.8838     3.8838     0.0000
 12 C      6.0757     6.0000    -0.0757     4.1341     4.1341    -0.0000
 13 H      1.0044     1.0000    -0.0044     1.0000     1.0000    -0.0000
 14 C      6.0494     6.0000    -0.0494     3.9161     3.9161     0.0000
 15 S     15.9270    16.0000     0.0730     2.5023     2.5023     0.0000
 16 C      5.9653     6.0000     0.0347     3.9069     3.9069    -0.0000
 17 H      0.9728     1.0000     0.0272     0.9960     0.9960     0.0000
 18 H      0.9477     1.0000     0.0523     0.9947     0.9947    -0.0000
 19 H      0.9477     1.0000     0.0523     0.9946     0.9946     0.0000
 20 C      6.1096     6.0000    -0.1096     3.9333     3.9333     0.0000
 21 C      6.0238     6.0000    -0.0238     3.8818     3.8818    -0.0000
 22 C      6.0399     6.0000    -0.0399     4.0982     4.0982    -0.0000
 23 H      1.0009     1.0000    -0.0009     0.9997     0.9997     0.0000
 24 C      6.1341     6.0000    -0.1341     3.7963     3.7963    -0.0000
 25 S     15.9148    16.0000     0.0852     2.5406     2.5406    -0.0000
 26 H      0.9658     1.0000     0.0342     0.9981     0.9981     0.0000
 27 C      6.1033     6.0000    -0.1033     3.9438     3.9438     0.0000
 28 C      6.0723     6.0000    -0.0723     4.0974     4.0974    -0.0000
 29 C      6.0090     6.0000    -0.0090     3.9178     3.9178    -0.0000
 30 C      6.0822     6.0000    -0.0822     3.7929     3.7929     0.0000
 31 H      1.0003     1.0000    -0.0003     0.9914     0.9914     0.0000
 32 S     15.9120    16.0000     0.0880     2.5210     2.5210    -0.0000
 33 H      0.9505     1.0000     0.0495     0.9910     0.9910     0.0000
 34 C      5.9689     6.0000     0.0311     3.9236     3.9236    -0.0000
 35 H      0.9730     1.0000     0.0270     0.9964     0.9964    -0.0000
 36 H      0.9531     1.0000     0.0469     0.9873     0.9873     0.0000
 37 H      0.9531     1.0000     0.0469     0.9873     0.9873    -0.0000
 38 C      5.9675     6.0000     0.0325     3.9284     3.9284     0.0000
 39 H      0.9680     1.0000     0.0320     1.0175     1.0175     0.0000
 40 H      0.9534     1.0000     0.0466     0.9872     0.9872     0.0000
 41 H      0.9535     1.0000     0.0465     0.9873     0.9873     0.0000

  Mayer bond orders larger than 0.100000
B(  0-C ,  1-C ) :   1.4251 B(  0-C ,  5-S ) :   1.1067 B(  0-C , 27-C ) :   1.1864 
B(  1-C ,  2-C ) :   1.2896 B(  1-C ,  3-H ) :   0.9663 B(  2-C ,  4-C ) :   1.4302 
B(  2-C ,  6-C ) :   1.1276 B(  4-C ,  5-S ) :   1.0870 B(  4-C , 10-C ) :   1.1958 
B(  6-C ,  7-H ) :   0.9369 B(  6-C ,  8-H ) :   0.9305 B(  6-C ,  9-H ) :   0.9305 
B( 10-C , 11-C ) :   1.4116 B( 10-C , 15-S ) :   1.0976 B( 11-C , 12-C ) :   1.2919 
B( 11-C , 13-H ) :   0.9689 B( 12-C , 14-C ) :   1.4363 B( 12-C , 16-C ) :   1.1249 
B( 14-C , 15-S ) :   1.0880 B( 14-C , 20-C ) :   1.1844 B( 16-C , 17-H ) :   0.9379 
B( 16-C , 18-H ) :   0.9316 B( 16-C , 19-H ) :   0.9316 B( 20-C , 21-C ) :   1.4314 
B( 20-C , 25-S ) :   1.1274 B( 21-C , 22-C ) :   1.2961 B( 21-C , 23-H ) :   0.9678 
B( 22-C , 24-C ) :   1.5118 B( 22-C , 34-C ) :   1.0887 B( 24-C , 25-S ) :   1.1321 
B( 24-C , 26-H ) :   0.9627 B( 27-C , 28-C ) :   1.4610 B( 27-C , 32-S ) :   1.1150 
B( 28-C , 29-C ) :   1.2660 B( 28-C , 38-C ) :   1.1155 B( 29-C , 30-C ) :   1.5258 
B( 29-C , 31-H ) :   0.9821 B( 30-C , 32-S ) :   1.1538 B( 30-C , 33-H ) :   0.9605 
B( 34-C , 35-H ) :   0.9527 B( 34-C , 36-H ) :   0.9491 B( 34-C , 37-H ) :   0.9491 
B( 38-C , 39-H ) :   0.9327 B( 38-C , 40-H ) :   0.9378 B( 38-C , 41-H ) :   0.9378 


-------
TIMINGS
-------

Total SCF time: 0 days 0 hours 1 min 47 sec 

Total time                  ....     107.686 sec
Sum of individual times     ....     106.399 sec  ( 98.8%)

Fock matrix formation       ....      70.371 sec  ( 65.3%)
  Split-RI-J                ....      13.575 sec  ( 19.3% of F)
  XC integration            ....      45.406 sec  ( 64.5% of F)
    Basis function eval.    ....       4.577 sec  ( 10.1% of XC)
    Density eval.           ....       2.385 sec  (  5.3% of XC)
    XC-Functional eval.     ....       0.951 sec  (  2.1% of XC)
    XC-Potential eval.      ....       2.626 sec  (  5.8% of XC)
Diagonalization             ....       0.027 sec  (  0.0%)
Density matrix formation    ....       0.045 sec  (  0.0%)
Population analysis         ....      27.148 sec  ( 25.2%)
Initial guess               ....       0.030 sec  (  0.0%)
Orbital Transformation      ....       0.000 sec  (  0.0%)
Orbital Orthonormalization  ....       0.019 sec  (  0.0%)
DIIS solution               ....       0.008 sec  (  0.0%)
SOSCF solution              ....       0.159 sec  (  0.1%)
Grid generation             ....       8.610 sec  (  8.0%)


-------------------------------------------------------------------------------
                          DFT DISPERSION CORRECTION                            
                                                                               
                              DFTD3 V3.1  Rev 1                                
                          USING Becke-Johnson damping                          
-------------------------------------------------------------------------------
The BP86 functional is recognized
Active option DFTDOPT                   ...         4   

molecular C6(AA) [au] = 29798.915140 


            DFT-D V3
 parameters
 s6 scaling factor         :     1.0000 
 a1 scaling factor         :     0.3946 
 s8 scaling factor         :     3.2822 
 a2 scaling factor         :     4.8516 
 ad hoc parameters k1-k3   :    16.0000     1.3333    -4.0000 

 Edisp/kcal,au: -66.444085385380  -0.105885378698 
 E6   /kcal   : -23.076470747 
 E8   /kcal   : -43.367614639 
 % E8         :  65.269337951 

-------------------------   ----------------
Dispersion correction           -0.105885379
-------------------------   ----------------


-------------------------   --------------------
FINAL SINGLE POINT ENERGY     -2364.966153470393
-------------------------   --------------------

                                *** OPTIMIZATION RUN DONE ***

                            ***************************************
                            *     ORCA property calculations      *
                            ***************************************

                                    ---------------------
                                    Active property flags
                                    ---------------------
   (+) Dipole Moment


------------------------------------------------------------------------------
                       ORCA ELECTRIC PROPERTIES CALCULATION
------------------------------------------------------------------------------

Dipole Moment Calculation                       ... on
Quadrupole Moment Calculation                   ... off
Polarizability Calculation                      ... off
GBWName                                         ... P3HT_Optimize_Monomer.gbw
Electron density file                           ... P3HT_Optimize_Monomer.scfp
The origin for moment calculation is the CENTER OF MASS  = (-1.891103,  2.151562  0.000065)

-------------
DIPOLE MOMENT
-------------
                                X             Y             Z
Electronic contribution:     -8.15000      -3.79340       0.00169
Nuclear contribution   :      8.16043       3.84504      -0.00178
                        -----------------------------------------
Total Dipole Moment    :      0.01043       0.05164      -0.00010
                        -----------------------------------------
Magnitude (a.u.)       :      0.05268
Magnitude (Debye)      :      0.13391



--------------------
Rotational spectrum 
--------------------
 
Rotational constants in cm-1:     0.019692     0.002117     0.001914 
Rotational constants in MHz :   590.347840    63.457927    57.382236 

 Dipole components along the rotational axes: 
x,y,z [a.u.] :     0.029242    -0.043824    -0.000098 
x,y,z [Debye]:     0.074328    -0.111392    -0.000250 

 

Timings for individual modules:

Sum of individual times         ...     1252.287 sec (=  20.871 min)
GTO integral calculation        ...        5.669 sec (=   0.094 min)   0.5 %
SCF iterations                  ...     1021.812 sec (=  17.030 min)  81.6 %
SCF Gradient evaluation         ...      194.822 sec (=   3.247 min)  15.6 %
Geometry relaxation             ...       29.984 sec (=   0.500 min)   2.4 %
                             ****ORCA TERMINATED NORMALLY****
TOTAL RUN TIME: 0 days 0 hours 21 minutes 34 seconds 932 msec
