
                                 *****************
                                 * O   R   C   A *
                                 *****************

           --- An Ab Initio, DFT and Semiempirical electronic structure package ---

                  #######################################################
                  #                        -***-                        #
                  #          Department of theory and spectroscopy      #
                  #               Directorship: Frank Neese             #
                  #        Max Planck Institute fuer Kohlenforschung    #
                  #                Kaiser Wilhelm Platz 1               #
                  #                 D-45470 Muelheim/Ruhr               #
                  #                      Germany                        #
                  #                                                     #
                  #                  All rights reserved                #
                  #                        -***-                        #
                  #######################################################


                         Program Version 4.2.0 -  RELEASE  -


 With contributions from (in alphabetic order):
   Daniel Aravena         : Magnetic Suceptibility
   Michael Atanasov       : Ab Initio Ligand Field Theory (pilot matlab implementation)
   Alexander A. Auer      : GIAO ZORA, VPT2
   Ute Becker             : Parallelization
   Giovanni Bistoni       : ED, misc. LED, open-shell LED, HFLED
   Martin Brehm           : Molecular dynamics
   Dmytro Bykov           : SCF Hessian
   Vijay G. Chilkuri      : MRCI spin determinant printing, contributions to CSF-ICE
   Dipayan Datta          : RHF DLPNO-CCSD density
   Achintya Kumar Dutta   : EOM-CC, STEOM-CC
   Dmitry Ganyushin       : Spin-Orbit,Spin-Spin,Magnetic field MRCI
   Miquel Garcia          : C-PCM Hessian, Gaussian charge scheme
   Yang Guo               : DLPNO-NEVPT2, CIM, IAO-localization
   Andreas Hansen         : Spin unrestricted coupled pair/coupled cluster methods
   Benjamin Helmich-Paris : CASSCF linear response (MC-RPA)
   Lee Huntington         : MR-EOM, pCC
   Robert Izsak           : Overlap fitted RIJCOSX, COSX-SCS-MP3, EOM
   Christian Kollmar      : KDIIS, OOCD, Brueckner-CCSD(T), CCSD density
   Simone Kossmann        : Meta GGA functionals, TD-DFT gradient, OOMP2, MP2 Hessian
   Martin Krupicka        : AUTO-CI
   Lucas Lang             : DCDCAS
   Dagmar Lenk            : GEPOL surface, SMD
   Dimitrios Liakos       : Extrapolation schemes; Compound Job, initial MDCI parallelization
   Dimitrios Manganas     : Further ROCIS development; embedding schemes
   Dimitrios Pantazis     : SARC Basis sets
   Taras Petrenko         : DFT Hessian,TD-DFT gradient, ASA, ECA, R-Raman, ABS, FL, XAS/XES, NRVS
   Peter Pinski           : DLPNO-MP2, DLPNO-MP2 Gradient
   Christoph Reimann      : Effective Core Potentials
   Marius Retegan         : Local ZFS, SOC
   Christoph Riplinger    : Optimizer, TS searches, QM/MM, DLPNO-CCSD(T), (RO)-DLPNO pert. Triples
   Tobias Risthaus        : Range-separated hybrids, TD-DFT gradient, RPA, STAB
   Michael Roemelt        : Original ROCIS implementation
   Masaaki Saitow         : Open-shell DLPNO-CCSD energy and density
   Barbara Sandhoefer     : DKH picture change effects
   Avijit Sen             : IP-ROCIS
   Kantharuban Sivalingam : CASSCF convergence, NEVPT2, FIC-MRCI
   Bernardo de Souza      : ESD, SOC TD-DFT
   Georgi Stoychev        : AutoAux, RI-MP2 NMR
   Willem Van den Heuvel  : Paramagnetic NMR
   Boris Wezisla          : Elementary symmetry handling
   Frank Wennmohs         : Technical directorship


 We gratefully acknowledge several colleagues who have allowed us to
 interface, adapt or use parts of their codes:
   Stefan Grimme, W. Hujo, H. Kruse,             : VdW corrections, initial TS optimization,
                  C. Bannwarth                     DFT functionals, gCP, sTDA/sTD-DF
   Ed Valeev, F. Pavosevic, A. Kumar             : LibInt (2-el integral package), F12 methods
   Garnet Chan, S. Sharma, J. Yang, R. Olivares  : DMRG
   Ulf Ekstrom                                   : XCFun DFT Library
   Mihaly Kallay                                 : mrcc  (arbitrary order and MRCC methods)
   Andreas Klamt, Michael Diedenhofen            : otool_cosmo (COSMO solvation model)
   Jiri Pittner, Ondrej Demel                    : Mk-CCSD
   Frank Weinhold                                : gennbo (NPA and NBO analysis)
   Christopher J. Cramer and Donald G. Truhlar   : smd solvation model
   Lars Goerigk                                  : TD-DFT with DH, B97 family of functionals
   V. Asgeirsson, H. Jonsson                     : NEB implementation
   FAccTs GmbH                                   : IRC, NEB, NEB-TS, Multilevel, MM, QM/MM, CI optimization
   S Lehtola, MJT Oliveira, MAL Marques          : LibXC Library


 Your calculation uses the libint2 library for the computation of 2-el integrals
 For citations please refer to: http://libint.valeyev.net

 Your ORCA version has been built with support for libXC version: 4.2.3
 For citations please refer to: https://tddft.org/programs/libxc/

 This ORCA versions uses:
   CBLAS   interface :  Fast vector & matrix operations
   LAPACKE interface :  Fast linear algebra routines
   SCALAPACK package :  Parallel linear algebra routines


Your calculation utilizes the atom-pairwise dispersion correction
with the Becke-Johnson damping scheme (D3BJ)
Cite in your paper:
S.Grimme, S.Ehrlich, L.Goerigk, J Comput Chem, (2011), 32, 1456–1465 
S.Grimme, J.Antony, S.Ehrlich and H.Krieg, J.Chem.Phys., 132, (2010), 154104 
   

----- Orbital basis set information -----
Your calculation utilizes the basis: def2-SVP
   F. Weigend and R. Ahlrichs, Phys. Chem. Chem. Phys. 7, 3297 (2005).

----- AuxJ basis set information -----
Your calculation utilizes the auxiliary basis: def2/J
   F. Weigend, Phys. Chem. Chem. Phys. 8, 1057 (2006).

================================================================================
                                        WARNINGS
                       Please study these warnings very carefully!
================================================================================


WARNING: Geometry Optimization
  ===> : Switching off AutoStart
         For restart on a previous wavefunction, please use MOREAD

INFO   : the flag for use of LIBINT has been found!

================================================================================
                                       INPUT FILE
================================================================================
NAME = P3HT_Input_Dimethoxy_Benzodithiophene_1_Optimize_Monomer.inp
|  1> ! RI BP86 def2-SVP def2/J D3BJ TIGHTSCF  Opt Grid3 FinalGrid5
|  2> %maxcore 3000
|  3> %geom
|  4> optimizehydrogens true
|  5> end
|  6> 
|  7> 
|  8> *xyz 0 1
|  9> C	-4.586539	-0.774897	0.096402
| 10> C	-4.006980	0.484607	0.048471
| 11> S	-3.348556	-2.054004	0.128641
| 12> C	-2.579809	0.463909	0.042924
| 13> H	-4.582554	1.413677	0.016822
| 14> C	-2.037329	-0.868177	0.098614
| 15> C	-0.652029	-1.092580	0.076930
| 16> C	-1.738344	1.610600	-0.032407
| 17> C	-0.350735	1.386273	-0.058420
| 18> C	0.190971	0.052532	0.000209
| 19> O	-2.394230	2.804208	-0.051826
| 20> O	-0.003342	-2.294291	0.095402
| 21> C	-0.605962	-3.403287	0.751465
| 22> H	0.182689	-4.173648	0.844468
| 23> H	-1.446787	-3.833006	0.163996
| 24> H	-0.971330	-3.128750	1.764411
| 25> C	-1.744511	3.970880	-0.541476
| 26> H	-2.529787	4.744462	-0.631810
| 27> H	-1.288558	3.796597	-1.539393
| 28> H	-0.966715	4.341458	0.161111
| 29> C	1.617726	0.035340	-0.007773
| 30> S	0.962310	2.573873	-0.101228
| 31> C	2.191452	1.298329	-0.063607
| 32> H	2.196997	-0.896257	0.026781
| 33> H	-5.629384	-1.055436	0.109538
| 34> H	3.237129	1.567944	-0.079980
| 35> **                         ****END OF INPUT****
================================================================================

                       *****************************
                       * Geometry Optimization Run *
                       *****************************

Geometry optimization settings:
Update method            Update   .... BFGS
Choice of coordinates    CoordSys .... Z-matrix Internals
Initial Hessian          InHess   .... Almoef's Model

Convergence Tolerances:
Energy Change            TolE     ....  5.0000e-06 Eh
Max. Gradient            TolMAXG  ....  3.0000e-04 Eh/bohr
RMS Gradient             TolRMSG  ....  1.0000e-04 Eh/bohr
Max. Displacement        TolMAXD  ....  4.0000e-03 bohr
RMS Displacement         TolRMSD  ....  2.0000e-03 bohr
Strict Convergence                ....  False
------------------------------------------------------------------------------
                        ORCA OPTIMIZATION COORDINATE SETUP
------------------------------------------------------------------------------

The optimization will be done in new redundant internal coordinates
Making redundant internal coordinates   ...  (new redundants) done
Evaluating the initial hessian          ...  (Almloef) done
Evaluating the coordinates              ...  done
Calculating the B-matrix                .... done
Calculating the G-matrix                .... done
Diagonalizing the G-matrix              .... done
Imposing constraints:
 Iter   0:  RMS(Cart)=    0.0000000000 RMS(Int)=    0.0000000000
CONVERGED
Small eigenvalue found = 1.289e-02
Small eigenvalue found = 1.469e-02
The first mode is                       ....   60
The number of degrees of freedom        ....   72
Storing new coordinates                 .... done

    -----------------------------------------------------------------
                    Redundant Internal Coordinates


    -----------------------------------------------------------------
         Definition                    Initial Value    Approx d2E/dq
    -----------------------------------------------------------------
      1. B(C   1,C   0)                  1.3873         0.631079 C 
      2. B(S   2,C   0)                  1.7804         0.401494 C 
      3. B(C   3,C   1)                  1.4273         0.544726 C 
      4. B(H   4,C   1)                  1.0934         0.355669   
      5. B(C   5,S   2)                  1.7682         0.419923 C 
      6. B(C   5,C   3)                  1.4394         0.521126 C 
      7. B(C   6,C   5)                  1.4035         0.594511 C 
      8. B(C   7,C   3)                  1.4243         0.550821 C 
      9. B(C   8,C   7)                  1.4059         0.589422 C 
     10. B(C   9,C   6)                  1.4240         0.551405 C 
     11. B(C   9,C   8)                  1.4407         0.518534 C 
     12. B(O  10,C   7)                  1.3621         0.620039 C 
     13. B(O  11,C   6)                  1.3657         0.611760 C 
     14. B(C  12,O  11)                  1.4225         0.496661 C 
     15. B(H  13,C  12)                  1.1064         0.339071   
     16. B(H  14,C  12)                  1.1121         0.332021   
     17. B(H  15,C  12)                  1.1113         0.333032   
     18. B(C  16,O  10)                  1.4223         0.496934 C 
     19. B(H  17,C  16)                  1.1060         0.339537   
     20. B(H  18,C  16)                  1.1109         0.333483   
     21. B(H  19,C  16)                  1.1117         0.332483   
     22. B(C  20,C   9)                  1.4269         0.545629 C 
     23. B(S  21,C   8)                  1.7710         0.415626 C 
     24. B(C  22,C  20)                  1.3883         0.628675 C 
     25. B(C  22,S  21)                  1.7718         0.414376 C 
     26. B(H  23,C  20)                  1.0976         0.350246   
     27. B(H  24,C   0)                  1.0800         0.373574   
     28. B(H  25,C  22)                  1.0800         0.373574   
     29. A(C   1,C   0,H  24)          129.7656         0.356181   
     30. A(S   2,C   0,H  24)          118.9851         0.347118   
     31. A(C   1,C   0,S   2)          111.2481         0.425044 C 
     32. A(C   3,C   1,H   4)          122.5865         0.344572   
     33. A(C   0,C   1,H   4)          123.5418         0.353228   
     34. A(C   0,C   1,C   3)          113.8716         0.425449 C 
     35. A(C   0,S   2,C   5)           91.9207         0.416960 C 
     36. A(C   5,C   3,C   7)          121.6319         0.411995 C 
     37. A(C   1,C   3,C   5)          112.9613         0.411182 C 
     38. A(C   1,C   3,C   7)          125.3982         0.415249 C 
     39. A(S   2,C   5,C   6)          128.6808         0.423920 C 
     40. A(S   2,C   5,C   3)          109.9884         0.414080 C 
     41. A(C   3,C   5,C   6)          121.2891         0.417624 C 
     42. A(C   5,C   6,C   9)          117.1655         0.421851 C 
     43. A(C   5,C   6,O  11)          127.5373         0.426965 C 
     44. A(C   9,C   6,O  11)          115.2846         0.421256 C 
     45. A(C   3,C   7,O  10)          114.9469         0.422189 C 
     46. A(C   8,C   7,O  10)          127.9406         0.427336 C 
     47. A(C   3,C   7,C   8)          117.1057         0.421125 C 
     48. A(C   7,C   8,S  21)          128.7002         0.422491 C 
     49. A(C   9,C   8,S  21)          110.0600         0.412958 C 
     50. A(C   7,C   8,C   9)          121.2028         0.416615 C 
     51. A(C   6,C   9,C  20)          125.6300         0.415450 C 
     52. A(C   8,C   9,C  20)          112.7607         0.410940 C 
     53. A(C   6,C   9,C   8)          121.6030         0.411708 C 
     54. A(C   7,O  10,C  16)          120.2480         0.411836 C 
     55. A(C   6,O  11,C  12)          119.4069         0.410815 C 
     56. A(H  13,C  12,H  14)          108.3185         0.284484   
     57. A(O  11,C  12,H  15)          111.5360         0.333558   
     58. A(H  13,C  12,H  15)          109.2541         0.284619   
     59. A(H  14,C  12,H  15)          109.1710         0.283690   
     60. A(O  11,C  12,H  13)          106.2383         0.334554   
     61. A(O  11,C  12,H  14)          112.2046         0.333389   
     62. A(H  18,C  16,H  19)          109.4417         0.283811   
     63. A(O  10,C  16,H  17)          106.1112         0.334661   
     64. A(O  10,C  16,H  18)          111.5953         0.333663   
     65. A(H  17,C  16,H  18)          109.1338         0.284739   
     66. A(H  17,C  16,H  19)          108.3738         0.284606   
     67. A(O  10,C  16,H  19)          112.0520         0.333497   
     68. A(C   9,C  20,C  22)          113.7334         0.425285 C 
     69. A(C   9,C  20,H  23)          122.5332         0.343781   
     70. A(C  22,C  20,H  23)          123.7334         0.352083   
     71. A(C   8,S  21,C  22)           91.7801         0.418544 C 
     72. A(C  20,C  22,S  21)          111.6601         0.427163 C 
     73. A(C  20,C  22,H  25)          128.8907         0.355951   
     74. A(S  21,C  22,H  25)          119.4483         0.348970   
     75. D(C   3,C   1,C   0,S   2)     -0.2893         0.027620 C 
     76. D(C   3,C   1,C   0,H  24)   -179.8918         0.027620   
     77. D(H   4,C   1,C   0,S   2)    179.6657         0.027620   
     78. D(H   4,C   1,C   0,H  24)      0.0633         0.027620   
     79. D(C   5,S   2,C   0,C   1)      0.7125         0.003843 C 
     80. D(C   5,S   2,C   0,H  24)   -179.6368         0.003843   
     81. D(C   5,C   3,C   1,C   0)     -0.4360         0.020286 C 
     82. D(C   5,C   3,C   1,H   4)    179.6085         0.020286   
     83. D(C   7,C   3,C   1,C   0)    178.5051         0.020286 C 
     84. D(C   7,C   3,C   1,H   4)     -1.4505         0.020286   
     85. D(C   6,C   5,C   3,C   1)    178.7964         0.018522 C 
     86. D(C   6,C   5,S   2,C   0)   -178.5740         0.004073 C 
     87. D(S   2,C   5,C   3,C   1)      0.9528         0.018522 C 
     88. D(C   3,C   5,S   2,C   0)     -0.9347         0.004073 C 
     89. D(S   2,C   5,C   3,C   7)   -178.0334         0.018522 C 
     90. D(C   6,C   5,C   3,C   7)     -0.1897         0.018522 C 
     91. D(C   9,C   6,C   5,S   2)    177.5207         0.024342 C 
     92. D(C   9,C   6,C   5,C   3)      0.1169         0.024342 C 
     93. D(O  11,C   6,C   5,S   2)     -1.1201         0.024342 C 
     94. D(O  11,C   6,C   5,C   3)   -178.5239         0.024342 C 
     95. D(C   8,C   7,C   3,C   1)   -178.4774         0.020758 C 
     96. D(C   8,C   7,C   3,C   5)      0.3774         0.020758 C 
     97. D(O  10,C   7,C   3,C   1)      2.3927         0.020758 C 
     98. D(O  10,C   7,C   3,C   5)   -178.7525         0.020758 C 
     99. D(C   9,C   8,C   7,C   3)     -0.5072         0.023906 C 
    100. D(C   9,C   8,C   7,O  10)    178.4924         0.023906 C 
    101. D(S  21,C   8,C   7,C   3)   -178.0622         0.023906 C 
    102. D(S  21,C   8,C   7,O  10)      0.9375         0.023906 C 
    103. D(C   8,C   9,C   6,C   5)     -0.2495         0.020803 C 
    104. D(C   8,C   9,C   6,O  11)    178.5585         0.020803 C 
    105. D(C  20,C   9,C   6,C   5)    178.7690         0.020803 C 
    106. D(C  20,C   9,C   6,O  11)     -2.4231         0.020803 C 
    107. D(C   6,C   9,C   8,C   7)      0.4626         0.018335 C 
    108. D(C   6,C   9,C   8,S  21)    178.4314         0.018335 C 
    109. D(C  20,C   9,C   8,C   7)   -178.6722         0.018335 C 
    110. D(C  20,C   9,C   8,S  21)     -0.7035         0.018335 C 
    111. D(C  16,O  10,C   7,C   3)   -159.9942         0.028206 C 
    112. D(C  16,O  10,C   7,C   8)     20.9879         0.028206 C 
    113. D(C  12,O  11,C   6,C   5)    -29.7443         0.027406 C 
    114. D(C  12,O  11,C   6,C   9)    151.5932         0.027406 C 
    115. D(H  13,C  12,O  11,C   6)   -167.0315         0.019493   
    116. D(H  14,C  12,O  11,C   6)     74.7741         0.019493   
    117. D(H  15,C  12,O  11,C   6)    -48.0730         0.019493   
    118. D(H  17,C  16,O  10,C   7)    169.5630         0.019515   
    119. D(H  18,C  16,O  10,C   7)     50.7949         0.019515   
    120. D(H  19,C  16,O  10,C   7)    -72.3374         0.019515   
    121. D(C  22,C  20,C   9,C   6)   -178.8064         0.020355 C 
    122. D(C  22,C  20,C   9,C   8)      0.2870         0.020355 C 
    123. D(H  23,C  20,C   9,C   6)      1.2258         0.020355   
    124. D(H  23,C  20,C   9,C   8)   -179.6808         0.020355   
    125. D(C  22,S  21,C   8,C   7)    178.4904         0.004018 C 
    126. D(C  22,S  21,C   8,C   9)      0.7167         0.004018 C 
    127. D(S  21,C  22,C  20,C   9)      0.2693         0.027396 C 
    128. D(S  21,C  22,C  20,H  23)   -179.7634         0.027396   
    129. D(H  25,C  22,C  20,C   9)    179.9202         0.027396   
    130. D(H  25,C  22,C  20,H  23)     -0.1125         0.027396   
    131. D(C  20,C  22,S  21,C   8)     -0.5731         0.004003 C 
    132. D(H  25,C  22,S  21,C   8)    179.7389         0.004003   
    -----------------------------------------------------------------

Number of atoms                         .... 26
Number of degrees of freedom            .... 132

         *************************************************************
         *                GEOMETRY OPTIMIZATION CYCLE   1            *
         *************************************************************
---------------------------------
CARTESIAN COORDINATES (ANGSTROEM)
---------------------------------
  C     -4.586539   -0.774897    0.096402
  C     -4.006980    0.484607    0.048471
  S     -3.348556   -2.054004    0.128641
  C     -2.579809    0.463909    0.042924
  H     -4.582554    1.413677    0.016822
  C     -2.037329   -0.868177    0.098614
  C     -0.652029   -1.092580    0.076930
  C     -1.738344    1.610600   -0.032407
  C     -0.350735    1.386273   -0.058420
  C      0.190971    0.052532    0.000209
  O     -2.394230    2.804208   -0.051826
  O     -0.003342   -2.294291    0.095402
  C     -0.605962   -3.403287    0.751465
  H      0.182689   -4.173648    0.844468
  H     -1.446787   -3.833006    0.163996
  H     -0.971330   -3.128750    1.764411
  C     -1.744511    3.970880   -0.541476
  H     -2.529787    4.744462   -0.631810
  H     -1.288558    3.796597   -1.539393
  H     -0.966715    4.341458    0.161111
  C      1.617726    0.035340   -0.007773
  S      0.962310    2.573873   -0.101228
  C      2.191452    1.298329   -0.063607
  H      2.196997   -0.896257    0.026781
  H     -5.629384   -1.055436    0.109538
  H      3.237129    1.567944   -0.079980

----------------------------
CARTESIAN COORDINATES (A.U.)
----------------------------
  NO LB      ZA    FRAG     MASS         X           Y           Z
   0 C     6.0000    0    12.011   -8.667303   -1.464343    0.182173
   1 C     6.0000    0    12.011   -7.572095    0.915775    0.091597
   2 S    16.0000    0    32.060   -6.327854   -3.881505    0.243096
   3 C     6.0000    0    12.011   -4.875132    0.876661    0.081115
   4 H     1.0000    0     1.008   -8.659772    2.671462    0.031789
   5 C     6.0000    0    12.011   -3.849994   -1.640617    0.186353
   6 C     6.0000    0    12.011   -1.232156   -2.064677    0.145377
   7 C     6.0000    0    12.011   -3.284994    3.043593   -0.061240
   8 C     6.0000    0    12.011   -0.662793    2.619676   -0.110398
   9 C     6.0000    0    12.011    0.360883    0.099271    0.000395
  10 O     8.0000    0    15.999   -4.524439    5.299185   -0.097937
  11 O     8.0000    0    15.999   -0.006315   -4.335582    0.180284
  12 C     6.0000    0    12.011   -1.145102   -6.431280    1.420063
  13 H     1.0000    0     1.008    0.345232   -7.887052    1.595813
  14 H     1.0000    0     1.008   -2.734031   -7.243332    0.309908
  15 H     1.0000    0     1.008   -1.835548   -5.912481    3.334254
  16 C     6.0000    0    12.011   -3.296648    7.503876   -1.023241
  17 H     1.0000    0     1.008   -4.780605    8.965734   -1.193948
  18 H     1.0000    0     1.008   -2.435022    7.174529   -2.909031
  19 H     1.0000    0     1.008   -1.826827    8.204167    0.304456
  20 C     6.0000    0    12.011    3.057059    0.066783   -0.014689
  21 S    16.0000    0    32.060    1.818502    4.863915   -0.191293
  22 C     6.0000    0    12.011    4.141244    2.453486   -0.120200
  23 H     1.0000    0     1.008    4.151723   -1.693680    0.050609
  24 H     1.0000    0     1.008  -10.637994   -1.994485    0.206997
  25 H     1.0000    0     1.008    6.117287    2.962985   -0.151140

--------------------------------
INTERNAL COORDINATES (ANGSTROEM)
--------------------------------
 C      0   0   0     0.000000000000     0.00000000     0.00000000
 C      1   0   0     1.387276591476     0.00000000     0.00000000
 S      1   2   0     1.780380852194   111.24807681     0.00000000
 C      2   1   3     1.427331860379   113.87164348   359.71068649
 H      2   1   3     1.093370089941   123.54184451   179.66572391
 C      4   2   1     1.439388424956   112.96131988   359.56402218
 C      6   4   2     1.403525201863   121.28912136   178.79641787
 C      4   2   1     1.424302761096   125.39816292   178.50505067
 C      8   4   2     1.405865575359   117.10569068   181.52259117
 C      7   6   4     1.424014257086   117.16554308     0.11685357
 O      8   4   2     1.362080614436   114.94694213     2.39269980
 O      7   6   4     1.365739860396   127.53725499   181.47611812
 C     12   7   6     1.422477294154   119.40691769   330.25573514
 H     13  12   7     1.106379694378   106.23829523   192.96851384
 H     13  12   7     1.112099332590   112.20461519    74.77408723
 H     13  12   7     1.111271316425   111.53600784   311.92699517
 C     11   8   4     1.422327478834   120.24802074   200.00576484
 H     17  11   8     1.106005306703   106.11120626   169.56295975
 H     17  11   8     1.110903254648   111.59525691    50.79488432
 H     17  11   8     1.111720812196   112.05200671   287.66259382
 C     10   7   6     1.426880901552   125.63000893   178.76895356
 S      9   8   4     1.770963990850   128.70017425   181.93783019
 C     21  10   7     1.388315588313   113.73335815   181.19357725
 H     21  10   7     1.097552659678   122.53321199     1.22581205
 H      1   2   3     1.080000175482   129.76564993   180.39752883
 H     23  21  10     1.080000329483   128.89071897   179.92019073

---------------------------
INTERNAL COORDINATES (A.U.)
---------------------------
 C      0   0   0     0.000000000000     0.00000000     0.00000000
 C      1   0   0     2.621572829890     0.00000000     0.00000000
 S      1   2   0     3.364432224724   111.24807681     0.00000000
 C      2   1   3     2.697266318337   113.87164348   359.71068649
 H      2   1   3     2.066170033009   123.54184451   179.66572391
 C      4   2   1     2.720049923502   112.96131988   359.56402218
 C      6   4   2     2.652278253578   121.28912136   178.79641787
 C      4   2   1     2.691542150260   125.39816292   178.50505067
 C      8   4   2     2.656700918536   117.10569068   181.52259117
 C      7   6   4     2.690996956692   117.16554308     0.11685357
 O      8   4   2     2.573959333606   114.94694213     2.39269980
 O      7   6   4     2.580874306328   127.53725499   181.47611812
 C     12   7   6     2.688092517673   119.40691769   330.25573514
 H     13  12   7     2.090754622505   106.23829523   192.96851384
 H     13  12   7     2.101563172312   112.20461519    74.77408723
 H     13  12   7     2.099998448525   111.53600784   311.92699517
 C     11   8   4     2.687809407746   120.24802074   200.00576484
 H     17  11   8     2.090047132333   106.11120626   169.56295975
 H     17  11   8     2.099302912566   111.59525691    50.79488432
 H     17  11   8     2.100847872430   112.05200671   287.66259382
 C     10   7   6     2.696414129655   125.63000893   178.76895356
 S      9   8   4     3.346636935744   128.70017425   181.93783019
 C     21  10   7     2.623536249365   113.73335815   181.19357725
 H     21  10   7     2.074073944348   122.53321199     1.22581205
 H      1   2   3     2.040904556249   129.76564993   180.39752883
 H     23  21  10     2.040904847267   128.89071897   179.92019073

---------------------
BASIS SET INFORMATION
---------------------
There are 4 groups of distinct atoms

 Group   1 Type C   : 7s4p1d contracted to 3s2p1d pattern {511/31/1}
 Group   2 Type S   : 10s7p1d contracted to 4s3p1d pattern {5311/511/1}
 Group   3 Type H   : 4s1p contracted to 2s1p pattern {31/1}
 Group   4 Type O   : 7s4p1d contracted to 3s2p1d pattern {511/31/1}

Atom   0C    basis set group =>   1
Atom   1C    basis set group =>   1
Atom   2S    basis set group =>   2
Atom   3C    basis set group =>   1
Atom   4H    basis set group =>   3
Atom   5C    basis set group =>   1
Atom   6C    basis set group =>   1
Atom   7C    basis set group =>   1
Atom   8C    basis set group =>   1
Atom   9C    basis set group =>   1
Atom  10O    basis set group =>   4
Atom  11O    basis set group =>   4
Atom  12C    basis set group =>   1
Atom  13H    basis set group =>   3
Atom  14H    basis set group =>   3
Atom  15H    basis set group =>   3
Atom  16C    basis set group =>   1
Atom  17H    basis set group =>   3
Atom  18H    basis set group =>   3
Atom  19H    basis set group =>   3
Atom  20C    basis set group =>   1
Atom  21S    basis set group =>   2
Atom  22C    basis set group =>   1
Atom  23H    basis set group =>   3
Atom  24H    basis set group =>   3
Atom  25H    basis set group =>   3
---------------------------------
AUXILIARY/J BASIS SET INFORMATION
---------------------------------
There are 4 groups of distinct atoms

 Group   1 Type C   : 12s5p4d2f1g contracted to 6s4p3d1f1g pattern {711111/2111/211/2/1}
 Group   2 Type S   : 14s5p5d2f1g contracted to 8s4p3d1f1g pattern {71111111/2111/311/2/1}
 Group   3 Type H   : 5s2p1d contracted to 3s1p1d pattern {311/2/1}
 Group   4 Type O   : 12s5p4d2f1g contracted to 6s4p3d1f1g pattern {711111/2111/211/2/1}

Atom   0C    basis set group =>   1
Atom   1C    basis set group =>   1
Atom   2S    basis set group =>   2
Atom   3C    basis set group =>   1
Atom   4H    basis set group =>   3
Atom   5C    basis set group =>   1
Atom   6C    basis set group =>   1
Atom   7C    basis set group =>   1
Atom   8C    basis set group =>   1
Atom   9C    basis set group =>   1
Atom  10O    basis set group =>   4
Atom  11O    basis set group =>   4
Atom  12C    basis set group =>   1
Atom  13H    basis set group =>   3
Atom  14H    basis set group =>   3
Atom  15H    basis set group =>   3
Atom  16C    basis set group =>   1
Atom  17H    basis set group =>   3
Atom  18H    basis set group =>   3
Atom  19H    basis set group =>   3
Atom  20C    basis set group =>   1
Atom  21S    basis set group =>   2
Atom  22C    basis set group =>   1
Atom  23H    basis set group =>   3
Atom  24H    basis set group =>   3
Atom  25H    basis set group =>   3
------------------------------------------------------------------------------
                           ORCA GTO INTEGRAL CALCULATION
                           -- RI-GTO INTEGRALS CHOSEN --
------------------------------------------------------------------------------

                         BASIS SET STATISTICS AND STARTUP INFO

Gaussian basis set:
 # of primitive gaussian shells          ...  254
 # of primitive gaussian functions       ...  478
 # of contracted shells                  ...  130
 # of contracted basis functions         ...  282
 Highest angular momentum                ...    2
 Maximum contraction depth               ...    5
Auxiliary gaussian basis set:
 # of primitive gaussian shells          ...  470
 # of primitive gaussian functions       ... 1294
 # of contracted shells                  ...  294
 # of contracted aux-basis functions     ...  898
 Highest angular momentum                ...    4
 Maximum contraction depth               ...    7
Ratio of auxiliary to basis functions    ...  3.18
Integral package used                  ... LIBINT
 One Electron integrals                  ... done
 Ordering auxiliary basis shells         ... done
 Integral threshhold             Thresh  ...  2.500e-11
 Primitive cut-off               TCut    ...  2.500e-12
 Pre-screening matrix                    ... done
 Shell pair data                         ... 
 Ordering of the shell pairs             ... done (   0.001 sec) 7045 of 8515 pairs
 Determination of significant pairs      ... done (   0.000 sec)
 Creation of shell pair data             ... done (   0.001 sec)
 Storage of shell pair data              ... done (   0.007 sec)
 Shell pair data done in (   0.009 sec)
 Computing two index integrals           ... done
 Cholesky decomposition of the V-matrix  ... done


Timings:
 Total evaluation time                   ...  21.239 sec (  0.354 min)
 One electron matrix time                ...   0.078 sec (  0.001 min) =  0.4%
 Schwartz matrix evaluation time         ...   0.124 sec (  0.002 min) =  0.6%
 Two index repulsion integral time       ...   0.030 sec (  0.001 min) =  0.1%
 Cholesky decomposition of V             ...   0.278 sec (  0.005 min) =  1.3%
 Three index repulsion integral time     ...   0.000 sec (  0.000 min) =  0.0%

-------------------------------------------------------------------------------
                                 ORCA SCF
-------------------------------------------------------------------------------

------------
SCF SETTINGS
------------
Hamiltonian:
 Density Functional     Method          .... DFT(GTOs)
 Exchange Functional    Exchange        .... B88
   X-Alpha parameter    XAlpha          ....  0.666667
   Becke's b parameter  XBeta           ....  0.004200
 Correlation Functional Correlation     .... P86
 LDA part of GGA corr.  LDAOpt          .... PW91-LDA
 Gradients option       PostSCFGGA      .... off
   Density functional embedding theory  .... OFF
 RI-approximation to the Coulomb term is turned on
   Number of auxiliary basis functions  .... 898


General Settings:
 Integral files         IntName         .... P3HT_Input_Dimethoxy_Benzodithiophene_1_Optimize_Monomer
 Hartree-Fock type      HFTyp           .... RHF
 Total Charge           Charge          ....    0
 Multiplicity           Mult            ....    1
 Number of Electrons    NEL             ....  130
 Basis Dimension        Dim             ....  282
 Nuclear Repulsion      ENuc            ....   1305.0705193934 Eh

Convergence Acceleration:
 DIIS                   CNVDIIS         .... on
   Start iteration      DIISMaxIt       ....    12
   Startup error        DIISStart       ....  0.200000
   # of expansion vecs  DIISMaxEq       ....     5
   Bias factor          DIISBfac        ....   1.050
   Max. coefficient     DIISMaxC        ....  10.000
 Newton-Raphson         CNVNR           .... off
 SOSCF                  CNVSOSCF        .... on
   Start iteration      SOSCFMaxIt      ....   150
   Startup grad/error   SOSCFStart      ....  0.003300
 Level Shifting         CNVShift        .... on
   Level shift para.    LevelShift      ....    0.2500
   Turn off err/grad.   ShiftErr        ....    0.0010
 Zerner damping         CNVZerner       .... off
 Static damping         CNVDamp         .... on
   Fraction old density DampFac         ....    0.7000
   Max. Damping (<1)    DampMax         ....    0.9800
   Min. Damping (>=0)   DampMin         ....    0.0000
   Turn off err/grad.   DampErr         ....    0.1000
 Fernandez-Rico         CNVRico         .... off

SCF Procedure:
 Maximum # iterations   MaxIter         ....   125
 SCF integral mode      SCFMode         .... Direct
   Integral package                     .... LIBINT
 Reset frequency        DirectResetFreq ....    20
 Integral Threshold     Thresh          ....  2.500e-11 Eh
 Primitive CutOff       TCut            ....  2.500e-12 Eh

Convergence Tolerance:
 Convergence Check Mode ConvCheckMode   .... Total+1el-Energy
 Convergence forced     ConvForced      .... 0
 Energy Change          TolE            ....  1.000e-08 Eh
 1-El. energy change                    ....  1.000e-05 Eh
 Orbital Gradient       TolG            ....  1.000e-05
 Orbital Rotation angle TolX            ....  1.000e-05
 DIIS Error             TolErr          ....  5.000e-07


Diagonalization of the overlap matrix:
Smallest eigenvalue                        ... 1.682e-04
Time for diagonalization                   ...    0.317 sec
Threshold for overlap eigenvalues          ... 1.000e-08
Number of eigenvalues below threshold      ... 0
Time for construction of square roots      ...    0.019 sec
Total time needed                          ...    0.336 sec

-------------------
DFT GRID GENERATION
-------------------

General Integration Accuracy     IntAcc      ...  4.340
Radial Grid Type                 RadialGrid  ... Gauss-Chebyshev
Angular Grid (max. acc.)         AngularGrid ... Lebedev-194
Angular grid pruning method      GridPruning ... 3 (G Style)
Weight generation scheme         WeightScheme... Becke
Basis function cutoff            BFCut       ...    1.0000e-11
Integration weight cutoff        WCut        ...    1.0000e-14
Grids for H and He will be reduced by one unit

# of grid points (after initial pruning)     ...  68496 (   0.0 sec)
# of grid points (after weights+screening)   ...  61668 (   0.3 sec)
nearest neighbour list constructed           ...    0.0 sec
Grid point re-assignment to atoms done       ...    0.0 sec
Grid point division into batches done        ...    0.1 sec
Reduced shell lists constructed in    0.6 sec

Total number of grid points                  ...    61668
Total number of batches                      ...      976
Average number of points per batch           ...       63
Average number of grid points per atom       ...     2372
Average number of shells per batch           ...    69.19 (53.22%)
Average number of basis functions per batch  ...   145.35 (51.54%)
Average number of large shells per batch     ...    48.16 (69.60%)
Average number of large basis fcns per batch ...   101.74 (70.00%)
Maximum spatial batch extension              ...  19.35, 18.54, 21.32 au
Average spatial batch extension              ...   2.72,  2.84,  3.13 au

Time for grid setup =    0.944 sec

------------------------------
INITIAL GUESS: MODEL POTENTIAL
------------------------------
Loading Hartree-Fock densities                     ... done
Calculating cut-offs                               ... done
Setting up the integral package                    ... done
Initializing the effective Hamiltonian             ... done
Starting the Coulomb interaction                   ... done (   0.3 sec)
Reading the grid                                   ... done
Mapping shells                                     ... done
Starting the XC term evaluation                    ... done (   0.8 sec)
  promolecular density results
     # of electrons  =    129.995604228
     EX              =   -131.112925037
     EC              =     -5.030400097
     EX+EC           =   -136.143325134
Transforming the Hamiltonian                       ... done (   0.0 sec)
Diagonalizing the Hamiltonian                      ... done (   0.0 sec)
Back transforming the eigenvectors                 ... done (   0.0 sec)
Now organizing SCF variables                       ... done
                      ------------------
                      INITIAL GUESS DONE (   2.2 sec)
                      ------------------
--------------
SCF ITERATIONS
--------------
ITER       Energy         Delta-E        Max-DP      RMS-DP      [F,P]     Damp
               ***  Starting incremental Fock matrix formation  ***
  0  -1409.2391719368   0.000000000000 0.06280048  0.00195339  0.1334972 0.7000
  1  -1409.3756191995  -0.136447262696 0.04302376  0.00131661  0.0530918 0.7000
                               ***Turning on DIIS***
  2  -1409.4156447059  -0.040025506438 0.09039514  0.00180133  0.0184268 0.0000
  3  -1409.4773587681  -0.061714062193 0.03564492  0.00114917  0.0363946 0.0000
  4  -1409.5000154985  -0.022656730361 0.02305216  0.00034569  0.0088101 0.0000
                      *** Initiating the SOSCF procedure ***
                           *** Shutting down DIIS ***
                      *** Re-Reading the Fockian *** 
                      *** Removing any level shift *** 
ITER      Energy       Delta-E        Grad      Rot      Max-DP    RMS-DP
  5  -1409.50142386  -0.0014083642  0.001422  0.001422  0.006501  0.000117
               *** Restarting incremental Fock matrix formation ***
  6  -1409.50153463  -0.0001107640  0.000506  0.002965  0.002405  0.000069
  7  -1409.50152469   0.0000099355  0.000850  0.001943  0.002182  0.000039
  8  -1409.50154734  -0.0000226504  0.000422  0.002328  0.001529  0.000029
  9  -1409.50154459   0.0000027520  0.000446  0.000662  0.000621  0.000018
 10  -1409.50154968  -0.0000050877  0.000083  0.000579  0.000450  0.000017
 11  -1409.50154955   0.0000001310  0.000092  0.000214  0.000203  0.000007
 12  -1409.50155010  -0.0000005543  0.000022  0.000201  0.000201  0.000005
 13  -1409.50155010   0.0000000040  0.000024  0.000063  0.000069  0.000003
 14  -1409.50155013  -0.0000000304  0.000010  0.000097  0.000079  0.000002
 15  -1409.50155012   0.0000000066  0.000015  0.000059  0.000042  0.000001
 16  -1409.50155014  -0.0000000208  0.000003  0.000024  0.000020  0.000000
 17  -1409.50155013   0.0000000088  0.000007  0.000023  0.000014  0.000000
                  ***Gradient check signals convergence***
              ***Rediagonalizing the Fockian in SOSCF/NRSCF***

               *****************************************************
               *                     SUCCESS                       *
               *           SCF CONVERGED AFTER  18 CYCLES          *
               *****************************************************

Setting up the final grid:

General Integration Accuracy     IntAcc      ...  5.010
Radial Grid Type                 RadialGrid  ... Gauss-Chebyshev
Angular Grid (max. acc.)         AngularGrid ... Lebedev-434
Angular grid pruning method      GridPruning ... 3 (G Style)
Weight generation scheme         WeightScheme... Becke
Basis function cutoff            BFCut       ...    1.0000e-11
Integration weight cutoff        WCut        ...    1.0000e-14
Grids for H and He will be reduced by one unit

# of grid points (after initial pruning)     ... 240460 (   0.1 sec)
# of grid points (after weights+screening)   ... 214211 (   0.9 sec)
nearest neighbour list constructed           ...    0.0 sec
Grid point re-assignment to atoms done       ...    0.0 sec
Grid point division into batches done        ...    1.3 sec
Reduced shell lists constructed in    2.8 sec

Total number of grid points                  ...   214211
Total number of batches                      ...     3362
Average number of points per batch           ...       63
Average number of grid points per atom       ...     8239
Average number of shells per batch           ...    63.58 (48.91%)
Average number of basis functions per batch  ...   132.68 (47.05%)
Average number of large shells per batch     ...    43.45 (68.34%)
Average number of large basis fcns per batch ...    91.06 (68.63%)
Maximum spatial batch extension              ...  22.20, 21.44, 21.95 au
Average spatial batch extension              ...   1.87,  1.92,  2.03 au

Final grid set up in    3.9 sec
Final integration                            ... done (   2.9 sec)
Change in XC energy                          ...    -0.000359174
Integrated number of electrons               ...   129.999971981
Previous integrated no of electrons          ...   129.999726345

----------------
TOTAL SCF ENERGY
----------------

Total Energy       :        -1409.50190931 Eh          -38354.49686 eV

Components:
Nuclear Repulsion  :         1305.07051939 Eh           35512.77427 eV
Electronic Energy  :        -2714.57242870 Eh          -73867.27112 eV
One Electron Energy:        -4526.79350642 Eh         -123180.31368 eV
Two Electron Energy:         1812.22107771 Eh           49313.04255 eV

Virial components:
Potential Energy   :        -2810.02994491 Eh          -76464.80220 eV
Kinetic Energy     :         1400.52803560 Eh           38110.30534 eV
Virial Ratio       :            2.00640749


DFT components:
N(Alpha)           :       64.999985990543 electrons
N(Beta)            :       64.999985990543 electrons
N(Total)           :      129.999971981085 electrons
E(X)               :     -132.301888428395 Eh       
E(C)               :       -5.029746313637 Eh       
E(XC)              :     -137.331634742032 Eh       
DFET-embed. en.    :        0.000000000000 Eh       

---------------
SCF CONVERGENCE
---------------

  Last Energy change         ...   -3.9367e-09  Tolerance :   1.0000e-08
  Last MAX-Density change    ...    1.3113e-05  Tolerance :   1.0000e-07
  Last RMS-Density change    ...    2.6620e-07  Tolerance :   5.0000e-09
  Last Orbital Gradient      ...    2.0532e-06  Tolerance :   1.0000e-05
  Last Orbital Rotation      ...    9.4869e-06  Tolerance :   1.0000e-05

             **** THE GBW FILE WAS UPDATED (P3HT_Input_Dimethoxy_Benzodithiophene_1_Optimize_Monomer.gbw) ****
             **** DENSITY FILE WAS UPDATED (P3HT_Input_Dimethoxy_Benzodithiophene_1_Optimize_Monomer.scfp) ****
             **** ENERGY FILE WAS UPDATED (P3HT_Input_Dimethoxy_Benzodithiophene_1_Optimize_Monomer.en.tmp) ****
             **** THE GBW FILE WAS UPDATED (P3HT_Input_Dimethoxy_Benzodithiophene_1_Optimize_Monomer.gbw) ****
             **** DENSITY FILE WAS UPDATED (P3HT_Input_Dimethoxy_Benzodithiophene_1_Optimize_Monomer.scfp) ****
----------------
ORBITAL ENERGIES
----------------

  NO   OCC          E(Eh)            E(eV) 
   0   2.0000     -88.114781     -2397.7251 
   1   2.0000     -88.113744     -2397.6969 
   2   2.0000     -18.815361      -511.9920 
   3   2.0000     -18.812444      -511.9126 
   4   2.0000      -9.978948      -271.5410 
   5   2.0000      -9.976501      -271.4744 
   6   2.0000      -9.974182      -271.4113 
   7   2.0000      -9.972065      -271.3537 
   8   2.0000      -9.946899      -270.6689 
   9   2.0000      -9.945970      -270.6436 
  10   2.0000      -9.942033      -270.5365 
  11   2.0000      -9.942010      -270.5359 
  12   2.0000      -9.925183      -270.0780 
  13   2.0000      -9.924694      -270.0647 
  14   2.0000      -9.920977      -269.9635 
  15   2.0000      -9.920672      -269.9552 
  16   2.0000      -7.709876      -209.7964 
  17   2.0000      -7.708799      -209.7671 
  18   2.0000      -5.737543      -156.1265 
  19   2.0000      -5.736459      -156.0970 
  20   2.0000      -5.732929      -156.0009 
  21   2.0000      -5.731884      -155.9725 
  22   2.0000      -5.728307      -155.8752 
  23   2.0000      -5.727222      -155.8456 
  24   2.0000      -0.974612       -26.5205 
  25   2.0000      -0.971199       -26.4277 
  26   2.0000      -0.809113       -22.0171 
  27   2.0000      -0.789452       -21.4821 
  28   2.0000      -0.726882       -19.7795 
  29   2.0000      -0.706778       -19.2324 
  30   2.0000      -0.669977       -18.2310 
  31   2.0000      -0.648719       -17.6526 
  32   2.0000      -0.644309       -17.5325 
  33   2.0000      -0.642368       -17.4797 
  34   2.0000      -0.589767       -16.0484 
  35   2.0000      -0.554491       -15.0885 
  36   2.0000      -0.525056       -14.2875 
  37   2.0000      -0.514294       -13.9947 
  38   2.0000      -0.495005       -13.4698 
  39   2.0000      -0.486169       -13.2293 
  40   2.0000      -0.469850       -12.7853 
  41   2.0000      -0.452584       -12.3154 
  42   2.0000      -0.425421       -11.5763 
  43   2.0000      -0.419891       -11.4258 
  44   2.0000      -0.409622       -11.1464 
  45   2.0000      -0.404403       -11.0044 
  46   2.0000      -0.400839       -10.9074 
  47   2.0000      -0.394035       -10.7222 
  48   2.0000      -0.369460       -10.0535 
  49   2.0000      -0.362929        -9.8758 
  50   2.0000      -0.359825        -9.7913 
  51   2.0000      -0.341380        -9.2894 
  52   2.0000      -0.339736        -9.2447 
  53   2.0000      -0.332876        -9.0580 
  54   2.0000      -0.320026        -8.7084 
  55   2.0000      -0.314757        -8.5650 
  56   2.0000      -0.303726        -8.2648 
  57   2.0000      -0.300809        -8.1854 
  58   2.0000      -0.286928        -7.8077 
  59   2.0000      -0.278047        -7.5660 
  60   2.0000      -0.238963        -6.5025 
  61   2.0000      -0.232960        -6.3392 
  62   2.0000      -0.225686        -6.1412 
  63   2.0000      -0.206509        -5.6194 
  64   2.0000      -0.158198        -4.3048 
  65   0.0000      -0.068692        -1.8692 
  66   0.0000      -0.026116        -0.7107 
  67   0.0000      -0.020633        -0.5615 
  68   0.0000      -0.007479        -0.2035 
  69   0.0000       0.000852         0.0232 
  70   0.0000       0.026111         0.7105 
  71   0.0000       0.036145         0.9836 
  72   0.0000       0.038296         1.0421 
  73   0.0000       0.064947         1.7673 
  74   0.0000       0.067156         1.8274 
  75   0.0000       0.073474         1.9993 
  76   0.0000       0.076453         2.0804 
  77   0.0000       0.082390         2.2419 
  78   0.0000       0.093936         2.5561 
  79   0.0000       0.095921         2.6102 
  80   0.0000       0.099906         2.7186 
  81   0.0000       0.112736         3.0677 
  82   0.0000       0.118713         3.2304 
  83   0.0000       0.125613         3.4181 
  84   0.0000       0.132638         3.6093 
  85   0.0000       0.134557         3.6615 
  86   0.0000       0.191929         5.2226 
  87   0.0000       0.195326         5.3151 
  88   0.0000       0.214219         5.8292 
  89   0.0000       0.232159         6.3174 
  90   0.0000       0.241268         6.5652 
  91   0.0000       0.259467         7.0604 
  92   0.0000       0.272813         7.4236 
  93   0.0000       0.281186         7.6515 
  94   0.0000       0.302585         8.2338 
  95   0.0000       0.305855         8.3227 
  96   0.0000       0.320040         8.7087 
  97   0.0000       0.333620         9.0783 
  98   0.0000       0.336841         9.1659 
  99   0.0000       0.342752         9.3268 
 100   0.0000       0.362188         9.8556 
 101   0.0000       0.375929        10.2295 
 102   0.0000       0.396845        10.7987 
 103   0.0000       0.398453        10.8424 
 104   0.0000       0.403661        10.9842 
 105   0.0000       0.407234        11.0814 
 106   0.0000       0.410537        11.1713 
 107   0.0000       0.418841        11.3973 
 108   0.0000       0.426239        11.5985 
 109   0.0000       0.430636        11.7182 
 110   0.0000       0.436001        11.8642 
 111   0.0000       0.445503        12.1228 
 112   0.0000       0.456579        12.4242 
 113   0.0000       0.470253        12.7962 
 114   0.0000       0.483032        13.1440 
 115   0.0000       0.484159        13.1746 
 116   0.0000       0.490022        13.3342 
 117   0.0000       0.500888        13.6299 
 118   0.0000       0.504226        13.7207 
 119   0.0000       0.521014        14.1775 
 120   0.0000       0.525775        14.3071 
 121   0.0000       0.526889        14.3374 
 122   0.0000       0.548501        14.9255 
 123   0.0000       0.560776        15.2595 
 124   0.0000       0.567809        15.4509 
 125   0.0000       0.570548        15.5254 
 126   0.0000       0.586840        15.9687 
 127   0.0000       0.588450        16.0125 
 128   0.0000       0.592706        16.1284 
 129   0.0000       0.600029        16.3276 
 130   0.0000       0.603937        16.4340 
 131   0.0000       0.607096        16.5199 
 132   0.0000       0.610408        16.6100 
 133   0.0000       0.614949        16.7336 
 134   0.0000       0.616815        16.7844 
 135   0.0000       0.620985        16.8979 
 136   0.0000       0.634018        17.2525 
 137   0.0000       0.646268        17.5858 
 138   0.0000       0.651518        17.7287 
 139   0.0000       0.655671        17.8417 
 140   0.0000       0.665385        18.1060 
 141   0.0000       0.669865        18.2280 
 142   0.0000       0.671801        18.2806 
 143   0.0000       0.675424        18.3792 
 144   0.0000       0.691315        18.8116 
 145   0.0000       0.699374        19.0309 
 146   0.0000       0.714080        19.4311 
 147   0.0000       0.720235        19.5986 
 148   0.0000       0.753052        20.4916 
 149   0.0000       0.758086        20.6286 
 150   0.0000       0.768283        20.9060 
 151   0.0000       0.778848        21.1935 
 152   0.0000       0.784632        21.3509 
 153   0.0000       0.793907        21.6033 
 154   0.0000       0.809636        22.0313 
 155   0.0000       0.831538        22.6273 
 156   0.0000       0.865512        23.5518 
 157   0.0000       0.879401        23.9297 
 158   0.0000       0.920171        25.0391 
 159   0.0000       0.966393        26.2969 
 160   0.0000       0.975005        26.5312 
 161   0.0000       0.984486        26.7892 
 162   0.0000       0.986000        26.8304 
 163   0.0000       0.990361        26.9491 
 164   0.0000       1.006438        27.3866 
 165   0.0000       1.015042        27.6207 
 166   0.0000       1.057953        28.7884 
 167   0.0000       1.081427        29.4271 
 168   0.0000       1.100629        29.9496 
 169   0.0000       1.103034        30.0151 
 170   0.0000       1.133655        30.8483 
 171   0.0000       1.143942        31.1282 
 172   0.0000       1.148701        31.2577 
 173   0.0000       1.163256        31.6538 
 174   0.0000       1.172346        31.9011 
 175   0.0000       1.186895        32.2971 
 176   0.0000       1.196620        32.5617 
 177   0.0000       1.204101        32.7653 
 178   0.0000       1.216011        33.0893 
 179   0.0000       1.226201        33.3666 
 180   0.0000       1.235623        33.6230 
 181   0.0000       1.277429        34.7606 
 182   0.0000       1.290489        35.1160 
 183   0.0000       1.301780        35.4232 
 184   0.0000       1.312851        35.7245 
 185   0.0000       1.367370        37.2080 
 186   0.0000       1.391410        37.8622 
 187   0.0000       1.408631        38.3308 
 188   0.0000       1.443632        39.2832 
 189   0.0000       1.447124        39.3783 
 190   0.0000       1.454661        39.5833 
 191   0.0000       1.464231        39.8438 
 192   0.0000       1.484432        40.3934 
 193   0.0000       1.486146        40.4401 
 194   0.0000       1.510202        41.0947 
 195   0.0000       1.533762        41.7358 
 196   0.0000       1.591760        43.3140 
 197   0.0000       1.606482        43.7146 
 198   0.0000       1.616508        43.9874 
 199   0.0000       1.623570        44.1796 
 200   0.0000       1.637503        44.5587 
 201   0.0000       1.641733        44.6738 
 202   0.0000       1.652326        44.9621 
 203   0.0000       1.656694        45.0809 
 204   0.0000       1.682961        45.7957 
 205   0.0000       1.685092        45.8537 
 206   0.0000       1.690632        46.0044 
 207   0.0000       1.694643        46.1136 
 208   0.0000       1.714972        46.6667 
 209   0.0000       1.726941        46.9924 
 210   0.0000       1.736661        47.2569 
 211   0.0000       1.745956        47.5099 
 212   0.0000       1.781655        48.4813 
 213   0.0000       1.791082        48.7378 
 214   0.0000       1.797743        48.9191 
 215   0.0000       1.802410        49.0461 
 216   0.0000       1.828309        49.7508 
 217   0.0000       1.831299        49.8322 
 218   0.0000       1.853984        50.4495 
 219   0.0000       1.884514        51.2802 
 220   0.0000       1.888831        51.3977 
 221   0.0000       1.890168        51.4341 
 222   0.0000       1.910140        51.9776 
 223   0.0000       1.913554        52.0705 
 224   0.0000       1.934552        52.6418 
 225   0.0000       1.938478        52.7487 
 226   0.0000       1.960418        53.3457 
 227   0.0000       1.977449        53.8091 
 228   0.0000       1.985583        54.0305 
 229   0.0000       2.003515        54.5184 
 230   0.0000       2.009075        54.6697 
 231   0.0000       2.019410        54.9509 
 232   0.0000       2.059398        56.0391 
 233   0.0000       2.083748        56.7017 
 234   0.0000       2.088008        56.8176 
 235   0.0000       2.095976        57.0344 
 236   0.0000       2.136338        58.1327 
 237   0.0000       2.157698        58.7139 
 238   0.0000       2.164456        58.8979 
 239   0.0000       2.173205        59.1359 
 240   0.0000       2.227735        60.6198 
 241   0.0000       2.231915        60.7335 
 242   0.0000       2.248834        61.1939 
 243   0.0000       2.269025        61.7433 
 244   0.0000       2.286400        62.2161 
 245   0.0000       2.310721        62.8779 
 246   0.0000       2.330038        63.4036 
 247   0.0000       2.340825        63.6971 
 248   0.0000       2.349322        63.9283 
 249   0.0000       2.391468        65.0751 
 250   0.0000       2.417700        65.7890 
 251   0.0000       2.461148        66.9712 
 252   0.0000       2.492262        67.8179 
 253   0.0000       2.515324        68.4455 
 254   0.0000       2.518734        68.5382 
 255   0.0000       2.545099        69.2557 
 256   0.0000       2.550006        69.3892 
 257   0.0000       2.583314        70.2955 
 258   0.0000       2.591093        70.5072 
 259   0.0000       2.626714        71.4765 
 260   0.0000       2.644985        71.9737 
 261   0.0000       2.685271        73.0699 
 262   0.0000       2.701841        73.5208 
 263   0.0000       2.709901        73.7401 
 264   0.0000       2.761943        75.1563 
 265   0.0000       2.763386        75.1956 
 266   0.0000       2.775863        75.5351 
 267   0.0000       2.785446        75.7958 
 268   0.0000       2.801214        76.2249 
 269   0.0000       2.861712        77.8712 
 270   0.0000       2.863528        77.9205 
 271   0.0000       2.946994        80.1918 
 272   0.0000       2.954235        80.3888 
 273   0.0000       2.960325        80.5545 
 274   0.0000       3.039024        82.6960 
 275   0.0000       3.087996        84.0286 
 276   0.0000       3.199471        87.0620 
 277   0.0000       3.212479        87.4160 
 278   0.0000       3.330365        90.6238 
 279   0.0000       3.394190        92.3606 
 280   0.0000       3.418994        93.0356 
 281   0.0000       3.522523        95.8527 

                    ********************************
                    * MULLIKEN POPULATION ANALYSIS *
                    ********************************

-----------------------
MULLIKEN ATOMIC CHARGES
-----------------------
   0 C :   -0.081330
   1 C :    0.003092
   2 S :    0.065056
   3 C :    0.033133
   4 H :    0.006248
   5 C :   -0.128665
   6 C :    0.084058
   7 C :    0.092123
   8 C :   -0.138240
   9 C :    0.039450
  10 O :   -0.279412
  11 O :   -0.282987
  12 C :    0.101715
  13 H :    0.052245
  14 H :    0.052177
  15 H :    0.047157
  16 C :    0.101040
  17 H :    0.054019
  18 H :    0.049659
  19 H :    0.053836
  20 C :   -0.002076
  21 S :    0.065041
  22 C :   -0.080011
  23 H :    0.007903
  24 H :    0.042646
  25 H :    0.042124
Sum of atomic charges:   -0.0000000

--------------------------------
MULLIKEN REDUCED ORBITAL CHARGES
--------------------------------
  0 C s       :     3.191162  s :     3.191162
      pz      :     1.103273  p :     2.859052
      px      :     0.858767
      py      :     0.897011
      dz2     :     0.002721  d :     0.031117
      dxz     :     0.002385
      dyz     :     0.006367
      dx2y2   :     0.007736
      dxy     :     0.011907
  1 C s       :     3.233825  s :     3.233825
      pz      :     1.009601  p :     2.731063
      px      :     0.946441
      py      :     0.775022
      dz2     :     0.002458  d :     0.032020
      dxz     :     0.005474
      dyz     :     0.004252
      dx2y2   :     0.010145
      dxy     :     0.009690
  2 S s       :     5.859645  s :     5.859645
      pz      :     3.710042  p :     9.976042
      px      :     2.986414
      py      :     3.279586
      dz2     :     0.011378  d :     0.099256
      dxz     :     0.018618
      dyz     :     0.011129
      dx2y2   :     0.014331
      dxy     :     0.043800
  3 C s       :     3.133282  s :     3.133282
      pz      :     1.050294  p :     2.794970
      px      :     0.846673
      py      :     0.898004
      dz2     :     0.003215  d :     0.038614
      dxz     :     0.007038
      dyz     :     0.006558
      dx2y2   :     0.010336
      dxy     :     0.011469
  4 H s       :     0.970901  s :     0.970901
      pz      :     0.005277  p :     0.022851
      px      :     0.006331
      py      :     0.011243
  5 C s       :     2.993366  s :     2.993366
      pz      :     1.130310  p :     3.095906
      px      :     0.995389
      py      :     0.970207
      dz2     :     0.003326  d :     0.039394
      dxz     :     0.007909
      dyz     :     0.005880
      dx2y2   :     0.009389
      dxy     :     0.012889
  6 C s       :     3.079467  s :     3.079467
      pz      :     1.037237  p :     2.766435
      px      :     0.950985
      py      :     0.778213
      dz2     :     0.005030  d :     0.070040
      dxz     :     0.009487
      dyz     :     0.013060
      dx2y2   :     0.020296
      dxy     :     0.022167
  7 C s       :     3.076013  s :     3.076013
      pz      :     1.030228  p :     2.761566
      px      :     0.948947
      py      :     0.782392
      dz2     :     0.005063  d :     0.070298
      dxz     :     0.009720
      dyz     :     0.013496
      dx2y2   :     0.019881
      dxy     :     0.022138
  8 C s       :     2.993202  s :     2.993202
      pz      :     1.135946  p :     3.105939
      px      :     0.999452
      py      :     0.970541
      dz2     :     0.003326  d :     0.039099
      dxz     :     0.007736
      dyz     :     0.005815
      dx2y2   :     0.009378
      dxy     :     0.012844
  9 C s       :     3.136029  s :     3.136029
      pz      :     1.045157  p :     2.785764
      px      :     0.845770
      py      :     0.894837
      dz2     :     0.003214  d :     0.038757
      dxz     :     0.007084
      dyz     :     0.006630
      dx2y2   :     0.010390
      dxy     :     0.011439
 10 O s       :     3.734902  s :     3.734902
      pz      :     1.730138  p :     4.528297
      px      :     1.609538
      py      :     1.188622
      dz2     :     0.002186  d :     0.016214
      dxz     :     0.002143
      dyz     :     0.003133
      dx2y2   :     0.002691
      dxy     :     0.006060
 11 O s       :     3.736300  s :     3.736300
      pz      :     1.693051  p :     4.530482
      px      :     1.626856
      py      :     1.210575
      dz2     :     0.002286  d :     0.016205
      dxz     :     0.002320
      dyz     :     0.003383
      dx2y2   :     0.002585
      dxy     :     0.005631
 12 C s       :     3.051999  s :     3.051999
      pz      :     0.968098  p :     2.797165
      px      :     0.994755
      py      :     0.834312
      dz2     :     0.009605  d :     0.049122
      dxz     :     0.007547
      dyz     :     0.010578
      dx2y2   :     0.006956
      dxy     :     0.014437
 13 H s       :     0.927108  s :     0.927108
      pz      :     0.004706  p :     0.020647
      px      :     0.008687
      py      :     0.007254
 14 H s       :     0.925739  s :     0.925739
      pz      :     0.006609  p :     0.022084
      px      :     0.010234
      py      :     0.005241
 15 H s       :     0.931374  s :     0.931374
      pz      :     0.011852  p :     0.021469
      px      :     0.005961
      py      :     0.003656
 16 C s       :     3.054324  s :     3.054324
      pz      :     0.999660  p :     2.795663
      px      :     0.984452
      py      :     0.811552
      dz2     :     0.008502  d :     0.048972
      dxz     :     0.008609
      dyz     :     0.009357
      dx2y2   :     0.007714
      dxy     :     0.014791
 17 H s       :     0.925333  s :     0.925333
      pz      :     0.005027  p :     0.020648
      px      :     0.008543
      py      :     0.007079
 18 H s       :     0.928669  s :     0.928669
      pz      :     0.011859  p :     0.021672
      px      :     0.006527
      py      :     0.003286
 19 H s       :     0.924071  s :     0.924071
      pz      :     0.007885  p :     0.022093
      px      :     0.009493
      py      :     0.004714
 20 C s       :     3.236343  s :     3.236343
      pz      :     1.009995  p :     2.733789
      px      :     0.947544
      py      :     0.776250
      dz2     :     0.002460  d :     0.031944
      dxz     :     0.005414
      dyz     :     0.004256
      dx2y2   :     0.010172
      dxy     :     0.009643
 21 S s       :     5.858939  s :     5.858939
      pz      :     3.708145  p :     9.975689
      px      :     2.988770
      py      :     3.278774
      dz2     :     0.011424  d :     0.100331
      dxz     :     0.019036
      dyz     :     0.011246
      dx2y2   :     0.014512
      dxy     :     0.044112
 22 C s       :     3.186881  s :     3.186881
      pz      :     1.102099  p :     2.861780
      px      :     0.860390
      py      :     0.899291
      dz2     :     0.002733  d :     0.031349
      dxz     :     0.002418
      dyz     :     0.006473
      dx2y2   :     0.007848
      dxy     :     0.011877
 23 H s       :     0.969438  s :     0.969438
      pz      :     0.005212  p :     0.022659
      px      :     0.006278
      py      :     0.011169
 24 H s       :     0.934058  s :     0.934058
      pz      :     0.005957  p :     0.023296
      px      :     0.013292
      py      :     0.004047
 25 H s       :     0.934601  s :     0.934601
      pz      :     0.005935  p :     0.023275
      px      :     0.013344
      py      :     0.003996


                     *******************************
                     * LOEWDIN POPULATION ANALYSIS *
                     *******************************

----------------------
LOEWDIN ATOMIC CHARGES
----------------------
   0 C :   -0.173120
   1 C :   -0.055481
   2 S :    0.377787
   3 C :   -0.068381
   4 H :    0.038522
   5 C :   -0.190800
   6 C :    0.009809
   7 C :    0.013514
   8 C :   -0.192513
   9 C :   -0.066175
  10 O :   -0.084156
  11 O :   -0.088988
  12 C :    0.052004
  13 H :    0.032779
  14 H :    0.010667
  15 H :    0.021999
  16 C :    0.051030
  17 H :    0.033916
  18 H :    0.021447
  19 H :    0.013212
  20 C :   -0.056356
  21 S :    0.380485
  22 C :   -0.175859
  23 H :    0.039484
  24 H :    0.027520
  25 H :    0.027652

-------------------------------
LOEWDIN REDUCED ORBITAL CHARGES
-------------------------------
  0 C s       :     2.947285  s :     2.947285
      pz      :     1.090923  p :     3.149481
      px      :     1.023262
      py      :     1.035295
      dz2     :     0.005619  d :     0.076355
      dxz     :     0.003960
      dyz     :     0.013596
      dx2y2   :     0.021395
      dxy     :     0.031786
  1 C s       :     2.873858  s :     2.873858
      pz      :     1.003987  p :     3.094255
      px      :     1.034548
      py      :     1.055720
      dz2     :     0.006204  d :     0.087368
      dxz     :     0.011761
      dyz     :     0.008384
      dx2y2   :     0.032446
      dxy     :     0.028571
  2 S s       :     5.532832  s :     5.532832
      pz      :     3.669687  p :     9.966651
      px      :     2.970336
      py      :     3.326628
      dz2     :     0.014841  d :     0.122731
      dxz     :     0.022560
      dyz     :     0.011250
      dx2y2   :     0.015810
      dxy     :     0.058270
  3 C s       :     2.852195  s :     2.852195
      pz      :     1.037560  p :     3.110003
      px      :     1.037753
      py      :     1.034690
      dz2     :     0.007977  d :     0.106182
      dxz     :     0.014179
      dyz     :     0.014030
      dx2y2   :     0.034660
      dxy     :     0.035336
  4 H s       :     0.891853  s :     0.891853
      pz      :     0.015080  p :     0.069625
      px      :     0.019492
      py      :     0.035053
  5 C s       :     2.909812  s :     2.909812
      pz      :     1.110748  p :     3.182300
      px      :     1.039228
      py      :     1.032324
      dz2     :     0.007701  d :     0.098688
      dxz     :     0.015957
      dyz     :     0.011819
      dx2y2   :     0.028159
      dxy     :     0.035052
  6 C s       :     2.840199  s :     2.840199
      pz      :     1.031749  p :     2.981281
      px      :     1.043727
      py      :     0.905805
      dz2     :     0.011396  d :     0.168711
      dxz     :     0.019513
      dyz     :     0.025646
      dx2y2   :     0.052571
      dxy     :     0.059586
  7 C s       :     2.840089  s :     2.840089
      pz      :     1.025955  p :     2.977194
      px      :     1.044289
      py      :     0.906950
      dz2     :     0.011445  d :     0.169203
      dxz     :     0.019955
      dyz     :     0.026708
      dx2y2   :     0.051559
      dxy     :     0.059536
  8 C s       :     2.910542  s :     2.910542
      pz      :     1.115604  p :     3.184162
      px      :     1.037106
      py      :     1.031452
      dz2     :     0.007670  d :     0.097809
      dxz     :     0.015538
      dyz     :     0.011672
      dx2y2   :     0.028087
      dxy     :     0.034841
  9 C s       :     2.853000  s :     2.853000
      pz      :     1.033264  p :     3.106729
      px      :     1.038757
      py      :     1.034708
      dz2     :     0.007992  d :     0.106446
      dxz     :     0.014285
      dyz     :     0.014217
      dx2y2   :     0.034745
      dxy     :     0.035207
 10 O s       :     3.438816  s :     3.438816
      pz      :     1.726915  p :     4.614354
      px      :     1.638579
      py      :     1.248859
      dz2     :     0.003795  d :     0.030986
      dxz     :     0.002692
      dyz     :     0.006157
      dx2y2   :     0.006064
      dxy     :     0.012279
 11 O s       :     3.441267  s :     3.441267
      pz      :     1.696672  p :     4.616869
      px      :     1.653036
      py      :     1.267160
      dz2     :     0.003936  d :     0.030852
      dxz     :     0.003028
      dyz     :     0.006845
      dx2y2   :     0.005755
      dxy     :     0.011289
 12 C s       :     2.865001  s :     2.865001
      pz      :     1.021788  p :     2.967983
      px      :     1.049770
      py      :     0.896426
      dz2     :     0.023402  d :     0.115012
      dxz     :     0.019355
      dyz     :     0.022767
      dx2y2   :     0.013607
      dxy     :     0.035880
 13 H s       :     0.905109  s :     0.905109
      pz      :     0.011380  p :     0.062111
      px      :     0.026642
      py      :     0.024090
 14 H s       :     0.922938  s :     0.922938
      pz      :     0.019111  p :     0.066395
      px      :     0.031397
      py      :     0.015888
 15 H s       :     0.913459  s :     0.913459
      pz      :     0.038720  p :     0.064542
      px      :     0.015278
      py      :     0.010544
 16 C s       :     2.864903  s :     2.864903
      pz      :     1.050112  p :     2.969315
      px      :     1.043492
      py      :     0.875711
      dz2     :     0.020481  d :     0.114752
      dxz     :     0.023029
      dyz     :     0.019750
      dx2y2   :     0.015196
      dxy     :     0.036295
 17 H s       :     0.903922  s :     0.903922
      pz      :     0.011927  p :     0.062162
      px      :     0.026390
      py      :     0.023845
 18 H s       :     0.913616  s :     0.913616
      pz      :     0.038140  p :     0.064937
      px      :     0.017349
      py      :     0.009448
 19 H s       :     0.920558  s :     0.920558
      pz      :     0.023446  p :     0.066230
      px      :     0.028570
      py      :     0.014213
 20 C s       :     2.875215  s :     2.875215
      pz      :     1.004848  p :     3.094092
      px      :     1.034582
      py      :     1.054662
      dz2     :     0.006193  d :     0.087049
      dxz     :     0.011604
      dyz     :     0.008384
      dx2y2   :     0.032486
      dxy     :     0.028383
 21 S s       :     5.530999  s :     5.530999
      pz      :     3.667612  p :     9.964235
      px      :     2.970325
      py      :     3.326297
      dz2     :     0.014935  d :     0.124282
      dxz     :     0.023131
      dyz     :     0.011369
      dx2y2   :     0.016082
      dxy     :     0.058765
 22 C s       :     2.945925  s :     2.945925
      pz      :     1.089959  p :     3.152880
      px      :     1.025340
      py      :     1.037581
      dz2     :     0.005672  d :     0.077053
      dxz     :     0.004017
      dyz     :     0.013829
      dx2y2   :     0.021770
      dxy     :     0.031765
 23 H s       :     0.891589  s :     0.891589
      pz      :     0.014849  p :     0.068927
      px      :     0.019287
      py      :     0.034790
 24 H s       :     0.897184  s :     0.897184
      pz      :     0.018134  p :     0.075296
      px      :     0.044270
      py      :     0.012891
 25 H s       :     0.897135  s :     0.897135
      pz      :     0.018101  p :     0.075214
      px      :     0.044352
      py      :     0.012760


                      *****************************
                      * MAYER POPULATION ANALYSIS *
                      *****************************

  NA   - Mulliken gross atomic population
  ZA   - Total nuclear charge
  QA   - Mulliken gross atomic charge
  VA   - Mayer's total valence
  BVA  - Mayer's bonded valence
  FA   - Mayer's free valence

  ATOM       NA         ZA         QA         VA         BVA        FA
  0 C      6.0813     6.0000    -0.0813     3.7698     3.7698    -0.0000
  1 C      5.9969     6.0000     0.0031     3.8776     3.8776    -0.0000
  2 S     15.9349    16.0000     0.0651     2.4340     2.4340     0.0000
  3 C      5.9669     6.0000     0.0331     3.9558     3.9558    -0.0000
  4 H      0.9938     1.0000     0.0062     1.0024     1.0024    -0.0000
  5 C      6.1287     6.0000    -0.1287     3.8532     3.8532    -0.0000
  6 C      5.9159     6.0000     0.0841     4.0362     4.0362    -0.0000
  7 C      5.9079     6.0000     0.0921     4.0392     4.0392    -0.0000
  8 C      6.1382     6.0000    -0.1382     3.8477     3.8477    -0.0000
  9 C      5.9605     6.0000     0.0395     3.9557     3.9557    -0.0000
 10 O      8.2794     8.0000    -0.2794     2.2868     2.2868     0.0000
 11 O      8.2830     8.0000    -0.2830     2.2791     2.2791    -0.0000
 12 C      5.8983     6.0000     0.1017     3.8998     3.8998     0.0000
 13 H      0.9478     1.0000     0.0522     0.9880     0.9880     0.0000
 14 H      0.9478     1.0000     0.0522     0.9892     0.9892     0.0000
 15 H      0.9528     1.0000     0.0472     0.9907     0.9907     0.0000
 16 C      5.8990     6.0000     0.1010     3.8984     3.8984    -0.0000
 17 H      0.9460     1.0000     0.0540     0.9873     0.9873     0.0000
 18 H      0.9503     1.0000     0.0497     0.9918     0.9918    -0.0000
 19 H      0.9462     1.0000     0.0538     0.9899     0.9899    -0.0000
 20 C      6.0021     6.0000    -0.0021     3.8809     3.8809     0.0000
 21 S     15.9350    16.0000     0.0650     2.4383     2.4383    -0.0000
 22 C      6.0800     6.0000    -0.0800     3.7722     3.7722    -0.0000
 23 H      0.9921     1.0000     0.0079     1.0022     1.0022    -0.0000
 24 H      0.9574     1.0000     0.0426     0.9934     0.9934     0.0000
 25 H      0.9579     1.0000     0.0421     0.9935     0.9935    -0.0000

  Mayer bond orders larger than 0.100000
B(  0-C ,  1-C ) :   1.5587 B(  0-C ,  2-S ) :   1.0893 B(  0-C , 24-H ) :   0.9624 
B(  1-C ,  3-C ) :   1.2220 B(  1-C ,  4-H ) :   0.9812 B(  2-S ,  5-C ) :   1.0389 
B(  3-C ,  5-C ) :   1.2824 B(  3-C ,  7-C ) :   1.2867 B(  5-C ,  6-C ) :   1.3500 
B(  6-C ,  9-C ) :   1.2895 B(  6-C , 11-O ) :   1.2011 B(  7-C ,  8-C ) :   1.3504 
B(  7-C , 10-O ) :   1.2068 B(  8-C ,  9-C ) :   1.2783 B(  8-C , 21-S ) :   1.0342 
B(  9-C , 20-C ) :   1.2225 B( 10-O , 16-C ) :   0.9587 B( 11-O , 12-C ) :   0.9612 
B( 12-C , 13-H ) :   0.9708 B( 12-C , 14-H ) :   0.9501 B( 12-C , 15-H ) :   0.9606 
B( 16-C , 17-H ) :   0.9700 B( 16-C , 18-H ) :   0.9600 B( 16-C , 19-H ) :   0.9514 
B( 20-C , 22-C ) :   1.5580 B( 20-C , 23-H ) :   0.9803 B( 21-S , 22-C ) :   1.0930 
B( 22-C , 25-H ) :   0.9616 

-------
TIMINGS
-------

Total SCF time: 0 days 0 hours 0 min 51 sec 

Total time                  ....      51.096 sec
Sum of individual times     ....      40.446 sec  ( 79.2%)

Fock matrix formation       ....      33.849 sec  ( 66.2%)
  Split-RI-J                ....      15.065 sec  ( 44.5% of F)
  XC integration            ....      18.142 sec  ( 53.6% of F)
    Basis function eval.    ....       6.823 sec  ( 37.6% of XC)
    Density eval.           ....       4.263 sec  ( 23.5% of XC)
    XC-Functional eval.     ....       1.529 sec  (  8.4% of XC)
    XC-Potential eval.      ....       4.639 sec  ( 25.6% of XC)
Diagonalization             ....       0.087 sec  (  0.2%)
Density matrix formation    ....       0.037 sec  (  0.1%)
Population analysis         ....       0.042 sec  (  0.1%)
Initial guess               ....       1.237 sec  (  2.4%)
Orbital Transformation      ....       0.000 sec  (  0.0%)
Orbital Orthonormalization  ....       0.000 sec  (  0.0%)
DIIS solution               ....       0.276 sec  (  0.5%)
SOSCF solution              ....       0.111 sec  (  0.2%)
Grid generation             ....       4.807 sec  (  9.4%)


-------------------------------------------------------------------------------
                          DFT DISPERSION CORRECTION                            
                                                                               
                              DFTD3 V3.1  Rev 1                                
                          USING Becke-Johnson damping                          
-------------------------------------------------------------------------------
The BP86 functional is recognized
Active option DFTDOPT                   ...         4   

molecular C6(AA) [au] = 10871.576913 


            DFT-D V3
 parameters
 s6 scaling factor         :     1.0000 
 a1 scaling factor         :     0.3946 
 s8 scaling factor         :     3.2822 
 a2 scaling factor         :     4.8516 
 ad hoc parameters k1-k3   :    16.0000     1.3333    -4.0000 

 Edisp/kcal,au: -38.347257091792  -0.061110237512 
 E6   /kcal   : -13.481948408 
 E8   /kcal   : -24.865308684 
 % E8         :  64.842470021 

-------------------------   ----------------
Dispersion correction           -0.061110238
-------------------------   ----------------


-------------------------   --------------------
FINAL SINGLE POINT ENERGY     -1409.563019547461
-------------------------   --------------------

------------------------------------------------------------------------------
                         ORCA SCF GRADIENT CALCULATION
------------------------------------------------------------------------------

Gradient of the Kohn-Sham DFT energy:
Kohn-Sham wavefunction type      ... RKS
Hartree-Fock exchange scaling    ...    0.000
Number of operators              ...    1
Number of atoms                  ...   26
Basis set dimensions             ...  282
Integral neglect threshold       ... 2.5e-11
Integral primitive cutoff        ... 2.5e-12

Nuclear repulsion gradient       ... done
One Electron Gradient            ... done
Pre-screening matrix             ... done
RI-J gradient                    ... done
Exchange-correlation gradient    ... done
Dispersion correction            ... done

------------------
CARTESIAN GRADIENT
------------------

   1   C   :   -0.030855771   -0.008629017    0.000711745
   2   C   :    0.016015990    0.014724418   -0.000767301
   3   S   :    0.009146371   -0.005244449   -0.000035337
   4   C   :   -0.009237611   -0.002133127    0.000234138
   5   H   :    0.001283376   -0.002348748    0.000051643
   6   C   :    0.004938476   -0.001165355    0.000141328
   7   C   :   -0.005287228   -0.004153549    0.000144011
   8   C   :    0.002604165    0.005321265   -0.000074544
   9   C   :   -0.002923763    0.000605364   -0.000190755
  10   C   :    0.009920063    0.001220239   -0.000203205
  11   O   :    0.000743678   -0.003530258    0.000046422
  12   O   :    0.000209879    0.001893007   -0.000019877
  13   C   :   -0.000401245   -0.000501629    0.000463347
  14   H   :   -0.000134972    0.000079479   -0.000076582
  15   H   :   -0.000007904    0.000028454   -0.000182533
  16   H   :    0.000142585    0.000088270   -0.000104786
  17   C   :    0.000878043    0.001076303   -0.000439262
  18   H   :    0.000218630   -0.000189798    0.000100113
  19   H   :   -0.000220964   -0.000105518    0.000071174
  20   H   :   -0.000067652    0.000031991    0.000188740
  21   C   :   -0.016925913   -0.012940181    0.000723068
  22   S   :   -0.007991177    0.005039463   -0.000026644
  23   C   :    0.027860986    0.011735231   -0.000882036
  24   H   :    0.000043154   -0.000199525    0.000038052
  25   H   :    0.011309599    0.002264075   -0.000107137
  26   H   :   -0.011260797   -0.002966406    0.000196218

Difference to translation invariance:
           :    0.0000000000    0.0000000000   -0.0000000000

Norm of the cartesian gradient     ...    0.0605894317
RMS gradient                       ...    0.0068604022
MAX gradient                       ...    0.0308557705

-------
TIMINGS
-------

Total SCF gradient time            ...       18.957 sec

One electron gradient       ....       0.367 sec  (  1.9%)
Prescreening matrices       ....       0.168 sec  (  0.9%)
RI-J Coulomb gradient       ....       3.662 sec  ( 19.3%)
XC gradient                 ....      14.540 sec  ( 76.7%)
------------------------------------------------------------------------------
                         ORCA GEOMETRY RELAXATION STEP
[...]
      dxz     :     0.009721
      dyz     :     0.013495
      dx2y2   :     0.019882
      dxy     :     0.022139
  8 C s       :     2.993074  s :     2.993074
      pz      :     1.135997  p :     3.106124
      px      :     0.999594
      py      :     0.970533
      dz2     :     0.003326  d :     0.039103
      dxz     :     0.007737
      dyz     :     0.005816
      dx2y2   :     0.009379
      dxy     :     0.012844
  9 C s       :     3.135715  s :     3.135715
      pz      :     1.045298  p :     2.785871
      px      :     0.845661
      py      :     0.894912
      dz2     :     0.003215  d :     0.038764
      dxz     :     0.007090
      dyz     :     0.006631
      dx2y2   :     0.010392
      dxy     :     0.011437
 10 O s       :     3.734902  s :     3.734902
      pz      :     1.730117  p :     4.528186
      px      :     1.609535
      py      :     1.188533
      dz2     :     0.002185  d :     0.016212
      dxz     :     0.002143
      dyz     :     0.003135
      dx2y2   :     0.002690
      dxy     :     0.006060
 11 O s       :     3.736300  s :     3.736300
      pz      :     1.693077  p :     4.530391
      px      :     1.626858
      py      :     1.210456
      dz2     :     0.002284  d :     0.016204
      dxz     :     0.002321
      dyz     :     0.003385
      dx2y2   :     0.002582
      dxy     :     0.005631
 12 C s       :     3.052133  s :     3.052133
      pz      :     0.968137  p :     2.797324
      px      :     0.994810
      py      :     0.834377
      dz2     :     0.009508  d :     0.049117
      dxz     :     0.007607
      dyz     :     0.010621
      dx2y2   :     0.006924
      dxy     :     0.014456
 13 H s       :     0.926985  s :     0.926985
      pz      :     0.004719  p :     0.020637
      px      :     0.008706
      py      :     0.007212
 14 H s       :     0.925792  s :     0.925792
      pz      :     0.006629  p :     0.022072
      px      :     0.010169
      py      :     0.005274
 15 H s       :     0.931319  s :     0.931319
      pz      :     0.011812  p :     0.021483
      px      :     0.006013
      py      :     0.003658
 16 C s       :     3.054540  s :     3.054540
      pz      :     0.999875  p :     2.795772
      px      :     0.984314
      py      :     0.811584
      dz2     :     0.008426  d :     0.048963
      dxz     :     0.008657
      dyz     :     0.009388
      dx2y2   :     0.007706
      dxy     :     0.014787
 17 H s       :     0.925151  s :     0.925151
      pz      :     0.005031  p :     0.020630
      px      :     0.008542
      py      :     0.007056
 18 H s       :     0.928683  s :     0.928683
      pz      :     0.011823  p :     0.021683
      px      :     0.006576
      py      :     0.003284
 19 H s       :     0.924166  s :     0.924166
      pz      :     0.007905  p :     0.022087
      px      :     0.009452
      py      :     0.004729
 20 C s       :     3.237183  s :     3.237183
      pz      :     1.010380  p :     2.733203
      px      :     0.946056
      py      :     0.776768
      dz2     :     0.002459  d :     0.031923
      dxz     :     0.005413
      dyz     :     0.004259
      dx2y2   :     0.010154
      dxy     :     0.009637
 21 S s       :     5.859214  s :     5.859214
      pz      :     3.708115  p :     9.974975
      px      :     2.988159
      py      :     3.278702
      dz2     :     0.011427  d :     0.100352
      dxz     :     0.019039
      dyz     :     0.011250
      dx2y2   :     0.014525
      dxy     :     0.044112
 22 C s       :     3.191852  s :     3.191852
      pz      :     1.101715  p :     2.864871
      px      :     0.863387
      py      :     0.899769
      dz2     :     0.002727  d :     0.031269
      dxz     :     0.002441
      dyz     :     0.006481
      dx2y2   :     0.007716
      dxy     :     0.011904
 23 H s       :     0.969481  s :     0.969481
      pz      :     0.005219  p :     0.022673
      px      :     0.006287
      py      :     0.011167
 24 H s       :     0.927286  s :     0.927286
      pz      :     0.005684  p :     0.022549
      px      :     0.013048
      py      :     0.003817
 25 H s       :     0.927517  s :     0.927517
      pz      :     0.005658  p :     0.022515
      px      :     0.013055
      py      :     0.003802


                     *******************************
                     * LOEWDIN POPULATION ANALYSIS *
                     *******************************

----------------------
LOEWDIN ATOMIC CHARGES
----------------------
   0 C :   -0.177368
   1 C :   -0.057004
   2 S :    0.377888
   3 C :   -0.068578
   4 H :    0.039457
   5 C :   -0.190884
   6 C :    0.009807
   7 C :    0.013542
   8 C :   -0.192554
   9 C :   -0.066164
  10 O :   -0.084096
  11 O :   -0.088950
  12 C :    0.051803
  13 H :    0.032833
  14 H :    0.010849
  15 H :    0.021980
  16 C :    0.050846
  17 H :    0.033997
  18 H :    0.021368
  19 H :    0.013272
  20 C :   -0.057182
  21 S :    0.380377
  22 C :   -0.179598
  23 H :    0.039457
  24 H :    0.032462
  25 H :    0.032442

-------------------------------
LOEWDIN REDUCED ORBITAL CHARGES
-------------------------------
  0 C s       :     2.952330  s :     2.952330
      pz      :     1.091474  p :     3.149231
      px      :     1.021746
      py      :     1.036011
      dz2     :     0.005565  d :     0.075807
      dxz     :     0.003946
      dyz     :     0.013586
      dx2y2   :     0.021223
      dxy     :     0.031486
  1 C s       :     2.875134  s :     2.875134
      pz      :     1.004248  p :     3.094647
      px      :     1.034704
      py      :     1.055695
      dz2     :     0.006199  d :     0.087223
      dxz     :     0.011757
      dyz     :     0.008386
      dx2y2   :     0.032423
      dxy     :     0.028458
  2 S s       :     5.533051  s :     5.533051
      pz      :     3.669891  p :     9.966239
      px      :     2.969875
      py      :     3.326473
      dz2     :     0.014857  d :     0.122821
      dxz     :     0.022564
      dyz     :     0.011257
      dx2y2   :     0.015828
      dxy     :     0.058315
  3 C s       :     2.852209  s :     2.852209
      pz      :     1.037586  p :     3.110170
      px      :     1.037924
      py      :     1.034659
      dz2     :     0.007980  d :     0.106200
      dxz     :     0.014185
      dyz     :     0.014029
      dx2y2   :     0.034665
      dxy     :     0.035340
  4 H s       :     0.891593  s :     0.891593
      pz      :     0.014844  p :     0.068951
      px      :     0.019232
      py      :     0.034875
  5 C s       :     2.909817  s :     2.909817
      pz      :     1.110885  p :     3.182379
      px      :     1.039145
      py      :     1.032349
      dz2     :     0.007704  d :     0.098688
      dxz     :     0.015962
      dyz     :     0.011822
      dx2y2   :     0.028140
      dxy     :     0.035060
  6 C s       :     2.840189  s :     2.840189
      pz      :     1.031844  p :     2.981286
      px      :     1.043636
      py      :     0.905806
      dz2     :     0.011396  d :     0.168718
      dxz     :     0.019517
      dyz     :     0.025645
      dx2y2   :     0.052573
      dxy     :     0.059587
  7 C s       :     2.840078  s :     2.840078
      pz      :     1.025988  p :     2.977174
      px      :     1.044238
      py      :     0.906948
      dz2     :     0.011446  d :     0.169206
      dxz     :     0.019955
      dyz     :     0.026705
      dx2y2   :     0.051564
      dxy     :     0.059537
  8 C s       :     2.910546  s :     2.910546
      pz      :     1.115645  p :     3.184192
      px      :     1.037095
      py      :     1.031451
      dz2     :     0.007672  d :     0.097816
      dxz     :     0.015540
      dyz     :     0.011673
      dx2y2   :     0.028088
      dxy     :     0.034843
  9 C s       :     2.852961  s :     2.852961
      pz      :     1.033381  p :     3.106749
      px      :     1.038650
      py      :     1.034717
      dz2     :     0.007993  d :     0.106454
      dxz     :     0.014294
      dyz     :     0.014218
      dx2y2   :     0.034748
      dxy     :     0.035201
 10 O s       :     3.438828  s :     3.438828
      pz      :     1.726900  p :     4.614286
      px      :     1.638556
      py      :     1.248831
      dz2     :     0.003792  d :     0.030982
      dxz     :     0.002692
      dyz     :     0.006159
      dx2y2   :     0.006061
      dxy     :     0.012277
 11 O s       :     3.441287  s :     3.441287
      pz      :     1.696698  p :     4.616814
      px      :     1.653016
      py      :     1.267101
      dz2     :     0.003932  d :     0.030849
      dxz     :     0.003029
      dyz     :     0.006849
      dx2y2   :     0.005750
      dxy     :     0.011289
 12 C s       :     2.865013  s :     2.865013
      pz      :     1.021843  p :     2.968179
      px      :     1.049918
      py      :     0.896418
      dz2     :     0.023106  d :     0.115005
      dxz     :     0.019552
      dyz     :     0.022894
      dx2y2   :     0.013501
      dxy     :     0.035952
 13 H s       :     0.905090  s :     0.905090
      pz      :     0.011419  p :     0.062077
      px      :     0.026721
      py      :     0.023938
 14 H s       :     0.922811  s :     0.922811
      pz      :     0.019187  p :     0.066339
      px      :     0.031140
      py      :     0.016012
 15 H s       :     0.913480  s :     0.913480
      pz      :     0.038555  p :     0.064539
      px      :     0.015442
      py      :     0.010543
 16 C s       :     2.864975  s :     2.864975
      pz      :     1.050316  p :     2.969441
      px      :     1.043431
      py      :     0.875694
      dz2     :     0.020258  d :     0.114738
      dxz     :     0.023175
      dyz     :     0.019841
      dx2y2   :     0.015162
      dxy     :     0.036302
 17 H s       :     0.903902  s :     0.903902
      pz      :     0.011945  p :     0.062101
      px      :     0.026398
      py      :     0.023758
 18 H s       :     0.913699  s :     0.913699
      pz      :     0.037984  p :     0.064933
      px      :     0.017510
      py      :     0.009439
 19 H s       :     0.920521  s :     0.920521
      pz      :     0.023510  p :     0.066207
      px      :     0.028428
      py      :     0.014269
 20 C s       :     2.875316  s :     2.875316
      pz      :     1.005168  p :     3.094800
      px      :     1.034635
      py      :     1.054997
      dz2     :     0.006202  d :     0.087066
      dxz     :     0.011602
      dyz     :     0.008392
      dx2y2   :     0.032448
      dxy     :     0.028423
 21 S s       :     5.531192  s :     5.531192
      pz      :     3.667560  p :     9.964082
      px      :     2.970202
      py      :     3.326319
      dz2     :     0.014947  d :     0.124349
      dxz     :     0.023131
      dyz     :     0.011370
      dx2y2   :     0.016108
      dxy     :     0.058792
 22 C s       :     2.951103  s :     2.951103
      pz      :     1.090518  p :     3.151967
      px      :     1.023331
      py      :     1.038118
      dz2     :     0.005616  d :     0.076529
      dxz     :     0.004003
      dyz     :     0.013826
      dx2y2   :     0.021427
      dxy     :     0.031656
 23 H s       :     0.891574  s :     0.891574
      pz      :     0.014872  p :     0.068969
      px      :     0.019320
      py      :     0.034776
 24 H s       :     0.895187  s :     0.895187
      pz      :     0.017041  p :     0.072351
      px      :     0.043363
      py      :     0.011948
 25 H s       :     0.895306  s :     0.895306
      pz      :     0.016991  p :     0.072252
      px      :     0.043324
      py      :     0.011937


                      *****************************
                      * MAYER POPULATION ANALYSIS *
                      *****************************

  NA   - Mulliken gross atomic population
  ZA   - Total nuclear charge
  QA   - Mulliken gross atomic charge
  VA   - Mayer's total valence
  BVA  - Mayer's bonded valence
  FA   - Mayer's free valence

  ATOM       NA         ZA         QA         VA         BVA        FA
  0 C      6.0889     6.0000    -0.0889     3.7679     3.7679     0.0000
  1 C      5.9995     6.0000     0.0005     3.8805     3.8805    -0.0000
  2 S     15.9337    16.0000     0.0663     2.4334     2.4334     0.0000
  3 C      5.9670     6.0000     0.0330     3.9572     3.9572    -0.0000
  4 H      0.9918     1.0000     0.0082     1.0022     1.0022    -0.0000
  5 C      6.1291     6.0000    -0.1291     3.8532     3.8532     0.0000
  6 C      5.9160     6.0000     0.0840     4.0367     4.0367     0.0000
  7 C      5.9078     6.0000     0.0922     4.0393     4.0393     0.0000
  8 C      6.1383     6.0000    -0.1383     3.8478     3.8478    -0.0000
  9 C      5.9604     6.0000     0.0396     3.9556     3.9556     0.0000
 10 O      8.2793     8.0000    -0.2793     2.2869     2.2869     0.0000
 11 O      8.2829     8.0000    -0.2829     2.2791     2.2791    -0.0000
 12 C      5.8986     6.0000     0.1014     3.8997     3.8997    -0.0000
 13 H      0.9476     1.0000     0.0524     0.9879     0.9879     0.0000
 14 H      0.9479     1.0000     0.0521     0.9890     0.9890     0.0000
 15 H      0.9528     1.0000     0.0472     0.9909     0.9909    -0.0000
 16 C      5.8993     6.0000     0.1007     3.8983     3.8983    -0.0000
 17 H      0.9458     1.0000     0.0542     0.9873     0.9873    -0.0000
 18 H      0.9504     1.0000     0.0496     0.9919     0.9919    -0.0000
 19 H      0.9463     1.0000     0.0537     0.9898     0.9898    -0.0000
 20 C      6.0023     6.0000    -0.0023     3.8823     3.8823    -0.0000
 21 S     15.9345    16.0000     0.0655     2.4386     2.4386     0.0000
 22 C      6.0880     6.0000    -0.0880     3.7693     3.7693    -0.0000
 23 H      0.9922     1.0000     0.0078     1.0023     1.0023     0.0000
 24 H      0.9498     1.0000     0.0502     0.9918     0.9918    -0.0000
 25 H      0.9500     1.0000     0.0500     0.9918     0.9918    -0.0000

  Mayer bond orders larger than 0.100000
B(  0-C ,  1-C ) :   1.5608 B(  0-C ,  2-S ) :   1.0887 B(  0-C , 24-H ) :   0.9586 
B(  1-C ,  3-C ) :   1.2228 B(  1-C ,  4-H ) :   0.9797 B(  2-S ,  5-C ) :   1.0388 
B(  3-C ,  5-C ) :   1.2823 B(  3-C ,  7-C ) :   1.2868 B(  5-C ,  6-C ) :   1.3501 
B(  6-C ,  9-C ) :   1.2897 B(  6-C , 11-O ) :   1.2010 B(  7-C ,  8-C ) :   1.3505 
B(  7-C , 10-O ) :   1.2066 B(  8-C ,  9-C ) :   1.2783 B(  8-C , 21-S ) :   1.0343 
B(  9-C , 20-C ) :   1.2222 B( 10-O , 16-C ) :   0.9588 B( 11-O , 12-C ) :   0.9612 
B( 12-C , 13-H ) :   0.9708 B( 12-C , 14-H ) :   0.9504 B( 12-C , 15-H ) :   0.9605 
B( 16-C , 17-H ) :   0.9699 B( 16-C , 18-H ) :   0.9598 B( 16-C , 19-H ) :   0.9516 
B( 20-C , 22-C ) :   1.5586 B( 20-C , 23-H ) :   0.9805 B( 21-S , 22-C ) :   1.0929 
B( 22-C , 25-H ) :   0.9582 

-------
TIMINGS
-------

Total SCF time: 0 days 0 hours 0 min 15 sec 

Total time                  ....      15.137 sec
Sum of individual times     ....      14.664 sec  ( 96.9%)

Fock matrix formation       ....       7.448 sec  ( 49.2%)
  Split-RI-J                ....       1.924 sec  ( 25.8% of F)
  XC integration            ....       4.778 sec  ( 64.2% of F)
    Basis function eval.    ....       1.598 sec  ( 33.5% of XC)
    Density eval.           ....       1.109 sec  ( 23.2% of XC)
    XC-Functional eval.     ....       0.438 sec  (  9.2% of XC)
    XC-Potential eval.      ....       1.448 sec  ( 30.3% of XC)
Diagonalization             ....       0.022 sec  (  0.1%)
Density matrix formation    ....       0.007 sec  (  0.0%)
Population analysis         ....       2.326 sec  ( 15.4%)
Initial guess               ....       0.013 sec  (  0.1%)
Orbital Transformation      ....       0.000 sec  (  0.0%)
Orbital Orthonormalization  ....       0.007 sec  (  0.0%)
DIIS solution               ....       0.003 sec  (  0.0%)
SOSCF solution              ....       0.010 sec  (  0.1%)
Grid generation             ....       4.836 sec  ( 32.0%)


-------------------------------------------------------------------------------
                          DFT DISPERSION CORRECTION                            
                                                                               
                              DFTD3 V3.1  Rev 1                                
                          USING Becke-Johnson damping                          
-------------------------------------------------------------------------------
The BP86 functional is recognized
Active option DFTDOPT                   ...         4   

molecular C6(AA) [au] = 10872.209427 


            DFT-D V3
 parameters
 s6 scaling factor         :     1.0000 
 a1 scaling factor         :     0.3946 
 s8 scaling factor         :     3.2822 
 a2 scaling factor         :     4.8516 
 ad hoc parameters k1-k3   :    16.0000     1.3333    -4.0000 

 Edisp/kcal,au: -38.337513675603  -0.061094710392 
 E6   /kcal   : -13.477665073 
 E8   /kcal   : -24.859848603 
 % E8         :  64.844707493 

-------------------------   ----------------
Dispersion correction           -0.061094710
-------------------------   ----------------


-------------------------   --------------------
FINAL SINGLE POINT ENERGY     -1409.563392975436
-------------------------   --------------------

                                *** OPTIMIZATION RUN DONE ***

                            ***************************************
                            *     ORCA property calculations      *
                            ***************************************

                                    ---------------------
                                    Active property flags
                                    ---------------------
   (+) Dipole Moment


------------------------------------------------------------------------------
                       ORCA ELECTRIC PROPERTIES CALCULATION
------------------------------------------------------------------------------

Dipole Moment Calculation                       ... on
Quadrupole Moment Calculation                   ... off
Polarizability Calculation                      ... off
GBWName                                         ... P3HT_Input_Dimethoxy_Benzodithiophene_1_Optimize_Monomer.gbw
Electron density file                           ... P3HT_Input_Dimethoxy_Benzodithiophene_1_Optimize_Monomer.scfp
The origin for moment calculation is the CENTER OF MASS  = (-2.253593,  0.494469  0.055628)

-------------
DIPOLE MOMENT
-------------
                                X             Y             Z
Electronic contribution:     -0.10868      -0.07669      -0.44104
Nuclear contribution   :      0.11879       0.15846       0.50812
                        -----------------------------------------
Total Dipole Moment    :      0.01011       0.08176       0.06708
                        -----------------------------------------
Magnitude (a.u.)       :      0.10624
Magnitude (Debye)      :      0.27005



--------------------
Rotational spectrum 
--------------------
 
Rotational constants in cm-1:     0.021331     0.013220     0.008226 
Rotational constants in MHz :   639.496861   396.339741   246.619315 

 Dipole components along the rotational axes: 
x,y,z [a.u.] :     0.066517    -0.035801     0.074708 
x,y,z [Debye]:     0.169074    -0.091000     0.189892 

 

Timings for individual modules:

Sum of individual times         ...      263.711 sec (=   4.395 min)
GTO integral calculation        ...       30.868 sec (=   0.514 min)  11.7 %
SCF iterations                  ...      143.593 sec (=   2.393 min)  54.5 %
SCF Gradient evaluation         ...       81.121 sec (=   1.352 min)  30.8 %
Geometry relaxation             ...        8.129 sec (=   0.135 min)   3.1 %
                             ****ORCA TERMINATED NORMALLY****
TOTAL RUN TIME: 0 days 0 hours 4 minutes 49 seconds 233 msec
