
                                 *****************
                                 * O   R   C   A *
                                 *****************

           --- An Ab Initio, DFT and Semiempirical electronic structure package ---

                  #######################################################
                  #                        -***-                        #
                  #          Department of theory and spectroscopy      #
                  #               Directorship: Frank Neese             #
                  #        Max Planck Institute fuer Kohlenforschung    #
                  #                Kaiser Wilhelm Platz 1               #
                  #                 D-45470 Muelheim/Ruhr               #
                  #                      Germany                        #
                  #                                                     #
                  #                  All rights reserved                #
                  #                        -***-                        #
                  #######################################################


                         Program Version 4.2.0 -  RELEASE  -


 With contributions from (in alphabetic order):
   Daniel Aravena         : Magnetic Suceptibility
   Michael Atanasov       : Ab Initio Ligand Field Theory (pilot matlab implementation)
   Alexander A. Auer      : GIAO ZORA, VPT2
   Ute Becker             : Parallelization
   Giovanni Bistoni       : ED, misc. LED, open-shell LED, HFLED
   Martin Brehm           : Molecular dynamics
   Dmytro Bykov           : SCF Hessian
   Vijay G. Chilkuri      : MRCI spin determinant printing, contributions to CSF-ICE
   Dipayan Datta          : RHF DLPNO-CCSD density
   Achintya Kumar Dutta   : EOM-CC, STEOM-CC
   Dmitry Ganyushin       : Spin-Orbit,Spin-Spin,Magnetic field MRCI
   Miquel Garcia          : C-PCM Hessian, Gaussian charge scheme
   Yang Guo               : DLPNO-NEVPT2, CIM, IAO-localization
   Andreas Hansen         : Spin unrestricted coupled pair/coupled cluster methods
   Benjamin Helmich-Paris : CASSCF linear response (MC-RPA)
   Lee Huntington         : MR-EOM, pCC
   Robert Izsak           : Overlap fitted RIJCOSX, COSX-SCS-MP3, EOM
   Christian Kollmar      : KDIIS, OOCD, Brueckner-CCSD(T), CCSD density
   Simone Kossmann        : Meta GGA functionals, TD-DFT gradient, OOMP2, MP2 Hessian
   Martin Krupicka        : AUTO-CI
   Lucas Lang             : DCDCAS
   Dagmar Lenk            : GEPOL surface, SMD
   Dimitrios Liakos       : Extrapolation schemes; Compound Job, initial MDCI parallelization
   Dimitrios Manganas     : Further ROCIS development; embedding schemes
   Dimitrios Pantazis     : SARC Basis sets
   Taras Petrenko         : DFT Hessian,TD-DFT gradient, ASA, ECA, R-Raman, ABS, FL, XAS/XES, NRVS
   Peter Pinski           : DLPNO-MP2, DLPNO-MP2 Gradient
   Christoph Reimann      : Effective Core Potentials
   Marius Retegan         : Local ZFS, SOC
   Christoph Riplinger    : Optimizer, TS searches, QM/MM, DLPNO-CCSD(T), (RO)-DLPNO pert. Triples
   Tobias Risthaus        : Range-separated hybrids, TD-DFT gradient, RPA, STAB
   Michael Roemelt        : Original ROCIS implementation
   Masaaki Saitow         : Open-shell DLPNO-CCSD energy and density
   Barbara Sandhoefer     : DKH picture change effects
   Avijit Sen             : IP-ROCIS
   Kantharuban Sivalingam : CASSCF convergence, NEVPT2, FIC-MRCI
   Bernardo de Souza      : ESD, SOC TD-DFT
   Georgi Stoychev        : AutoAux, RI-MP2 NMR
   Willem Van den Heuvel  : Paramagnetic NMR
   Boris Wezisla          : Elementary symmetry handling
   Frank Wennmohs         : Technical directorship


 We gratefully acknowledge several colleagues who have allowed us to
 interface, adapt or use parts of their codes:
   Stefan Grimme, W. Hujo, H. Kruse,             : VdW corrections, initial TS optimization,
                  C. Bannwarth                     DFT functionals, gCP, sTDA/sTD-DF
   Ed Valeev, F. Pavosevic, A. Kumar             : LibInt (2-el integral package), F12 methods
   Garnet Chan, S. Sharma, J. Yang, R. Olivares  : DMRG
   Ulf Ekstrom                                   : XCFun DFT Library
   Mihaly Kallay                                 : mrcc  (arbitrary order and MRCC methods)
   Andreas Klamt, Michael Diedenhofen            : otool_cosmo (COSMO solvation model)
   Jiri Pittner, Ondrej Demel                    : Mk-CCSD
   Frank Weinhold                                : gennbo (NPA and NBO analysis)
   Christopher J. Cramer and Donald G. Truhlar   : smd solvation model
   Lars Goerigk                                  : TD-DFT with DH, B97 family of functionals
   V. Asgeirsson, H. Jonsson                     : NEB implementation
   FAccTs GmbH                                   : IRC, NEB, NEB-TS, Multilevel, MM, QM/MM, CI optimization
   S Lehtola, MJT Oliveira, MAL Marques          : LibXC Library


 Your calculation uses the libint2 library for the computation of 2-el integrals
 For citations please refer to: http://libint.valeyev.net

 Your ORCA version has been built with support for libXC version: 4.2.3
 For citations please refer to: https://tddft.org/programs/libxc/

 This ORCA versions uses:
   CBLAS   interface :  Fast vector & matrix operations
   LAPACKE interface :  Fast linear algebra routines
   SCALAPACK package :  Parallel linear algebra routines


Your calculation utilizes the atom-pairwise dispersion correction
with the Becke-Johnson damping scheme (D3BJ)
Cite in your paper:
S.Grimme, S.Ehrlich, L.Goerigk, J Comput Chem, (2011), 32, 1456–1465 
S.Grimme, J.Antony, S.Ehrlich and H.Krieg, J.Chem.Phys., 132, (2010), 154104 
   

----- Orbital basis set information -----
Your calculation utilizes the basis: def2-SVP
   F. Weigend and R. Ahlrichs, Phys. Chem. Chem. Phys. 7, 3297 (2005).

----- AuxJ basis set information -----
Your calculation utilizes the auxiliary basis: def2/J
   F. Weigend, Phys. Chem. Chem. Phys. 8, 1057 (2006).

================================================================================
                                        WARNINGS
                       Please study these warnings very carefully!
================================================================================


WARNING: Geometry Optimization
  ===> : Switching off AutoStart
         For restart on a previous wavefunction, please use MOREAD

INFO   : the flag for use of LIBINT has been found!

================================================================================
                                       INPUT FILE
================================================================================
NAME = P3HT_Input_Methylcarbonyl_3_Fluoro_Thienothiophene_2_Optimize_Monomer.inp
|  1> ! RI BP86 def2-SVP def2/J D3BJ TIGHTSCF  Opt Grid3 FinalGrid5
|  2> %maxcore 3000
|  3> %geom
|  4> optimizehydrogens true
|  5> end
|  6> 
|  7> 
|  8> *xyz 0 1
|  9> C	0.384445	-0.322500	0.029465
| 10> S	1.638253	-1.554229	0.075167
| 11> C	2.962833	-0.397752	0.021035
| 12> C	0.992271	0.936750	-0.027218
| 13> C	2.433651	0.915830	-0.030673
| 14> S	0.320825	2.556401	-0.095299
| 15> C	1.954133	3.235934	-0.125970
| 16> C	2.938660	2.260384	-0.086903
| 17> F	4.243524	2.553108	-0.100466
| 18> C	2.036455	4.703649	-0.190160
| 19> O	1.052889	5.429921	-0.224249
| 20> O	3.315500	5.151433	-0.207484
| 21> C	3.457046	6.578001	-0.273549
| 22> H	4.543778	6.773339	-0.280275
| 23> H	2.980497	7.062839	0.602279
| 24> H	2.984857	6.979146	-1.192975
| 25> H	-0.661232	-0.592114	0.045838
| 26> H	3.976963	-0.768940	0.033719
| 27> **                         ****END OF INPUT****
================================================================================

                       *****************************
                       * Geometry Optimization Run *
                       *****************************

Geometry optimization settings:
Update method            Update   .... BFGS
Choice of coordinates    CoordSys .... Z-matrix Internals
Initial Hessian          InHess   .... Almoef's Model

Convergence Tolerances:
Energy Change            TolE     ....  5.0000e-06 Eh
Max. Gradient            TolMAXG  ....  3.0000e-04 Eh/bohr
RMS Gradient             TolRMSG  ....  1.0000e-04 Eh/bohr
Max. Displacement        TolMAXD  ....  4.0000e-03 bohr
RMS Displacement         TolRMSD  ....  2.0000e-03 bohr
Strict Convergence                ....  False
------------------------------------------------------------------------------
                        ORCA OPTIMIZATION COORDINATE SETUP
------------------------------------------------------------------------------

The optimization will be done in new redundant internal coordinates
Making redundant internal coordinates   ...  (new redundants) done
Evaluating the initial hessian          ...  (Almloef) done
Evaluating the coordinates              ...  done
Calculating the B-matrix                .... done
Calculating the G-matrix                .... done
Diagonalizing the G-matrix              .... done
Imposing constraints:
 Iter   0:  RMS(Cart)=    0.0000000000 RMS(Int)=    0.0000000000
CONVERGED
Small eigenvalue found = 1.297e-02
The first mode is                       ....   38
The number of degrees of freedom        ....   48
Storing new coordinates                 .... done

    -----------------------------------------------------------------
                    Redundant Internal Coordinates


    -----------------------------------------------------------------
         Definition                    Initial Value    Approx d2E/dq
    -----------------------------------------------------------------
      1. B(S   1,C   0)                  1.7582         0.435573 C 
      2. B(C   2,S   1)                  1.7592         0.433938 C 
      3. B(C   3,C   0)                  1.3994         0.603545 C 
      4. B(C   4,C   2)                  1.4171         0.565567 C 
      5. B(C   4,C   3)                  1.4415         0.517031 C 
      6. B(S   5,C   3)                  1.7546         0.441321 C 
      7. B(C   6,S   5)                  1.7693         0.418184 C 
      8. B(C   7,C   4)                  1.4374         0.525012 C 
      9. B(C   7,C   6)                  1.3865         0.632768 C 
     10. B(F   8,C   7)                  1.3374         0.630877 C 
     11. B(C   9,C   6)                  1.4714         0.463270 C 
     12. B(O  10,C   9)                  1.2231         1.033032 C 
     13. B(O  11,C   9)                  1.3553         0.635739 C 
     14. B(C  12,O  11)                  1.4351         0.474166 C 
     15. B(H  13,C  12)                  1.1042         0.341836   
     16. B(H  14,C  12)                  1.1087         0.336178   
     17. B(H  15,C  12)                  1.1087         0.336188   
     18. B(H  16,C   0)                  1.0800         0.373575   
     19. B(H  17,C   2)                  1.0800         0.373574   
     20. A(S   1,C   0,H  16)          121.0089         0.351922   
     21. A(S   1,C   0,C   3)          108.7662         0.427860 C 
     22. A(C   3,C   0,H  16)          130.2249         0.353497   
     23. A(C   0,S   1,C   2)           94.3355         0.425555 C 
     24. A(C   4,C   2,H  17)          132.0408         0.349635   
     25. A(S   1,C   2,H  17)          118.7320         0.351698   
     26. A(S   1,C   2,C   4)          109.2270         0.422627 C 
     27. A(C   0,C   3,C   4)          114.9188         0.418159 C 
     28. A(C   0,C   3,S   5)          131.7572         0.428867 C 
     29. A(C   4,C   3,S   5)          113.3241         0.417171 C 
     30. A(C   2,C   4,C   7)          137.5034         0.414479 C 
     31. A(C   2,C   4,C   3)          112.7523         0.413352 C 
     32. A(C   3,C   4,C   7)          109.7443         0.407936 C 
     33. A(C   3,S   5,C   6)           90.1110         0.423742 C 
     34. A(S   5,C   6,C   9)          115.8175         0.405238 C 
     35. A(C   7,C   6,C   9)          131.5530         0.413535 C 
     36. A(S   5,C   6,C   7)          112.6294         0.428362 C 
     37. A(C   4,C   7,C   6)          114.1910         0.422856 C 
     38. A(C   4,C   7,F   8)          123.2265         0.418037 C 
     39. A(C   6,C   7,F   8)          122.5825         0.432238 C 
     40. A(C   6,C   9,O  10)          123.2651         0.448628 C 
     41. A(C   6,C   9,O  11)          112.5151         0.411206 C 
     42. A(O  10,C   9,O  11)          124.2198         0.472154 C 
     43. A(C   9,O  11,C  12)          114.9679         0.410240 C 
     44. A(O  11,C  12,H  13)          105.8556         0.332439   
     45. A(O  11,C  12,H  14)          110.8511         0.331521   
     46. A(H  13,C  12,H  14)          110.5169         0.285396   
     47. A(O  11,C  12,H  15)          110.8446         0.331523   
     48. A(H  13,C  12,H  15)          110.4939         0.285397   
     49. A(H  14,C  12,H  15)          108.2891         0.284657   
     50. D(C   2,S   1,C   0,C   3)      0.0641         0.004277 C 
     51. D(C   2,S   1,C   0,H  16)   -179.9723         0.004277   
     52. D(C   4,C   2,S   1,C   0)      0.0280         0.004255 C 
     53. D(H  17,C   2,S   1,C   0)    179.8933         0.004255   
     54. D(S   5,C   3,C   0,S   1)    179.8760         0.025128 C 
     55. D(C   4,C   3,C   0,S   1)     -0.1425         0.025128 C 
     56. D(C   4,C   3,C   0,H  16)    179.8984         0.025128   
     57. D(S   5,C   3,C   0,H  16)     -0.0831         0.025128   
     58. D(C   7,C   4,C   3,C   0)   -179.8368         0.018226 C 
     59. D(C   3,C   4,C   2,H  17)   -179.9533         0.021928   
     60. D(C   7,C   4,C   2,S   1)    179.8980         0.021928 C 
     61. D(C   7,C   4,C   2,H  17)      0.0572         0.021928   
     62. D(C   2,C   4,C   3,S   5)   -179.8443         0.018226 C 
     63. D(C   7,C   4,C   3,S   5)      0.1482         0.018226 C 
     64. D(C   2,C   4,C   3,C   0)      0.1707         0.018226 C 
     65. D(C   3,C   4,C   2,S   1)     -0.1124         0.021928 C 
     66. D(C   6,S   5,C   3,C   0)    179.8625         0.004354 C 
     67. D(C   6,S   5,C   3,C   4)     -0.1193         0.004354 C 
     68. D(C   7,C   6,S   5,C   3)      0.0582         0.004051 C 
     69. D(C   9,C   6,S   5,C   3)    179.9250         0.004051 C 
     70. D(C   6,C   7,C   4,C   2)    179.8854         0.018806 C 
     71. D(F   8,C   7,C   6,S   5)   -179.9723         0.027777 C 
     72. D(F   8,C   7,C   4,C   2)     -0.1253         0.018806 C 
     73. D(F   8,C   7,C   4,C   3)    179.8849         0.018806 C 
     74. D(C   4,C   7,C   6,S   5)      0.0171         0.027777 C 
     75. D(C   6,C   7,C   4,C   3)     -0.1043         0.018806 C 
     76. D(C   4,C   7,C   6,C   9)   -179.8227         0.027777 C 
     77. D(F   8,C   7,C   6,C   9)      0.1880         0.027777 C 
     78. D(O  10,C   9,C   6,S   5)     -0.1644         0.014618 C 
     79. D(O  10,C   9,C   6,C   7)    179.6713         0.014618 C 
     80. D(O  11,C   9,C   6,S   5)    179.8625         0.014618 C 
     81. D(O  11,C   9,C   6,C   7)     -0.3018         0.014618 C 
     82. D(C  12,O  11,C   9,C   6)    179.8334         0.029764 C 
     83. D(C  12,O  11,C   9,O  10)     -0.1394         0.029764 C 
     84. D(H  13,C  12,O  11,C   9)   -179.9660         0.017728   
     85. D(H  14,C  12,O  11,C   9)     60.1623         0.017728   
     86. D(H  15,C  12,O  11,C   9)    -60.1256         0.017728   
    -----------------------------------------------------------------

Number of atoms                         .... 18
Number of degrees of freedom            .... 86

         *************************************************************
         *                GEOMETRY OPTIMIZATION CYCLE   1            *
         *************************************************************
---------------------------------
CARTESIAN COORDINATES (ANGSTROEM)
---------------------------------
  C      0.384445   -0.322500    0.029465
  S      1.638253   -1.554229    0.075167
  C      2.962833   -0.397752    0.021035
  C      0.992271    0.936750   -0.027218
  C      2.433651    0.915830   -0.030673
  S      0.320825    2.556401   -0.095299
  C      1.954133    3.235934   -0.125970
  C      2.938660    2.260384   -0.086903
  F      4.243524    2.553108   -0.100466
  C      2.036455    4.703649   -0.190160
  O      1.052889    5.429921   -0.224249
  O      3.315500    5.151433   -0.207484
  C      3.457046    6.578001   -0.273549
  H      4.543778    6.773339   -0.280275
  H      2.980497    7.062839    0.602279
  H      2.984857    6.979146   -1.192975
  H     -0.661232   -0.592114    0.045838
  H      3.976963   -0.768940    0.033719

----------------------------
CARTESIAN COORDINATES (A.U.)
----------------------------
  NO LB      ZA    FRAG     MASS         X           Y           Z
   0 C     6.0000    0    12.011    0.726496   -0.609437    0.055681
   1 S    16.0000    0    32.060    3.095850   -2.937067    0.142045
   2 C     6.0000    0    12.011    5.598943   -0.751642    0.039750
   3 C     6.0000    0    12.011    1.875120    1.770201   -0.051435
   4 C     6.0000    0    12.011    4.598934    1.730668   -0.057964
   5 S    16.0000    0    32.060    0.606271    4.830898   -0.180089
   6 C     6.0000    0    12.011    3.692776    6.115029   -0.238049
   7 C     6.0000    0    12.011    5.553263    4.271507   -0.164223
   8 F     9.0000    0    18.998    8.019098    4.824675   -0.189853
   9 C     6.0000    0    12.011    3.848342    8.888608   -0.359350
  10 O     8.0000    0    15.999    1.989672   10.261064   -0.423769
  11 O     8.0000    0    15.999    6.265387    9.734798   -0.392088
  12 C     6.0000    0    12.011    6.532870   12.430620   -0.516933
  13 H     1.0000    0     1.008    8.586496   12.799756   -0.529643
  14 H     1.0000    0     1.008    5.632323   13.346831    1.138142
  15 H     1.0000    0     1.008    5.640562   13.188675   -2.254396
  16 H     1.0000    0     1.008   -1.249547   -1.118933    0.086621
  17 H     1.0000    0     1.008    7.515371   -1.453086    0.063720

--------------------------------
INTERNAL COORDINATES (ANGSTROEM)
--------------------------------
 C      0   0   0     0.000000000000     0.00000000     0.00000000
 S      1   0   0     1.758203487401     0.00000000     0.00000000
 C      2   1   0     1.759227529728    94.33554820     0.00000000
 C      1   2   3     1.399419869541   108.76617342     0.06409466
 C      3   2   1     1.417111490713   109.22703718     0.02803241
 S      4   1   2     1.754635037630   131.75716299   179.87602443
 C      6   4   1     1.769293879262    90.11103631   179.86247675
 C      7   6   4     1.386548753819   112.62937923     0.05820510
 F      8   7   6     1.337363583189   122.58253381   180.02773062
 C      7   6   4     1.471422641191   115.81748416   179.92499985
 O     10   7   6     1.223125158870   123.26512820   359.83561742
 O     10   7   6     1.355273678508   112.51508598   179.86247626
 C     12  10   7     1.435094461339   114.96792082   179.83344720
 H     13  12  10     1.104168743057   105.85555806   180.03397313
 H     13  12  10     1.108711649271   110.85110217    60.16231009
 H     13  12  10     1.108703717060   110.84458592   299.87437189
 H      1   2   3     1.080000079840   121.00891968   180.02768367
 H      3   2   1     1.080000496342   118.73200269   179.89327195

---------------------------
INTERNAL COORDINATES (A.U.)
---------------------------
 C      0   0   0     0.000000000000     0.00000000     0.00000000
 S      1   0   0     3.322523078893     0.00000000     0.00000000
 C      2   1   0     3.324458238441    94.33554820     0.00000000
 C      1   2   3     2.644520299800   108.76617342     0.06409466
 C      3   2   1     2.677952618681   109.22703718     0.02803241
 S      4   1   2     3.315779686103   131.75716299   179.87602443
 C      6   4   1     3.343480882228    90.11103631   179.86247675
 C      7   6   4     2.620197416048   112.62937923     0.05820510
 F      8   7   6     2.527250913707   122.58253381   180.02773062
 C      7   6   4     2.780585819102   115.81748416   179.92499985
 O     10   7   6     2.311371577773   123.26512820   359.83561742
 O     10   7   6     2.561096088892   112.51508598   179.86247626
 C     12  10   7     2.711935508237   114.96792082   179.83344720
 H     13  12  10     2.086576530014   105.85555806   180.03397313
 H     13  12  10     2.095161378610   110.85110217    60.16231009
 H     13  12  10     2.095146388903   110.84458592   299.87437189
 H      1   2   3     2.040904375510   121.00891968   180.02768367
 H      3   2   1     2.040905162586   118.73200269   179.89327195

---------------------
BASIS SET INFORMATION
---------------------
There are 5 groups of distinct atoms

 Group   1 Type C   : 7s4p1d contracted to 3s2p1d pattern {511/31/1}
 Group   2 Type S   : 10s7p1d contracted to 4s3p1d pattern {5311/511/1}
 Group   3 Type F   : 7s4p1d contracted to 3s2p1d pattern {511/31/1}
 Group   4 Type O   : 7s4p1d contracted to 3s2p1d pattern {511/31/1}
 Group   5 Type H   : 4s1p contracted to 2s1p pattern {31/1}

Atom   0C    basis set group =>   1
Atom   1S    basis set group =>   2
Atom   2C    basis set group =>   1
Atom   3C    basis set group =>   1
Atom   4C    basis set group =>   1
Atom   5S    basis set group =>   2
Atom   6C    basis set group =>   1
Atom   7C    basis set group =>   1
Atom   8F    basis set group =>   3
Atom   9C    basis set group =>   1
Atom  10O    basis set group =>   4
Atom  11O    basis set group =>   4
Atom  12C    basis set group =>   1
Atom  13H    basis set group =>   5
Atom  14H    basis set group =>   5
Atom  15H    basis set group =>   5
Atom  16H    basis set group =>   5
Atom  17H    basis set group =>   5
---------------------------------
AUXILIARY/J BASIS SET INFORMATION
---------------------------------
There are 5 groups of distinct atoms

 Group   1 Type C   : 12s5p4d2f1g contracted to 6s4p3d1f1g pattern {711111/2111/211/2/1}
 Group   2 Type S   : 14s5p5d2f1g contracted to 8s4p3d1f1g pattern {71111111/2111/311/2/1}
 Group   3 Type F   : 12s5p4d2f1g contracted to 6s4p3d1f1g pattern {711111/2111/211/2/1}
 Group   4 Type O   : 12s5p4d2f1g contracted to 6s4p3d1f1g pattern {711111/2111/211/2/1}
 Group   5 Type H   : 5s2p1d contracted to 3s1p1d pattern {311/2/1}

Atom   0C    basis set group =>   1
Atom   1S    basis set group =>   2
Atom   2C    basis set group =>   1
Atom   3C    basis set group =>   1
Atom   4C    basis set group =>   1
Atom   5S    basis set group =>   2
Atom   6C    basis set group =>   1
Atom   7C    basis set group =>   1
Atom   8F    basis set group =>   3
Atom   9C    basis set group =>   1
Atom  10O    basis set group =>   4
Atom  11O    basis set group =>   4
Atom  12C    basis set group =>   1
Atom  13H    basis set group =>   5
Atom  14H    basis set group =>   5
Atom  15H    basis set group =>   5
Atom  16H    basis set group =>   5
Atom  17H    basis set group =>   5
------------------------------------------------------------------------------
                           ORCA GTO INTEGRAL CALCULATION
                           -- RI-GTO INTEGRALS CHOSEN --
------------------------------------------------------------------------------

                         BASIS SET STATISTICS AND STARTUP INFO

Gaussian basis set:
 # of primitive gaussian shells          ...  193
 # of primitive gaussian functions       ...  371
 # of contracted shells                  ...   97
 # of contracted basis functions         ...  215
 Highest angular momentum                ...    2
 Maximum contraction depth               ...    5
Auxiliary gaussian basis set:
 # of primitive gaussian shells          ...  358
 # of primitive gaussian functions       ... 1004
 # of contracted shells                  ...  224
 # of contracted aux-basis functions     ...  696
 Highest angular momentum                ...    4
 Maximum contraction depth               ...    7
Ratio of auxiliary to basis functions    ...  3.24
Integral package used                  ... LIBINT
 One Electron integrals                  ... done
 Ordering auxiliary basis shells         ... done
 Integral threshhold             Thresh  ...  2.500e-11
 Primitive cut-off               TCut    ...  2.500e-12
 Pre-screening matrix                    ... done
 Shell pair data                         ... 
 Ordering of the shell pairs             ... done (   0.001 sec) 3880 of 4753 pairs
 Determination of significant pairs      ... done (   0.000 sec)
 Creation of shell pair data             ... done (   0.001 sec)
 Storage of shell pair data              ... done (   0.005 sec)
 Shell pair data done in (   0.006 sec)
 Computing two index integrals           ... done
 Cholesky decomposition of the V-matrix  ... done


Timings:
 Total evaluation time                   ...   1.077 sec (  0.018 min)
 One electron matrix time                ...   0.043 sec (  0.001 min) =  4.0%
 Schwartz matrix evaluation time         ...   0.115 sec (  0.002 min) = 10.7%
 Two index repulsion integral time       ...   0.415 sec (  0.007 min) = 38.6%
 Cholesky decomposition of V             ...   0.454 sec (  0.008 min) = 42.2%
 Three index repulsion integral time     ...   0.000 sec (  0.000 min) =  0.0%

-------------------------------------------------------------------------------
                                 ORCA SCF
-------------------------------------------------------------------------------

------------
SCF SETTINGS
------------
Hamiltonian:
 Density Functional     Method          .... DFT(GTOs)
 Exchange Functional    Exchange        .... B88
   X-Alpha parameter    XAlpha          ....  0.666667
   Becke's b parameter  XBeta           ....  0.004200
 Correlation Functional Correlation     .... P86
 LDA part of GGA corr.  LDAOpt          .... PW91-LDA
 Gradients option       PostSCFGGA      .... off
   Density functional embedding theory  .... OFF
 RI-approximation to the Coulomb term is turned on
   Number of auxiliary basis functions  .... 696


General Settings:
 Integral files         IntName         .... P3HT_Input_Methylcarbonyl_3_Fluoro_Thienothiophene_2_Optimize_Monomer
 Hartree-Fock type      HFTyp           .... RHF
 Total Charge           Charge          ....    0
 Multiplicity           Mult            ....    1
 Number of Electrons    NEL             ....  110
 Basis Dimension        Dim             ....  215
 Nuclear Repulsion      ENuc            ....    960.4026369025 Eh

Convergence Acceleration:
 DIIS                   CNVDIIS         .... on
   Start iteration      DIISMaxIt       ....    12
   Startup error        DIISStart       ....  0.200000
   # of expansion vecs  DIISMaxEq       ....     5
   Bias factor          DIISBfac        ....   1.050
   Max. coefficient     DIISMaxC        ....  10.000
 Newton-Raphson         CNVNR           .... off
 SOSCF                  CNVSOSCF        .... on
   Start iteration      SOSCFMaxIt      ....   150
   Startup grad/error   SOSCFStart      ....  0.003300
 Level Shifting         CNVShift        .... on
   Level shift para.    LevelShift      ....    0.2500
   Turn off err/grad.   ShiftErr        ....    0.0010
 Zerner damping         CNVZerner       .... off
 Static damping         CNVDamp         .... on
   Fraction old density DampFac         ....    0.7000
   Max. Damping (<1)    DampMax         ....    0.9800
   Min. Damping (>=0)   DampMin         ....    0.0000
   Turn off err/grad.   DampErr         ....    0.1000
 Fernandez-Rico         CNVRico         .... off

SCF Procedure:
 Maximum # iterations   MaxIter         ....   125
 SCF integral mode      SCFMode         .... Direct
   Integral package                     .... LIBINT
 Reset frequency        DirectResetFreq ....    20
 Integral Threshold     Thresh          ....  2.500e-11 Eh
 Primitive CutOff       TCut            ....  2.500e-12 Eh

Convergence Tolerance:
 Convergence Check Mode ConvCheckMode   .... Total+1el-Energy
 Convergence forced     ConvForced      .... 0
 Energy Change          TolE            ....  1.000e-08 Eh
 1-El. energy change                    ....  1.000e-05 Eh
 Orbital Gradient       TolG            ....  1.000e-05
 Orbital Rotation angle TolX            ....  1.000e-05
 DIIS Error             TolErr          ....  5.000e-07


Diagonalization of the overlap matrix:
Smallest eigenvalue                        ... 5.804e-04
Time for diagonalization                   ...    0.141 sec
Threshold for overlap eigenvalues          ... 1.000e-08
Number of eigenvalues below threshold      ... 0
Time for construction of square roots      ...    0.013 sec
Total time needed                          ...    0.154 sec

-------------------
DFT GRID GENERATION
-------------------

General Integration Accuracy     IntAcc      ...  4.340
Radial Grid Type                 RadialGrid  ... Gauss-Chebyshev
Angular Grid (max. acc.)         AngularGrid ... Lebedev-194
Angular grid pruning method      GridPruning ... 3 (G Style)
Weight generation scheme         WeightScheme... Becke
Basis function cutoff            BFCut       ...    1.0000e-11
Integration weight cutoff        WCut        ...    1.0000e-14
Grids for H and He will be reduced by one unit

# of grid points (after initial pruning)     ...  51168 (   0.0 sec)
# of grid points (after weights+screening)   ...  47271 (   0.2 sec)
nearest neighbour list constructed           ...    0.0 sec
Grid point re-assignment to atoms done       ...    0.0 sec
Grid point division into batches done        ...    0.1 sec
Reduced shell lists constructed in    0.3 sec

Total number of grid points                  ...    47271
Total number of batches                      ...      747
Average number of points per batch           ...       63
Average number of grid points per atom       ...     2626
Average number of shells per batch           ...    51.88 (53.48%)
Average number of basis functions per batch  ...   114.30 (53.16%)
Average number of large shells per batch     ...    37.62 (72.52%)
Average number of large basis fcns per batch ...    82.87 (72.50%)
Maximum spatial batch extension              ...  26.09, 18.93, 22.18 au
Average spatial batch extension              ...   3.03,  2.92,  3.45 au

Time for grid setup =    0.903 sec

------------------------------
INITIAL GUESS: MODEL POTENTIAL
------------------------------
Loading Hartree-Fock densities                     ... done
Calculating cut-offs                               ... done
Setting up the integral package                    ... done
Initializing the effective Hamiltonian             ... done
Starting the Coulomb interaction                   ... done (   0.2 sec)
Reading the grid                                   ... done
Mapping shells                                     ... done
Starting the XC term evaluation                    ... done (   0.4 sec)
  promolecular density results
     # of electrons  =    109.996342968
     EX              =   -119.098640872
     EC              =     -4.324202781
     EX+EC           =   -123.422843653
Transforming the Hamiltonian                       ... done (   0.0 sec)
Diagonalizing the Hamiltonian                      ... done (   0.0 sec)
Back transforming the eigenvectors                 ... done (   0.0 sec)
Now organizing SCF variables                       ... done
                      ------------------
                      INITIAL GUESS DONE (   1.6 sec)
                      ------------------
--------------
SCF ITERATIONS
--------------
ITER       Energy         Delta-E        Max-DP      RMS-DP      [F,P]     Damp
               ***  Starting incremental Fock matrix formation  ***
  0  -1353.7223815778   0.000000000000 0.13363013  0.00249791  0.2541416 0.7000
  1  -1353.8466511590  -0.124269581250 0.07933777  0.00150089  0.0719868 0.7000
                               ***Turning on DIIS***
  2  -1353.8793299006  -0.032678741574 0.09984231  0.00193567  0.0205760 0.0000
  3  -1353.9409288620  -0.061598961420 0.04949754  0.00119122  0.0424917 0.0000
  4  -1353.9555257525  -0.014596890458 0.01710584  0.00043688  0.0286632 0.0000
  5  -1353.9578168619  -0.002291109434 0.01142389  0.00017018  0.0052620 0.0000
                      *** Initiating the SOSCF procedure ***
                           *** Shutting down DIIS ***
                      *** Re-Reading the Fockian *** 
                      *** Removing any level shift *** 
ITER      Energy       Delta-E        Grad      Rot      Max-DP    RMS-DP
  6  -1353.95798627  -0.0001694078  0.000734  0.000734  0.002286  0.000053
               *** Restarting incremental Fock matrix formation ***
  7  -1353.95801110  -0.0000248309  0.000411  0.003148  0.001925  0.000053
  8  -1353.95800380   0.0000073000  0.000497  0.000829  0.001303  0.000030
  9  -1353.95801560  -0.0000118034  0.000124  0.001050  0.000682  0.000021
 10  -1353.95801400   0.0000016073  0.000335  0.000970  0.000614  0.000014
 11  -1353.95801603  -0.0000020365  0.000076  0.000506  0.000475  0.000011
 12  -1353.95801535   0.0000006789  0.000174  0.000304  0.000360  0.000008
 13  -1353.95801618  -0.0000008246  0.000022  0.000227  0.000182  0.000004
 14  -1353.95801611   0.0000000721  0.000051  0.000095  0.000112  0.000003
 15  -1353.95801620  -0.0000000889  0.000009  0.000103  0.000076  0.000002
 16  -1353.95801618   0.0000000121  0.000024  0.000063  0.000057  0.000001
 17  -1353.95801620  -0.0000000176  0.000003  0.000018  0.000019  0.000001
 18  -1353.95801619   0.0000000100  0.000006  0.000011  0.000011  0.000000
                  ***Gradient check signals convergence***
              ***Rediagonalizing the Fockian in SOSCF/NRSCF***

               *****************************************************
               *                     SUCCESS                       *
               *           SCF CONVERGED AFTER  19 CYCLES          *
               *****************************************************

Setting up the final grid:

General Integration Accuracy     IntAcc      ...  5.010
Radial Grid Type                 RadialGrid  ... Gauss-Chebyshev
Angular Grid (max. acc.)         AngularGrid ... Lebedev-434
Angular grid pruning method      GridPruning ... 3 (G Style)
Weight generation scheme         WeightScheme... Becke
Basis function cutoff            BFCut       ...    1.0000e-11
Integration weight cutoff        WCut        ...    1.0000e-14
Grids for H and He will be reduced by one unit

# of grid points (after initial pruning)     ... 175026 (   0.1 sec)
# of grid points (after weights+screening)   ... 160320 (   0.4 sec)
nearest neighbour list constructed           ...    0.0 sec
Grid point re-assignment to atoms done       ...    0.0 sec
Grid point division into batches done        ...    1.0 sec
Reduced shell lists constructed in    1.8 sec

Total number of grid points                  ...   160320
Total number of batches                      ...     2517
Average number of points per batch           ...       63
Average number of grid points per atom       ...     8907
Average number of shells per batch           ...    47.63 (49.10%)
Average number of basis functions per batch  ...   104.37 (48.54%)
Average number of large shells per batch     ...    34.14 (71.68%)
Average number of large basis fcns per batch ...    74.72 (71.60%)
Maximum spatial batch extension              ...  22.26, 21.28, 22.98 au
Average spatial batch extension              ...   2.04,  2.01,  2.21 au

Final grid set up in    2.3 sec
Final integration                            ... done (   1.6 sec)
Change in XC energy                          ...    -0.000209636
Integrated number of electrons               ...   110.000002895
Previous integrated no of electrons          ...   109.999145968

----------------
TOTAL SCF ENERGY
----------------

Total Energy       :        -1353.95822584 Eh          -36843.07639 eV

Components:
Nuclear Repulsion  :          960.40263690 Eh           26133.88437 eV
Electronic Energy  :        -2314.36086274 Eh          -62976.96076 eV
One Electron Energy:        -3770.30052722 Eh         -102595.09318 eV
Two Electron Energy:         1455.93966448 Eh           39618.13242 eV

Virial components:
Potential Energy   :        -2700.40364698 Eh          -73481.71897 eV
Kinetic Energy     :         1346.44542114 Eh           36638.64258 eV
Virial Ratio       :            2.00557973


DFT components:
N(Alpha)           :       55.000001447709 electrons
N(Beta)            :       55.000001447709 electrons
N(Total)           :      110.000002895418 electrons
E(X)               :     -119.905136126479 Eh       
E(C)               :       -4.328777391213 Eh       
E(XC)              :     -124.233913517692 Eh       
DFET-embed. en.    :        0.000000000000 Eh       

---------------
SCF CONVERGENCE
---------------

  Last Energy change         ...   -9.0524e-09  Tolerance :   1.0000e-08
  Last MAX-Density change    ...    8.9033e-06  Tolerance :   1.0000e-07
  Last RMS-Density change    ...    2.8898e-07  Tolerance :   5.0000e-09
  Last Orbital Gradient      ...    1.9443e-06  Tolerance :   1.0000e-05
  Last Orbital Rotation      ...    1.6757e-05  Tolerance :   1.0000e-05

             **** THE GBW FILE WAS UPDATED (P3HT_Input_Methylcarbonyl_3_Fluoro_Thienothiophene_2_Optimize_Monomer.gbw) ****
             **** DENSITY FILE WAS UPDATED (P3HT_Input_Methylcarbonyl_3_Fluoro_Thienothiophene_2_Optimize_Monomer.scfp) ****
             **** ENERGY FILE WAS UPDATED (P3HT_Input_Methylcarbonyl_3_Fluoro_Thienothiophene_2_Optimize_Monomer.en.tmp) ****
             **** THE GBW FILE WAS UPDATED (P3HT_Input_Methylcarbonyl_3_Fluoro_Thienothiophene_2_Optimize_Monomer.gbw) ****
             **** DENSITY FILE WAS UPDATED (P3HT_Input_Methylcarbonyl_3_Fluoro_Thienothiophene_2_Optimize_Monomer.scfp) ****
----------------
ORBITAL ENERGIES
----------------

  NO   OCC          E(Eh)            E(eV) 
   0   2.0000     -88.144391     -2398.5308 
   1   2.0000     -88.125477     -2398.0162 
   2   2.0000     -24.319957      -661.7797 
   3   2.0000     -18.827342      -512.3180 
   4   2.0000     -18.768560      -510.7185 
   5   2.0000     -10.040969      -273.2286 
   6   2.0000     -10.021958      -272.7113 
   7   2.0000      -9.972797      -271.3736 
   8   2.0000      -9.966724      -271.2084 
   9   2.0000      -9.966067      -271.1905 
  10   2.0000      -9.961848      -271.0757 
  11   2.0000      -9.960695      -271.0443 
  12   2.0000      -9.954302      -270.8703 
  13   2.0000      -7.739552      -210.6039 
  14   2.0000      -7.721405      -210.1101 
  15   2.0000      -5.766565      -156.9162 
  16   2.0000      -5.761905      -156.7894 
  17   2.0000      -5.759503      -156.7240 
  18   2.0000      -5.749188      -156.4434 
  19   2.0000      -5.745008      -156.3296 
  20   2.0000      -5.738908      -156.1636 
  21   2.0000      -1.128120       -30.6977 
  22   2.0000      -1.006883       -27.3987 
  23   2.0000      -0.920657       -25.0523 
  24   2.0000      -0.837655       -22.7938 
  25   2.0000      -0.784462       -21.3463 
  26   2.0000      -0.699579       -19.0365 
  27   2.0000      -0.694439       -18.8966 
  28   2.0000      -0.654457       -17.8087 
  29   2.0000      -0.636864       -17.3299 
  30   2.0000      -0.578689       -15.7469 
  31   2.0000      -0.540047       -14.6954 
  32   2.0000      -0.516436       -14.0529 
  33   2.0000      -0.509631       -13.8678 
  34   2.0000      -0.498025       -13.5520 
  35   2.0000      -0.456418       -12.4198 
  36   2.0000      -0.440359       -11.9828 
  37   2.0000      -0.429577       -11.6894 
  38   2.0000      -0.424688       -11.5563 
  39   2.0000      -0.408778       -11.1234 
  40   2.0000      -0.392664       -10.6849 
  41   2.0000      -0.385496       -10.4899 
  42   2.0000      -0.374888       -10.2012 
  43   2.0000      -0.373095       -10.1524 
  44   2.0000      -0.359738        -9.7890 
  45   2.0000      -0.355805        -9.6820 
  46   2.0000      -0.333795        -9.0830 
  47   2.0000      -0.318748        -8.6736 
  48   2.0000      -0.306792        -8.3482 
  49   2.0000      -0.306224        -8.3328 
  50   2.0000      -0.266354        -7.2479 
  51   2.0000      -0.258878        -7.0444 
  52   2.0000      -0.239342        -6.5128 
  53   2.0000      -0.233903        -6.3648 
  54   2.0000      -0.195809        -5.3282 
  55   0.0000      -0.103304        -2.8111 
  56   0.0000      -0.052527        -1.4293 
  57   0.0000      -0.027222        -0.7407 
  58   0.0000      -0.016766        -0.4562 
  59   0.0000       0.009039         0.2460 
  60   0.0000       0.035886         0.9765 
  61   0.0000       0.047993         1.3060 
  62   0.0000       0.055422         1.5081 
  63   0.0000       0.058650         1.5960 
  64   0.0000       0.071183         1.9370 
  65   0.0000       0.082318         2.2400 
  66   0.0000       0.097327         2.6484 
  67   0.0000       0.109157         2.9703 
  68   0.0000       0.114305         3.1104 
  69   0.0000       0.116610         3.1731 
  70   0.0000       0.181011         4.9256 
  71   0.0000       0.197434         5.3724 
  72   0.0000       0.207869         5.6564 
  73   0.0000       0.245035         6.6677 
  74   0.0000       0.261098         7.1048 
  75   0.0000       0.274525         7.4702 
  76   0.0000       0.284140         7.7318 
  77   0.0000       0.297728         8.1016 
  78   0.0000       0.310168         8.4401 
  79   0.0000       0.346643         9.4326 
  80   0.0000       0.360289         9.8040 
  81   0.0000       0.372684        10.1412 
  82   0.0000       0.393807        10.7160 
  83   0.0000       0.399108        10.8603 
  84   0.0000       0.399732        10.8773 
  85   0.0000       0.408871        11.1259 
  86   0.0000       0.412810        11.2331 
  87   0.0000       0.432263        11.7625 
  88   0.0000       0.436337        11.8733 
  89   0.0000       0.444504        12.0956 
  90   0.0000       0.454878        12.3779 
  91   0.0000       0.466503        12.6942 
  92   0.0000       0.474304        12.9065 
  93   0.0000       0.499854        13.6017 
  94   0.0000       0.510089        13.8802 
  95   0.0000       0.523018        14.2320 
  96   0.0000       0.548656        14.9297 
  97   0.0000       0.554818        15.0974 
  98   0.0000       0.561181        15.2705 
  99   0.0000       0.576765        15.6946 
 100   0.0000       0.584690        15.9102 
 101   0.0000       0.588979        16.0269 
 102   0.0000       0.589714        16.0469 
 103   0.0000       0.595728        16.2106 
 104   0.0000       0.599828        16.3221 
 105   0.0000       0.601730        16.3739 
 106   0.0000       0.610486        16.6122 
 107   0.0000       0.623378        16.9630 
 108   0.0000       0.629088        17.1184 
 109   0.0000       0.645809        17.5734 
 110   0.0000       0.648305        17.6413 
 111   0.0000       0.665111        18.0986 
 112   0.0000       0.685374        18.6500 
 113   0.0000       0.693853        18.8807 
 114   0.0000       0.696759        18.9598 
 115   0.0000       0.715238        19.4626 
 116   0.0000       0.727232        19.7890 
 117   0.0000       0.753773        20.5112 
 118   0.0000       0.757186        20.6041 
 119   0.0000       0.761198        20.7132 
 120   0.0000       0.781961        21.2782 
 121   0.0000       0.814867        22.1737 
 122   0.0000       0.835511        22.7354 
 123   0.0000       0.883420        24.0391 
 124   0.0000       0.895748        24.3745 
 125   0.0000       0.922712        25.1083 
 126   0.0000       0.960995        26.1500 
 127   0.0000       1.005303        27.3557 
 128   0.0000       1.019977        27.7550 
 129   0.0000       1.022683        27.8286 
 130   0.0000       1.032838        28.1049 
 131   0.0000       1.047907        28.5150 
 132   0.0000       1.068594        29.0779 
 133   0.0000       1.093109        29.7450 
 134   0.0000       1.107964        30.1492 
 135   0.0000       1.130506        30.7626 
 136   0.0000       1.169977        31.8367 
 137   0.0000       1.170377        31.8476 
 138   0.0000       1.187596        32.3161 
 139   0.0000       1.201029        32.6817 
 140   0.0000       1.217057        33.1178 
 141   0.0000       1.219832        33.1933 
 142   0.0000       1.224308        33.3151 
 143   0.0000       1.289460        35.0880 
 144   0.0000       1.306405        35.5491 
 145   0.0000       1.350119        36.7386 
 146   0.0000       1.379563        37.5398 
 147   0.0000       1.423256        38.7288 
 148   0.0000       1.432719        38.9863 
 149   0.0000       1.457522        39.6612 
 150   0.0000       1.492063        40.6011 
 151   0.0000       1.519685        41.3527 
 152   0.0000       1.556081        42.3431 
 153   0.0000       1.569984        42.7214 
 154   0.0000       1.571030        42.7499 
 155   0.0000       1.605987        43.7011 
 156   0.0000       1.643689        44.7270 
 157   0.0000       1.650103        44.9016 
 158   0.0000       1.670404        45.4540 
 159   0.0000       1.686009        45.8786 
 160   0.0000       1.690400        45.9981 
 161   0.0000       1.732563        47.1454 
 162   0.0000       1.748873        47.5893 
 163   0.0000       1.750422        47.6314 
 164   0.0000       1.760633        47.9093 
 165   0.0000       1.805500        49.1302 
 166   0.0000       1.816333        49.4249 
 167   0.0000       1.843882        50.1746 
 168   0.0000       1.858192        50.5640 
 169   0.0000       1.865702        50.7683 
 170   0.0000       1.908848        51.9424 
 171   0.0000       1.917724        52.1839 
 172   0.0000       1.966992        53.5246 
 173   0.0000       1.980609        53.8951 
 174   0.0000       1.989628        54.1405 
 175   0.0000       1.998510        54.3822 
 176   0.0000       2.033532        55.3352 
 177   0.0000       2.043401        55.6038 
 178   0.0000       2.121593        57.7315 
 179   0.0000       2.133888        58.0660 
 180   0.0000       2.150514        58.5185 
 181   0.0000       2.181523        59.3623 
 182   0.0000       2.219155        60.3863 
 183   0.0000       2.230134        60.6850 
 184   0.0000       2.236948        60.8704 
 185   0.0000       2.268280        61.7230 
 186   0.0000       2.303947        62.6936 
 187   0.0000       2.329170        63.3799 
 188   0.0000       2.399751        65.3006 
 189   0.0000       2.400811        65.3294 
 190   0.0000       2.502247        68.0896 
 191   0.0000       2.519136        68.5492 
 192   0.0000       2.541579        69.1599 
 193   0.0000       2.543841        69.2214 
 194   0.0000       2.584725        70.3339 
 195   0.0000       2.604467        70.8712 
 196   0.0000       2.640455        71.8504 
 197   0.0000       2.696251        73.3687 
 198   0.0000       2.791377        75.9572 
 199   0.0000       2.807266        76.3896 
 200   0.0000       2.860323        77.8334 
 201   0.0000       2.860781        77.8458 
 202   0.0000       2.910773        79.2062 
 203   0.0000       2.954591        80.3985 
 204   0.0000       2.960193        80.5509 
 205   0.0000       3.001728        81.6812 
 206   0.0000       3.048615        82.9570 
 207   0.0000       3.068865        83.5081 
 208   0.0000       3.092807        84.1596 
 209   0.0000       3.206167        87.2442 
 210   0.0000       3.296188        89.6938 
 211   0.0000       3.410449        92.8030 
 212   0.0000       3.504833        95.3714 
 213   0.0000       3.543981        96.4366 
 214   0.0000       3.738561       101.7314 

                    ********************************
                    * MULLIKEN POPULATION ANALYSIS *
                    ********************************

-----------------------
MULLIKEN ATOMIC CHARGES
-----------------------
   0 C :   -0.147890
   1 S :    0.115227
   2 C :   -0.133714
   3 C :   -0.016461
   4 C :    0.032816
   5 S :    0.173739
   6 C :   -0.263726
   7 C :    0.272855
   8 F :   -0.128636
   9 C :    0.181593
  10 O :   -0.196802
  11 O :   -0.263207
  12 C :    0.117289
  13 H :    0.052407
  14 H :    0.051625
  15 H :    0.051588
  16 H :    0.048334
  17 H :    0.052965
Sum of atomic charges:    0.0000000

--------------------------------
MULLIKEN REDUCED ORBITAL CHARGES
--------------------------------
  0 C s       :     3.245699  s :     3.245699
      pz      :     1.138358  p :     2.871869
      px      :     0.832636
      py      :     0.900874
      dz2     :     0.002878  d :     0.030323
      dxz     :     0.002665
      dyz     :     0.005914
      dx2y2   :     0.007358
      dxy     :     0.011508
  1 S s       :     5.861150  s :     5.861150
      pz      :     3.596134  p :     9.914648
      px      :     2.980728
      py      :     3.337785
      dz2     :     0.011774  d :     0.108976
      dxz     :     0.026786
      dyz     :     0.010884
      dx2y2   :     0.016664
      dxy     :     0.042868
  2 C s       :     3.243168  s :     3.243168
      pz      :     1.126158  p :     2.860487
      px      :     0.825010
      py      :     0.909318
      dz2     :     0.002826  d :     0.030059
      dxz     :     0.002615
      dyz     :     0.005865
      dx2y2   :     0.006828
      dxy     :     0.011924
  3 C s       :     3.005249  s :     3.005249
      pz      :     1.068049  p :     2.968608
      px      :     1.013963
      py      :     0.886596
      dz2     :     0.003406  d :     0.042604
      dxz     :     0.006200
      dyz     :     0.008708
      dx2y2   :     0.012948
      dxy     :     0.011341
  4 C s       :     3.095320  s :     3.095320
      pz      :     1.056006  p :     2.832127
      px      :     0.956550
      py      :     0.819571
      dz2     :     0.003294  d :     0.039737
      dxz     :     0.005421
      dyz     :     0.008542
      dx2y2   :     0.012840
      dxy     :     0.009641
  5 S s       :     5.880258  s :     5.880258
      pz      :     3.720379  p :     9.845309
      px      :     3.168753
      py      :     2.956176
      dz2     :     0.011938  d :     0.100694
      dxz     :     0.013315
      dyz     :     0.015694
      dx2y2   :     0.030699
      dxy     :     0.029048
  6 C s       :     3.143038  s :     3.143038
      pz      :     1.167509  p :     3.084556
      px      :     0.928240
      py      :     0.988807
      dz2     :     0.003486  d :     0.036132
      dxz     :     0.007068
      dyz     :     0.004826
      dx2y2   :     0.010591
      dxy     :     0.010161
  7 C s       :     3.066546  s :     3.066546
      pz      :     1.005917  p :     2.580187
      px      :     0.635095
      py      :     0.939175
      dz2     :     0.005907  d :     0.080413
      dxz     :     0.016807
      dyz     :     0.007580
      dx2y2   :     0.025333
      dxy     :     0.024787
  8 F s       :     3.889645  s :     3.889645
      pz      :     1.866351  p :     5.230667
      px      :     1.483855
      py      :     1.880461
      dz2     :     0.001061  d :     0.008324
      dxz     :     0.002108
      dyz     :     0.000122
      dx2y2   :     0.002944
      dxy     :     0.002089
  9 C s       :     3.006713  s :     3.006713
      pz      :     0.872720  p :     2.685221
      px      :     0.827900
      py      :     0.984601
      dz2     :     0.006977  d :     0.126474
      dxz     :     0.024994
      dyz     :     0.011658
      dx2y2   :     0.050851
      dxy     :     0.031994
 10 O s       :     3.737306  s :     3.737306
      pz      :     1.405173  p :     4.442158
      px      :     1.451312
      py      :     1.585672
      dz2     :     0.001956  d :     0.017338
      dxz     :     0.003502
      dyz     :     0.001912
      dx2y2   :     0.004153
      dxy     :     0.005815
 11 O s       :     3.751719  s :     3.751719
      pz      :     1.726191  p :     4.495483
      px      :     1.432844
      py      :     1.336448
      dz2     :     0.002154  d :     0.016006
      dxz     :     0.002480
      dyz     :     0.001833
      dx2y2   :     0.006306
      dxy     :     0.003233
 12 C s       :     3.047455  s :     3.047455
      pz      :     1.059222  p :     2.788944
      px      :     1.022744
      py      :     0.706977
      dz2     :     0.007660  d :     0.046313
      dxz     :     0.003533
      dyz     :     0.011564
      dx2y2   :     0.015669
      dxy     :     0.007888
 13 H s       :     0.926875  s :     0.926875
      pz      :     0.005248  p :     0.020718
      px      :     0.012996
      py      :     0.002474
 14 H s       :     0.926692  s :     0.926692
      pz      :     0.010238  p :     0.021682
      px      :     0.006957
      py      :     0.004488
 15 H s       :     0.926733  s :     0.926733
      pz      :     0.010828  p :     0.021679
      px      :     0.006926
      py      :     0.003926
 16 H s       :     0.927993  s :     0.927993
      pz      :     0.006312  p :     0.023673
      px      :     0.013416
      py      :     0.003945
 17 H s       :     0.923524  s :     0.923524
      pz      :     0.006226  p :     0.023512
      px      :     0.012803
      py      :     0.004483


                     *******************************
                     * LOEWDIN POPULATION ANALYSIS *
                     *******************************

----------------------
LOEWDIN ATOMIC CHARGES
----------------------
   0 C :   -0.214083
   1 S :    0.458489
   2 C :   -0.186564
   3 C :   -0.187476
   4 C :   -0.102872
   5 S :    0.423121
   6 C :   -0.239542
   7 C :    0.057235
   8 F :   -0.018803
   9 C :    0.038172
  10 O :   -0.170988
  11 O :   -0.076102
  12 C :    0.063016
  13 H :    0.031077
  14 H :    0.028335
  15 H :    0.028325
  16 H :    0.034236
  17 H :    0.034422

-------------------------------
LOEWDIN REDUCED ORBITAL CHARGES
-------------------------------
  0 C s       :     2.943006  s :     2.943006
      pz      :     1.138298  p :     3.195424
      px      :     1.030179
      py      :     1.026948
      dz2     :     0.005952  d :     0.075653
      dxz     :     0.004384
      dyz     :     0.012658
      dx2y2   :     0.021075
      dxy     :     0.031583
  1 S s       :     5.533478  s :     5.533478
      pz      :     3.550033  p :     9.876771
      px      :     2.972996
      py      :     3.353741
      dz2     :     0.014554  d :     0.131261
      dxz     :     0.032509
      dyz     :     0.010059
      dx2y2   :     0.017475
      dxy     :     0.056664
  2 C s       :     2.945981  s :     2.945981
      pz      :     1.122539  p :     3.166993
      px      :     1.022993
      py      :     1.021460
      dz2     :     0.005673  d :     0.073589
      dxz     :     0.004345
      dyz     :     0.012241
      dx2y2   :     0.019202
      dxy     :     0.032129
  3 C s       :     2.916180  s :     2.916180
      pz      :     1.063709  p :     3.166095
      px      :     1.053008
      py      :     1.049378
      dz2     :     0.007727  d :     0.105201
      dxz     :     0.012570
      dyz     :     0.017666
      dx2y2   :     0.037849
      dxy     :     0.029390
  4 C s       :     2.863923  s :     2.863923
      pz      :     1.041490  p :     3.130059
      px      :     1.039066
      py      :     1.049503
      dz2     :     0.008537  d :     0.108889
      dxz     :     0.011197
      dyz     :     0.017396
      dx2y2   :     0.043103
      dxy     :     0.028656
  5 S s       :     5.531523  s :     5.531523
      pz      :     3.685966  p :     9.917045
      px      :     3.242262
      py      :     2.988817
      dz2     :     0.015906  d :     0.128312
      dxz     :     0.014784
      dyz     :     0.018549
      dx2y2   :     0.039702
      dxy     :     0.039370
  6 C s       :     2.935400  s :     2.935400
      pz      :     1.135101  p :     3.210519
      px      :     1.022979
      py      :     1.052439
      dz2     :     0.008718  d :     0.093623
      dxz     :     0.014181
      dyz     :     0.009453
      dx2y2   :     0.031042
      dxy     :     0.030229
  7 C s       :     2.858947  s :     2.858947
      pz      :     1.009571  p :     2.893120
      px      :     0.827379
      py      :     1.056170
      dz2     :     0.013464  d :     0.190698
      dxz     :     0.033194
      dyz     :     0.015220
      dx2y2   :     0.061899
      dxy     :     0.066921
  8 F s       :     3.723066  s :     3.723066
      pz      :     1.865683  p :     5.282417
      px      :     1.526608
      py      :     1.890126
      dz2     :     0.001894  d :     0.013320
      dxz     :     0.002983
      dyz     :     0.000155
      dx2y2   :     0.005077
      dxy     :     0.003212
  9 C s       :     2.842883  s :     2.842883
      pz      :     0.866855  p :     2.829323
      px      :     0.947947
      py      :     1.014521
      dz2     :     0.016710  d :     0.289622
      dxz     :     0.048411
      dyz     :     0.022297
      dx2y2   :     0.125751
      dxy     :     0.076453
 10 O s       :     3.557622  s :     3.557622
      pz      :     1.403284  p :     4.582975
      px      :     1.547664
      py      :     1.632028
      dz2     :     0.004407  d :     0.030390
      dxz     :     0.004508
      dyz     :     0.002450
      dx2y2   :     0.006665
      dxy     :     0.012361
 11 O s       :     3.465933  s :     3.465933
      pz      :     1.706490  p :     4.579147
      px      :     1.492876
      py      :     1.379781
      dz2     :     0.004362  d :     0.031023
      dxz     :     0.003332
      dyz     :     0.003033
      dx2y2   :     0.013287
      dxy     :     0.007008
 12 C s       :     2.865293  s :     2.865293
      pz      :     1.094042  p :     2.962978
      px      :     1.082790
      py      :     0.786146
      dz2     :     0.018096  d :     0.108713
      dxz     :     0.009182
      dyz     :     0.027988
      dx2y2   :     0.037005
      dxy     :     0.016441
 13 H s       :     0.906103  s :     0.906103
      pz      :     0.012516  p :     0.062820
      px      :     0.041743
      py      :     0.008561
 14 H s       :     0.906845  s :     0.906845
      pz      :     0.031370  p :     0.064820
      px      :     0.018273
      py      :     0.015177
 15 H s       :     0.906866  s :     0.906866
      pz      :     0.033528  p :     0.064809
      px      :     0.018159
      py      :     0.013122
 16 H s       :     0.888896  s :     0.888896
      pz      :     0.019460  p :     0.076868
      px      :     0.045045
      py      :     0.012363
 17 H s       :     0.888108  s :     0.888108
      pz      :     0.019391  p :     0.077470
      px      :     0.043779
      py      :     0.014299


                      *****************************
                      * MAYER POPULATION ANALYSIS *
                      *****************************

  NA   - Mulliken gross atomic population
  ZA   - Total nuclear charge
  QA   - Mulliken gross atomic charge
  VA   - Mayer's total valence
  BVA  - Mayer's bonded valence
  FA   - Mayer's free valence

  ATOM       NA         ZA         QA         VA         BVA        FA
  0 C      6.1479     6.0000    -0.1479     3.8408     3.8408     0.0000
  1 S     15.8848    16.0000     0.1152     2.6049     2.6049    -0.0000
  2 C      6.1337     6.0000    -0.1337     3.7542     3.7542     0.0000
  3 C      6.0165     6.0000    -0.0165     3.9145     3.9145    -0.0000
  4 C      5.9672     6.0000     0.0328     3.9133     3.9133    -0.0000
  5 S     15.8263    16.0000     0.1737     2.4060     2.4060    -0.0000
  6 C      6.2637     6.0000    -0.2637     3.6726     3.6726    -0.0000
  7 C      5.7271     6.0000     0.2729     3.9673     3.9673     0.0000
  8 F      9.1286     9.0000    -0.1286     1.2933     1.2933     0.0000
  9 C      5.8184     6.0000     0.1816     4.3753     4.3753     0.0000
 10 O      8.1968     8.0000    -0.1968     2.3285     2.3285     0.0000
 11 O      8.2632     8.0000    -0.2632     2.2781     2.2781     0.0000
 12 C      5.8827     6.0000     0.1173     3.9146     3.9146     0.0000
 13 H      0.9476     1.0000     0.0524     0.9875     0.9875    -0.0000
 14 H      0.9484     1.0000     0.0516     0.9955     0.9955     0.0000
 15 H      0.9484     1.0000     0.0516     0.9954     0.9954     0.0000
 16 H      0.9517     1.0000     0.0483     1.0024     1.0024     0.0000
 17 H      0.9470     1.0000     0.0530     0.9995     0.9995    -0.0000

  Mayer bond orders larger than 0.100000
B(  0-C ,  1-S ) :   1.1729 B(  0-C ,  2-C ) :   0.1327 B(  0-C ,  3-C ) :   1.4713 
B(  0-C , 16-H ) :   0.9684 B(  1-S ,  2-C ) :   1.1948 B(  2-C ,  4-C ) :   1.3721 
B(  2-C , 17-H ) :   0.9667 B(  3-C ,  4-C ) :   1.2519 B(  3-C ,  5-S ) :   1.0450 
B(  4-C ,  7-C ) :   1.1340 B(  5-S ,  6-C ) :   1.0720 B(  6-C ,  7-C ) :   1.4583 
B(  6-C ,  9-C ) :   0.9980 B(  7-C ,  8-F ) :   1.2268 B(  9-C , 10-O ) :   2.0650 
B(  9-C , 11-O ) :   1.2392 B( 11-O , 12-C ) :   0.9321 B( 12-C , 13-H ) :   0.9737 
B( 12-C , 14-H ) :   0.9670 B( 12-C , 15-H ) :   0.9670 

-------
TIMINGS
-------

Total SCF time: 0 days 0 hours 0 min 47 sec 

Total time                  ....      47.227 sec
Sum of individual times     ....      40.449 sec  ( 85.6%)

Fock matrix formation       ....      36.319 sec  ( 76.9%)
  Split-RI-J                ....       7.954 sec  ( 21.9% of F)
  XC integration            ....      28.011 sec  ( 77.1% of F)
    Basis function eval.    ....       3.292 sec  ( 11.8% of XC)
    Density eval.           ....       1.691 sec  (  6.0% of XC)
    XC-Functional eval.     ....       1.130 sec  (  4.0% of XC)
    XC-Potential eval.      ....       2.074 sec  (  7.4% of XC)
Diagonalization             ....       0.046 sec  (  0.1%)
Density matrix formation    ....       0.022 sec  (  0.0%)
Population analysis         ....       0.016 sec  (  0.0%)
Initial guess               ....       0.722 sec  (  1.5%)
Orbital Transformation      ....       0.000 sec  (  0.0%)
Orbital Orthonormalization  ....       0.000 sec  (  0.0%)
DIIS solution               ....       0.065 sec  (  0.1%)
SOSCF solution              ....       0.072 sec  (  0.2%)
Grid generation             ....       3.187 sec  (  6.7%)


-------------------------------------------------------------------------------
                          DFT DISPERSION CORRECTION                            
                                                                               
                              DFTD3 V3.1  Rev 1                                
                          USING Becke-Johnson damping                          
-------------------------------------------------------------------------------
The BP86 functional is recognized
Active option DFTDOPT                   ...         4   

molecular C6(AA) [au] = 6244.896492 


            DFT-D V3
 parameters
 s6 scaling factor         :     1.0000 
 a1 scaling factor         :     0.3946 
 s8 scaling factor         :     3.2822 
 a2 scaling factor         :     4.8516 
 ad hoc parameters k1-k3   :    16.0000     1.3333    -4.0000 

 Edisp/kcal,au: -24.217247659079  -0.038592636569 
 E6   /kcal   :  -8.266850171 
 E8   /kcal   : -15.950397488 
 % E8         :  65.863791431 

-------------------------   ----------------
Dispersion correction           -0.038592637
-------------------------   ----------------


-------------------------   --------------------
FINAL SINGLE POINT ENERGY     -1353.996818472672
-------------------------   --------------------

------------------------------------------------------------------------------
                         ORCA SCF GRADIENT CALCULATION
------------------------------------------------------------------------------

Gradient of the Kohn-Sham DFT energy:
Kohn-Sham wavefunction type      ... RKS
Hartree-Fock exchange scaling    ...    0.000
Number of operators              ...    1
Number of atoms                  ...   18
Basis set dimensions             ...  215
Integral neglect threshold       ... 2.5e-11
Integral primitive cutoff        ... 2.5e-12

Nuclear repulsion gradient       ... done
One Electron Gradient            ... done
Pre-screening matrix             ... done
RI-J gradient                    ... done
Exchange-correlation gradient    ... done
Dispersion correction            ... done

------------------
CARTESIAN GRADIENT
------------------

   1   C   :   -0.029546715   -0.006959546    0.000535116
   2   S   :   -0.002894868   -0.013318926    0.000528966
   3   C   :    0.031575019   -0.010081993    0.000154746
   4   C   :    0.013769624    0.012307409   -0.000653693
   5   C   :   -0.009491368    0.016139689   -0.000559239
   6   S   :    0.001736350   -0.001338754   -0.000013304
   7   C   :   -0.000292800    0.002485446   -0.000077775
   8   C   :   -0.004701585   -0.007249788    0.000307954
   9   F   :    0.001221010    0.005269394   -0.000164726
  10   C   :   -0.000267030   -0.000463937    0.000004108
  11   O   :   -0.000395446    0.000046289   -0.000002340
  12   O   :    0.000140835   -0.000265024    0.000063879
  13   C   :    0.000022590    0.000161273   -0.000025344
  14   H   :   -0.000013221   -0.000007823   -0.000025544
  15   H   :    0.000007288   -0.000032110    0.000003977
  16   H   :    0.000037834   -0.000034985    0.000007698
  17   H   :    0.010262331    0.002711808   -0.000108454
  18   H   :   -0.011169848    0.000631578    0.000023975

Difference to translation invariance:
           :    0.0000000000    0.0000000000    0.0000000000

Norm of the cartesian gradient     ...    0.0570295029
RMS gradient                       ...    0.0077607324
MAX gradient                       ...    0.0315750186

-------
TIMINGS
-------

Total SCF gradient time            ...        7.594 sec

One electron gradient       ....       0.161 sec  (  2.1%)
Prescreening matrices       ....       0.113 sec  (  1.5%)
RI-J Coulomb gradient       ....       1.743 sec  ( 22.9%)
XC gradient                 ....       5.368 sec  ( 70.7%)
------------------------------------------------------------------------------
                         ORCA GEOMETRY RELAXATION STEP
------------------------------------------------------------------------------

Reading the OPT-File                    .... done
Getting information on internals        .... done
Copying old internal coords+grads       .... done
Making the new internal coordinates     .... (new redundants).... done
Validating the new internal coordinates .... (new redundants).... done
Calculating the B-matrix                .... done
Calculating the G,G- and P matrices     .... done
Transforming gradient to internals      .... done
Projecting the internal gradient        .... done
Number of atoms                         ....  18
Number of internal coordinates          ....  86
Current Energy                          .... -1353.996818473 Eh
Current gradient norm                   ....     0.057029503 Eh/bohr
Maximum allowed component of the step   ....  0.300
Current trust radius                    ....  0.300
Evaluating the initial hessian          ....  (Almloef) done
Projecting the Hessian                  .... done
Forming the augmented Hessian           .... done
Diagonalizing the augmented Hessian     .... done
Last element of RFO vector              ....  0.999096950
Lowest eigenvalues of augmented Hessian:
 -0.000670094  0.017262740  0.017727691  0.019204741  0.183556651
Length of the computed step             ....  0.042527040
The final length of the internal step   ....  0.042527040
Converting the step to cartesian space:
 Initial RMS(Int)=    0.0045858087
Transforming coordinates:
 Iter   0:  RMS(Cart)=    0.0060475186 RMS(Int)=    0.6774068849
 Iter   1:  RMS(Cart)=    0.0000363674 RMS(Int)=    0.0000217717
 Iter   2:  RMS(Cart)=    0.0000004919 RMS(Int)=    0.0000003365
 Iter   3:  RMS(Cart)=    0.0000000042 RMS(Int)=    0.0000000033
Imposing constraints:
 Iter   0:  RMS(Cart)=    0.0000002147 RMS(Int)=    0.0000000373
 Iter   1:  RMS(Cart)=    0.0000000322 RMS(Int)=    0.0000000087
CONVERGED
done
Storing new coordinates                 .... done

                                .--------------------.
          ----------------------|Geometry convergence|-------------------------
          Item                value                   Tolerance       Converged
          ---------------------------------------------------------------------
          RMS gradient        0.0017025630            0.0001000000      NO
          MAX gradient        0.0107054983            0.0003000000      NO
          RMS step            0.0045858087            0.0020000000      NO
          MAX step            0.0286056540            0.0040000000      NO
          ........................................................
          Max(Bonds)      0.0151      Max(Angles)    0.54
          Max(Dihed)        0.09      Max(Improp)    0.00
          ---------------------------------------------------------------------

The optimization has not yet converged - more geometry cycles are needed


    ---------------------------------------------------------------------------
                         Redundant Internal Coordinates
                            (Angstroem and degrees)

        Definition                    Value    dE/dq     Step     New-Value
    ----------------------------------------------------------------------------
     1. B(S   1,C   0)                1.7582  0.009703 -0.0000    1.7582 C 
     2. B(C   2,S   1)                1.7592  0.013685 -0.0000    1.7592 C 
     3. B(C   3,C   0)                1.3994  0.013437 -0.0000    1.3994 C 
     4. B(C   4,C   2)                1.4171  0.019578  0.0000    1.4171 C 
     5. B(C   4,C   3)                1.4415 -0.001122  0.0000    1.4415 C 
     6. B(S   5,C   3)                1.7546 -0.001639  0.0000    1.7546 C 
     7. B(C   6,S   5)                1.7693 -0.003594  0.0000    1.7693 C 
     8. B(C   7,C   4)                1.4374  0.000686 -0.0000    1.4374 C 
     9. B(C   7,C   6)                1.3865  0.000239  0.0000    1.3865 C 
    10. B(F   8,C   7)                1.3374  0.002346  0.0000    1.3374 C 
    11. B(C   9,C   6)                1.4714 -0.000622  0.0000    1.4714 C 
    12. B(O  10,C   9)                1.2231  0.000345  0.0000    1.2231 C 
    13. B(O  11,C   9)                1.3553  0.000126  0.0000    1.3553 C 
    14. B(C  12,O  11)                1.4351  0.000093  0.0000    1.4351 C 
    15. B(H  13,C  12)                1.1042 -0.000014  0.0000    1.1042   
    16. B(H  14,C  12)                1.1087 -0.000014  0.0000    1.1087   
    17. B(H  15,C  12)                1.1087 -0.000035  0.0001    1.1088   
    18. B(H  16,C   0)                1.0800 -0.010615  0.0150    1.0950   
    19. B(H  17,C   2)                1.0800 -0.010705  0.0151    1.0951   
    20. A(S   1,C   0,H  16)          121.01  0.001485   -0.01    121.00   
    21. A(S   1,C   0,C   3)          108.77 -0.002843    0.00    108.77 C 
    22. A(C   3,C   0,H  16)          130.22  0.001359    0.01    130.24   
    23. A(C   0,S   1,C   2)           94.34  0.002338    0.00     94.34 C 
    24. A(C   4,C   2,H  17)          132.04  0.005185   -0.54    131.50   
    25. A(S   1,C   2,H  17)          118.73 -0.001447    0.54    119.27   
    26. A(S   1,C   2,C   4)          109.23 -0.003738    0.00    109.23 C 
    27. A(C   0,C   3,C   4)          114.92  0.004407    0.00    114.92 C 
    28. A(C   0,C   3,S   5)          131.76 -0.006433   -0.00    131.76 C 
    29. A(C   4,C   3,S   5)          113.32  0.002026   -0.00    113.32 C 
    30. A(C   2,C   4,C   7)          137.50  0.003350   -0.00    137.50 C 
    31. A(C   2,C   4,C   3)          112.75 -0.000164   -0.00    112.75 C 
    32. A(C   3,C   4,C   7)          109.74 -0.003186    0.00    109.74 C 
    33. A(C   3,S   5,C   6)           90.11  0.000163   -0.00     90.11 C 
    34. A(S   5,C   6,C   9)          115.82 -0.000071    0.00    115.82 C 
    35. A(C   7,C   6,C   9)          131.55  0.000874    0.00    131.55 C 
    36. A(S   5,C   6,C   7)          112.63 -0.000803    0.00    112.63 C 
    37. A(C   4,C   7,C   6)          114.19  0.001800   -0.00    114.19 C 
    38. A(C   4,C   7,F   8)          123.23  0.005261   -0.00    123.23 C 
    39. A(C   6,C   7,F   8)          122.58 -0.007061   -0.00    122.58 C 
    40. A(C   6,C   9,O  10)          123.27 -0.000067    0.00    123.27 C 
    41. A(C   6,C   9,O  11)          112.52 -0.000323    0.00    112.52 C 
    42. A(O  10,C   9,O  11)          124.22  0.000390    0.00    124.22 C 
    43. A(C   9,O  11,C  12)          114.97  0.000112   -0.00    114.97 C 
    44. A(O  11,C  12,H  13)          105.86 -0.000004    0.00    105.86   
    45. A(O  11,C  12,H  14)          110.85 -0.000025    0.00    110.85   
    46. A(H  13,C  12,H  14)          110.52  0.000024   -0.01    110.51   
    47. A(O  11,C  12,H  15)          110.84 -0.000026    0.01    110.85   
    48. A(H  13,C  12,H  15)          110.49 -0.000015    0.01    110.50   
    49. A(H  14,C  12,H  15)          108.29  0.000044   -0.01    108.28   
    50. D(C   2,S   1,C   0,C   3)      0.06  0.000034    0.00      0.06 C 
    51. D(C   2,S   1,C   0,H  16)   -179.97  0.000013   -0.08   -180.05   
    52. D(C   4,C   2,S   1,C   0)      0.03 -0.000005   -0.00      0.03 C 
    53. D(H  17,C   2,S   1,C   0)    179.89 -0.000028    0.03    179.92   
    54. D(S   5,C   3,C   0,S   1)    179.88 -0.000046    0.00    179.88 C 
    55. D(C   4,C   3,C   0,S   1)     -0.14 -0.000074    0.00     -0.14 C 
    56. D(C   4,C   3,C   0,H  16)    179.90 -0.000049    0.09    179.98   
    57. D(S   5,C   3,C   0,H  16)     -0.08 -0.000022    0.09      0.00   
    58. D(C   7,C   4,C   3,C   0)   -179.84  0.000075    0.00   -179.84 C 
    59. D(C   3,C   4,C   2,H  17)   -179.95  0.000006   -0.04   -179.99   
    60. D(C   7,C   4,C   2,S   1)    179.90 -0.000034   -0.00    179.90 C 
    61. D(C   7,C   4,C   2,H  17)      0.06  0.000007   -0.04      0.02   
    62. D(C   2,C   4,C   3,S   5)   -179.84  0.000051   -0.00   -179.84 C 
    63. D(C   7,C   4,C   3,S   5)      0.15  0.000051   -0.00      0.15 C 
    64. D(C   2,C   4,C   3,C   0)      0.17  0.000075    0.00      0.17 C 
    65. D(C   3,C   4,C   2,S   1)     -0.11 -0.000035    0.00     -0.11 C 
    66. D(C   6,S   5,C   3,C   0)    179.86 -0.000069    0.00    179.86 C 
    67. D(C   6,S   5,C   3,C   4)     -0.12 -0.000041   -0.00     -0.12 C 
    68. D(C   7,C   6,S   5,C   3)      0.06  0.000012   -0.00      0.06 C 
    69. D(C   9,C   6,S   5,C   3)    179.92  0.000004    0.00    179.92 C 
    70. D(C   6,C   7,C   4,C   2)    179.89 -0.000042    0.00    179.89 C 
    71. D(F   8,C   7,C   6,S   5)   -179.97  0.000013    0.00   -179.97 C 
    72. D(F   8,C   7,C   4,C   2)     -0.13 -0.000040   -0.00     -0.13 C 
    73. D(F   8,C   7,C   4,C   3)    179.88 -0.000040   -0.00    179.88 C 
    74. D(C   4,C   7,C   6,S   5)      0.02  0.000016   -0.00      0.02 C 
    75. D(C   6,C   7,C   4,C   3)     -0.10 -0.000041    0.00     -0.10 C 
    76. D(C   4,C   7,C   6,C   9)   -179.82  0.000028    0.00   -179.82 C 
    77. D(F   8,C   7,C   6,C   9)      0.19  0.000025   -0.00      0.19 C 
    78. D(O  10,C   9,C   6,S   5)     -0.16 -0.000013    0.00     -0.16 C 
    79. D(O  10,C   9,C   6,C   7)    179.67 -0.000026   -0.00    179.67 C 
    80. D(O  11,C   9,C   6,S   5)    179.86  0.000008   -0.00    179.86 C 
    81. D(O  11,C   9,C   6,C   7)     -0.30 -0.000005    0.00     -0.30 C 
    82. D(C  12,O  11,C   9,C   6)    179.83 -0.000056    0.00    179.83 C 
    83. D(C  12,O  11,C   9,O  10)     -0.14 -0.000036   -0.00     -0.14 C 
    84. D(H  13,C  12,O  11,C   9)   -179.97  0.000017   -0.01   -179.97   
    85. D(H  14,C  12,O  11,C   9)     60.16  0.000004   -0.00     60.16   
    86. D(H  15,C  12,O  11,C   9)    -60.13 -0.000018    0.00    -60.12   
    ----------------------------------------------------------------------------

         *************************************************************
         *                GEOMETRY OPTIMIZATION CYCLE   2            *
         *************************************************************
---------------------------------
CARTESIAN COORDINATES (ANGSTROEM)
---------------------------------
  C      0.383695   -0.322184    0.029759
  S      1.637280   -1.554141    0.075437
  C      2.962069   -0.397908    0.021200
  C      0.991748    0.936953   -0.026995
  C      2.433124    0.915769   -0.030523
  S      0.320595    2.556725   -0.095094
  C      1.954026    3.235958   -0.125871
  C      2.938377    2.260229   -0.086822
  F      4.243293    2.552714   -0.100462
  C      2.036613    4.703656   -0.190112
  O      1.053179    5.430106   -0.224174
  O      3.315739    5.151205   -0.207516
  C      3.457543    6.577745   -0.273634
  H      4.544326    6.772927   -0.280276
  H      2.981068    7.062772    0.602157
  H      2.985337    6.979062   -1.193043
  H     -0.676520   -0.595592    0.045180
  H      3.993854   -0.764795    0.033071

----------------------------
CARTESIAN COORDINATES (A.U.)
----------------------------
  NO LB      ZA    FRAG     MASS         X           Y           Z
   0 C     6.0000    0    12.011    0.725078   -0.608840    0.056237
   1 S    16.0000    0    32.060    3.094011   -2.936901    0.142555
   2 C     6.0000    0    12.011    5.597499   -0.751937    0.040062
   3 C     6.0000    0    12.011    1.874133    1.770584   -0.051014
   4 C     6.0000    0    12.011    4.597939    1.730553   -0.057681
   5 S    16.0000    0    32.060    0.605837    4.831509   -0.179702
   6 C     6.0000    0    12.011    3.692574    6.115074   -0.237861
   7 C     6.0000    0    12.011    5.552727    4.271213   -0.164071
   8 F     9.0000    0    18.998    8.018663    4.823930   -0.189845
   9 C     6.0000    0    12.011    3.848642    8.888621   -0.359260
  10 O     8.0000    0    15.999    1.990219   10.261414   -0.423628
  11 O     8.0000    0    15.999    6.265839    9.734367   -0.392148
  12 C     6.0000    0    12.011    6.533810   12.430136   -0.517094
  13 H     1.0000    0     1.008    8.587531   12.798978   -0.529644
  14 H     1.0000    0     1.008    5.633403   13.346705    1.137912
  15 H     1.0000    0     1.008    5.641470   13.188517   -2.254525
  16 H     1.0000    0     1.008   -1.278437   -1.125506    0.085379
  17 H     1.0000    0     1.008    7.547289   -1.445254    0.062494

--------------------------------
INTERNAL COORDINATES (ANGSTROEM)
--------------------------------
 C      0   0   0     0.000000000000     0.00000000     0.00000000
 S      1   0   0     1.758203487955     0.00000000     0.00000000
 C      2   1   0     1.759227529617    94.33554847     0.00000000
 C      1   2   3     1.399419870515   108.76617317     0.06409561
 C      3   2   1     1.417111491071   109.22703690     0.02803140
 S      4   1   2     1.754635039471   131.75716289   179.87602504
 C      6   4   1     1.769293877236    90.11103636   179.86247563
 C      7   6   4     1.386548755789   112.62937917     0.05820471
 F      8   7   6     1.337363581230   122.58253376   180.02773120
 C      7   6   4     1.471422641667   115.81748432   179.92499975
 O     10   7   6     1.223125160048   123.26512810   359.83561719
 O     10   7   6     1.355273679095   112.51508596   179.86247605
 C     12  10   7     1.435094462272   114.96792068   179.83344730
 H     13  12  10     1.104190504971   105.85729435   180.02597446
 H     13  12  10     1.108733635013   110.85451700    60.15797937
 H     13  12  10     1.108759292848   110.84960946   299.87727698
 H      1   2   3     1.095009127688   120.99865410   179.95129529
 H      3   2   1     1.095137956660   119.27283030   179.92451844

---------------------------
INTERNAL COORDINATES (A.U.)
[...]
 184   0.0000       2.231733        60.7285 
 185   0.0000       2.260423        61.5092 
 186   0.0000       2.304103        62.6978 
 187   0.0000       2.327284        63.3286 
 188   0.0000       2.392638        65.1070 
 189   0.0000       2.394676        65.1624 
 190   0.0000       2.502423        68.0944 
 191   0.0000       2.516038        68.4649 
 192   0.0000       2.541592        69.1602 
 193   0.0000       2.543083        69.2008 
 194   0.0000       2.582573        70.2754 
 195   0.0000       2.600480        70.7627 
 196   0.0000       2.635246        71.7087 
 197   0.0000       2.696219        73.3678 
 198   0.0000       2.791383        75.9574 
 199   0.0000       2.807258        76.3894 
 200   0.0000       2.857176        77.7477 
 201   0.0000       2.860842        77.8475 
 202   0.0000       2.887635        78.5765 
 203   0.0000       2.953725        80.3750 
 204   0.0000       2.960099        80.5484 
 205   0.0000       2.999561        81.6222 
 206   0.0000       3.040026        82.7233 
 207   0.0000       3.057394        83.1959 
 208   0.0000       3.092832        84.1602 
 209   0.0000       3.206082        87.2419 
 210   0.0000       3.295975        89.6881 
 211   0.0000       3.408131        92.7399 
 212   0.0000       3.504720        95.3683 
 213   0.0000       3.543799        96.4317 
 214   0.0000       3.738426       101.7277 

                    ********************************
                    * MULLIKEN POPULATION ANALYSIS *
                    ********************************

-----------------------
MULLIKEN ATOMIC CHARGES
-----------------------
   0 C :   -0.156093
   1 S :    0.117800
   2 C :   -0.135410
   3 C :   -0.016799
   4 C :    0.026145
   5 S :    0.173520
   6 C :   -0.263700
   7 C :    0.273088
   8 F :   -0.128843
   9 C :    0.181560
  10 O :   -0.196789
  11 O :   -0.263205
  12 C :    0.117236
  13 H :    0.052406
  14 H :    0.051596
  15 H :    0.051594
  16 H :    0.056725
  17 H :    0.059168
Sum of atomic charges:   -0.0000000

--------------------------------
MULLIKEN REDUCED ORBITAL CHARGES
--------------------------------
  0 C s       :     3.249678  s :     3.249678
      pz      :     1.138869  p :     2.876160
      px      :     0.836337
      py      :     0.900954
      dz2     :     0.002875  d :     0.030255
      dxz     :     0.002688
      dyz     :     0.005921
      dx2y2   :     0.007219
      dxy     :     0.011552
  1 S s       :     5.861231  s :     5.861231
      pz      :     3.597242  p :     9.911872
      px      :     2.977885
      py      :     3.336745
      dz2     :     0.011795  d :     0.109097
      dxz     :     0.026803
      dyz     :     0.010919
      dx2y2   :     0.016619
      dxy     :     0.042961
  2 C s       :     3.241148  s :     3.241148
      pz      :     1.125222  p :     2.864335
      px      :     0.827012
      py      :     0.912101
      dz2     :     0.002808  d :     0.029927
      dxz     :     0.002632
      dyz     :     0.005869
      dx2y2   :     0.007017
      dxy     :     0.011601
  3 C s       :     3.005989  s :     3.005989
      pz      :     1.068013  p :     2.968214
      px      :     1.013172
      py      :     0.887029
      dz2     :     0.003404  d :     0.042596
      dxz     :     0.006197
      dyz     :     0.008713
      dx2y2   :     0.012932
      dxy     :     0.011350
  4 C s       :     3.097121  s :     3.097121
      pz      :     1.055573  p :     2.837033
      px      :     0.957980
      py      :     0.823480
      dz2     :     0.003293  d :     0.039701
      dxz     :     0.005417
      dyz     :     0.008531
      dx2y2   :     0.012829
      dxy     :     0.009632
  5 S s       :     5.880376  s :     5.880376
      pz      :     3.720435  p :     9.845412
      px      :     3.168528
      py      :     2.956449
      dz2     :     0.011937  d :     0.100692
      dxz     :     0.013316
      dyz     :     0.015685
      dx2y2   :     0.030742
      dxy     :     0.029011
  6 C s       :     3.143050  s :     3.143050
      pz      :     1.167426  p :     3.084518
      px      :     0.928359
      py      :     0.988733
      dz2     :     0.003486  d :     0.036133
      dxz     :     0.007069
      dyz     :     0.004827
      dx2y2   :     0.010596
      dxy     :     0.010155
  7 C s       :     3.066327  s :     3.066327
      pz      :     1.006119  p :     2.580171
      px      :     0.635093
      py      :     0.938959
      dz2     :     0.005907  d :     0.080415
      dxz     :     0.016803
      dyz     :     0.007577
      dx2y2   :     0.025338
      dxy     :     0.024789
  8 F s       :     3.889646  s :     3.889646
      pz      :     1.866423  p :     5.230874
      px      :     1.483843
      py      :     1.880609
      dz2     :     0.001061  d :     0.008323
      dxz     :     0.002108
      dyz     :     0.000122
      dx2y2   :     0.002944
      dxy     :     0.002088
  9 C s       :     3.006743  s :     3.006743
      pz      :     0.872722  p :     2.685223
      px      :     0.827839
      py      :     0.984663
      dz2     :     0.006977  d :     0.126473
      dxz     :     0.024987
      dyz     :     0.011665
      dx2y2   :     0.050873
      dxy     :     0.031971
 10 O s       :     3.737299  s :     3.737299
      pz      :     1.405164  p :     4.442152
      px      :     1.451582
      py      :     1.585406
      dz2     :     0.001956  d :     0.017338
      dxz     :     0.003499
      dyz     :     0.001915
      dx2y2   :     0.004151
      dxy     :     0.005817
 11 O s       :     3.751710  s :     3.751710
      pz      :     1.726199  p :     4.495490
      px      :     1.432601
      py      :     1.336690
      dz2     :     0.002154  d :     0.016005
      dxz     :     0.002480
      dyz     :     0.001833
      dx2y2   :     0.006309
      dxy     :     0.003229
 12 C s       :     3.047482  s :     3.047482
      pz      :     1.059279  p :     2.788971
      px      :     1.022649
      py      :     0.707043
      dz2     :     0.007655  d :     0.046311
      dxz     :     0.003529
      dyz     :     0.011570
      dx2y2   :     0.015668
      dxy     :     0.007889
 13 H s       :     0.926876  s :     0.926876
      pz      :     0.005248  p :     0.020718
      px      :     0.012997
      py      :     0.002473
 14 H s       :     0.926721  s :     0.926721
      pz      :     0.010236  p :     0.021683
      px      :     0.006955
      py      :     0.004492
 15 H s       :     0.926728  s :     0.926728
      pz      :     0.010827  p :     0.021678
      px      :     0.006922
      py      :     0.003929
 16 H s       :     0.920270  s :     0.920270
      pz      :     0.006053  p :     0.023004
      px      :     0.013177
      py      :     0.003774
 17 H s       :     0.917999  s :     0.917999
      pz      :     0.005933  p :     0.022833
      px      :     0.012803
      py      :     0.004096


                     *******************************
                     * LOEWDIN POPULATION ANALYSIS *
                     *******************************

----------------------
LOEWDIN ATOMIC CHARGES
----------------------
   0 C :   -0.217994
   1 S :    0.458896
   2 C :   -0.191458
   3 C :   -0.188313
   4 C :   -0.103760
   5 S :    0.422995
   6 C :   -0.239525
   7 C :    0.057086
   8 F :   -0.018901
   9 C :    0.038174
  10 O :   -0.170981
  11 O :   -0.076118
  12 C :    0.062974
  13 H :    0.031070
  14 H :    0.028329
  15 H :    0.028330
  16 H :    0.039201
  17 H :    0.039993

-------------------------------
LOEWDIN REDUCED ORBITAL CHARGES
-------------------------------
  0 C s       :     2.947651  s :     2.947651
      pz      :     1.139621  p :     3.195177
      px      :     1.028347
      py      :     1.027209
      dz2     :     0.005909  d :     0.075166
      dxz     :     0.004368
      dyz     :     0.012663
      dx2y2   :     0.020702
      dxy     :     0.031524
  1 S s       :     5.533561  s :     5.533561
      pz      :     3.551088  p :     9.875933
      px      :     2.971726
      py      :     3.353119
      dz2     :     0.014601  d :     0.131610
      dxz     :     0.032516
      dyz     :     0.010089
      dx2y2   :     0.017548
      dxy     :     0.056856
  2 C s       :     2.950371  s :     2.950371
      pz      :     1.122624  p :     3.168104
      px      :     1.023224
      py      :     1.022257
      dz2     :     0.005621  d :     0.072982
      dxz     :     0.004331
      dyz     :     0.012220
      dx2y2   :     0.019675
      dxy     :     0.031135
  3 C s       :     2.916316  s :     2.916316
      pz      :     1.063687  p :     3.166755
      px      :     1.053572
      py      :     1.049497
      dz2     :     0.007733  d :     0.105242
      dxz     :     0.012565
      dyz     :     0.017680
      dx2y2   :     0.037801
      dxy     :     0.029463
  4 C s       :     2.864343  s :     2.864343
      pz      :     1.041027  p :     3.130608
      px      :     1.039150
      py      :     1.050431
      dz2     :     0.008537  d :     0.108809
      dxz     :     0.011191
      dyz     :     0.017395
      dx2y2   :     0.043054
      dxy     :     0.028632
  5 S s       :     5.531536  s :     5.531536
      pz      :     3.686025  p :     9.917148
      px      :     3.242039
      py      :     2.989085
      dz2     :     0.015906  d :     0.128320
      dxz     :     0.014788
      dyz     :     0.018536
      dx2y2   :     0.039764
      dxy     :     0.039326
  6 C s       :     2.935405  s :     2.935405
      pz      :     1.135043  p :     3.210495
      px      :     1.022985
      py      :     1.052467
      dz2     :     0.008718  d :     0.093625
      dxz     :     0.014183
      dyz     :     0.009456
      dx2y2   :     0.031054
      dxy     :     0.030215
  7 C s       :     2.858965  s :     2.858965
      pz      :     1.009703  p :     2.893233
      px      :     0.827263
      py      :     1.056266
      dz2     :     0.013463  d :     0.190716
      dxz     :     0.033189
      dyz     :     0.015216
      dx2y2   :     0.061901
      dxy     :     0.066946
  8 F s       :     3.723059  s :     3.723059
      pz      :     1.865750  p :     5.282524
      px      :     1.526595
      py      :     1.890179
      dz2     :     0.001894  d :     0.013318
      dxz     :     0.002984
      dyz     :     0.000154
      dx2y2   :     0.005079
      dxy     :     0.003208
  9 C s       :     2.842886  s :     2.842886
      pz      :     0.866852  p :     2.829319
      px      :     0.947878
      py      :     1.014589
      dz2     :     0.016710  d :     0.289620
      dxz     :     0.048397
      dyz     :     0.022310
      dx2y2   :     0.125800
      dxy     :     0.076403
 10 O s       :     3.557623  s :     3.557623
      pz      :     1.403275  p :     4.582969
      px      :     1.547849
      py      :     1.631845
      dz2     :     0.004407  d :     0.030390
      dxz     :     0.004503
      dyz     :     0.002454
      dx2y2   :     0.006659
      dxy     :     0.012367
 11 O s       :     3.465936  s :     3.465936
      pz      :     1.706500  p :     4.579160
      px      :     1.492643
      py      :     1.380016
      dz2     :     0.004362  d :     0.031022
      dxz     :     0.003334
      dyz     :     0.003032
      dx2y2   :     0.013295
      dxy     :     0.007000
 12 C s       :     2.865305  s :     2.865305
      pz      :     1.094082  p :     2.963010
      px      :     1.082709
      py      :     0.786219
      dz2     :     0.018084  d :     0.108711
      dxz     :     0.009169
      dyz     :     0.028009
      dx2y2   :     0.037008
      dxy     :     0.016442
 13 H s       :     0.906111  s :     0.906111
      pz      :     0.012516  p :     0.062818
      px      :     0.041747
      py      :     0.008555
 14 H s       :     0.906854  s :     0.906854
      pz      :     0.031361  p :     0.064817
      px      :     0.018265
      py      :     0.015191
 15 H s       :     0.906868  s :     0.906868
      pz      :     0.033519  p :     0.064802
      px      :     0.018151
      py      :     0.013132
 16 H s       :     0.886639  s :     0.886639
      pz      :     0.018404  p :     0.074160
      px      :     0.044130
      py      :     0.011627
 17 H s       :     0.885395  s :     0.885395
      pz      :     0.018262  p :     0.074612
      px      :     0.043551
      py      :     0.012800


                      *****************************
                      * MAYER POPULATION ANALYSIS *
                      *****************************

  NA   - Mulliken gross atomic population
  ZA   - Total nuclear charge
  QA   - Mulliken gross atomic charge
  VA   - Mayer's total valence
  BVA  - Mayer's bonded valence
  FA   - Mayer's free valence

  ATOM       NA         ZA         QA         VA         BVA        FA
  0 C      6.1561     6.0000    -0.1561     3.8371     3.8371     0.0000
  1 S     15.8822    16.0000     0.1178     2.6031     2.6031    -0.0000
  2 C      6.1354     6.0000    -0.1354     3.7537     3.7537    -0.0000
  3 C      6.0168     6.0000    -0.0168     3.9163     3.9163    -0.0000
  4 C      5.9739     6.0000     0.0261     3.9255     3.9255     0.0000
  5 S     15.8265    16.0000     0.1735     2.4059     2.4059     0.0000
  6 C      6.2637     6.0000    -0.2637     3.6731     3.6731    -0.0000
  7 C      5.7269     6.0000     0.2731     3.9670     3.9670    -0.0000
  8 F      9.1288     9.0000    -0.1288     1.2930     1.2930    -0.0000
  9 C      5.8184     6.0000     0.1816     4.3752     4.3752     0.0000
 10 O      8.1968     8.0000    -0.1968     2.3285     2.3285     0.0000
 11 O      8.2632     8.0000    -0.2632     2.2781     2.2781    -0.0000
 12 C      5.8828     6.0000     0.1172     3.9146     3.9146     0.0000
 13 H      0.9476     1.0000     0.0524     0.9875     0.9875     0.0000
 14 H      0.9484     1.0000     0.0516     0.9955     0.9955    -0.0000
 15 H      0.9484     1.0000     0.0516     0.9953     0.9953    -0.0000
 16 H      0.9433     1.0000     0.0567     1.0003     1.0003    -0.0000
 17 H      0.9408     1.0000     0.0592     0.9981     0.9981     0.0000

  Mayer bond orders larger than 0.100000
B(  0-C ,  1-S ) :   1.1719 B(  0-C ,  2-C ) :   0.1320 B(  0-C ,  3-C ) :   1.4725 
B(  0-C , 16-H ) :   0.9644 B(  1-S ,  2-C ) :   1.1927 B(  2-C ,  4-C ) :   1.3802 
B(  2-C , 17-H ) :   0.9606 B(  3-C ,  4-C ) :   1.2520 B(  3-C ,  5-S ) :   1.0448 
B(  4-C ,  7-C ) :   1.1338 B(  5-S ,  6-C ) :   1.0720 B(  6-C ,  7-C ) :   1.4589 
B(  6-C ,  9-C ) :   0.9979 B(  7-C ,  8-F ) :   1.2259 B(  9-C , 10-O ) :   2.0651 
B(  9-C , 11-O ) :   1.2392 B( 11-O , 12-C ) :   0.9322 B( 12-C , 13-H ) :   0.9737 
B( 12-C , 14-H ) :   0.9670 B( 12-C , 15-H ) :   0.9670 

-------
TIMINGS
-------

Total SCF time: 0 days 0 hours 0 min 9 sec 

Total time                  ....       9.064 sec
Sum of individual times     ....       8.875 sec  ( 97.9%)

Fock matrix formation       ....       6.063 sec  ( 66.9%)
  Split-RI-J                ....       2.184 sec  ( 36.0% of F)
  XC integration            ....       3.354 sec  ( 55.3% of F)
    Basis function eval.    ....       1.301 sec  ( 38.8% of XC)
    Density eval.           ....       0.691 sec  ( 20.6% of XC)
    XC-Functional eval.     ....       0.367 sec  ( 10.9% of XC)
    XC-Potential eval.      ....       0.768 sec  ( 22.9% of XC)
Diagonalization             ....       0.005 sec  (  0.1%)
Density matrix formation    ....       0.008 sec  (  0.1%)
Population analysis         ....       0.018 sec  (  0.2%)
Initial guess               ....       0.006 sec  (  0.1%)
Orbital Transformation      ....       0.000 sec  (  0.0%)
Orbital Orthonormalization  ....       0.003 sec  (  0.0%)
DIIS solution               ....       0.001 sec  (  0.0%)
SOSCF solution              ....       0.026 sec  (  0.3%)
Grid generation             ....       2.749 sec  ( 30.3%)


-------------------------------------------------------------------------------
                          DFT DISPERSION CORRECTION                            
                                                                               
                              DFTD3 V3.1  Rev 1                                
                          USING Becke-Johnson damping                          
-------------------------------------------------------------------------------
The BP86 functional is recognized
Active option DFTDOPT                   ...         4   

molecular C6(AA) [au] = 6245.254092 


            DFT-D V3
 parameters
 s6 scaling factor         :     1.0000 
 a1 scaling factor         :     0.3946 
 s8 scaling factor         :     3.2822 
 a2 scaling factor         :     4.8516 
 ad hoc parameters k1-k3   :    16.0000     1.3333    -4.0000 

 Edisp/kcal,au: -24.212572444660  -0.038585186141 
 E6   /kcal   :  -8.264994312 
 E8   /kcal   : -15.947578132 
 % E8         :  65.864864912 

-------------------------   ----------------
Dispersion correction           -0.038585186
-------------------------   ----------------


-------------------------   --------------------
FINAL SINGLE POINT ENERGY     -1353.997244219679
-------------------------   --------------------

                                *** OPTIMIZATION RUN DONE ***

                            ***************************************
                            *     ORCA property calculations      *
                            ***************************************

                                    ---------------------
                                    Active property flags
                                    ---------------------
   (+) Dipole Moment


------------------------------------------------------------------------------
                       ORCA ELECTRIC PROPERTIES CALCULATION
------------------------------------------------------------------------------

Dipole Moment Calculation                       ... on
Quadrupole Moment Calculation                   ... off
Polarizability Calculation                      ... off
GBWName                                         ... P3HT_Input_Methylcarbonyl_3_Fluoro_Thienothiophene_2_Optimize_Monomer.gbw
Electron density file                           ... P3HT_Input_Methylcarbonyl_3_Fluoro_Thienothiophene_2_Optimize_Monomer.scfp
The origin for moment calculation is the CENTER OF MASS  = ( 3.784949,  4.232877 -0.161004)

-------------
DIPOLE MOMENT
-------------
                                X             Y             Z
Electronic contribution:     -1.11210      -8.26709       0.36387
Nuclear contribution   :      1.57673       7.66633      -0.33960
                        -----------------------------------------
Total Dipole Moment    :      0.46462      -0.60076       0.02427
                        -----------------------------------------
Magnitude (a.u.)       :      0.75985
Magnitude (Debye)      :      1.93139



--------------------
Rotational spectrum 
--------------------
 
Rotational constants in cm-1:     0.053421     0.012051     0.009852 
Rotational constants in MHz :  1601.528124   361.284316   295.345816 

 Dipole components along the rotational axes: 
x,y,z [a.u.] :    -0.513421     0.560154    -0.000466 
x,y,z [Debye]:    -1.305013     1.423798    -0.001184 

 

Timings for individual modules:

Sum of individual times         ...      167.339 sec (=   2.789 min)
GTO integral calculation        ...        8.296 sec (=   0.138 min)   5.0 %
SCF iterations                  ...      116.367 sec (=   1.939 min)  69.5 %
SCF Gradient evaluation         ...       35.096 sec (=   0.585 min)  21.0 %
Geometry relaxation             ...        7.579 sec (=   0.126 min)   4.5 %
                             ****ORCA TERMINATED NORMALLY****
TOTAL RUN TIME: 0 days 0 hours 2 minutes 54 seconds 564 msec
