
                                 *****************
                                 * O   R   C   A *
                                 *****************

           --- An Ab Initio, DFT and Semiempirical electronic structure package ---

                  #######################################################
                  #                        -***-                        #
                  #          Department of theory and spectroscopy      #
                  #               Directorship: Frank Neese             #
                  #        Max Planck Institute fuer Kohlenforschung    #
                  #                Kaiser Wilhelm Platz 1               #
                  #                 D-45470 Muelheim/Ruhr               #
                  #                      Germany                        #
                  #                                                     #
                  #                  All rights reserved                #
                  #                        -***-                        #
                  #######################################################


                         Program Version 4.2.0 -  RELEASE  -


 With contributions from (in alphabetic order):
   Daniel Aravena         : Magnetic Suceptibility
   Michael Atanasov       : Ab Initio Ligand Field Theory (pilot matlab implementation)
   Alexander A. Auer      : GIAO ZORA, VPT2
   Ute Becker             : Parallelization
   Giovanni Bistoni       : ED, misc. LED, open-shell LED, HFLED
   Martin Brehm           : Molecular dynamics
   Dmytro Bykov           : SCF Hessian
   Vijay G. Chilkuri      : MRCI spin determinant printing, contributions to CSF-ICE
   Dipayan Datta          : RHF DLPNO-CCSD density
   Achintya Kumar Dutta   : EOM-CC, STEOM-CC
   Dmitry Ganyushin       : Spin-Orbit,Spin-Spin,Magnetic field MRCI
   Miquel Garcia          : C-PCM Hessian, Gaussian charge scheme
   Yang Guo               : DLPNO-NEVPT2, CIM, IAO-localization
   Andreas Hansen         : Spin unrestricted coupled pair/coupled cluster methods
   Benjamin Helmich-Paris : CASSCF linear response (MC-RPA)
   Lee Huntington         : MR-EOM, pCC
   Robert Izsak           : Overlap fitted RIJCOSX, COSX-SCS-MP3, EOM
   Christian Kollmar      : KDIIS, OOCD, Brueckner-CCSD(T), CCSD density
   Simone Kossmann        : Meta GGA functionals, TD-DFT gradient, OOMP2, MP2 Hessian
   Martin Krupicka        : AUTO-CI
   Lucas Lang             : DCDCAS
   Dagmar Lenk            : GEPOL surface, SMD
   Dimitrios Liakos       : Extrapolation schemes; Compound Job, initial MDCI parallelization
   Dimitrios Manganas     : Further ROCIS development; embedding schemes
   Dimitrios Pantazis     : SARC Basis sets
   Taras Petrenko         : DFT Hessian,TD-DFT gradient, ASA, ECA, R-Raman, ABS, FL, XAS/XES, NRVS
   Peter Pinski           : DLPNO-MP2, DLPNO-MP2 Gradient
   Christoph Reimann      : Effective Core Potentials
   Marius Retegan         : Local ZFS, SOC
   Christoph Riplinger    : Optimizer, TS searches, QM/MM, DLPNO-CCSD(T), (RO)-DLPNO pert. Triples
   Tobias Risthaus        : Range-separated hybrids, TD-DFT gradient, RPA, STAB
   Michael Roemelt        : Original ROCIS implementation
   Masaaki Saitow         : Open-shell DLPNO-CCSD energy and density
   Barbara Sandhoefer     : DKH picture change effects
   Avijit Sen             : IP-ROCIS
   Kantharuban Sivalingam : CASSCF convergence, NEVPT2, FIC-MRCI
   Bernardo de Souza      : ESD, SOC TD-DFT
   Georgi Stoychev        : AutoAux, RI-MP2 NMR
   Willem Van den Heuvel  : Paramagnetic NMR
   Boris Wezisla          : Elementary symmetry handling
   Frank Wennmohs         : Technical directorship


 We gratefully acknowledge several colleagues who have allowed us to
 interface, adapt or use parts of their codes:
   Stefan Grimme, W. Hujo, H. Kruse,             : VdW corrections, initial TS optimization,
                  C. Bannwarth                     DFT functionals, gCP, sTDA/sTD-DF
   Ed Valeev, F. Pavosevic, A. Kumar             : LibInt (2-el integral package), F12 methods
   Garnet Chan, S. Sharma, J. Yang, R. Olivares  : DMRG
   Ulf Ekstrom                                   : XCFun DFT Library
   Mihaly Kallay                                 : mrcc  (arbitrary order and MRCC methods)
   Andreas Klamt, Michael Diedenhofen            : otool_cosmo (COSMO solvation model)
   Jiri Pittner, Ondrej Demel                    : Mk-CCSD
   Frank Weinhold                                : gennbo (NPA and NBO analysis)
   Christopher J. Cramer and Donald G. Truhlar   : smd solvation model
   Lars Goerigk                                  : TD-DFT with DH, B97 family of functionals
   V. Asgeirsson, H. Jonsson                     : NEB implementation
   FAccTs GmbH                                   : IRC, NEB, NEB-TS, Multilevel, MM, QM/MM, CI optimization
   S Lehtola, MJT Oliveira, MAL Marques          : LibXC Library


 Your calculation uses the libint2 library for the computation of 2-el integrals
 For citations please refer to: http://libint.valeyev.net

 Your ORCA version has been built with support for libXC version: 4.2.3
 For citations please refer to: https://tddft.org/programs/libxc/

 This ORCA versions uses:
   CBLAS   interface :  Fast vector & matrix operations
   LAPACKE interface :  Fast linear algebra routines
   SCALAPACK package :  Parallel linear algebra routines


Your calculation utilizes the atom-pairwise dispersion correction
with the Becke-Johnson damping scheme (D3BJ)
Cite in your paper:
S.Grimme, S.Ehrlich, L.Goerigk, J Comput Chem, (2011), 32, 1456–1465 
S.Grimme, J.Antony, S.Ehrlich and H.Krieg, J.Chem.Phys., 132, (2010), 154104 
   

----- Orbital basis set information -----
Your calculation utilizes the basis: def2-SVP
   F. Weigend and R. Ahlrichs, Phys. Chem. Chem. Phys. 7, 3297 (2005).

----- AuxJ basis set information -----
Your calculation utilizes the auxiliary basis: def2/J
   F. Weigend, Phys. Chem. Chem. Phys. 8, 1057 (2006).

================================================================================
                                        WARNINGS
                       Please study these warnings very carefully!
================================================================================


WARNING: Geometry Optimization
  ===> : Switching off AutoStart
         For restart on a previous wavefunction, please use MOREAD

INFO   : the flag for use of LIBINT has been found!

================================================================================
                                       INPUT FILE
================================================================================
NAME = PDTSPTD_Optimize_Monomer.inp
|  1> ! RI BP86 def2-SVP def2/J D3BJ TIGHTSCF  Opt Grid3 FinalGrid5
|  2> %maxcore 3000
|  3> %geom
|  4> Constraints
|  5> {D 1 0 31 32 0.0 C}
|  6> {D 11 10 21 22 0.0 C}
|  7> {D 25 24 50 51 0.0 C}
|  8> end
|  9> end
| 10> 
| 11> *xyz 0 1
| 12> C	-3.602981	-0.029583	-0.016224
| 13> C	-3.052991	1.235207	-0.235554
| 14> C	-1.665181	1.196787	-0.089294
| 15> H	-3.632991	2.117947	-0.476214
| 16> C	-1.142821	-0.043143	0.198516
| 17> S	-2.357011	-1.191913	0.348266
| 18> Si	-0.294211	2.436537	-0.201314
| 19> C	0.953969	1.090257	0.092776
| 20> C	0.288799	-0.101743	0.292556
| 21> S	1.370349	-1.360193	0.565586
| 22> C	2.746099	-0.323603	0.329866
| 23> C	2.344429	0.994127	0.102926
| 24> H	3.027989	1.816357	-0.070814
| 25> C	-0.347421	3.688387	1.171746
| 26> H	-0.461181	3.200797	2.145166
| 27> H	-1.188331	4.376487	1.042126
| 28> H	0.571979	4.281007	1.199536
| 29> C	-0.121861	3.322457	-1.809124
| 30> H	-0.053551	2.620837	-2.646274
| 31> H	0.780439	3.942107	-1.823344
| 32> H	-0.977361	3.979017	-1.994984
| 33> C	4.116989	-0.795253	0.362546
| 34> C	4.688309	-2.016713	0.105096
| 35> S	5.389349	0.325257	0.744666
| 36> C	6.666559	-0.781533	0.377776
| 37> C	6.112319	-2.005063	0.106146
| 38> C	4.258309	-3.345173	-0.268684
| 39> C	6.575659	-3.319053	-0.275354
| 40> N	5.426149	-4.069623	-0.428984
| 41> O	3.120249	-3.744503	-0.444434
| 42> O	7.724989	-3.676483	-0.466974
| 43> C	-5.013821	-0.370993	-0.038894
| 44> C	-5.678011	-1.570573	-0.152804
| 45> C	-7.085481	-1.446333	-0.104294
| 46> C	-7.542911	-0.171173	0.026866
| 47> S	-6.210311	0.904327	0.110516
| 48> H	-8.563491	0.184427	0.079446
| 49> C	-7.687981	-2.746263	-0.215874
| 50> C	-5.381811	-2.977963	-0.318714
| 51> N	-6.618671	-3.610313	-0.326444
| 52> O	-4.291721	-3.507403	-0.449574
| 53> O	-8.881761	-2.990983	-0.211814
| 54> C	5.425309	-5.450583	-0.839444
| 55> H	6.438769	-5.859303	-0.854754
| 56> H	4.985099	-5.520173	-1.838614
| 57> H	4.803059	-6.026583	-0.148004
| 58> C	-6.757071	-5.037483	-0.457014
| 59> H	-7.809631	-5.329333	-0.496284
| 60> H	-6.274131	-5.515373	0.400546
| 61> H	-6.245961	-5.364053	-1.367184
| 62> C	8.035319	-0.316143	0.378056
| 63> C	8.468829	0.960107	0.014566
| 64> C	9.856559	1.051817	0.135726
| 65> H	7.809619	1.750527	-0.323724
| 66> C	10.477149	-0.100963	0.556636
| 67> S	9.364699	-1.318213	0.874936
| 68> Si	11.133709	2.362427	-0.170864
| 69> C	11.907399	-0.039293	0.630796
| 70> C	12.490349	1.165787	0.279346
| 71> C	11.007599	3.802927	0.993846
| 72> H	11.010079	3.469777	2.036396
| 73> H	10.083789	4.364837	0.824876
| 74> H	11.847909	4.491127	0.860556
| 75> C	11.183769	3.006277	-1.901964
| 76> H	11.260159	2.191487	-2.628554
| 77> H	12.041309	3.669057	-2.053704
| 78> H	10.278849	3.575777	-2.136694
| 79> S	13.064079	-1.186773	1.049816
| 80> C	13.886629	1.184497	0.337436
| 81> C	14.344249	-0.056553	0.751046
| 82> H	14.538209	2.016947	0.101976
| 83> H	15.368749	-0.370633	0.895136
| 84> **                         ****END OF INPUT****
================================================================================

                       *****************************
                       * Geometry Optimization Run *
                       *****************************

Geometry optimization settings:
Update method            Update   .... BFGS
Choice of coordinates    CoordSys .... Z-matrix Internals
Initial Hessian          InHess   .... Almoef's Model

Convergence Tolerances:
Energy Change            TolE     ....  5.0000e-06 Eh
Max. Gradient            TolMAXG  ....  3.0000e-04 Eh/bohr
RMS Gradient             TolRMSG  ....  1.0000e-04 Eh/bohr
Max. Displacement        TolMAXD  ....  4.0000e-03 bohr
RMS Displacement         TolRMSD  ....  2.0000e-03 bohr
Strict Convergence                ....  False
------------------------------------------------------------------------------
                        ORCA OPTIMIZATION COORDINATE SETUP
------------------------------------------------------------------------------

The optimization will be done in new redundant internal coordinates
Making redundant internal coordinates   ...  (new redundants) done
Evaluating the initial hessian          ...  (Almloef) done
Evaluating the coordinates              ...  done
Calculating the B-matrix                .... done
Calculating the G-matrix                .... done
Diagonalizing the G-matrix              .... done
Imposing constraints:
 Iter   0:  RMS(Cart)=    1.7062164790 RMS(Int)=    2.0000132816
 Iter   1:  RMS(Cart)=    1.0273776927 RMS(Int)=    1.7479159338
 Iter   2:  RMS(Cart)=    0.7714741359 RMS(Int)=    1.5999582483
 Iter   3:  RMS(Cart)=    0.6317113600 RMS(Int)=    1.4916493406
 Iter   4:  RMS(Cart)=    0.5400504566 RMS(Int)=    1.4033920535
 Iter   5:  RMS(Cart)=    0.4738103945 RMS(Int)=    1.3271792258
 Iter   6:  RMS(Cart)=    0.4229429566 RMS(Int)=    1.2591325641
 Iter   7:  RMS(Cart)=    0.3822125568 RMS(Int)=    1.1971464127
 Iter   8:  RMS(Cart)=    0.3485878785 RMS(Int)=    1.1399736308
 Iter   9:  RMS(Cart)=    0.3201774943 RMS(Int)=    1.0868192284
 Iter  10:  RMS(Cart)=    0.2957329055 RMS(Int)=    1.0371415923
 Iter  11:  RMS(Cart)=    0.2743928615 RMS(Int)=    0.9905482787
 Iter  12:  RMS(Cart)=    0.2555417444 RMS(Int)=    0.9467385235
 Iter  13:  RMS(Cart)=    0.2387264241 RMS(Int)=    0.9054702915
 Iter  14:  RMS(Cart)=    0.2236050738 RMS(Int)=    0.8665408260
 Iter  15:  RMS(Cart)=    0.2099143934 RMS(Int)=    0.8297748880
 Iter  16:  RMS(Cart)=    0.1974479087 RMS(Int)=    0.7950174840
 Iter  17:  RMS(Cart)=    0.1860411853 RMS(Int)=    0.7621292655
 Iter  18:  RMS(Cart)=    0.1755614999 RMS(Int)=    0.7309835363
 Iter  19:  RMS(Cart)=    0.1659004651 RMS(Int)=    0.7014642400
 Iter  20:  RMS(Cart)=    0.1569686595 RMS(Int)=    0.6734645480
 Iter  21:  RMS(Cart)=    0.1486916479 RMS(Int)=    0.6468858210
 Iter  22:  RMS(Cart)=    0.1410069854 RMS(Int)=    0.6216368035
 Iter  23:  RMS(Cart)=    0.1338619281 RMS(Int)=    0.5976329688
 Iter  24:  RMS(Cart)=    0.1272116588 RMS(Int)=    0.5747959634
 Iter  25:  RMS(Cart)=    0.1210178940 RMS(Int)=    0.5530531192
 Iter  26:  RMS(Cart)=    0.1152477750 RMS(Int)=    0.5323370163
 Iter  27:  RMS(Cart)=    0.1098729730 RMS(Int)=    0.5125850839
 Iter  28:  RMS(Cart)=    0.1048689571 RMS(Int)=    0.4937392338
 Iter  29:  RMS(Cart)=    0.1002143848 RMS(Int)=    0.4757455206
 Iter  30:  RMS(Cart)=    0.0958905883 RMS(Int)=    0.4585538280
 Iter  31:  RMS(Cart)=    0.0918811319 RMS(Int)=    0.4421175765
 Iter  32:  RMS(Cart)=    0.0881714258 RMS(Int)=    0.4263934536
 Iter  33:  RMS(Cart)=    0.0847483833 RMS(Int)=    0.4113411630
 Iter  34:  RMS(Cart)=    0.0816001120 RMS(Int)=    0.3969231931
 Iter  35:  RMS(Cart)=    0.0787156350 RMS(Int)=    0.3831046028
 Iter  36:  RMS(Cart)=    0.0760846376 RMS(Int)=    0.3698528241
 Iter  37:  RMS(Cart)=    0.0736972393 RMS(Int)=    0.3571374792
 Iter  38:  RMS(Cart)=    0.0715437929 RMS(Int)=    0.3449302132
 Iter  39:  RMS(Cart)=    0.0696147120 RMS(Int)=    0.3332045389
 Iter  40:  RMS(Cart)=    0.0679003304 RMS(Int)=    0.3219356949
 Iter  41:  RMS(Cart)=    0.0663907967 RMS(Int)=    0.3111005142
 Iter  42:  RMS(Cart)=    0.0650760062 RMS(Int)=    0.3006773044
 Iter  43:  RMS(Cart)=    0.0639455692 RMS(Int)=    0.2906457362
 Iter  44:  RMS(Cart)=    0.0629888174 RMS(Int)=    0.2809867423
 Iter  45:  RMS(Cart)=    0.0621948411 RMS(Int)=    0.2716824236
 Iter  46:  RMS(Cart)=    0.0615525558 RMS(Int)=    0.2627159627
 Iter  47:  RMS(Cart)=    0.0610507881 RMS(Int)=    0.2540715455
 Iter  48:  RMS(Cart)=    0.0606783750 RMS(Int)=    0.2457342879
 Iter  49:  RMS(Cart)=    0.0604242687 RMS(Int)=    0.2376901686
 Iter  50:  RMS(Cart)=    0.0602776394 RMS(Int)=    0.2299259682
 Iter  51:  RMS(Cart)=    0.0602279707 RMS(Int)=    0.2224292116
 Iter  52:  RMS(Cart)=    0.0602651423 RMS(Int)=    0.2151881162
 Iter  53:  RMS(Cart)=    0.0603794988 RMS(Int)=    0.2081915439
 Iter  54:  RMS(Cart)=    0.0605619015 RMS(Int)=    0.2014289561
 Iter  55:  RMS(Cart)=    0.0608037650 RMS(Int)=    0.1948903735
 Iter  56:  RMS(Cart)=    0.0610970778 RMS(Int)=    0.1885663381
 Iter  57:  RMS(Cart)=    0.0614344101 RMS(Int)=    0.1824478785
 Iter  58:  RMS(Cart)=    0.0618089099 RMS(Int)=    0.1765264780
 Iter  59:  RMS(Cart)=    0.0622142900 RMS(Int)=    0.1707940449
 Iter  60:  RMS(Cart)=    0.0626448076 RMS(Int)=    0.1652428856
 Iter  61:  RMS(Cart)=    0.0630952389 RMS(Int)=    0.1598656793
 Iter  62:  RMS(Cart)=    0.0635608502 RMS(Int)=    0.1546554552
 Iter  63:  RMS(Cart)=    0.0640373669 RMS(Int)=    0.1496055709
 Iter  64:  RMS(Cart)=    0.0645209419 RMS(Int)=    0.1447096931
 Iter  65:  RMS(Cart)=    0.0650081232 RMS(Int)=    0.1399617800
 Iter  66:  RMS(Cart)=    0.0654958235 RMS(Int)=    0.1353560640
 Iter  67:  RMS(Cart)=    0.0659812898 RMS(Int)=    0.1308870374
 Iter  68:  RMS(Cart)=    0.0664620753 RMS(Int)=    0.1265494381
 Iter  69:  RMS(Cart)=    0.0665150147 RMS(Int)=    0.1223607782
 Iter  70:  RMS(Cart)=    0.0643937699 RMS(Int)=    0.1184263083
 Iter  71:  RMS(Cart)=    0.0623993525 RMS(Int)=    0.1147218439
 Iter  72:  RMS(Cart)=    0.0605191152 RMS(Int)=    0.1112262484
 Iter  73:  RMS(Cart)=    0.0587420843 RMS(Int)=    0.1079209652
 Iter  74:  RMS(Cart)=    0.0570586951 RMS(Int)=    0.1047896355
 Iter  75:  RMS(Cart)=    0.0554605762 RMS(Int)=    0.1018177815
 Iter  76:  RMS(Cart)=    0.0539403718 RMS(Int)=    0.0989925434
 Iter  77:  RMS(Cart)=    0.0524915947 RMS(Int)=    0.0963024597
 Iter  78:  RMS(Cart)=    0.0511085039 RMS(Int)=    0.0937372819
 Iter  79:  RMS(Cart)=    0.0497860024 RMS(Int)=    0.0912878186
 Iter  80:  RMS(Cart)=    0.0485195504 RMS(Int)=    0.0889458025
 Iter  81:  RMS(Cart)=    0.0473050928 RMS(Int)=    0.0867037767
 Iter  82:  RMS(Cart)=    0.0461389968 RMS(Int)=    0.0845549979
 Iter  83:  RMS(Cart)=    0.0450179993 RMS(Int)=    0.0824933529
 Iter  84:  RMS(Cart)=    0.0439391610 RMS(Int)=    0.0805132856
 Iter  85:  RMS(Cart)=    0.0428998278 RMS(Int)=    0.0786097354
 Iter  86:  RMS(Cart)=    0.0418975968 RMS(Int)=    0.0767780818
 Iter  87:  RMS(Cart)=    0.0409302874 RMS(Int)=    0.0750140973
 Iter  88:  RMS(Cart)=    0.0399959155 RMS(Int)=    0.0733139058
 Iter  89:  RMS(Cart)=    0.0390926718 RMS(Int)=    0.0716739458
 Iter  90:  RMS(Cart)=    0.0382189023 RMS(Int)=    0.0700909386
 Iter  91:  RMS(Cart)=    0.0373730913 RMS(Int)=    0.0685618597
 Iter  92:  RMS(Cart)=    0.0365538468 RMS(Int)=    0.0670839141
 Iter  93:  RMS(Cart)=    0.0357598874 RMS(Int)=    0.0656545135
 Iter  94:  RMS(Cart)=    0.0349900304 RMS(Int)=    0.0642712574
 Iter  95:  RMS(Cart)=    0.0342431823 RMS(Int)=    0.0629319147
 Iter  96:  RMS(Cart)=    0.0335183294 RMS(Int)=    0.0616344090
 Iter  97:  RMS(Cart)=    0.0328145297 RMS(Int)=    0.0603768038
 Iter  98:  RMS(Cart)=    0.0321309064 RMS(Int)=    0.0591572909
 Iter  99:  RMS(Cart)=    0.0314666410 RMS(Int)=    0.0579741784
 RMS(Cart) too big - taking linear step, building new B-matrix and trying again
Imposing constraints:
 Iter   0:  RMS(Cart)=    1.2630821299 RMS(Int)=    1.6300579936
 Iter   1:  RMS(Cart)=    0.7424073082 RMS(Int)=    1.4736421676
 Iter   2:  RMS(Cart)=    0.5184396804 RMS(Int)=    1.3748172772
 Iter   3:  RMS(Cart)=    0.3945494049 RMS(Int)=    1.2977416481
 Iter   4:  RMS(Cart)=    0.3142054951 RMS(Int)=    1.2314332330
 Iter   5:  RMS(Cart)=    0.2571046392 RMS(Int)=    1.1715592573
 Iter   6:  RMS(Cart)=    0.2141139418 RMS(Int)=    1.1161120030
 Iter   7:  RMS(Cart)=    0.1804871398 RMS(Int)=    1.0640531349
 Iter   8:  RMS(Cart)=    0.1535121605 RMS(Int)=    1.0147992835
 Iter   9:  RMS(Cart)=    0.1315399260 RMS(Int)=    0.9679987396
 Iter  10:  RMS(Cart)=    0.1135300154 RMS(Int)=    0.9234245517
 Iter  11:  RMS(Cart)=    0.0988158991 RMS(Int)=    0.8809195282
 Iter  12:  RMS(Cart)=    0.0869703316 RMS(Int)=    0.8403664221
 Iter  13:  RMS(Cart)=    0.0777156182 RMS(Int)=    0.8016711713
 Iter  14:  RMS(Cart)=    0.0708509300 RMS(Int)=    0.7647532629
 Iter  15:  RMS(Cart)=    0.0661867261 RMS(Int)=    0.7295401378
 Iter  16:  RMS(Cart)=    0.0634932645 RMS(Int)=    0.6959639503
 Iter  17:  RMS(Cart)=    0.0624797023 RMS(Int)=    0.6639597221
 Iter  18:  RMS(Cart)=    0.0628107682 RMS(Int)=    0.6334643262
 Iter  19:  RMS(Cart)=    0.0641461458 RMS(Int)=    0.6044159640
 Iter  20:  RMS(Cart)=    0.0661777061 RMS(Int)=    0.5767539287
 Iter  21:  RMS(Cart)=    0.0686497759 RMS(Int)=    0.5504185307
 Iter  22:  RMS(Cart)=    0.0713625232 RMS(Int)=    0.5253511122
 Iter  23:  RMS(Cart)=    0.0741654798 RMS(Int)=    0.5014941055
 Iter  24:  RMS(Cart)=    0.0769477148 RMS(Int)=    0.4787911138
 Iter  25:  RMS(Cart)=    0.0796283338 RMS(Int)=    0.4571870023
 Iter  26:  RMS(Cart)=    0.0821487019 RMS(Int)=    0.4366279960
 Iter  27:  RMS(Cart)=    0.0844665835 RMS(Int)=    0.4170617840
 Iter  28:  RMS(Cart)=    0.0865519258 RMS(Int)=    0.3984376306
 Iter  29:  RMS(Cart)=    0.0883839080 RMS(Int)=    0.3807064956
 Iter  30:  RMS(Cart)=    0.0899489113 RMS(Int)=    0.3638211617
 Iter  31:  RMS(Cart)=    0.0912391382 RMS(Int)=    0.3477363681
 Iter  32:  RMS(Cart)=    0.0922516771 RMS(Int)=    0.3324089441
 Iter  33:  RMS(Cart)=    0.0929878619 RMS(Int)=    0.3177979381
 Iter  34:  RMS(Cart)=    0.0934528205 RMS(Int)=    0.3038647316
 Iter  35:  RMS(Cart)=    0.0936551307 RMS(Int)=    0.2905731312
 Iter  36:  RMS(Cart)=    0.0936065292 RMS(Int)=    0.2778894280
 Iter  37:  RMS(Cart)=    0.0933216306 RMS(Int)=    0.2657824175
 Iter  38:  RMS(Cart)=    0.0928176291 RMS(Int)=    0.2542233742
 Iter  39:  RMS(Cart)=    0.0921139645 RMS(Int)=    0.2431859787
 Iter  40:  RMS(Cart)=    0.0912319437 RMS(Int)=    0.2326461962
 Iter  41:  RMS(Cart)=    0.0901943172 RMS(Int)=    0.2225821142
 Iter  42:  RMS(Cart)=    0.0890248154 RMS(Int)=    0.2129737441
 Iter  43:  RMS(Cart)=    0.0877476563 RMS(Int)=    0.2038027986
 Iter  44:  RMS(Cart)=    0.0863870414 RMS(Int)=    0.1950524580
 Iter  45:  RMS(Cart)=    0.0849666566 RMS(Int)=    0.1867071351
 Iter  46:  RMS(Cart)=    0.0835091990 RMS(Int)=    0.1787522540
 Iter  47:  RMS(Cart)=    0.0820359485 RMS(Int)=    0.1711740503
 Iter  48:  RMS(Cart)=    0.0805664010 RMS(Int)=    0.1639594007
 Iter  49:  RMS(Cart)=    0.0791179757 RMS(Int)=    0.1570956869
 Iter  50:  RMS(Cart)=    0.0777058082 RMS(Int)=    0.1505706954
 Iter  51:  RMS(Cart)=    0.0763426301 RMS(Int)=    0.1443725503
 Iter  52:  RMS(Cart)=    0.0750387368 RMS(Int)=    0.1384896774
 Iter  53:  RMS(Cart)=    0.0738020357 RMS(Int)=    0.1329107926
 Iter  54:  RMS(Cart)=    0.0726381664 RMS(Int)=    0.1276249098
 Iter  55:  RMS(Cart)=    0.0715506781 RMS(Int)=    0.1226213606
 Iter  56:  RMS(Cart)=    0.0705412514 RMS(Int)=    0.1178898213
 Iter  57:  RMS(Cart)=    0.0680151240 RMS(Int)=    0.1134708564
 Iter  58:  RMS(Cart)=    0.0635228254 RMS(Int)=    0.1093919949
 Iter  59:  RMS(Cart)=    0.0595696590 RMS(Int)=    0.1055969445
 Iter  60:  RMS(Cart)=    0.0560826562 RMS(Int)=    0.1020410481
 Iter  61:  RMS(Cart)=    0.0529962107 RMS(Int)=    0.0986890883
 Iter  62:  RMS(Cart)=    0.0502522574 RMS(Int)=    0.0955133933
 Iter  63:  RMS(Cart)=    0.0478001358 RMS(Int)=    0.0924922428
 Iter  64:  RMS(Cart)=    0.0455961996 RMS(Int)=    0.0896085558
 Iter  65:  RMS(Cart)=    0.0436032504 RMS(Int)=    0.0868488326
 Iter  66:  RMS(Cart)=    0.0417898686 RMS(Int)=    0.0842023134
 Iter  67:  RMS(Cart)=    0.0401297049 RMS(Int)=    0.0816603215
 Iter  68:  RMS(Cart)=    0.0386007820 RMS(Int)=    0.0792157539
 Iter  69:  RMS(Cart)=    0.0371848364 RMS(Int)=    0.0768626936
 Iter  70:  RMS(Cart)=    0.0358667241 RMS(Int)=    0.0745961147
 Iter  71:  RMS(Cart)=    0.0346338950 RMS(Int)=    0.0724116617
 Iter  72:  RMS(Cart)=    0.0334759412 RMS(Int)=    0.0703054850
 Iter  73:  RMS(Cart)=    0.0323842132 RMS(Int)=    0.0682741201
 Iter  74:  RMS(Cart)=    0.0313514998 RMS(Int)=    0.0663143978
 Iter  75:  RMS(Cart)=    0.0303717628 RMS(Int)=    0.0644233801
 Iter  76:  RMS(Cart)=    0.0294399192 RMS(Int)=    0.0625983132
 Iter  77:  RMS(Cart)=    0.0285516643 RMS(Int)=    0.0608365942
 Iter  78:  RMS(Cart)=    0.0277033278 RMS(Int)=    0.0591357468
 Iter  79:  RMS(Cart)=    0.0268917573 RMS(Int)=    0.0574934048
 Iter  80:  RMS(Cart)=    0.0261142245 RMS(Int)=    0.0559072996
 Iter  81:  RMS(Cart)=    0.0253683500 RMS(Int)=    0.0543752523
 Iter  82:  RMS(Cart)=    0.0246520423 RMS(Int)=    0.0528951669
 Iter  83:  RMS(Cart)=    0.0239634485 RMS(Int)=    0.0514650267
 Iter  84:  RMS(Cart)=    0.0233009155 RMS(Int)=    0.0500828902
 Iter  85:  RMS(Cart)=    0.0226629573 RMS(Int)=    0.0487468890
 Iter  86:  RMS(Cart)=    0.0220482298 RMS(Int)=    0.0474552255
 Iter  87:  RMS(Cart)=    0.0214555097 RMS(Int)=    0.0462061709
 Iter  88:  RMS(Cart)=    0.0208836771 RMS(Int)=    0.0449980634
 Iter  89:  RMS(Cart)=    0.0203317018 RMS(Int)=    0.0438293066
 Iter  90:  RMS(Cart)=    0.0197986318 RMS(Int)=    0.0426983676
 Iter  91:  RMS(Cart)=    0.0192835837 RMS(Int)=    0.0416037754
 Iter  92:  RMS(Cart)=    0.0187857348 RMS(Int)=    0.0405441188
 Iter  93:  RMS(Cart)=    0.0183043163 RMS(Int)=    0.0395180450
 Iter  94:  RMS(Cart)=    0.0178386083 RMS(Int)=    0.0385242571
 Iter  95:  RMS(Cart)=    0.0173879343 RMS(Int)=    0.0375615130
 Iter  96:  RMS(Cart)=    0.0169516578 RMS(Int)=    0.0366286228
 Iter  97:  RMS(Cart)=    0.0165291784 RMS(Int)=    0.0357244472
 Iter  98:  RMS(Cart)=    0.0161199290 RMS(Int)=    0.0348478954
 Iter  99:  RMS(Cart)=    0.0157233731 RMS(Int)=    0.0339979236
 RMS(Cart) too big - taking linear step, building new B-matrix and trying again
Imposing constraints:
 Iter   0:  RMS(Cart)=    0.7936854765 RMS(Int)=    1.4346215112
 Iter   1:  RMS(Cart)=    0.4496284517 RMS(Int)=    1.3340810252
 Iter   2:  RMS(Cart)=    0.2852246488 RMS(Int)=    1.2615383007
 Iter   3:  RMS(Cart)=    0.1929356592 RMS(Int)=    1.1998329927
 Iter   4:  RMS(Cart)=    0.1356660928 RMS(Int)=    1.1435750136
 Iter   5:  RMS(Cart)=    0.0993050133 RMS(Int)=    1.0907229693
 Iter   6:  RMS(Cart)=    0.0778667324 RMS(Int)=    1.0404103619
 Iter   7:  RMS(Cart)=    0.0680324605 RMS(Int)=    0.9922472224
 Iter   8:  RMS(Cart)=    0.0663915561 RMS(Int)=    0.9460546235
 Iter   9:  RMS(Cart)=    0.0692730675 RMS(Int)=    0.9017503250
 Iter  10:  RMS(Cart)=    0.0739275830 RMS(Int)=    0.8592949065
 Iter  11:  RMS(Cart)=    0.0788222667 RMS(Int)=    0.8186649453
 Iter  12:  RMS(Cart)=    0.0832341005 RMS(Int)=    0.7798394282
 Iter  13:  RMS(Cart)=    0.0868651134 RMS(Int)=    0.7427931100
 Iter  14:  RMS(Cart)=    0.0896268757 RMS(Int)=    0.7074936818
 Iter  15:  RMS(Cart)=    0.0915349962 RMS(Int)=    0.6739010549
 Iter  16:  RMS(Cart)=    0.0926579744 RMS(Int)=    0.6419677878
 Iter  17:  RMS(Cart)=    0.0930910978 RMS(Int)=    0.6116400823
 Iter  18:  RMS(Cart)=    0.0929418119 RMS(Int)=    0.5828590116
 Iter  19:  RMS(Cart)=    0.0923205298 RMS(Int)=    0.5555617969
 Iter  20:  RMS(Cart)=    0.0913342954 RMS(Int)=    0.5296830365
 Iter  21:  RMS(Cart)=    0.0900822551 RMS(Int)=    0.5051558451
 Iter  22:  RMS(Cart)=    0.0886525520 RMS(Int)=    0.4819128831
 Iter  23:  RMS(Cart)=    0.0871204812 RMS(Int)=    0.4598872652
 Iter  24:  RMS(Cart)=    0.0855477787 RMS(Int)=    0.4390133383
 Iter  25:  RMS(Cart)=    0.0839828750 RMS(Int)=    0.4192273223
 Iter  26:  RMS(Cart)=    0.0824618907 RMS(Int)=    0.4004678102
 Iter  27:  RMS(Cart)=    0.0810101309 RMS(Int)=    0.3826761319
 Iter  28:  RMS(Cart)=    0.0796438365 RMS(Int)=    0.3657965902
 Iter  29:  RMS(Cart)=    0.0783719891 RMS(Int)=    0.3497765864
 Iter  30:  RMS(Cart)=    0.0771980176 RMS(Int)=    0.3345666533
 Iter  31:  RMS(Cart)=    0.0761213063 RMS(Int)=    0.3201204164
 Iter  32:  RMS(Cart)=    0.0751384589 RMS(Int)=    0.3063945021
 Iter  33:  RMS(Cart)=    0.0742443071 RMS(Int)=    0.2933484102
 Iter  34:  RMS(Cart)=    0.0734326805 RMS(Int)=    0.2809443645
 Iter  35:  RMS(Cart)=    0.0726969694 RMS(Int)=    0.2691471524
 Iter  36:  RMS(Cart)=    0.0720305177 RMS(Int)=    0.2579239610
 Iter  37:  RMS(Cart)=    0.0714268809 RMS(Int)=    0.2472442161
 Iter  38:  RMS(Cart)=    0.0708799849 RMS(Int)=    0.2370794268
 Iter  39:  RMS(Cart)=    0.0703842121 RMS(Int)=    0.2274030383
 Iter  40:  RMS(Cart)=    0.0699344358 RMS(Int)=    0.2181902937
 Iter  41:  RMS(Cart)=    0.0695260230 RMS(Int)=    0.2094181052
 Iter  42:  RMS(Cart)=    0.0691548147 RMS(Int)=    0.2010649343
 Iter  43:  RMS(Cart)=    0.0688170946 RMS(Int)=    0.1931106815
 Iter  44:  RMS(Cart)=    0.0685095520 RMS(Int)=    0.1855365831
 Iter  45:  RMS(Cart)=    0.0682292428 RMS(Int)=    0.1783251164
 Iter  46:  RMS(Cart)=    0.0679735503 RMS(Int)=    0.1714599113
 Iter  47:  RMS(Cart)=    0.0677401492 RMS(Int)=    0.1649256682
 Iter  48:  RMS(Cart)=    0.0675269720 RMS(Int)=    0.1587080812
 Iter  49:  RMS(Cart)=    0.0673321781 RMS(Int)=    0.1527937665
 Iter  50:  RMS(Cart)=    0.0671541273 RMS(Int)=    0.1471701946
 Iter  51:  RMS(Cart)=    0.0669913556 RMS(Int)=    0.1418256270
 Iter  52:  RMS(Cart)=    0.0668425542 RMS(Int)=    0.1367490555
 Iter  53:  RMS(Cart)=    0.0667065507 RMS(Int)=    0.1319301449
 Iter  54:  RMS(Cart)=    0.0665822938 RMS(Int)=    0.1273591782
 Iter  55:  RMS(Cart)=    0.0664688385 RMS(Int)=    0.1230270036
 Iter  56:  RMS(Cart)=    0.0632562338 RMS(Int)=    0.1187919000
 Iter  57:  RMS(Cart)=    0.0602952674 RMS(Int)=    0.1146670266
 Iter  58:  RMS(Cart)=    0.0576436110 RMS(Int)=    0.1106702293
 Iter  59:  RMS(Cart)=    0.0552316155 RMS(Int)=    0.1068142172
 Iter  60:  RMS(Cart)=    0.0530123238 RMS(Int)=    0.1031068251
 Iter  61:  RMS(Cart)=    0.0509532867 RMS(Int)=    0.0995517605
 Iter  62:  RMS(Cart)=    0.0490313619 RMS(Int)=    0.0961494643
 Iter  63:  RMS(Cart)=    0.0472294362 RMS(Int)=    0.0928979186
 Iter  64:  RMS(Cart)=    0.0455343657 RMS(Int)=    0.0897933358
 Iter  65:  RMS(Cart)=    0.0439356779 RMS(Int)=    0.0868307177
 Iter  66:  RMS(Cart)=    0.0424247494 RMS(Int)=    0.0840042902
 Iter  67:  RMS(Cart)=    0.0409942806 RMS(Int)=    0.0813078348
 Iter  68:  RMS(Cart)=    0.0396379535 RMS(Int)=    0.0787349337
 Iter  69:  RMS(Cart)=    0.0383502063 RMS(Int)=    0.0762791477
 Iter  70:  RMS(Cart)=    0.0371260804 RMS(Int)=    0.0739341415
 Iter  71:  RMS(Cart)=    0.0359611131 RMS(Int)=    0.0716937697
 Iter  72:  RMS(Cart)=    0.0348512609 RMS(Int)=    0.0695521323
 Iter  73:  RMS(Cart)=    0.0337928418 RMS(Int)=    0.0675036088
 Iter  74:  RMS(Cart)=    0.0327824902 RMS(Int)=    0.0655428760
 Iter  75:  RMS(Cart)=    0.0318171213 RMS(Int)=    0.0636649141
 Iter  76:  RMS(Cart)=    0.0308939014 RMS(Int)=    0.0618650047
 Iter  77:  RMS(Cart)=    0.0300102226 RMS(Int)=    0.0601387238
 Iter  78:  RMS(Cart)=    0.0291636813 RMS(Int)=    0.0584819303
 Iter  79:  RMS(Cart)=    0.0283520591 RMS(Int)=    0.0568907528
 Iter  80:  RMS(Cart)=    0.0275733062 RMS(Int)=    0.0553615750
 Iter  81:  RMS(Cart)=    0.0268255261 RMS(Int)=    0.0538910200
 Iter  82:  RMS(Cart)=    0.0261069624 RMS(Int)=    0.0524759359
 Iter  83:  RMS(Cart)=    0.0254159867 RMS(Int)=    0.0511133796
 Iter  84:  RMS(Cart)=    0.0247510874 RMS(Int)=    0.0498006036
 Iter  85:  RMS(Cart)=    0.0241108603 RMS(Int)=    0.0485350412
 Iter  86:  RMS(Cart)=    0.0234939991 RMS(Int)=    0.0473142940
 Iter  87:  RMS(Cart)=    0.0228992876 RMS(Int)=    0.0461361192
 Iter  88:  RMS(Cart)=    0.0223255924 RMS(Int)=    0.0449984189
 Iter  89:  RMS(Cart)=    0.0217718560 RMS(Int)=    0.0438992286
 Iter  90:  RMS(Cart)=    0.0212370907 RMS(Int)=    0.0428367080
 Iter  91:  RMS(Cart)=    0.0207203731 RMS(Int)=    0.0418091314
 Iter  92:  RMS(Cart)=    0.0202208393 RMS(Int)=    0.0408148798
 Iter  93:  RMS(Cart)=    0.0197376798 RMS(Int)=    0.0398524325
 Iter  94:  RMS(Cart)=    0.0192701359 RMS(Int)=    0.0389203605
 Iter  95:  RMS(Cart)=    0.0188174952 RMS(Int)=    0.0380173195
 Iter  96:  RMS(Cart)=    0.0183790886 RMS(Int)=    0.0371420440
 Iter  97:  RMS(Cart)=    0.0179542872 RMS(Int)=    0.0362933418
 Iter  98:  RMS(Cart)=    0.0175424987 RMS(Int)=    0.0354700886
 Iter  99:  RMS(Cart)=    0.0171431656 RMS(Int)=    0.0346712234
 RMS(Cart) too big - taking linear step, building new B-matrix and trying again
Decreasing the constraint accuracy, check your results carefully!
Imposing constraints:
 Iter   0:  RMS(Cart)=    0.4622968174 RMS(Int)=    1.3225257966
 Iter   1:  RMS(Cart)=    0.2465311398 RMS(Int)=    1.2491654790
 Iter   2:  RMS(Cart)=    0.1379578901 RMS(Int)=    1.1886394420
 Iter   3:  RMS(Cart)=    0.0846598040 RMS(Int)=    1.1335426483
 Iter   4:  RMS(Cart)=    0.0667235037 RMS(Int)=    1.0814867338
 Iter   5:  RMS(Cart)=    0.0682461093 RMS(Int)=    1.0316342726
 Iter   6:  RMS(Cart)=    0.0752546465 RMS(Int)=    0.9836954954
 Iter   7:  RMS(Cart)=    0.0819347968 RMS(Int)=    0.9375874382
 Iter   8:  RMS(Cart)=    0.0869329524 RMS(Int)=    0.8933025032
 Iter   9:  RMS(Cart)=    0.0902368350 RMS(Int)=    0.8508534965
 Iter  10:  RMS(Cart)=    0.0921541406 RMS(Int)=    0.8102501477
 Iter  11:  RMS(Cart)=    0.0930251444 RMS(Int)=    0.7714898240
 Iter  12:  RMS(Cart)=    0.0931452357 RMS(Int)=    0.7345549922
 Iter  13:  RMS(Cart)=    0.0927493865 RMS(Int)=    0.6994138891
 Iter  14:  RMS(Cart)=    0.0920156812 RMS(Int)=    0.6660225956
 Iter  15:  RMS(Cart)=    0.0910743838 RMS(Int)=    0.6343275658
 Iter  16:  RMS(Cart)=    0.0900178654 RMS(Int)=    0.6042681278
 Iter  17:  RMS(Cart)=    0.0889096655 RMS(Int)=    0.5757787278
 Iter  18:  RMS(Cart)=    0.0877920921 RMS(Int)=    0.5487908330
 Iter  19:  RMS(Cart)=    0.0866922593 RMS(Int)=    0.5232344881
 Iter  20:  RMS(Cart)=    0.0856266900 RMS(Int)=    0.4990395502
 Iter  21:  RMS(Cart)=    0.0846047101 RMS(Int)=    0.4761366470
 Iter  22:  RMS(Cart)=    0.0836308797 RMS(Int)=    0.4544579011
 Iter  23:  RMS(Cart)=    0.0827066921 RMS(Int)=    0.4339374633
 Iter  24:  RMS(Cart)=    0.0818317340 RMS(Int)=    0.4145118895
 Iter  25:  RMS(Cart)=    0.0810044612 RMS(Int)=    0.3961203939
 Iter  26:  RMS(Cart)=    0.0802227063 RMS(Int)=    0.3787050033
 Iter  27:  RMS(Cart)=    0.0794840033 RMS(Int)=    0.3622106336
 Iter  28:  RMS(Cart)=    0.0787857896 RMS(Int)=    0.3465851074
 Iter  29:  RMS(Cart)=    0.0781255280 RMS(Int)=    0.3317791253
 Iter  30:  RMS(Cart)=    0.0775007761 RMS(Int)=    0.3177462036
 Iter  31:  RMS(Cart)=    0.0769092231 RMS(Int)=    0.3044425869
 Iter  32:  RMS(Cart)=    0.0763487054 RMS(Int)=    0.2918271441
 Iter  33:  RMS(Cart)=    0.0758172111 RMS(Int)=    0.2798612524
 Iter  34:  RMS(Cart)=    0.0753128757 RMS(Int)=    0.2685086750
 Iter  35:  RMS(Cart)=    0.0748339758 RMS(Int)=    0.2577354347
 Iter  36:  RMS(Cart)=    0.0743789191 RMS(Int)=    0.2475096883
 Iter  37:  RMS(Cart)=    0.0739462348 RMS(Int)=    0.2378016010
 Iter  38:  RMS(Cart)=    0.0735345640 RMS(Int)=    0.2285832251
 Iter  39:  RMS(Cart)=    0.0731426501 RMS(Int)=    0.2198283815
 Iter  40:  RMS(Cart)=    0.0727693302 RMS(Int)=    0.2115125470
 Iter  41:  RMS(Cart)=    0.0724135267 RMS(Int)=    0.2036127463
 Iter  42:  RMS(Cart)=    0.0720742405 RMS(Int)=    0.1961074491
 Iter  43:  RMS(Cart)=    0.0717505438 RMS(Int)=    0.1889764732
 Iter  44:  RMS(Cart)=    0.0714415744 RMS(Int)=    0.1822008931
 Iter  45:  RMS(Cart)=    0.0711465302 RMS(Int)=    0.1757629536
 Iter  46:  RMS(Cart)=    0.0708646642 RMS(Int)=    0.1696459887
 Iter  47:  RMS(Cart)=    0.0705952802 RMS(Int)=    0.1638343462
 Iter  48:  RMS(Cart)=    0.0703377288 RMS(Int)=    0.1583133157
 Iter  49:  RMS(Cart)=    0.0700914036 RMS(Int)=    0.1530690624
 Iter  50:  RMS(Cart)=    0.0698557378 RMS(Int)=    0.1480885646
 Iter  51:  RMS(Cart)=    0.0696302018 RMS(Int)=    0.1433595555
 Iter  52:  RMS(Cart)=    0.0694142998 RMS(Int)=    0.1388704680
 Iter  53:  RMS(Cart)=    0.0692075678 RMS(Int)=    0.1346103846
 Iter  54:  RMS(Cart)=    0.0690095709 RMS(Int)=    0.1305689893
 Iter  55:  RMS(Cart)=    0.0688199019 RMS(Int)=    0.1267365230
 Iter  56:  RMS(Cart)=    0.0686381785 RMS(Int)=    0.1231037425
 Iter  57:  RMS(Cart)=    0.0670895124 RMS(Int)=    0.1196138650
 Iter  58:  RMS(Cart)=    0.0641825606 RMS(Int)=    0.1162102866
 Iter  59:  RMS(Cart)=    0.0615896391 RMS(Int)=    0.1129096985
 Iter  60:  RMS(Cart)=    0.0592466800 RMS(Int)=    0.1097229129
 Iter  61:  RMS(Cart)=    0.0571078941 RMS(Int)=    0.1066560468
 Iter  62:  RMS(Cart)=    0.0551397175 RMS(Int)=    0.1037116323
 Iter  63:  RMS(Cart)=    0.0533169050 RMS(Int)=    0.1008895564
 Iter  64:  RMS(Cart)=    0.0516199828 RMS(Int)=    0.0981878146
 Iter  65:  RMS(Cart)=    0.0500335654 RMS(Int)=    0.0956030973
 Iter  66:  RMS(Cart)=    0.0485452272 RMS(Int)=    0.0931312339
 Iter  67:  RMS(Cart)=    0.0471447334 RMS(Int)=    0.0907675252
 Iter  68:  RMS(Cart)=    0.0458235076 RMS(Int)=    0.0885069876
 Iter  69:  RMS(Cart)=    0.0445742545 RMS(Int)=    0.0863445287
 Iter  70:  RMS(Cart)=    0.0433906898 RMS(Int)=    0.0842750731
 Iter  71:  RMS(Cart)=    0.0422673413 RMS(Int)=    0.0822936491
 Iter  72:  RMS(Cart)=    0.0411994004 RMS(Int)=    0.0803954467
 Iter  73:  RMS(Cart)=    0.0401826090 RMS(Int)=    0.0785758549
 Iter  74:  RMS(Cart)=    0.0392131716 RMS(Int)=    0.0768304839
 Iter  75:  RMS(Cart)=    0.0382876864 RMS(Int)=    0.0751551755
 Iter  76:  RMS(Cart)=    0.0374030893 RMS(Int)=    0.0735460065
 Iter  77:  RMS(Cart)=    0.0365566095 RMS(Int)=    0.0719992857
 Iter  78:  RMS(Cart)=    0.0357457315 RMS(Int)=    0.0705115476
 Iter  79:  RMS(Cart)=    0.0349681647 RMS(Int)=    0.0690795440
 Iter  80:  RMS(Cart)=    0.0342218170 RMS(Int)=    0.0677002332
 Iter  81:  RMS(Cart)=    0.0335047729 RMS(Int)=    0.0663707691
 Iter  82:  RMS(Cart)=    0.0328152737 RMS(Int)=    0.0650884899
 Iter  83:  RMS(Cart)=    0.0321517023 RMS(Int)=    0.0638509059
 Iter  84:  RMS(Cart)=    0.0315125675 RMS(Int)=    0.0626556892
 Iter  85:  RMS(Cart)=    0.0308964927 RMS(Int)=    0.0615006620
 Iter  86:  RMS(Cart)=    0.0303022044 RMS(Int)=    0.0603837867
 Iter  87:  RMS(Cart)=    0.0297285224 RMS(Int)=    0.0593031562
 Iter  88:  RMS(Cart)=    0.0291743515 RMS(Int)=    0.0582569841
 Iter  89:  RMS(Cart)=    0.0286386739 RMS(Int)=    0.0572435968
 Iter  90:  RMS(Cart)=    0.0281205423 RMS(Int)=    0.0562614248
 Iter  91:  RMS(Cart)=    0.0276190739 RMS(Int)=    0.0553089957
 Iter  92:  RMS(Cart)=    0.0271334447 RMS(Int)=    0.0543849270
 Iter  93:  RMS(Cart)=    0.0266628853 RMS(Int)=    0.0534879199
 Iter  94:  RMS(Cart)=    0.0262066755 RMS(Int)=    0.0526167532
 Iter  95:  RMS(Cart)=    0.0257641412 RMS(Int)=    0.0517702777
 Iter  96:  RMS(Cart)=    0.0253346503 RMS(Int)=    0.0509474115
 Iter  97:  RMS(Cart)=    0.0249176098 RMS(Int)=    0.0501471350
 Iter  98:  RMS(Cart)=    0.0245124624 RMS(Int)=    0.0493684868
 Iter  99:  RMS(Cart)=    0.0241186841 RMS(Int)=    0.0486105594
 RMS(Cart) too big - taking linear step, building new B-matrix and trying again
Decreasing the constraint accuracy, check your results carefully!
Imposing constraints:
 Iter   0:  RMS(Cart)=    0.2511734139 RMS(Int)=    1.2465602188
 Iter   1:  RMS(Cart)=    0.1256531809 RMS(Int)=    1.1856974474
 Iter   2:  RMS(Cart)=    0.0725850417 RMS(Int)=    1.1306169608
 Iter   3:  RMS(Cart)=    0.0653339742 RMS(Int)=    1.0784858353
 Iter   4:  RMS(Cart)=    0.0739073784 RMS(Int)=    1.0284190384
 Iter   5:  RMS(Cart)=    0.0826197228 RMS(Int)=    0.9801641720
 Iter   6:  RMS(Cart)=    0.0886896534 RMS(Int)=    0.9336811932
 Iter   7:  RMS(Cart)=    0.0924066434 RMS(Int)=    0.8889945135
 Iter   8:  RMS(Cart)=    0.0944437360 RMS(Int)=    0.8461381250
 Iter   9:  RMS(Cart)=    0.0953657121 RMS(Int)=    0.8051355679
 Iter  10:  RMS(Cart)=    0.0955758626 RMS(Int)=    0.7659937411
 Iter  11:  RMS(Cart)=    0.0953453492 RMS(Int)=    0.7287023420
 Iter  12:  RMS(Cart)=    0.0948507341 RMS(Int)=    0.6932355364
 Iter  13:  RMS(Cart)=    0.0942045135 RMS(Int)=    0.6595544087
 Iter  14:  RMS(Cart)=    0.0934771319 RMS(Int)=    0.6276095576
 Iter  15:  RMS(Cart)=    0.0927120064 RMS(Int)=    0.5973435593
 Iter  16:  RMS(Cart)=    0.0919354550 RMS(Int)=    0.5686931795
 Iter  17:  RMS(Cart)=    0.0911631116 RMS(Int)=    0.5415912918
 Iter  18:  RMS(Cart)=    0.0904040064 RMS(Int)=    0.5159684964
 Iter  19:  RMS(Cart)=    0.0896631265 RMS(Int)=    0.4917544551
 Iter  20:  RMS(Cart)=    0.0889430090 RMS(Int)=    0.4688789665
 Iter  21:  RMS(Cart)=    0.0882447231 RMS(Int)=    0.4472728114
 Iter  22:  RMS(Cart)=    0.0875684716 RMS(Int)=    0.4268684004
 Iter  23:  RMS(Cart)=    0.0869139579 RMS(Int)=    0.4076002537
 Iter  24:  RMS(Cart)=    0.0862806072 RMS(Int)=    0.3894053419
 Iter  25:  RMS(Cart)=    0.0856677005 RMS(Int)=    0.3722233124
 Iter  26:  RMS(Cart)=    0.0850744535 RMS(Int)=    0.3559966250
 Iter  27:  RMS(Cart)=    0.0845000636 RMS(Int)=    0.3406706152
 Iter  28:  RMS(Cart)=    0.0839437362 RMS(Int)=    0.3261935008
 Iter  29:  RMS(Cart)=    0.0834047003 RMS(Int)=    0.3125163464
 Iter  30:  RMS(Cart)=    0.0828822154 RMS(Int)=    0.2995929956
 Iter  31:  RMS(Cart)=    0.0823755756 RMS(Int)=    0.2873799807
 Iter  32:  RMS(Cart)=    0.0818841103 RMS(Int)=    0.2758364159
 Iter  33:  RMS(Cart)=    0.0814071838 RMS(Int)=    0.2649238811
 Iter  34:  RMS(Cart)=    0.0809441939 RMS(Int)=    0.2546062984
 Iter  35:  RMS(Cart)=    0.0804945707 RMS(Int)=    0.2448498079
 Iter  36:  RMS(Cart)=    0.0800577744 RMS(Int)=    0.2356226414
 Iter  37:  RMS(Cart)=    0.0796332939 RMS(Int)=    0.2268949998
 Iter  38:  RMS(Cart)=    0.0792206447 RMS(Int)=    0.2186389329
 Iter  39:  RMS(Cart)=    0.0788193673 RMS(Int)=    0.2108282231
 Iter  40:  RMS(Cart)=    0.0784290258 RMS(Int)=    0.2034382749
 Iter  41:  RMS(Cart)=    0.0780492062 RMS(Int)=    0.1964460093
 Iter  42:  RMS(Cart)=    0.0776795150 RMS(Int)=    0.1898297634
 Iter  43:  RMS(Cart)=    0.0773195783 RMS(Int)=    0.1835691961
 Iter  44:  RMS(Cart)=    0.0769690402 RMS(Int)=    0.1776451993
 Iter  45:  RMS(Cart)=    0.0766275619 RMS(Int)=    0.1720398143
 Iter  46:  RMS(Cart)=    0.0762948207 RMS(Int)=    0.1667361539
 Iter  47:  RMS(Cart)=    0.0759705090 RMS(Int)=    0.1617183295
 Iter  48:  RMS(Cart)=    0.0756543337 RMS(Int)=    0.1569713831
 Iter  49:  RMS(Cart)=    0.0753460151 RMS(Int)=    0.1524812238
 Iter  50:  RMS(Cart)=    0.0750452861 RMS(Int)=    0.1482345690
 Iter  51:  RMS(Cart)=    0.0747518921 RMS(Int)=    0.1442188897
 Iter  52:  RMS(Cart)=    0.0744655895 RMS(Int)=    0.1404223598
 Iter  53:  RMS(Cart)=    0.0741861459 RMS(Int)=    0.1368338091
 Iter  54:  RMS(Cart)=    0.0739133391 RMS(Int)=    0.1334426797
 Iter  55:  RMS(Cart)=    0.0736469568 RMS(Int)=    0.1302389855
 Iter  56:  RMS(Cart)=    0.0733867958 RMS(Int)=    0.1272132756
 Iter  57:  RMS(Cart)=    0.0731326620 RMS(Int)=    0.1243565991
 Iter  58:  RMS(Cart)=    0.0728843697 RMS(Int)=    0.1216604741
 Iter  59:  RMS(Cart)=    0.0726417412 RMS(Int)=    0.1191168579
 Iter  60:  RMS(Cart)=    0.0704135426 RMS(Int)=    0.1166856970
 Iter  61:  RMS(Cart)=    0.0681583085 RMS(Int)=    0.1143603645
 Iter  62:  RMS(Cart)=    0.0661088321 RMS(Int)=    0.1121386071
 Iter  63:  RMS(Cart)=    0.0642347862 RMS(Int)=    0.1100173944
 Iter  64:  RMS(Cart)=    0.0625119486 RMS(Int)=    0.1079931559
 Iter  65:  RMS(Cart)=    0.0609207103 RMS(Int)=    0.1060619749
 Iter  66:  RMS(Cart)=    0.0594449978 RMS(Int)=    0.1042197414
 Iter  67:  RMS(Cart)=    0.0580714822 RMS(Int)=    0.1024622683
 Iter  68:  RMS(Cart)=    0.0567889935 RMS(Int)=    0.1007853781
 Iter  69:  RMS(Cart)=    0.0555880797 RMS(Int)=    0.0991849654
 Iter  70:  RMS(Cart)=    0.0544606710 RMS(Int)=    0.0976570407
 Iter  71:  RMS(Cart)=    0.0533998218 RMS(Int)=    0.0961977608
 Iter  72:  RMS(Cart)=    0.0523995102 RMS(Int)=    0.0948034466
 Iter  73:  RMS(Cart)=    0.0514544791 RMS(Int)=    0.0934705943
 Iter  74:  RMS(Cart)=    0.0505601114 RMS(Int)=    0.0921958799
 Iter  75:  RMS(Cart)=    0.0497123288 RMS(Int)=    0.0909761593
 Iter  76:  RMS(Cart)=    0.0489075105 RMS(Int)=    0.0898084653
 Iter  77:  RMS(Cart)=    0.0481424267 RMS(Int)=    0.0886900026
 Iter  78:  RMS(Cart)=    0.0474141836 RMS(Int)=    0.0876181414
 Iter  79:  RMS(Cart)=    0.0467201785 RMS(Int)=    0.0865904097
 Iter  80:  RMS(Cart)=    0.0460580615 RMS(Int)=    0.0856044852
 Iter  81:  RMS(Cart)=    0.0454257038 RMS(Int)=    0.0846581877
 Iter  82:  RMS(Cart)=    0.0448211710 RMS(Int)=    0.0837494702
 Iter  83:  RMS(Cart)=    0.0442427000 RMS(Int)=    0.0828764113
 Iter  84:  RMS(Cart)=    0.0436886794 RMS(Int)=    0.0820372069
 Iter  85:  RMS(Cart)=    0.0431576329 RMS(Int)=    0.0812301633
 Iter  86:  RMS(Cart)=    0.0426482045 RMS(Int)=    0.0804536895
 Iter  87:  RMS(Cart)=    0.0421591462 RMS(Int)=    0.0797062907
 Iter  88:  RMS(Cart)=    0.0416893067 RMS(Int)=    0.0789865619
 Iter  89:  RMS(Cart)=    0.0412376220 RMS(Int)=    0.0782931816
 Iter  90:  RMS(Cart)=    0.0408031068 RMS(Int)=    0.0776249066
 Iter  91:  RMS(Cart)=    0.0403848473 RMS(Int)=    0.0769805663
 Iter  92:  RMS(Cart)=    0.0399819943 RMS(Int)=    0.0763590584
 Iter  93:  RMS(Cart)=    0.0395937577 RMS(Int)=    0.0757593438
 Iter  94:  RMS(Cart)=    0.0392194009 RMS(Int)=    0.0751804423
 Iter  95:  RMS(Cart)=    0.0388582366 RMS(Int)=    0.0746214293
 Iter  96:  RMS(Cart)=    0.0385096224 RMS(Int)=    0.0740814315
 Iter  97:  RMS(Cart)=    0.0381729570 RMS(Int)=    0.0735596238
 Iter  98:  RMS(Cart)=    0.0378476770 RMS(Int)=    0.0730552261
 Iter  99:  RMS(Cart)=    0.0375332541 RMS(Int)=    0.0725675002
 RMS(Cart) too big - taking linear step, building new B-matrix and trying again
Decreasing the constraint accuracy, check your results carefully!
Imposing constraints:
 Iter   0:  RMS(Cart)=    0.1263473958 RMS(Int)=    1.1849380580
 Iter   1:  RMS(Cart)=    0.0699876844 RMS(Int)=    1.1294042057
 Iter   2:  RMS(Cart)=    0.0658759848 RMS(Int)=    1.0767818182
 Iter   3:  RMS(Cart)=    0.0765941194 RMS(Int)=    1.0261271820
 Iter   4:  RMS(Cart)=    0.0858213021 RMS(Int)=    0.9772010479
 Iter   5:  RMS(Cart)=    0.0918002163 RMS(Int)=    0.9299886282
 Iter   6:  RMS(Cart)=    0.0953095487 RMS(Int)=    0.8845380677
 Iter   7:  RMS(Cart)=    0.0972037655 RMS(Int)=    0.8409037279
 Iter   8:  RMS(Cart)=    0.0980949461 RMS(Int)=    0.7991265675
 Iter   9:  RMS(Cart)=    0.0983794711 RMS(Int)=    0.7592283874
 Iter  10:  RMS(Cart)=    0.0983038817 RMS(Int)=    0.7212114602
 Iter  11:  RMS(Cart)=    0.0980183342 RMS(Int)=    0.6850602785
 Iter  12:  RMS(Cart)=    0.0976131189 RMS(Int)=    0.6507440919
 Iter  13:  RMS(Cart)=    0.0971420582 RMS(Int)=    0.6182196436
 Iter  14:  RMS(Cart)=    0.0966370256 RMS(Int)=    0.5874338298
 Iter  15:  RMS(Cart)=    0.0961167854 RMS(Int)=    0.5583261412
 Iter  16:  RMS(Cart)=    0.0955923100 RMS(Int)=    0.5308308230
 Iter  17:  RMS(Cart)=    0.0950699549 RMS(Int)=    0.5048787284
 Iter  18:  RMS(Cart)=    0.0945533439 RMS(Int)=    0.4803988707
 Iter  19:  RMS(Cart)=    0.0940444872 RMS(Int)=    0.4573196906
 Iter  20:  RMS(Cart)=    0.0935444423 RMS(Int)=    0.4355700694
 Iter  21:  RMS(Cart)=    0.0930537057 RMS(Int)=    0.4150801160
 Iter  22:  RMS(Cart)=    0.0925724448 RMS(Int)=    0.3957817642
 Iter  23:  RMS(Cart)=    0.0921006359 RMS(Int)=    0.3776092075
 Iter  24:  RMS(Cart)=    0.0916381456 RMS(Int)=    0.3604992028
 Iter  25:  RMS(Cart)=    0.0911847798 RMS(Int)=    0.3443912661
 Iter  26:  RMS(Cart)=    0.0907403129 RMS(Int)=    0.3292277824
 Iter  27:  RMS(Cart)=    0.0903045043 RMS(Int)=    0.3149540495
 Iter  28:  RMS(Cart)=    0.0898771095 RMS(Int)=    0.3015182685
 Iter  29:  RMS(Cart)=    0.0894578853 RMS(Int)=    0.2888714972
 Iter  30:  RMS(Cart)=    0.0890465934 RMS(Int)=    0.2769675729
 Iter  31:  RMS(Cart)=    0.0886430024 RMS(Int)=    0.2657630160
 Iter  32:  RMS(Cart)=    0.0882468885 RMS(Int)=    0.2552169190
 Iter  33:  RMS(Cart)=    0.0878580361 RMS(Int)=    0.2452908274
 Iter  34:  RMS(Cart)=    0.0874762375 RMS(Int)=    0.2359486156
 Iter  35:  RMS(Cart)=    0.0871012932 RMS(Int)=    0.2271563610
 Iter  36:  RMS(Cart)=    0.0867330111 RMS(Int)=    0.2188822193
 Iter  37:  RMS(Cart)=    0.0863712067 RMS(Int)=    0.2110963019
 Iter  38:  RMS(Cart)=    0.0860157025 RMS(Int)=    0.2037705570
 Iter  39:  RMS(Cart)=    0.0856663278 RMS(Int)=    0.1968786558
 Iter  40:  RMS(Cart)=    0.0853229180 RMS(Int)=    0.1903958826
 Iter  41:  RMS(Cart)=    0.0849853148 RMS(Int)=    0.1842990319
 Iter  42:  RMS(Cart)=    0.0846533658 RMS(Int)=    0.1785663100
 Iter  43:  RMS(Cart)=    0.0843269237 RMS(Int)=    0.1731772425
 Iter  44:  RMS(Cart)=    0.0840058466 RMS(Int)=    0.1681125880
 Iter  45:  RMS(Cart)=    0.0836899977 RMS(Int)=    0.1633542564
 Iter  46:  RMS(Cart)=    0.0833792446 RMS(Int)=    0.1588852334
 Iter  47:  RMS(Cart)=    0.0830734596 RMS(Int)=    0.1546895092
 Iter  48:  RMS(Cart)=    0.0827725193 RMS(Int)=    0.1507520129
 Iter  49:  RMS(Cart)=    0.0824763043 RMS(Int)=    0.1470585509
 Iter  50:  RMS(Cart)=    0.0821846990 RMS(Int)=    0.1435957501
 Iter  51:  RMS(Cart)=    0.0818975918 RMS(Int)=    0.1403510044
 Iter  52:  RMS(Cart)=    0.0816148746 RMS(Int)=    0.1373124263
 Iter  53:  RMS(Cart)=    0.0813364426 RMS(Int)=    0.1344688008
 Iter  54:  RMS(Cart)=    0.0810621943 RMS(Int)=    0.1318095431
 Iter  55:  RMS(Cart)=    0.0807920316 RMS(Int)=    0.1293246598
 Iter  56:  RMS(Cart)=    0.0805258593 RMS(Int)=    0.1270047122
 Iter  57:  RMS(Cart)=    0.0802635849 RMS(Int)=    0.1248407828
 Iter  58:  RMS(Cart)=    0.0800051191 RMS(Int)=    0.1228244437
 Iter  59:  RMS(Cart)=    0.0797503751 RMS(Int)=    0.1209477278
 Iter  60:  RMS(Cart)=    0.0794992686 RMS(Int)=    0.1192031018
 Iter  61:  RMS(Cart)=    0.0792517182 RMS(Int)=    0.1175834407
 Iter  62:  RMS(Cart)=    0.0781155417 RMS(Int)=    0.1160764142
 Iter  63:  RMS(Cart)=    0.0765307446 RMS(Int)=    0.1146711044
 Iter  64:  RMS(Cart)=    0.0750815135 RMS(Int)=    0.1133610818
 Iter  65:  RMS(Cart)=    0.0737524739 RMS(Int)=    0.1121403688
 Iter  66:  RMS(Cart)=    0.0725306179 RMS(Int)=    0.1110034129
 Iter  67:  RMS(Cart)=    0.0714048544 RMS(Int)=    0.1099450596
 Iter  68:  RMS(Cart)=    0.0703656591 RMS(Int)=    0.1089605266
 Iter  69:  RMS(Cart)=    0.0694047993 RMS(Int)=    0.1080453786
 Iter  70:  RMS(Cart)=    0.0685151152 RMS(Int)=    0.1071955025
 Iter  71:  RMS(Cart)=    0.0676903451 RMS(Int)=    0.1064070840
 Iter  72:  RMS(Cart)=    0.0669249839 RMS(Int)=    0.1056765855
 Iter  73:  RMS(Cart)=    0.0662141684 RMS(Int)=    0.1050007246
 Iter  74:  RMS(Cart)=    0.0655535827 RMS(Int)=    0.1043764550
 Iter  75:  RMS(Cart)=    0.0649393808 RMS(Int)=    0.1038009472
 Iter  76:  RMS(Cart)=    0.0643681214 RMS(Int)=    0.1032715721
 Iter  77:  RMS(Cart)=    0.0638367146 RMS(Int)=    0.1027858851
 Iter  78:  RMS(Cart)=    0.0633423757 RMS(Int)=    0.1023416109
 Iter  79:  RMS(Cart)=    0.0628825872 RMS(Int)=    0.1019366307
 Iter  80:  RMS(Cart)=    0.0624550663 RMS(Int)=    0.1015689693
 Iter  81:  RMS(Cart)=    0.0620577366 RMS(Int)=    0.1012367841
 Iter  82:  RMS(Cart)=    0.0616887047 RMS(Int)=    0.1009383544
 Iter  83:  RMS(Cart)=    0.0613462389 RMS(Int)=    0.1006720720
 Iter  84:  RMS(Cart)=    0.0610287524 RMS(Int)=    0.1004364322
 Iter  85:  RMS(Cart)=    0.0607347868 RMS(Int)=    0.1002300260
 Iter  86:  RMS(Cart)=    0.0604629992 RMS(Int)=    0.1000515326
 Iter  87:  RMS(Cart)=    0.0602121505 RMS(Int)=    0.0998997128
 Iter  88:  RMS(Cart)=    0.0599810945 RMS(Int)=    0.0997734024
 Iter  89:  RMS(Cart)=    0.0597687693 RMS(Int)=    0.0996715071
 Iter  90:  RMS(Cart)=    0.0595741892 RMS(Int)=    0.0995929971
 Iter  91:  RMS(Cart)=    0.0593964371 RMS(Int)=    0.0995369018
 Iter  92:  RMS(Cart)=    0.0592346588 RMS(Int)=    0.0995023064
 Iter  93:  RMS(Cart)=    0.0590880571 RMS(Int)=    0.0994883470
 Iter  94:  RMS(Cart)=    0.0589558866 RMS(Int)=    0.0994942074
 Iter  95:  RMS(Cart)=    0.0588374494 RMS(Int)=    0.0995191156
 Iter  96:  RMS(Cart)=    0.0587320910 RMS(Int)=    0.0995623405
 Iter  97:  RMS(Cart)=    0.0586391969 RMS(Int)=    0.0996231892
 Iter  98:  RMS(Cart)=    0.0585581888 RMS(Int)=    0.0997010043
 Iter  99:  RMS(Cart)=    0.0584885224 RMS(Int)=    0.0997951615
 RMS(Cart) too big - taking linear step, building new B-matrix and trying again
Imposing constraints:
 Iter   0:  RMS(Cart)=    0.0698917989 RMS(Int)=    1.1288212469
 Iter   1:  RMS(Cart)=    0.0663068812 RMS(Int)=    1.0755425788
 Iter   2:  RMS(Cart)=    0.0779695886 RMS(Int)=    1.0241182147
 Iter   3:  RMS(Cart)=    0.0876051012 RMS(Int)=    0.9743222642
 Iter   4:  RMS(Cart)=    0.0937390811 RMS(Int)=    0.9261649827
 Iter   5:  RMS(Cart)=    0.0973347313 RMS(Int)=    0.8797203235
 Iter   6:  RMS(Cart)=    0.0993218695 RMS(Int)=    0.8350666068
 Iter   7:  RMS(Cart)=    0.1003346266 RMS(Int)=    0.7922662410
 Iter   8:  RMS(Cart)=    0.1007693738 RMS(Int)=    0.7513597291
 Iter   9:  RMS(Cart)=    0.1008654241 RMS(Int)=    0.7123651959
 Iter  10:  RMS(Cart)=    0.1007648169 RMS(Int)=    0.6752801502
 Iter  11:  RMS(Cart)=    0.1005510824 RMS(Int)=    0.6400841431
 Iter  12:  RMS(Cart)=    0.1002731005 RMS(Int)=    0.6067417160
 Iter  13:  RMS(Cart)=    0.0999594091 RMS(Int)=    0.5752053264
 Iter  14:  RMS(Cart)=    0.0996266583 RMS(Int)=    0.5454180849
 Iter  15:  RMS(Cart)=    0.0992845643 RMS(Int)=    0.5173162128
 Iter  16:  RMS(Cart)=    0.0989387985 RMS(Int)=    0.4908311817
 Iter  17:  RMS(Cart)=    0.0985926691 RMS(Int)=    0.4658915259
 Iter  18:  RMS(Cart)=    0.0982480994 RMS(Int)=    0.4424243432
 Iter  19:  RMS(Cart)=    0.0979061992 RMS(Int)=    0.4203565077
 Iter  20:  RMS(Cart)=    0.0975675976 RMS(Int)=    0.3996156281
 Iter  21:  RMS(Cart)=    0.0972326397 RMS(Int)=    0.3801307860
 Iter  22:  RMS(Cart)=    0.0969015013 RMS(Int)=    0.3618330873
 Iter  23:  RMS(Cart)=    0.0965742577 RMS(Int)=    0.3446560588
 Iter  24:  RMS(Cart)=    0.0962509245 RMS(Int)=    0.3285359176
 Iter  25:  RMS(Cart)=    0.0959314818 RMS(Int)=    0.3134117401
 Iter  26:  RMS(Cart)=    0.0956158891 RMS(Int)=    0.2992255483
 Iter  27:  RMS(Cart)=    0.0953040941 RMS(Int)=    0.2859223355
 Iter  28:  RMS(Cart)=    0.0949960382 RMS(Int)=    0.2734500426
 Iter  29:  RMS(Cart)=    0.0946916595 RMS(Int)=    0.2617594989
 Iter  30:  RMS(Cart)=    0.0943908953 RMS(Int)=    0.2508043372
 Iter  31:  RMS(Cart)=    0.0940936828 RMS(Int)=    0.2405408902
 Iter  32:  RMS(Cart)=    0.0937999599 RMS(Int)=    0.2309280751
 Iter  33:  RMS(Cart)=    0.0935096658 RMS(Int)=    0.2219272704
 Iter  34:  RMS(Cart)=    0.0932227412 RMS(Int)=    0.2135021901
 Iter  35:  RMS(Cart)=    0.0929391283 RMS(Int)=    0.2056187564
 Iter  36:  RMS(Cart)=    0.0926587707 RMS(Int)=    0.1982449740
 Iter  37:  RMS(Cart)=    0.0923816137 RMS(Int)=    0.1913508074
 Iter  38:  RMS(Cart)=    0.0921076041 RMS(Int)=    0.1849080628
 Iter  39:  RMS(Cart)=    0.0918366902 RMS(Int)=    0.1788902738
 Iter  40:  RMS(Cart)=    0.0915688215 RMS(Int)=    0.1732725933
 Iter  41:  RMS(Cart)=    0.0913039491 RMS(Int)=    0.1680316907
 Iter  42:  RMS(Cart)=    0.0910420252 RMS(Int)=    0.1631456547
 Iter  43:  RMS(Cart)=    0.0907830033 RMS(Int)=    0.1585939020
 Iter  44:  RMS(Cart)=    0.0905268381 RMS(Int)=    0.1543570916
 Iter  45:  RMS(Cart)=    0.0902734854 RMS(Int)=    0.1504170443
 Iter  46:  RMS(Cart)=    0.0900229018 RMS(Int)=    0.1467566677
 Iter  47:  RMS(Cart)=    0.0897750453 RMS(Int)=    0.1433598861
 Iter  48:  RMS(Cart)=    0.0895298746 RMS(Int)=    0.1402115756
 Iter  49:  RMS(Cart)=    0.0892873494 RMS(Int)=    0.1372975025
 Iter  50:  RMS(Cart)=    0.0890474302 RMS(Int)=    0.1346042675
 Iter  51:  RMS(Cart)=    0.0888100784 RMS(Int)=    0.1321192525
 Iter  52:  RMS(Cart)=    0.0885752561 RMS(Int)=    0.1298305718
 Iter  53:  RMS(Cart)=    0.0883429263 RMS(Int)=    0.1277270264
 Iter  54:  RMS(Cart)=    0.0881130527 RMS(Int)=    0.1257980619
 Iter  55:  RMS(Cart)=    0.0878855996 RMS(Int)=    0.1240337287
 Iter  56:  RMS(Cart)=    0.0876605320 RMS(Int)=    0.1224246451
 Iter  57:  RMS(Cart)=    0.0874378157 RMS(Int)=    0.1209619636
 Iter  58:  RMS(Cart)=    0.0872174169 RMS(Int)=    0.1196373383
 Iter  59:  RMS(Cart)=    0.0869993025 RMS(Int)=    0.1184428953
 Iter  60:  RMS(Cart)=    0.0867834401 RMS(Int)=    0.1173712049
 Iter  61:  RMS(Cart)=    0.0865697976 RMS(Int)=    0.1164152552
 Iter  62:  RMS(Cart)=    0.0859962848 RMS(Int)=    0.1155673129
 Iter  63:  RMS(Cart)=    0.0850130582 RMS(Int)=    0.1148186680
 Iter  64:  RMS(Cart)=    0.0841331462 RMS(Int)=    0.1141624959
 Iter  65:  RMS(Cart)=    0.0833470693 RMS(Int)=    0.1135926350
 Iter  66:  RMS(Cart)=    0.0826465740 RMS(Int)=    0.1131035088
 Iter  67:  RMS(Cart)=    0.0820244360 RMS(Int)=    0.1126900591
 Iter  68:  RMS(Cart)=    0.0814743007 RMS(Int)=    0.1123476872
 Iter  69:  RMS(Cart)=    0.0809905531 RMS(Int)=    0.1120722039
 Iter  70:  RMS(Cart)=    0.0805682099 RMS(Int)=    0.1118597845
 Iter  71:  RMS(Cart)=    0.0802028307 RMS(Int)=    0.1117069304
 Iter  72:  RMS(Cart)=    0.0798904433 RMS(Int)=    0.1116104343
 Iter  73:  RMS(Cart)=    0.0796274818 RMS(Int)=    0.1115673507
 Iter  74:  RMS(Cart)=    0.0794107337 RMS(Int)=    0.1115749688
 Iter  75:  RMS(Cart)=    0.0792372952 RMS(Int)=    0.1116307891
 Iter  76:  RMS(Cart)=    0.0791045336 RMS(Int)=    0.1117325024
 Iter  77:  RMS(Cart)=    0.0790100544 RMS(Int)=    0.1118779711
 Iter  78:  RMS(Cart)=    0.0789516736 RMS(Int)=    0.1120652128
 Iter  79:  RMS(Cart)=    0.0789273933 RMS(Int)=    0.1122923855
 Iter  80:  RMS(Cart)=    0.0789353812 RMS(Int)=    0.1125577742
 Iter  81:  RMS(Cart)=    0.0789739523 RMS(Int)=    0.1128597790
 Iter  82:  RMS(Cart)=    0.0790415529 RMS(Int)=    0.1131969047
 Iter  83:  RMS(Cart)=    0.0791367469 RMS(Int)=    0.1135677510
 Iter  84:  RMS(Cart)=    0.0792582035 RMS(Int)=    0.1139710041
 Iter  85:  RMS(Cart)=    0.0794046870 RMS(Int)=    0.1144054287
 Iter  86:  RMS(Cart)=    0.0795750463 RMS(Int)=    0.1148698615
 Iter  87:  RMS(Cart)=    0.0797682077 RMS(Int)=    0.1153632042
 Iter  88:  RMS(Cart)=    0.0799831668 RMS(Int)=    0.1158844182
 Iter  89:  RMS(Cart)=    0.0802189819 RMS(Int)=    0.1164325194
 Iter  90:  RMS(Cart)=    0.0804747685 RMS(Int)=    0.1170065736
 Iter  91:  RMS(Cart)=    0.0807496936 RMS(Int)=    0.1176056918
 Iter  92:  RMS(Cart)=    0.0810429714 RMS(Int)=    0.1182290269
 Iter  93:  RMS(Cart)=    0.0812653212 RMS(Int)=    0.1188741069
 Iter  94:  RMS(Cart)=    0.0810796208 RMS(Int)=    0.1195321236
 Iter  95:  RMS(Cart)=    0.0808980255 RMS(Int)=    0.1202021934
 Iter  96:  RMS(Cart)=    0.0807202297 RMS(Int)=    0.1208834673
 Iter  97:  RMS(Cart)=    0.0805459620 RMS(Int)=    0.1215751314
 Iter  98:  RMS(Cart)=    0.0803749810 RMS(Int)=    0.1222764053
 Iter  99:  RMS(Cart)=    0.0802070712 RMS(Int)=    0.1229865423
 RMS(Cart) too big - taking linear step, building new B-matrix and trying again
Imposing constraints:
 Iter   0:  RMS(Cart)=    0.0667566166 RMS(Int)=    1.0748513261
 Iter   1:  RMS(Cart)=    0.0788595666 RMS(Int)=    1.0225918627
 Iter   2:  RMS(Cart)=    0.0887898225 RMS(Int)=    0.9718350674
 Iter   3:  RMS(Cart)=    0.0950964852 RMS(Int)=    0.9226189920
 Iter   4:  RMS(Cart)=    0.0988156205 RMS(Int)=    0.8750465448
 Iter   5:  RMS(Cart)=    0.1009146723 RMS(Int)=    0.8292235892
 Iter   6:  RMS(Cart)=    0.1020422959 RMS(Int)=    0.7852376847
 Iter   7:  RMS(Cart)=    0.1025983818 RMS(Int)=    0.7431515996
 Iter   8:  RMS(Cart)=    0.1028213995 RMS(Int)=    0.7030025859
 Iter   9:  RMS(Cart)=    0.1028512975 RMS(Int)=    0.6648040733
 Iter  10:  RMS(Cart)=    0.1027695379 RMS(Int)=    0.6285484129
 Iter  11:  RMS(Cart)=    0.1026233627 RMS(Int)=    0.5942100259
 Iter  12:  RMS(Cart)=    0.1024401460 RMS(Int)=    0.5617486097
 Iter  13:  RMS(Cart)=    0.1022357710 RMS(Int)=    0.5311121968
 Iter  14:  RMS(Cart)=    0.1020194804 RMS(Int)=    0.5022399495
 Iter  15:  RMS(Cart)=    0.1017966758 RMS(Int)=    0.4750646277
 Iter  16:  RMS(Cart)=    0.1015705306 RMS(Int)=    0.4495147085
 Iter  17:  RMS(Cart)=    0.1013429209 RMS(Int)=    0.4255161631
 Iter  18:  RMS(Cart)=    0.1011149632 RMS(Int)=    0.4029939115
 Iter  19:  RMS(Cart)=    0.1008873270 RMS(Int)=    0.3818729874
 Iter  20:  RMS(Cart)=    0.1006604169 RMS(Int)=    0.3620794496
 Iter  21:  RMS(Cart)=    0.1004344792 RMS(Int)=    0.3435410758
 Iter  22:  RMS(Cart)=    0.1002096653 RMS(Int)=    0.3261878739
 Iter  23:  RMS(Cart)=    0.0999860690 RMS(Int)=    0.3099524440
 Iter  24:  RMS(Cart)=    0.0997637488 RMS(Int)=    0.2947702175
 Iter  25:  RMS(Cart)=    0.0995427417 RMS(Int)=    0.2805796000
 Iter  26:  RMS(Cart)=    0.0993230712 RMS(Int)=    0.2673220370
 Iter  27:  RMS(Cart)=    0.0991047524 RMS(Int)=    0.2549420213
 Iter  28:  RMS(Cart)=    0.0988877953 RMS(Int)=    0.2433870553
 Iter  29:  RMS(Cart)=    0.0986722064 RMS(Int)=    0.2326075806
 Iter  30:  RMS(Cart)=    0.0984579901 RMS(Int)=    0.2225568833
 Iter  31:  RMS(Cart)=    0.0982451494 RMS(Int)=    0.2131909833
 Iter  32:  RMS(Cart)=    0.0980336867 RMS(Int)=    0.2044685138
 Iter  33:  RMS(Cart)=    0.0978236033 RMS(Int)=    0.1963505934
 Iter  34:  RMS(Cart)=    0.0976149005 RMS(Int)=    0.1888006974
 Iter  35:  RMS(Cart)=    0.0974075791 RMS(Int)=    0.1817845276
 Iter  36:  RMS(Cart)=    0.0972016399 RMS(Int)=    0.1752698853
 Iter  37:  RMS(Cart)=    0.0969970832 RMS(Int)=    0.1692265479
 Iter  38:  RMS(Cart)=    0.0967939095 RMS(Int)=    0.1636261486
 Iter  39:  RMS(Cart)=    0.0965921190 RMS(Int)=    0.1584420630
 Iter  40:  RMS(Cart)=    0.0963917116 RMS(Int)=    0.1536492999
 Iter  41:  RMS(Cart)=    0.0961926873 RMS(Int)=    0.1492243985
 Iter  42:  RMS(Cart)=    0.0959950460 RMS(Int)=    0.1451453313
 Iter  43:  RMS(Cart)=    0.0957987872 RMS(Int)=    0.1413914124
 Iter  44:  RMS(Cart)=    0.0956039104 RMS(Int)=    0.1379432120
 Iter  45:  RMS(Cart)=    0.0954104150 RMS(Int)=    0.1347824759
 Iter  46:  RMS(Cart)=    0.0952183002 RMS(Int)=    0.1318920503
 Iter  47:  RMS(Cart)=    0.0950275648 RMS(Int)=    0.1292558117
 Iter  48:  RMS(Cart)=    0.0948382079 RMS(Int)=    0.1268586016
 Iter  49:  RMS(Cart)=    0.0946502280 RMS(Int)=    0.1246861648
 Iter  50:  RMS(Cart)=    0.0944636235 RMS(Int)=    0.1227250932
 Iter  51:  RMS(Cart)=    0.0942783927 RMS(Int)=    0.1209627722
 Iter  52:  RMS(Cart)=    0.0940945338 RMS(Int)=    0.1193873314
 Iter  53:  RMS(Cart)=    0.0939120445 RMS(Int)=    0.1179875986
 Iter  54:  RMS(Cart)=    0.0937309225 RMS(Int)=    0.1167530564
 Iter  55:  RMS(Cart)=    0.0935511654 RMS(Int)=    0.1156738025
 Iter  56:  RMS(Cart)=    0.0931812270 RMS(Int)=    0.1147410633
 Iter  57:  RMS(Cart)=    0.0921657511 RMS(Int)=    0.1139463619
 Iter  58:  RMS(Cart)=    0.0912825988 RMS(Int)=    0.1132787439
 Iter  59:  RMS(Cart)=    0.0905196208 RMS(Int)=    0.1127285552
 Iter  60:  RMS(Cart)=    0.0898662897 RMS(Int)=    0.1122872549
 Iter  61:  RMS(Cart)=    0.0893134358 RMS(Int)=    0.1119472596
 Iter  62:  RMS(Cart)=    0.0888530325 RMS(Int)=    0.1117018130
 Iter  63:  RMS(Cart)=    0.0884780220 RMS(Int)=    0.1115448754
 Iter  64:  RMS(Cart)=    0.0881821707 RMS(Int)=    0.1114710307
 Iter  65:  RMS(Cart)=    0.0879599509 RMS(Int)=    0.1114754065
 Iter  66:  RMS(Cart)=    0.0878064414 RMS(Int)=    0.1115536070
 Iter  67:  RMS(Cart)=    0.0877172446 RMS(Int)=    0.1117016537
 Iter  68:  RMS(Cart)=    0.0876884166 RMS(Int)=    0.1119159361
 Iter  69:  RMS(Cart)=    0.0877164081 RMS(Int)=    0.1121931672
 Iter  70:  RMS(Cart)=    0.0877980141 RMS(Int)=    0.1125303466
 Iter  71:  RMS(Cart)=    0.0879303309 RMS(Int)=    0.1129247272
 Iter  72:  RMS(Cart)=    0.0881107194 RMS(Int)=    0.1133737863
 Iter  73:  RMS(Cart)=    0.0883367731 RMS(Int)=    0.1138752008
 Iter  74:  RMS(Cart)=    0.0886062908 RMS(Int)=    0.1144268248
 Iter  75:  RMS(Cart)=    0.0889172528 RMS(Int)=    0.1150266698
 Iter  76:  RMS(Cart)=    0.0892677999 RMS(Int)=    0.1156728881
 Iter  77:  RMS(Cart)=    0.0896562157 RMS(Int)=    0.1163637569
 Iter  78:  RMS(Cart)=    0.0900544784 RMS(Int)=    0.1170972922
 Iter  79:  RMS(Cart)=    0.0898895248 RMS(Int)=    0.1178633198
 Iter  80:  RMS(Cart)=    0.0897274850 RMS(Int)=    0.1186596019
 Iter  81:  RMS(Cart)=    0.0895681522 RMS(Int)=    0.1194840187
 Iter  82:  RMS(Cart)=    0.0894113466 RMS(Int)=    0.1203345632
 Iter  83:  RMS(Cart)=    0.0892569107 RMS(Int)=    0.1212093355
 Iter  84:  RMS(Cart)=    0.0891047065 RMS(Int)=    0.1221065373
 Iter  85:  RMS(Cart)=    0.0889546125 RMS(Int)=    0.1230244677
 Iter  86:  RMS(Cart)=    0.0888065216 RMS(Int)=    0.1239615171
 Iter  87:  RMS(Cart)=    0.0886603388 RMS(Int)=    0.1249161638
 Iter  88:  RMS(Cart)=    0.0885159798 RMS(Int)=    0.1258869687
 Iter  89:  RMS(Cart)=    0.0883733695 RMS(Int)=    0.1268725712
 Iter  90:  RMS(Cart)=    0.0882324406 RMS(Int)=    0.1278716856
 Iter  91:  RMS(Cart)=    0.0880931326 RMS(Int)=    0.1288830968
 Iter  92:  RMS(Cart)=    0.0879553913 RMS(Int)=    0.1299056565
 Iter  93:  RMS(Cart)=    0.0878191675 RMS(Int)=    0.1309382803
 Iter  94:  RMS(Cart)=    0.0876844166 RMS(Int)=    0.1319799440
 Iter  95:  RMS(Cart)=    0.0875510980 RMS(Int)=    0.1330296803
 Iter  96:  RMS(Cart)=    0.0874191746 RMS(Int)=    0.1340865762
 Iter  97:  RMS(Cart)=    0.0872886123 RMS(Int)=    0.1351497700
 Iter  98:  RMS(Cart)=    0.0871593799 RMS(Int)=    0.1362184484
 Iter  99:  RMS(Cart)=    0.0870314484 RMS(Int)=    0.1372918443
 RMS(Cart) too big - taking linear step, building new B-matrix and trying again
Imposing constraints:
 Iter   0:  RMS(Cart)=    0.0795584838 RMS(Int)=    1.0217663898
 Iter   1:  RMS(Cart)=    0.0896757163 RMS(Int)=    0.9700294088
 Iter   2:  RMS(Cart)=    0.0961190718 RMS(Int)=    0.9197085958
 Iter   3:  RMS(Cart)=    0.0999437179 RMS(Int)=    0.8709384061
 Iter   4:  RMS(Cart)=    0.1021342616 RMS(Int)=    0.8238553630
 Iter   5:  RMS(Cart)=    0.1033485280 RMS(Int)=    0.7785756458
 Iter   6:  RMS(Cart)=    0.1039903753 RMS(Int)=    0.7351878801
 Iter   7:  RMS(Cart)=    0.1042995431 RMS(Int)=    0.6937519649
 Iter   8:  RMS(Cart)=    0.1044160399 RMS(Int)=    0.6543005476
 Iter   9:  RMS(Cart)=    0.1044209485 RMS(Int)=    0.6168417479
 Iter  10:  RMS(Cart)=    0.1043610471 RMS(Int)=    0.5813624456
 Iter  11:  RMS(Cart)=    0.1042633038 RMS(Int)=    0.5478317413
 Iter  12:  RMS(Cart)=    0.1041432926 RMS(Int)=    0.5162043413
 Iter  13:  RMS(Cart)=    0.1040100409 RMS(Int)=    0.4864237138
 Iter  14:  RMS(Cart)=    0.1038688112 RMS(Int)=    0.4584249238
 Iter  15:  RMS(Cart)=    0.1037226951 RMS(Int)=    0.4321371049
 Iter  16:  RMS(Cart)=    0.1035735266 RMS(Int)=    0.4074855589
 Iter  17:  RMS(Cart)=    0.1034224079 RMS(Int)=    0.3843934986
 Iter  18:  RMS(Cart)=    0.1032700124 RMS(Int)=    0.3627834611
 Iter  19:  RMS(Cart)=    0.1031167601 RMS(Int)=    0.3425784292
 Iter  20:  RMS(Cart)=    0.1029629203 RMS(Int)=    0.3237027001
 Iter  21:  RMS(Cart)=    0.1028086720 RMS(Int)=    0.3060825383
 Iter  22:  RMS(Cart)=    0.1026541388 RMS(Int)=    0.2896466508
 Iter  23:  RMS(Cart)=    0.1024994108 RMS(Int)=    0.2743265159
 Iter  24:  RMS(Cart)=    0.1023445569 RMS(Int)=    0.2600565949
 Iter  25:  RMS(Cart)=    0.1021896327 RMS(Int)=    0.2467744497
 Iter  26:  RMS(Cart)=    0.1020346853 RMS(Int)=    0.2344207891
 Iter  27:  RMS(Cart)=    0.1018797558 RMS(Int)=    0.2229394587
 Iter  28:  RMS(Cart)=    0.1017248819 RMS(Int)=    0.2122773887
 Iter  29:  RMS(Cart)=    0.1015700982 RMS(Int)=    0.2023845124
 Iter  30:  RMS(Cart)=    0.1014154376 RMS(Int)=    0.1932136619
 Iter  31:  RMS(Cart)=    0.1012609312 RMS(Int)=    0.1847204501
 Iter  32:  RMS(Cart)=    0.1011066091 RMS(Int)=    0.1768631434
 Iter  33:  RMS(Cart)=    0.1009525004 RMS(Int)=    0.1696025298
 Iter  34:  RMS(Cart)=    0.1007986330 RMS(Int)=    0.1629017855
 Iter  35:  RMS(Cart)=    0.1006450345 RMS(Int)=    0.1567263421
 Iter  36:  RMS(Cart)=    0.1004917313 RMS(Int)=    0.1510437571
 Iter  37:  RMS(Cart)=    0.1003387494 RMS(Int)=    0.1458235883
 Iter  38:  RMS(Cart)=    0.1001861140 RMS(Int)=    0.1410372720
 Iter  39:  RMS(Cart)=    0.1000338497 RMS(Int)=    0.1366580084
 Iter  40:  RMS(Cart)=    0.0998819805 RMS(Int)=    0.1326606510
 Iter  41:  RMS(Cart)=    0.0997305296 RMS(Int)=    0.1290216034
 Iter  42:  RMS(Cart)=    0.0995795198 RMS(Int)=    0.1257187204
 Iter  43:  RMS(Cart)=    0.0994289732 RMS(Int)=    0.1227312166
 Iter  44:  RMS(Cart)=    0.0992789113 RMS(Int)=    0.1200395794
 Iter  45:  RMS(Cart)=    0.0991293550 RMS(Int)=    0.1176254881
 Iter  46:  RMS(Cart)=    0.0989803246 RMS(Int)=    0.1154717378
 Iter  47:  RMS(Cart)=    0.0987621488 RMS(Int)=    0.1135632167
 Iter  48:  RMS(Cart)=    0.0969125500 RMS(Int)=    0.1119052116
 Iter  49:  RMS(Cart)=    0.0952969940 RMS(Int)=    0.1104711804
 Iter  50:  RMS(Cart)=    0.0938892544 RMS(Int)=    0.1092385933
 Iter  51:  RMS(Cart)=    0.0926672250 RMS(Int)=    0.1081882091
 Iter  52:  RMS(Cart)=    0.0916121458 RMS(Int)=    0.1073035029
 Iter  53:  RMS(Cart)=    0.0907079959 RMS(Int)=    0.1065702091
 Iter  54:  RMS(Cart)=    0.0899410150 RMS(Int)=    0.1059759529
 Iter  55:  RMS(Cart)=    0.0892993209 RMS(Int)=    0.1055099515
 Iter  56:  RMS(Cart)=    0.0887726021 RMS(Int)=    0.1051627699
 Iter  57:  RMS(Cart)=    0.0883518691 RMS(Int)=    0.1049261198
 Iter  58:  RMS(Cart)=    0.0880292505 RMS(Int)=    0.1047926925
 Iter  59:  RMS(Cart)=    0.0877978256 RMS(Int)=    0.1047560205
 Iter  60:  RMS(Cart)=    0.0876514862 RMS(Int)=    0.1048103608
 Iter  61:  RMS(Cart)=    0.0875848212 RMS(Int)=    0.1049505963
 Iter  62:  RMS(Cart)=    0.0875930194 RMS(Int)=    0.1051721536
 Iter  63:  RMS(Cart)=    0.0876717889 RMS(Int)=    0.1054709313
 Iter  64:  RMS(Cart)=    0.0878172878 RMS(Int)=    0.1058432396
 Iter  65:  RMS(Cart)=    0.0880260653 RMS(Int)=    0.1062857487
 Iter  66:  RMS(Cart)=    0.0882950121 RMS(Int)=    0.1067954434
 Iter  67:  RMS(Cart)=    0.0886213173 RMS(Int)=    0.1073695845
 Iter  68:  RMS(Cart)=    0.0890024308 RMS(Int)=    0.1080056748
 Iter  69:  RMS(Cart)=    0.0894360318 RMS(Int)=    0.1087014296
 Iter  70:  RMS(Cart)=    0.0899200004 RMS(Int)=    0.1094547508
 Iter  71:  RMS(Cart)=    0.0904523937 RMS(Int)=    0.1102637045
 Iter  72:  RMS(Cart)=    0.0910314242 RMS(Int)=    0.1111265004
 Iter  73:  RMS(Cart)=    0.0916554411 RMS(Int)=    0.1120414745
 Iter  74:  RMS(Cart)=    0.0923229139 RMS(Int)=    0.1130070732
 Iter  75:  RMS(Cart)=    0.0930324178 RMS(Int)=    0.1140218395
 Iter  76:  RMS(Cart)=    0.0937826211 RMS(Int)=    0.1150844003
 Iter  77:  RMS(Cart)=    0.0945722734 RMS(Int)=    0.1161934557
 Iter  78:  RMS(Cart)=    0.0950677864 RMS(Int)=    0.1173426848
 Iter  79:  RMS(Cart)=    0.0949217800 RMS(Int)=    0.1185200853
 Iter  80:  RMS(Cart)=    0.0947787245 RMS(Int)=    0.1197233670
 Iter  81:  RMS(Cart)=    0.0946383837 RMS(Int)=    0.1209503670
 Iter  82:  RMS(Cart)=    0.0945005524 RMS(Int)=    0.1221990430
 Iter  83:  RMS(Cart)=    0.0943650519 RMS(Int)=    0.1234674675
 Iter  84:  RMS(Cart)=    0.0942317265 RMS(Int)=    0.1247538221
 Iter  85:  RMS(Cart)=    0.0941004395 RMS(Int)=    0.1260563919
 Iter  86:  RMS(Cart)=    0.0939710715 RMS(Int)=    0.1273735602
 Iter  87:  RMS(Cart)=    0.0938435170 RMS(Int)=    0.1287038032
 Iter  88:  RMS(Cart)=    0.0937176835 RMS(Int)=    0.1300456854
 Iter  89:  RMS(Cart)=    0.0935934888 RMS(Int)=    0.1313978549
 Iter  90:  RMS(Cart)=    0.0934708603 RMS(Int)=    0.1327590388
 Iter  91:  RMS(Cart)=    0.0933497336 RMS(Int)=    0.1341280391
 Iter  92:  RMS(Cart)=    0.0932300510 RMS(Int)=    0.1355037287
 Iter  93:  RMS(Cart)=    0.0931117611 RMS(Int)=    0.1368850478
 Iter  94:  RMS(Cart)=    0.0929948181 RMS(Int)=    0.1382709998
 Iter  95:  RMS(Cart)=    0.0928791806 RMS(Int)=    0.1396606482
 Iter  96:  RMS(Cart)=    0.0927648112 RMS(Int)=    0.1410531135
 Iter  97:  RMS(Cart)=    0.0926516764 RMS(Int)=    0.1424475696
 Iter  98:  RMS(Cart)=    0.0925397456 RMS(Int)=    0.1438432415
 Iter  99:  RMS(Cart)=    0.0924289910 RMS(Int)=    0.1452394019
 RMS(Cart) too big - taking linear step, building new B-matrix and trying again
Imposing constraints:
 Iter   0:  RMS(Cart)=    0.0904110372 RMS(Int)=    0.9690832816
 Iter   1:  RMS(Cart)=    0.0969470574 RMS(Int)=    0.9176624524
 Iter   2:  RMS(Cart)=    0.1008522792 RMS(Int)=    0.8676714971
 Iter   3:  RMS(Cart)=    0.1031131877 RMS(Int)=    0.8192800006
 Iter   4:  RMS(Cart)=    0.1043913507 RMS(Int)=    0.7726358607
 Iter   5:  RMS(Cart)=    0.1050935124 RMS(Int)=    0.7278571002
 Iter   6:  RMS(Cart)=    0.1054611512 RMS(Int)=    0.6850299846
 Iter   7:  RMS(Cart)=    0.1056351533 RMS(Int)=    0.6442100529
 Iter   8:  RMS(Cart)=    0.1056969517 RMS(Int)=    0.6054246482
 Iter   9:  RMS(Cart)=    0.1056933967 RMS(Int)=    0.5686762240
 Iter  10:  RMS(Cart)=    0.1056514057 RMS(Int)=    0.5339459895
 Iter  11:  RMS(Cart)=    0.1055864624 RMS(Int)=    0.5011975945
 Iter  12:  RMS(Cart)=    0.1055075056 RMS(Int)=    0.4703806509
 Iter  13:  RMS(Cart)=    0.1054197262 RMS(Int)=    0.4414339628
 Iter  14:  RMS(Cart)=    0.1053261641 RMS(Int)=    0.4142883917
 Iter  15:  RMS(Cart)=    0.1052286205 RMS(Int)=    0.3888693273
 Iter  16:  RMS(Cart)=    0.1051281793 RMS(Int)=    0.3650987670
 Iter  17:  RMS(Cart)=    0.1050255066 RMS(Int)=    0.3428970259
 Iter  18:  RMS(Cart)=    0.1049210234 RMS(Int)=    0.3221841121
 Iter  19:  RMS(Cart)=    0.1048150053 RMS(Int)=    0.3028808070
 Iter  20:  RMS(Cart)=    0.1047076412 RMS(Int)=    0.2849094937
 Iter  21:  RMS(Cart)=    0.1045990673 RMS(Int)=    0.2681947725
 Iter  22:  RMS(Cart)=    0.1044893877 RMS(Int)=    0.2526639017
 Iter  23:  RMS(Cart)=    0.1043786864 RMS(Int)=    0.2382470956
 Iter  24:  RMS(Cart)=    0.1042670345 RMS(Int)=    0.2248777093
 Iter  25:  RMS(Cart)=    0.1041544950 RMS(Int)=    0.2124923335
 Iter  26:  RMS(Cart)=    0.1040411251 RMS(Int)=    0.2010308209
 Iter  27:  RMS(Cart)=    0.1039269784 RMS(Int)=    0.1904362595
 Iter  28:  RMS(Cart)=    0.1038121055 RMS(Int)=    0.1806549071
 Iter  29:  RMS(Cart)=    0.1036965549 RMS(Int)=    0.1716360976
 Iter  30:  RMS(Cart)=    0.1035803736 RMS(Int)=    0.1633321280
 Iter  31:  RMS(Cart)=    0.1034636069 RMS(Int)=    0.1556981321
 Iter  32:  RMS(Cart)=    0.1033462991 RMS(Int)=    0.1486919474
 Iter  33:  RMS(Cart)=    0.1032284936 RMS(Int)=    0.1422739773
 Iter  34:  RMS(Cart)=    0.1031102323 RMS(Int)=    0.1364070541
 Iter  35:  RMS(Cart)=    0.1029915566 RMS(Int)=    0.1310563023
 Iter  36:  RMS(Cart)=    0.1028725069 RMS(Int)=    0.1261890065
 Iter  37:  RMS(Cart)=    0.1027531226 RMS(Int)=    0.1217744822
 Iter  38:  RMS(Cart)=    0.1026334424 RMS(Int)=    0.1177839536
 Iter  39:  RMS(Cart)=    0.1025135041 RMS(Int)=    0.1141904354
 Iter  40:  RMS(Cart)=    0.1012373992 RMS(Int)=    0.1110019234
 Iter  41:  RMS(Cart)=    0.0982668302 RMS(Int)=    0.1082269289
 Iter  42:  RMS(Cart)=    0.0956740791 RMS(Int)=    0.1058102852
 Iter  43:  RMS(Cart)=    0.0934084123 RMS(Int)=    0.1037068078
 Iter  44:  RMS(Cart)=    0.0914282562 RMS(Int)=    0.1018791525
 Iter  45:  RMS(Cart)=    0.0896992360 RMS(Int)=    0.1002962031
 Iter  46:  RMS(Cart)=    0.0881926975 RMS(Int)=    0.0989318416
 Iter  47:  RMS(Cart)=    0.0868845793 RMS(Int)=    0.0977639990
 Iter  48:  RMS(Cart)=    0.0857545410 RMS(Int)=    0.0967739145
 Iter  49:  RMS(Cart)=    0.0847852833 RMS(Int)=    0.0959455517
 Iter  50:  RMS(Cart)=    0.0839620107 RMS(Int)=    0.0952651335
 Iter  51:  RMS(Cart)=    0.0832720053 RMS(Int)=    0.0947207699
 Iter  52:  RMS(Cart)=    0.0827042833 RMS(Int)=    0.0943021554
 Iter  53:  RMS(Cart)=    0.0822493180 RMS(Int)=    0.0940003237
 Iter  54:  RMS(Cart)=    0.0818988133 RMS(Int)=    0.0938074457
 Iter  55:  RMS(Cart)=    0.0816455186 RMS(Int)=    0.0937166624
 Iter  56:  RMS(Cart)=    0.0814830748 RMS(Int)=    0.0937219462
 Iter  57:  RMS(Cart)=    0.0814058872 RMS(Int)=    0.0938179850
 Iter  58:  RMS(Cart)=    0.0814090185 RMS(Int)=    0.0940000843
 Iter  59:  RMS(Cart)=    0.0814880992 RMS(Int)=    0.0942640848
 Iter  60:  RMS(Cart)=    0.0816392516 RMS(Int)=    0.0946062918
 Iter  61:  RMS(Cart)=    0.0818590255 RMS(Int)=    0.0950234152
 Iter  62:  RMS(Cart)=    0.0821443427 RMS(Int)=    0.0955125180
 Iter  63:  RMS(Cart)=    0.0824924498 RMS(Int)=    0.0960709717
 Iter  64:  RMS(Cart)=    0.0829008778 RMS(Int)=    0.0966964175
 Iter  65:  RMS(Cart)=    0.0833674058 RMS(Int)=    0.0973867326
 Iter  66:  RMS(Cart)=    0.0838900312 RMS(Int)=    0.0981400010
 Iter  67:  RMS(Cart)=    0.0844669421 RMS(Int)=    0.0989544872
 Iter  68:  RMS(Cart)=    0.0850964939 RMS(Int)=    0.0998286137
 Iter  69:  RMS(Cart)=    0.0857771886 RMS(Int)=    0.1007609403
 Iter  70:  RMS(Cart)=    0.0865076562 RMS(Int)=    0.1017501463
 Iter  71:  RMS(Cart)=    0.0872866384 RMS(Int)=    0.1027950145
 Iter  72:  RMS(Cart)=    0.0881129739 RMS(Int)=    0.1038944164
 Iter  73:  RMS(Cart)=    0.0889855858 RMS(Int)=    0.1050472995
 Iter  74:  RMS(Cart)=    0.0899034692 RMS(Int)=    0.1062526753
 Iter  75:  RMS(Cart)=    0.0908656813 RMS(Int)=    0.1075096090
 Iter  76:  RMS(Cart)=    0.0918713317 RMS(Int)=    0.1088172095
 Iter  77:  RMS(Cart)=    0.0929195737 RMS(Int)=    0.1101746210
 Iter  78:  RMS(Cart)=    0.0940095966 RMS(Int)=    0.1115810148
 Iter  79:  RMS(Cart)=    0.0951406188 RMS(Int)=    0.1130355822
 Iter  80:  RMS(Cart)=    0.0963118813 RMS(Int)=    0.1145375280
 Iter  81:  RMS(Cart)=    0.0975226419 RMS(Int)=    0.1160860641
 Iter  82:  RMS(Cart)=    0.0983622427 RMS(Int)=    0.1176730591
 Iter  83:  RMS(Cart)=    0.0982327516 RMS(Int)=    0.1192792419
 Iter  84:  RMS(Cart)=    0.0981059072 RMS(Int)=    0.1209025380
 Iter  85:  RMS(Cart)=    0.0979814956 RMS(Int)=    0.1225409957
 Iter  86:  RMS(Cart)=    0.0978593308 RMS(Int)=    0.1241927796
 Iter  87:  RMS(Cart)=    0.0977392508 RMS(Int)=    0.1258561647
 Iter  88:  RMS(Cart)=    0.0976211139 RMS(Int)=    0.1275295307
 Iter  89:  RMS(Cart)=    0.0975047960 RMS(Int)=    0.1292113560
 Iter  90:  RMS(Cart)=    0.0973901885 RMS(Int)=    0.1309002129
 Iter  91:  RMS(Cart)=    0.0972771957 RMS(Int)=    0.1325947622
 Iter  92:  RMS(Cart)=    0.0971657334 RMS(Int)=    0.1342937484
 Iter  93:  RMS(Cart)=    0.0970557273 RMS(Int)=    0.1359959953
 Iter  94:  RMS(Cart)=    0.0969471117 RMS(Int)=    0.1377004015
 Iter  95:  RMS(Cart)=    0.0968398284 RMS(Int)=    0.1394059362
 Iter  96:  RMS(Cart)=    0.0967338255 RMS(Int)=    0.1411116352
 Iter  97:  RMS(Cart)=    0.0966290571 RMS(Int)=    0.1428165975
 Iter  98:  RMS(Cart)=    0.0965254820 RMS(Int)=    0.1445199815
 Iter  99:  RMS(Cart)=    0.0964230636 RMS(Int)=    0.1462210016
 RMS(Cart) too big - taking linear step, building new B-matrix and trying again
Imposing constraints:
 Iter   0:  RMS(Cart)=    0.0976671377 RMS(Int)=    0.9166106931
 Iter   1:  RMS(Cart)=    0.1016284392 RMS(Int)=    0.8654165205
 Iter   2:  RMS(Cart)=    0.1039429961 RMS(Int)=    0.8157047618
 Iter   3:  RMS(Cart)=    0.1052699008 RMS(Int)=    0.7676574686
 Iter   4:  RMS(Cart)=    0.1060166155 RMS(Int)=    0.7214253118
 Iter   5:  RMS(Cart)=    0.1064259357 RMS(Int)=    0.6771246690
 Iter   6:  RMS(Cart)=    0.1066398174 RMS(Int)=    0.6348379147
 Iter   7:  RMS(Cart)=    0.1067403697 RMS(Int)=    0.5946155055
 Iter   8:  RMS(Cart)=    0.1067748038 RMS(Int)=    0.5564791182
 Iter   9:  RMS(Cart)=    0.1067701966 RMS(Int)=    0.5204253525
 Iter  10:  RMS(Cart)=    0.1067420809 RMS(Int)=    0.4864296439
 Iter  11:  RMS(Cart)=    0.1066993930 RMS(Int)=    0.4544501270
 Iter  12:  RMS(Cart)=    0.1066473019 RMS(Int)=    0.4244312688
 Iter  13:  RMS(Cart)=    0.1065888234 RMS(Int)=    0.3963071588
 Iter  14:  RMS(Cart)=    0.1065257387 RMS(Int)=    0.3700043971
 Iter  15:  RMS(Cart)=    0.1064591181 RMS(Int)=    0.3454445618
 Iter  16:  RMS(Cart)=    0.1063896206 RMS(Int)=    0.3225462680
 Iter  17:  RMS(Cart)=    0.1063176647 RMS(Int)=    0.3012268462
 Iter  18:  RMS(Cart)=    0.1062435279 RMS(Int)=    0.2814036806
 Iter  19:  RMS(Cart)=    0.1061674036 RMS(Int)=    0.2629952512
 Iter  20:  RMS(Cart)=    0.1060894348 RMS(Int)=    0.2459219240
 Iter  21:  RMS(Cart)=    0.1060097337 RMS(Int)=    0.2301065312
 Iter  22:  RMS(Cart)=    0.1059283935 RMS(Int)=    0.2154747787
 Iter  23:  RMS(Cart)=    0.1058454949 RMS(Int)=    0.2019555155
 Iter  24:  RMS(Cart)=    0.1057611110 RMS(Int)=    0.1894808924
 Iter  25:  RMS(Cart)=    0.1056753096 RMS(Int)=    0.1779864355
 Iter  26:  RMS(Cart)=    0.1055881546 RMS(Int)=    0.1674110531
 Iter  27:  RMS(Cart)=    0.1054997073 RMS(Int)=    0.1576969935
 Iter  28:  RMS(Cart)=    0.1054100268 RMS(Int)=    0.1487897659
 Iter  29:  RMS(Cart)=    0.1053191705 RMS(Int)=    0.1406380357
 Iter  30:  RMS(Cart)=    0.1052271944 RMS(Int)=    0.1331935025
 Iter  31:  RMS(Cart)=    0.1051341532 RMS(Int)=    0.1264107661
 Iter  32:  RMS(Cart)=    0.1050401006 RMS(Int)=    0.1202471867
 Iter  33:  RMS(Cart)=    0.1049450889 RMS(Int)=    0.1146627430
 Iter  34:  RMS(Cart)=    0.1041017779 RMS(Int)=    0.1096545478
 Iter  35:  RMS(Cart)=    0.0994954707 RMS(Int)=    0.1053339659
 Iter  36:  RMS(Cart)=    0.0955083154 RMS(Int)=    0.1015879353
 Iter  37:  RMS(Cart)=    0.0920404584 RMS(Int)=    0.0983275392
 Iter  38:  RMS(Cart)=    0.0890128762 RMS(Int)=    0.0954819136
 Iter  39:  RMS(Cart)=    0.0863622438 RMS(Int)=    0.0929939127
 Iter  40:  RMS(Cart)=    0.0840372495 RMS(Int)=    0.0908169686
[...]
      pz      :     1.085419  p :     3.050619
      px      :     1.090922
      py      :     0.874278
      dz2     :     0.015722  d :     0.091799
      dxz     :     0.012184
      dyz     :     0.022830
      dx2y2   :     0.029038
      dxy     :     0.012026
 43 H s       :     0.891992  s :     0.891992
      pz      :     0.012748  p :     0.067518
      px      :     0.042074
      py      :     0.012696
 44 H s       :     0.898842  s :     0.898842
      pz      :     0.033319  p :     0.063587
      px      :     0.016922
      py      :     0.013345
 45 H s       :     0.897290  s :     0.897290
      pz      :     0.029744  p :     0.064088
      px      :     0.022210
      py      :     0.012133
 46 C s       :     2.841997  s :     2.841997
      pz      :     1.085481  p :     3.050704
      px      :     1.091614
      py      :     0.873609
      dz2     :     0.016146  d :     0.091678
      dxz     :     0.011322
      dyz     :     0.023040
      dx2y2   :     0.029453
      dxy     :     0.011717
 47 H s       :     0.891869  s :     0.891869
      pz      :     0.012452  p :     0.067535
      px      :     0.042840
      py      :     0.012243
 48 H s       :     0.897964  s :     0.897964
      pz      :     0.033540  p :     0.063740
      px      :     0.017661
      py      :     0.012539
 49 H s       :     0.897178  s :     0.897178
      pz      :     0.029861  p :     0.064003
      px      :     0.020712
      py      :     0.013429
 50 C s       :     2.914907  s :     2.914907
      pz      :     1.104387  p :     3.178331
      px      :     1.025551
      py      :     1.048392
      dz2     :     0.007583  d :     0.101090
      dxz     :     0.013154
      dyz     :     0.013658
      dx2y2   :     0.029145
      dxy     :     0.037550
 51 C s       :     2.876756  s :     2.876756
      pz      :     0.998265  p :     3.090572
      px      :     1.056880
      py      :     1.035427
      dz2     :     0.006196  d :     0.089938
      dxz     :     0.011607
      dyz     :     0.008184
      dx2y2   :     0.030547
      dxy     :     0.033404
 52 C s       :     2.926361  s :     2.926361
      pz      :     1.012343  p :     3.195999
      px      :     1.076124
      py      :     1.107532
      dz2     :     0.006816  d :     0.080576
      dxz     :     0.011691
      dyz     :     0.007197
      dx2y2   :     0.028789
      dxy     :     0.026083
 53 H s       :     0.901584  s :     0.901584
      pz      :     0.014807  p :     0.068059
      px      :     0.022143
      py      :     0.031109
 54 C s       :     2.921148  s :     2.921148
      pz      :     1.046816  p :     3.158716
      px      :     1.048022
      py      :     1.063878
      dz2     :     0.007704  d :     0.107609
      dxz     :     0.015113
      dyz     :     0.013885
      dx2y2   :     0.033995
      dxy     :     0.036912
 55 S s       :     5.529471  s :     5.529471
      pz      :     3.583844  p :     9.860963
      px      :     2.964100
      py      :     3.313020
      dz2     :     0.017387  d :     0.134184
      dxz     :     0.023408
      dyz     :     0.010672
      dx2y2   :     0.017036
      dxy     :     0.065681
 56 Sis       :     4.820673  s :     4.820673
      pz      :     2.728552  p :     8.107533
      px      :     2.682916
      py      :     2.696065
      dz2     :     0.095976  d :     0.432753
      dxz     :     0.045880
      dyz     :     0.118949
      dx2y2   :     0.039068
      dxy     :     0.132881
 57 C s       :     2.918475  s :     2.918475
      pz      :     1.076669  p :     3.174006
      px      :     1.049590
      py      :     1.047748
      dz2     :     0.007672  d :     0.107020
      dxz     :     0.014043
      dyz     :     0.013889
      dx2y2   :     0.034440
      dxy     :     0.036976
 58 C s       :     2.930104  s :     2.930104
      pz      :     1.011917  p :     3.194416
      px      :     1.064595
      py      :     1.117904
      dz2     :     0.006667  d :     0.079178
      dxz     :     0.012088
      dyz     :     0.006668
      dx2y2   :     0.025146
      dxy     :     0.028609
 59 C s       :     2.901228  s :     2.901228
      pz      :     1.140767  p :     3.310077
      px      :     1.068142
      py      :     1.101168
      dz2     :     0.010695  d :     0.042448
      dxz     :     0.000645
      dyz     :     0.011209
      dx2y2   :     0.003726
      dxy     :     0.016173
 60 H s       :     0.883468  s :     0.883468
      pz      :     0.034217  p :     0.068202
      px      :     0.011789
      py      :     0.022196
 61 H s       :     0.889529  s :     0.889529
      pz      :     0.015226  p :     0.067747
      px      :     0.028312
      py      :     0.024209
 62 H s       :     0.889183  s :     0.889183
      pz      :     0.015286  p :     0.067768
      px      :     0.030889
      py      :     0.021593
 63 C s       :     2.901246  s :     2.901246
      pz      :     1.144689  p :     3.310024
      px      :     1.068290
      py      :     1.097046
      dz2     :     0.010315  d :     0.042449
      dxz     :     0.000639
      dyz     :     0.011471
      dx2y2   :     0.003897
      dxy     :     0.016127
 64 H s       :     0.883516  s :     0.883516
      pz      :     0.033199  p :     0.068197
      px      :     0.011731
      py      :     0.023266
 65 H s       :     0.889213  s :     0.889213
      pz      :     0.015460  p :     0.067765
      px      :     0.030891
      py      :     0.021414
 66 H s       :     0.889541  s :     0.889541
      pz      :     0.015553  p :     0.067750
      px      :     0.028338
      py      :     0.023858
 67 S s       :     5.516833  s :     5.516833
      pz      :     3.582060  p :     9.914519
      px      :     2.991508
      py      :     3.340951
      dz2     :     0.015406  d :     0.133247
      dxz     :     0.026998
      dyz     :     0.010682
      dx2y2   :     0.021322
      dxy     :     0.058839
 68 C s       :     2.879315  s :     2.879315
      pz      :     0.999538  p :     3.098467
      px      :     1.047110
      py      :     1.051819
      dz2     :     0.006176  d :     0.090379
      dxz     :     0.009963
      dyz     :     0.009907
      dx2y2   :     0.032716
      dxy     :     0.031616
 69 C s       :     2.949366  s :     2.949366
      pz      :     1.100656  p :     3.163708
      px      :     1.011803
      py      :     1.051250
      dz2     :     0.005872  d :     0.078892
      dxz     :     0.004735
      dyz     :     0.013090
      dx2y2   :     0.021055
      dxy     :     0.034140
 70 H s       :     0.896971  s :     0.896971
      pz      :     0.014489  p :     0.066548
      px      :     0.024828
      py      :     0.027232
 71 H s       :     0.894931  s :     0.894931
      pz      :     0.017450  p :     0.072613
      px      :     0.040308
      py      :     0.014856


                      *****************************
                      * MAYER POPULATION ANALYSIS *
                      *****************************

  NA   - Mulliken gross atomic population
  ZA   - Total nuclear charge
  QA   - Mulliken gross atomic charge
  VA   - Mayer's total valence
  BVA  - Mayer's bonded valence
  FA   - Mayer's free valence

  ATOM       NA         ZA         QA         VA         BVA        FA
  0 C      6.0835     6.0000    -0.0835     3.9307     3.9307    -0.0000
  1 C      6.0658     6.0000    -0.0658     3.8879     3.8879    -0.0000
  2 C      6.1105     6.0000    -0.1105     3.8061     3.8061     0.0000
  3 H      0.9908     1.0000     0.0092     0.9920     0.9920    -0.0000
  4 C      6.0892     6.0000    -0.0892     3.9633     3.9633     0.0000
  5 S     15.7873    16.0000     0.2127     2.5407     2.5407    -0.0000
  6 Si    13.5290    14.0000     0.4710     4.1554     4.1554    -0.0000
  7 C      6.1085     6.0000    -0.1085     3.8047     3.8047     0.0000
  8 C      6.0884     6.0000    -0.0884     3.9599     3.9599    -0.0000
  9 S     15.7867    16.0000     0.2133     2.5398     2.5398     0.0000
 10 C      6.0837     6.0000    -0.0837     3.9286     3.9286     0.0000
 11 C      6.0667     6.0000    -0.0667     3.8833     3.8833     0.0000
 12 H      0.9915     1.0000     0.0085     0.9934     0.9934    -0.0000
 13 C      6.2470     6.0000    -0.2470     3.9156     3.9156    -0.0000
 14 H      0.9212     1.0000     0.0788     0.9843     0.9843     0.0000
 15 H      0.9347     1.0000     0.0653     0.9818     0.9818     0.0000
 16 H      0.9351     1.0000     0.0649     0.9818     0.9818    -0.0000
 17 C      6.2469     6.0000    -0.2469     3.9155     3.9155    -0.0000
 18 H      0.9213     1.0000     0.0787     0.9844     0.9844     0.0000
 19 H      0.9351     1.0000     0.0649     0.9818     0.9818    -0.0000
 20 H      0.9349     1.0000     0.0651     0.9819     0.9819     0.0000
 21 C      6.0893     6.0000    -0.0893     3.9467     3.9467     0.0000
 22 C      6.0136     6.0000    -0.0136     3.8328     3.8328    -0.0000
 23 S     15.8956    16.0000     0.1044     2.4827     2.4827     0.0000
 24 C      6.0847     6.0000    -0.0847     3.9493     3.9493    -0.0000
 25 C      6.0251     6.0000    -0.0251     3.8394     3.8394     0.0000
 26 C      5.8405     6.0000     0.1595     4.1503     4.1503     0.0000
 27 C      5.8329     6.0000     0.1671     4.1380     4.1380     0.0000
 28 N      7.2972     7.0000    -0.2972     3.2441     3.2441     0.0000
 29 O      8.1646     8.0000    -0.1646     2.3804     2.3804     0.0000
 30 O      8.1642     8.0000    -0.1642     2.3844     2.3844    -0.0000
 31 C      6.1107     6.0000    -0.1107     3.9522     3.9522     0.0000
 32 C      6.0053     6.0000    -0.0053     3.8115     3.8115    -0.0000
 33 C      5.9925     6.0000     0.0075     3.8249     3.8249     0.0000
 34 C      6.1406     6.0000    -0.1406     3.7867     3.7867     0.0000
 35 S     15.8846    16.0000     0.1154     2.5285     2.5285     0.0000
 36 H      0.9378     1.0000     0.0622     0.9958     0.9958     0.0000
 37 C      5.8174     6.0000     0.1826     4.1565     4.1565     0.0000
 38 C      5.8309     6.0000     0.1691     4.1523     4.1523    -0.0000
 39 N      7.3035     7.0000    -0.3035     3.2290     3.2290     0.0000
 40 O      8.1610     8.0000    -0.1610     2.3827     2.3827     0.0000
 41 O      8.1510     8.0000    -0.1510     2.3975     2.3975     0.0000
 42 C      5.9277     6.0000     0.0723     3.9226     3.9226     0.0000
 43 H      0.9372     1.0000     0.0628     1.0200     1.0200     0.0000
 44 H      0.9432     1.0000     0.0568     0.9920     0.9920    -0.0000
 45 H      0.9426     1.0000     0.0574     0.9949     0.9949     0.0000
 46 C      5.9279     6.0000     0.0721     3.9226     3.9226    -0.0000
 47 H      0.9372     1.0000     0.0628     1.0206     1.0206     0.0000
 48 H      0.9423     1.0000     0.0577     0.9928     0.9928    -0.0000
 49 H      0.9419     1.0000     0.0581     0.9943     0.9943    -0.0000
 50 C      6.0882     6.0000    -0.0882     3.9283     3.9283     0.0000
 51 C      6.0633     6.0000    -0.0633     3.8843     3.8843     0.0000
 52 C      6.1151     6.0000    -0.1151     3.8090     3.8090    -0.0000
 53 H      0.9924     1.0000     0.0076     0.9932     0.9932     0.0000
 54 C      6.0792     6.0000    -0.0792     3.9690     3.9690    -0.0000
 55 S     15.7974    16.0000     0.2026     2.5366     2.5366     0.0000
 56 Si    13.5273    14.0000     0.4727     4.1565     4.1565     0.0000
 57 C      6.1240     6.0000    -0.1240     3.9868     3.9868    -0.0000
 58 C      6.1236     6.0000    -0.1236     3.8131     3.8131    -0.0000
 59 C      6.2472     6.0000    -0.2472     3.9148     3.9148     0.0000
 60 H      0.9225     1.0000     0.0775     0.9844     0.9844     0.0000
 61 H      0.9364     1.0000     0.0636     0.9818     0.9818     0.0000
 62 H      0.9358     1.0000     0.0642     0.9817     0.9817    -0.0000
 63 C      6.2471     6.0000    -0.2471     3.9146     3.9146     0.0000
 64 H      0.9226     1.0000     0.0774     0.9845     0.9845     0.0000
 65 H      0.9359     1.0000     0.0641     0.9817     0.9817     0.0000
 66 H      0.9366     1.0000     0.0634     0.9819     0.9819     0.0000
 67 S     15.8534    16.0000     0.1466     2.5320     2.5320     0.0000
 68 C      6.0044     6.0000    -0.0044     3.9044     3.9044    -0.0000
 69 C      6.1088     6.0000    -0.1088     3.7928     3.7928    -0.0000
 70 H      0.9894     1.0000     0.0106     0.9864     0.9864    -0.0000
 71 H      0.9486     1.0000     0.0514     0.9921     0.9921    -0.0000

  Mayer bond orders larger than 0.100000
B(  0-C ,  1-C ) :   1.3795 B(  0-C ,  5-S ) :   1.1137 B(  0-C , 31-C ) :   1.2309 
B(  1-C ,  2-C ) :   1.3131 B(  1-C ,  3-H ) :   0.9708 B(  2-C ,  4-C ) :   1.4153 
B(  2-C ,  6-Si) :   0.8739 B(  4-C ,  5-S ) :   1.1011 B(  4-C ,  8-C ) :   1.1929 
B(  6-Si,  7-C ) :   0.8745 B(  6-Si, 13-C ) :   1.0511 B(  6-Si, 17-C ) :   1.0509 
B(  7-C ,  8-C ) :   1.4141 B(  7-C , 11-C ) :   1.3133 B(  8-C ,  9-S ) :   1.0971 
B(  9-S , 10-C ) :   1.1121 B( 10-C , 11-C ) :   1.3709 B( 10-C , 21-C ) :   1.2385 
B( 11-C , 12-H ) :   0.9698 B( 13-C , 14-H ) :   0.9445 B( 13-C , 15-H ) :   0.9476 
B( 13-C , 16-H ) :   0.9475 B( 17-C , 18-H ) :   0.9447 B( 17-C , 19-H ) :   0.9474 
B( 17-C , 20-H ) :   0.9476 B( 21-C , 22-C ) :   1.4467 B( 21-C , 23-S ) :   1.0877 
B( 22-C , 25-C ) :   1.2457 B( 22-C , 26-C ) :   0.9192 B( 23-S , 24-C ) :   1.0928 
B( 24-C , 25-C ) :   1.4396 B( 24-C , 50-C ) :   1.2423 B( 25-C , 27-C ) :   0.9277 
B( 26-C , 28-N ) :   1.0512 B( 26-C , 29-O ) :   2.1081 B( 27-C , 28-N ) :   1.0460 
B( 27-C , 30-O ) :   2.0940 B( 28-N , 42-C ) :   0.9649 B( 31-C , 32-C ) :   1.4383 
B( 31-C , 35-S ) :   1.1200 B( 32-C , 33-C ) :   1.2540 B( 32-C , 38-C ) :   0.9275 
B( 33-C , 34-C ) :   1.5288 B( 33-C , 37-C ) :   0.8995 B( 34-C , 35-S ) :   1.1412 
B( 34-C , 36-H ) :   0.9557 B( 37-C , 39-N ) :   1.0386 B( 37-C , 41-O ) :   2.1607 
B( 38-C , 39-N ) :   1.0393 B( 38-C , 40-O ) :   2.1164 B( 39-N , 46-C ) :   0.9645 
B( 42-C , 43-H ) :   0.9512 B( 42-C , 44-H ) :   0.9673 B( 42-C , 45-H ) :   0.9646 
B( 46-C , 47-H ) :   0.9511 B( 46-C , 48-H ) :   0.9667 B( 46-C , 49-H ) :   0.9653 
B( 50-C , 51-C ) :   1.3761 B( 50-C , 55-S ) :   1.1064 B( 51-C , 52-C ) :   1.3095 
B( 51-C , 53-H ) :   0.9694 B( 52-C , 54-C ) :   1.4272 B( 52-C , 56-Si) :   0.8749 
B( 54-C , 55-S ) :   1.1050 B( 54-C , 57-C ) :   1.1829 B( 56-Si, 58-C ) :   0.8795 
B( 56-Si, 59-C ) :   1.0486 B( 56-Si, 63-C ) :   1.0483 B( 57-C , 58-C ) :   1.4614 
B( 57-C , 67-S ) :   1.1230 B( 58-C , 68-C ) :   1.2728 B( 59-C , 60-H ) :   0.9452 
B( 59-C , 61-H ) :   0.9478 B( 59-C , 62-H ) :   0.9479 B( 63-C , 64-H ) :   0.9454 
B( 63-C , 65-H ) :   0.9479 B( 63-C , 66-H ) :   0.9479 B( 67-S , 69-C ) :   1.1542 
B( 68-C , 69-C ) :   1.5075 B( 68-C , 70-H ) :   0.9813 B( 69-C , 71-H ) :   0.9601 


-------
TIMINGS
-------

Total SCF time: 0 days 0 hours 1 min 44 sec 

Total time                  ....     104.257 sec
Sum of individual times     ....     102.644 sec  ( 98.5%)

Fock matrix formation       ....      72.920 sec  ( 69.9%)
  Split-RI-J                ....      47.684 sec  ( 65.4% of F)
  XC integration            ....      24.264 sec  ( 33.3% of F)
    Basis function eval.    ....       9.605 sec  ( 39.6% of XC)
    Density eval.           ....       5.644 sec  ( 23.3% of XC)
    XC-Functional eval.     ....       1.826 sec  (  7.5% of XC)
    XC-Potential eval.      ....       5.909 sec  ( 24.4% of XC)
Diagonalization             ....       0.139 sec  (  0.1%)
Density matrix formation    ....       0.399 sec  (  0.4%)
Population analysis         ....       0.349 sec  (  0.3%)
Initial guess               ....       0.206 sec  (  0.2%)
Orbital Transformation      ....       0.000 sec  (  0.0%)
Orbital Orthonormalization  ....       0.151 sec  (  0.1%)
DIIS solution               ....       0.046 sec  (  0.0%)
SOSCF solution              ....       0.850 sec  (  0.8%)
Grid generation             ....      27.736 sec  ( 26.6%)


-------------------------------------------------------------------------------
                          DFT DISPERSION CORRECTION                            
                                                                               
                              DFTD3 V3.1  Rev 1                                
                          USING Becke-Johnson damping                          
-------------------------------------------------------------------------------
The BP86 functional is recognized
Active option DFTDOPT                   ...         4   

molecular C6(AA) [au] = 101230.598671 


            DFT-D V3
 parameters
 s6 scaling factor         :     1.0000 
 a1 scaling factor         :     0.3946 
 s8 scaling factor         :     3.2822 
 a2 scaling factor         :     4.8516 
 ad hoc parameters k1-k3   :    16.0000     1.3333    -4.0000 

 Edisp/kcal,au: -131.187094314934  -0.209059919800 
 E6   /kcal   : -44.552644768 
 E8   /kcal   : -86.634449547 
 % E8         :  66.038850848 

-------------------------   ----------------
Dispersion correction           -0.209059920
-------------------------   ----------------


-------------------------   --------------------
FINAL SINGLE POINT ENERGY     -4687.138628773674
-------------------------   --------------------

                                *** OPTIMIZATION RUN DONE ***

                            ***************************************
                            *     ORCA property calculations      *
                            ***************************************

                                    ---------------------
                                    Active property flags
                                    ---------------------
   (+) Dipole Moment


------------------------------------------------------------------------------
                       ORCA ELECTRIC PROPERTIES CALCULATION
------------------------------------------------------------------------------

Dipole Moment Calculation                       ... on
Quadrupole Moment Calculation                   ... off
Polarizability Calculation                      ... off
GBWName                                         ... PDTSPTD_Optimize_Monomer.gbw
Electron density file                           ... PDTSPTD_Optimize_Monomer.scfp
The origin for moment calculation is the CENTER OF MASS  = ( 5.368349, -1.041097 -0.195215)

-------------
DIPOLE MOMENT
-------------
                                X             Y             Z
Electronic contribution:    -18.91179     -26.04894       0.20078
Nuclear contribution   :     20.30884      28.89347      -0.24238
                        -----------------------------------------
Total Dipole Moment    :      1.39705       2.84453      -0.04160
                        -----------------------------------------
Magnitude (a.u.)       :      3.16936
Magnitude (Debye)      :      8.05587



--------------------
Rotational spectrum 
--------------------
 
Rotational constants in cm-1:     0.004030     0.000470     0.000424 
Rotational constants in MHz :   120.808073    14.089875    12.723517 

 Dipole components along the rotational axes: 
x,y,z [a.u.] :    -1.627512     2.719566     0.002799 
x,y,z [Debye]:    -4.136807     6.912587     0.007114 

 

Timings for individual modules:

Sum of individual times         ...     3277.766 sec (=  54.629 min)
GTO integral calculation        ...       18.881 sec (=   0.315 min)   0.6 %
SCF iterations                  ...     2127.368 sec (=  35.456 min)  64.9 %
SCF Gradient evaluation         ...     1123.281 sec (=  18.721 min)  34.3 %
Geometry relaxation             ...        8.236 sec (=   0.137 min)   0.3 %
                             ****ORCA TERMINATED NORMALLY****
TOTAL RUN TIME: 0 days 0 hours 55 minutes 3 seconds 836 msec
