
                                 *****************
                                 * O   R   C   A *
                                 *****************

           --- An Ab Initio, DFT and Semiempirical electronic structure package ---

                  #######################################################
                  #                        -***-                        #
                  #          Department of theory and spectroscopy      #
                  #               Directorship: Frank Neese             #
                  #        Max Planck Institute fuer Kohlenforschung    #
                  #                Kaiser Wilhelm Platz 1               #
                  #                 D-45470 Muelheim/Ruhr               #
                  #                      Germany                        #
                  #                                                     #
                  #                  All rights reserved                #
                  #                        -***-                        #
                  #######################################################


                         Program Version 4.2.0 -  RELEASE  -


 With contributions from (in alphabetic order):
   Daniel Aravena         : Magnetic Suceptibility
   Michael Atanasov       : Ab Initio Ligand Field Theory (pilot matlab implementation)
   Alexander A. Auer      : GIAO ZORA, VPT2
   Ute Becker             : Parallelization
   Giovanni Bistoni       : ED, misc. LED, open-shell LED, HFLED
   Martin Brehm           : Molecular dynamics
   Dmytro Bykov           : SCF Hessian
   Vijay G. Chilkuri      : MRCI spin determinant printing, contributions to CSF-ICE
   Dipayan Datta          : RHF DLPNO-CCSD density
   Achintya Kumar Dutta   : EOM-CC, STEOM-CC
   Dmitry Ganyushin       : Spin-Orbit,Spin-Spin,Magnetic field MRCI
   Miquel Garcia          : C-PCM Hessian, Gaussian charge scheme
   Yang Guo               : DLPNO-NEVPT2, CIM, IAO-localization
   Andreas Hansen         : Spin unrestricted coupled pair/coupled cluster methods
   Benjamin Helmich-Paris : CASSCF linear response (MC-RPA)
   Lee Huntington         : MR-EOM, pCC
   Robert Izsak           : Overlap fitted RIJCOSX, COSX-SCS-MP3, EOM
   Christian Kollmar      : KDIIS, OOCD, Brueckner-CCSD(T), CCSD density
   Simone Kossmann        : Meta GGA functionals, TD-DFT gradient, OOMP2, MP2 Hessian
   Martin Krupicka        : AUTO-CI
   Lucas Lang             : DCDCAS
   Dagmar Lenk            : GEPOL surface, SMD
   Dimitrios Liakos       : Extrapolation schemes; Compound Job, initial MDCI parallelization
   Dimitrios Manganas     : Further ROCIS development; embedding schemes
   Dimitrios Pantazis     : SARC Basis sets
   Taras Petrenko         : DFT Hessian,TD-DFT gradient, ASA, ECA, R-Raman, ABS, FL, XAS/XES, NRVS
   Peter Pinski           : DLPNO-MP2, DLPNO-MP2 Gradient
   Christoph Reimann      : Effective Core Potentials
   Marius Retegan         : Local ZFS, SOC
   Christoph Riplinger    : Optimizer, TS searches, QM/MM, DLPNO-CCSD(T), (RO)-DLPNO pert. Triples
   Tobias Risthaus        : Range-separated hybrids, TD-DFT gradient, RPA, STAB
   Michael Roemelt        : Original ROCIS implementation
   Masaaki Saitow         : Open-shell DLPNO-CCSD energy and density
   Barbara Sandhoefer     : DKH picture change effects
   Avijit Sen             : IP-ROCIS
   Kantharuban Sivalingam : CASSCF convergence, NEVPT2, FIC-MRCI
   Bernardo de Souza      : ESD, SOC TD-DFT
   Georgi Stoychev        : AutoAux, RI-MP2 NMR
   Willem Van den Heuvel  : Paramagnetic NMR
   Boris Wezisla          : Elementary symmetry handling
   Frank Wennmohs         : Technical directorship


 We gratefully acknowledge several colleagues who have allowed us to
 interface, adapt or use parts of their codes:
   Stefan Grimme, W. Hujo, H. Kruse,             : VdW corrections, initial TS optimization,
                  C. Bannwarth                     DFT functionals, gCP, sTDA/sTD-DF
   Ed Valeev, F. Pavosevic, A. Kumar             : LibInt (2-el integral package), F12 methods
   Garnet Chan, S. Sharma, J. Yang, R. Olivares  : DMRG
   Ulf Ekstrom                                   : XCFun DFT Library
   Mihaly Kallay                                 : mrcc  (arbitrary order and MRCC methods)
   Andreas Klamt, Michael Diedenhofen            : otool_cosmo (COSMO solvation model)
   Jiri Pittner, Ondrej Demel                    : Mk-CCSD
   Frank Weinhold                                : gennbo (NPA and NBO analysis)
   Christopher J. Cramer and Donald G. Truhlar   : smd solvation model
   Lars Goerigk                                  : TD-DFT with DH, B97 family of functionals
   V. Asgeirsson, H. Jonsson                     : NEB implementation
   FAccTs GmbH                                   : IRC, NEB, NEB-TS, Multilevel, MM, QM/MM, CI optimization
   S Lehtola, MJT Oliveira, MAL Marques          : LibXC Library


 Your calculation uses the libint2 library for the computation of 2-el integrals
 For citations please refer to: http://libint.valeyev.net

 Your ORCA version has been built with support for libXC version: 4.2.3
 For citations please refer to: https://tddft.org/programs/libxc/

 This ORCA versions uses:
   CBLAS   interface :  Fast vector & matrix operations
   LAPACKE interface :  Fast linear algebra routines
   SCALAPACK package :  Parallel linear algebra routines


Your calculation utilizes the atom-pairwise dispersion correction
with the Becke-Johnson damping scheme (D3BJ)
Cite in your paper:
S.Grimme, S.Ehrlich, L.Goerigk, J Comput Chem, (2011), 32, 1456–1465 
S.Grimme, J.Antony, S.Ehrlich and H.Krieg, J.Chem.Phys., 132, (2010), 154104 
   

----- Orbital basis set information -----
Your calculation utilizes the basis: def2-SVP
   F. Weigend and R. Ahlrichs, Phys. Chem. Chem. Phys. 7, 3297 (2005).

----- AuxJ basis set information -----
Your calculation utilizes the auxiliary basis: def2/J
   F. Weigend, Phys. Chem. Chem. Phys. 8, 1057 (2006).

================================================================================
                                        WARNINGS
                       Please study these warnings very carefully!
================================================================================


WARNING: Geometry Optimization
  ===> : Switching off AutoStart
         For restart on a previous wavefunction, please use MOREAD

INFO   : the flag for use of LIBINT has been found!

================================================================================
                                       INPUT FILE
================================================================================
NAME = PDTSTPD_Input_Thienopyrroledione_2_Optimize_Monomer_Hydrogenated.inp
|  1> ! RI BP86 def2-SVP def2/J D3BJ TIGHTSCF  Opt Grid3 FinalGrid5
|  2> %maxcore 3000
|  3> %geom
|  4> optimizehydrogens true
|  5> end
|  6> 
|  7> 
|  8> *xyz 0 1
|  9> C	-0.279233	1.194434	-0.064237
| 10> C	0.266717	-0.085862	-0.019444
| 11> S	1.055084	2.373110	-0.066466
| 12> C	2.315283	1.118013	-0.003679
| 13> C	1.691737	-0.128800	0.014037
| 14> C	-0.246950	-1.475722	0.008581
| 15> C	2.118941	-1.545302	0.064642
| 16> N	0.910163	-2.288874	0.057228
| 17> O	-1.394840	-1.903502	-0.003038
| 18> O	3.239615	-2.038960	0.107479
| 19> C	0.863862	-3.735197	0.097575
| 20> H	1.902940	-4.096008	0.211977
| 21> H	0.427362	-4.142504	-0.836869
| 22> H	0.243421	-4.078836	0.948761
| 23> H	-0.897263	1.410201	0.815038
| 24> H	-0.859708	1.357594	-0.979698
| 25> H	2.903776	1.296277	0.903827
| 26> H	2.946193	1.246303	-0.890901
| 27> **                         ****END OF INPUT****
================================================================================

                       *****************************
                       * Geometry Optimization Run *
                       *****************************

Geometry optimization settings:
Update method            Update   .... BFGS
Choice of coordinates    CoordSys .... Z-matrix Internals
Initial Hessian          InHess   .... Almoef's Model

Convergence Tolerances:
Energy Change            TolE     ....  5.0000e-06 Eh
Max. Gradient            TolMAXG  ....  3.0000e-04 Eh/bohr
RMS Gradient             TolRMSG  ....  1.0000e-04 Eh/bohr
Max. Displacement        TolMAXD  ....  4.0000e-03 bohr
RMS Displacement         TolRMSD  ....  2.0000e-03 bohr
Strict Convergence                ....  False
------------------------------------------------------------------------------
                        ORCA OPTIMIZATION COORDINATE SETUP
------------------------------------------------------------------------------

The optimization will be done in new redundant internal coordinates
Making redundant internal coordinates   ...  (new redundants) done
Evaluating the initial hessian          ...  (Almloef) done
Evaluating the coordinates              ...  done
Calculating the B-matrix                .... done
Calculating the G-matrix                .... done
Diagonalizing the G-matrix              .... done
Imposing constraints:
 Iter   0:  RMS(Cart)=    0.0000000000 RMS(Int)=    0.0000000000
CONVERGED
The first mode is                       ....   49
The number of degrees of freedom        ....   48
Storing new coordinates                 .... done

    -----------------------------------------------------------------
                    Redundant Internal Coordinates


    -----------------------------------------------------------------
         Definition                    Initial Value    Approx d2E/dq
    -----------------------------------------------------------------
      1. B(C   1,C   0)                  1.3926         0.618946 C 
      2. B(S   2,C   0)                  1.7804         0.401523 C 
      3. B(C   3,S   2)                  1.7797         0.402507 C 
      4. B(C   4,C   1)                  1.4261         0.547277 C 
      5. B(C   4,C   3)                  1.3942         0.615334 C 
      6. B(C   5,C   1)                  1.4820         0.445599 C 
      7. B(C   6,C   4)                  1.4804         0.448264 C 
      8. B(N   7,C   5)                  1.4151         0.510315 C 
      9. B(N   7,C   6)                  1.4192         0.502696 C 
     10. B(O   8,C   5)                  1.2251         1.025699 C 
     11. B(O   9,C   6)                  1.2253         1.024683 C 
     12. B(C  10,N   7)                  1.4476         0.452831 C 
     13. B(H  11,C  10)                  1.1059         0.339702   
     14. B(H  12,C  10)                  1.1089         0.335970   
     15. B(H  13,C  10)                  1.1079         0.337121   
     16. B(H  14,C   0)                  1.0962         0.351999   
     17. B(H  15,C   0)                  1.0962         0.351999   
     18. B(H  16,C   3)                  1.0962         0.351982   
     19. B(H  17,C   3)                  1.0962         0.351983   
     20. A(S   2,C   0,H  14)          107.0519         0.343670   
     21. A(C   1,C   0,H  15)          111.7964         0.351452   
     22. A(C   1,C   0,H  14)          112.0984         0.351452   
     23. A(C   1,C   0,S   2)          108.3539         0.423577 C 
     24. A(S   2,C   0,H  15)          107.2945         0.343670   
     25. A(H  14,C   0,H  15)          110.0001         0.288771   
     26. A(C   0,C   1,C   4)          114.8472         0.424329 C 
     27. A(C   4,C   1,C   5)          108.5219         0.400294 C 
     28. A(C   0,C   1,C   5)          136.6305         0.409087 C 
     29. A(C   0,S   2,C   3)           93.6555         0.413836 C 
     30. A(H  16,C   3,H  17)          110.0004         0.288767   
     31. A(C   4,C   3,H  16)          112.0256         0.351102   
     32. A(C   4,C   3,H  17)          111.8613         0.351102   
     33. A(S   2,C   3,H  17)          107.2446         0.343809   
     34. A(S   2,C   3,H  16)          107.1372         0.343809   
     35. A(S   2,C   3,C   4)          108.3273         0.423319 C 
     36. A(C   1,C   4,C   6)          108.5407         0.400714 C 
     37. A(C   3,C   4,C   6)          136.6429         0.409094 C 
     38. A(C   1,C   4,C   3)          114.8160         0.423885 C 
     39. A(C   1,C   5,N   7)          104.8408         0.392885 C 
     40. A(C   1,C   5,O   8)          130.6975         0.444902 C 
     41. A(N   7,C   5,O   8)          124.4616         0.452975 C 
     42. A(N   7,C   6,O   9)          124.6170         0.451657 C 
     43. A(C   4,C   6,N   7)          104.7950         0.392261 C 
     44. A(C   4,C   6,O   9)          130.5879         0.445302 C 
     45. A(C   5,N   7,C  10)          123.2926         0.391484 C 
     46. A(C   6,N   7,C  10)          123.4059         0.390456 C 
     47. A(C   5,N   7,C   6)          113.3015         0.398722 C 
     48. A(N   7,C  10,H  13)          110.4385         0.329159   
     49. A(H  11,C  10,H  13)          110.2121         0.285242   
     50. A(H  12,C  10,H  13)          108.2426         0.284752   
     51. A(N   7,C  10,H  11)          107.3859         0.329574   
     52. A(N   7,C  10,H  12)          110.8600         0.328973   
     53. A(H  11,C  10,H  12)          109.7062         0.285090   
     54. D(C   5,C   1,C   0,H  15)    -62.1282         0.028800   
     55. D(C   5,C   1,C   0,H  14)     61.9227         0.028800   
     56. D(C   4,C   1,C   0,S   2)      0.0932         0.028800 C 
     57. D(C   4,C   1,C   0,H  14)   -117.8213         0.028800   
     58. D(C   5,C   1,C   0,S   2)    179.8372         0.028800 C 
     59. D(C   4,C   1,C   0,H  15)    118.1278         0.028800   
     60. D(C   3,S   2,C   0,C   1)     -0.1122         0.004101 C 
     61. D(C   3,S   2,C   0,H  14)    120.9753         0.004101   
     62. D(C   3,S   2,C   0,H  15)   -120.9782         0.004101   
     63. D(C   4,C   3,S   2,C   0)      0.1037         0.004114 C 
     64. D(H  16,C   3,S   2,C   0)   -120.9309         0.004114   
     65. D(H  17,C   3,S   2,C   0)    121.0037         0.004114   
     66. D(C   6,C   4,C   1,C   0)    179.7933         0.020483 C 
     67. D(C   6,C   4,C   3,H  17)     62.1989         0.028443   
     68. D(C   3,C   4,C   1,C   0)     -0.0161         0.020483 C 
     69. D(C   1,C   4,C   3,S   2)     -0.0695         0.028443 C 
     70. D(C   6,C   4,C   1,C   5)     -0.0213         0.020483 C 
     71. D(C   1,C   4,C   3,H  16)    117.8901         0.028443   
     72. D(C   1,C   4,C   3,H  17)   -118.0643         0.028443   
     73. D(C   6,C   4,C   3,H  16)    -61.8467         0.028443   
     74. D(C   6,C   4,C   3,S   2)   -179.8063         0.028443 C 
     75. D(C   3,C   4,C   1,C   5)   -179.8307         0.020483 C 
     76. D(N   7,C   5,C   1,C   0)   -179.7862         0.013540 C 
     77. D(N   7,C   5,C   1,C   4)     -0.0311         0.013540 C 
     78. D(O   8,C   5,C   1,C   0)      0.1118         0.013540 C 
     79. D(O   8,C   5,C   1,C   4)    179.8669         0.013540 C 
     80. D(N   7,C   6,C   4,C   1)      0.0650         0.013699 C 
     81. D(N   7,C   6,C   4,C   3)    179.8130         0.013699 C 
     82. D(O   9,C   6,C   4,C   1)   -179.8022         0.013699 C 
     83. D(O   9,C   6,C   4,C   3)     -0.0542         0.013699 C 
     84. D(C   6,N   7,C   5,C   1)      0.0766         0.020617 C 
     85. D(C   6,N   7,C   5,O   8)   -179.8296         0.020617 C 
     86. D(C  10,N   7,C   5,C   1)    179.9820         0.020617 C 
     87. D(C  10,N   7,C   5,O   8)      0.0758         0.020617 C 
     88. D(C   5,N   7,C   6,C   4)     -0.0892         0.019985 C 
     89. D(C   5,N   7,C   6,O   9)    179.7882         0.019985 C 
     90. D(C  10,N   7,C   6,C   4)   -179.9945         0.019985 C 
     91. D(C  10,N   7,C   6,O   9)     -0.1170         0.019985 C 
     92. D(H  11,C  10,N   7,C   5)   -175.5857         0.017496   
     93. D(H  11,C  10,N   7,C   6)      4.3103         0.017496   
     94. D(H  12,C  10,N   7,C   5)     64.5836         0.017496   
     95. D(H  12,C  10,N   7,C   6)   -115.5205         0.017496   
     96. D(H  13,C  10,N   7,C   5)    -55.3841         0.017496   
     97. D(H  13,C  10,N   7,C   6)    124.5118         0.017496   
    -----------------------------------------------------------------

Number of atoms                         .... 18
Number of degrees of freedom            .... 97

         *************************************************************
         *                GEOMETRY OPTIMIZATION CYCLE   1            *
         *************************************************************
---------------------------------
CARTESIAN COORDINATES (ANGSTROEM)
---------------------------------
  C     -0.279233    1.194434   -0.064237
  C      0.266717   -0.085862   -0.019444
  S      1.055084    2.373110   -0.066466
  C      2.315283    1.118013   -0.003679
  C      1.691737   -0.128800    0.014037
  C     -0.246950   -1.475722    0.008581
  C      2.118941   -1.545302    0.064642
  N      0.910163   -2.288874    0.057228
  O     -1.394840   -1.903502   -0.003038
  O      3.239615   -2.038960    0.107479
  C      0.863862   -3.735197    0.097575
  H      1.902940   -4.096008    0.211977
  H      0.427362   -4.142504   -0.836869
  H      0.243421   -4.078836    0.948761
  H     -0.897263    1.410201    0.815038
  H     -0.859708    1.357594   -0.979698
  H      2.903776    1.296277    0.903827
  H      2.946193    1.246303   -0.890901

----------------------------
CARTESIAN COORDINATES (A.U.)
----------------------------
  NO LB      ZA    FRAG     MASS         X           Y           Z
   0 C     6.0000    0    12.011   -0.527674    2.257153   -0.121390
   1 C     6.0000    0    12.011    0.504022   -0.162256   -0.036744
   2 S    16.0000    0    32.060    1.993820    4.484528   -0.125603
   3 C     6.0000    0    12.011    4.375251    2.112738   -0.006952
   4 C     6.0000    0    12.011    3.196920   -0.243397    0.026526
   5 C     6.0000    0    12.011   -0.466668   -2.788710    0.016216
   6 C     6.0000    0    12.011    4.004218   -2.920198    0.122156
   7 N     7.0000    0    14.007    1.719959   -4.325345    0.108145
   8 O     8.0000    0    15.999   -2.635866   -3.597097   -0.005741
   9 O     8.0000    0    15.999    6.121985   -3.853076    0.203106
  10 C     6.0000    0    12.011    1.632463   -7.058499    0.184390
  11 H     1.0000    0     1.008    3.596035   -7.740333    0.400578
  12 H     1.0000    0     1.008    0.807597   -7.828198   -1.581453
  13 H     1.0000    0     1.008    0.459999   -7.707883    1.792898
  14 H     1.0000    0     1.008   -1.695581    2.664894    1.540199
  15 H     1.0000    0     1.008   -1.624613    2.565481   -1.851361
  16 H     1.0000    0     1.008    5.487341    2.449609    1.707986
  17 H     1.0000    0     1.008    5.567498    2.355171   -1.683559

--------------------------------
INTERNAL COORDINATES (ANGSTROEM)
--------------------------------
 C      0   0   0     0.000000000000     0.00000000     0.00000000
 C      1   0   0     1.392560829179     0.00000000     0.00000000
 S      1   2   0     1.780360620185   108.35391325     0.00000000
 C      3   1   2     1.779694413763    93.65545686   359.88780474
 C      4   3   1     1.394154269707   108.32732425     0.10367718
 C      2   1   3     1.482008774304   136.63053112   179.83723545
 C      5   4   3     1.480385773927   136.64288091   180.19365499
 N      6   2   1     1.415094767315   104.84079524   180.21383206
 O      6   2   1     1.225064154100   130.69753765     0.11182389
 O      7   5   4     1.225334013161   130.58788480   359.94583862
 C      8   6   2     1.447626292708   123.29260085   179.98196285
 H     11   8   6     1.105873177814   107.38585829   184.41434007
 H     11   8   6     1.108880891433   110.86003804    64.58357190
 H     11   8   6     1.107949639378   110.43846711   304.61585206
 H      1   2   3     1.096193871910   112.09842578   242.08546651
 H      1   2   3     1.096193985454   111.79637898   118.03457178
 H      4   3   1     1.096206734508   107.13724996   239.06908420
 H      4   3   1     1.096206472105   107.24455925   121.00372312

---------------------------
INTERNAL COORDINATES (A.U.)
---------------------------
 C      0   0   0     0.000000000000     0.00000000     0.00000000
 C      1   0   0     2.631558591975     0.00000000     0.00000000
 S      1   2   0     3.364393991768   108.35391325     0.00000000
 C      3   1   2     3.363135044081    93.65545686   359.88780474
 C      4   3   1     2.634569758182   108.32732425     0.10367718
 C      2   1   3     2.800590711503   136.63053112   179.83723545
 C      5   4   3     2.797523685275   136.64288091   180.19365499
 N      6   2   1     2.674141563770   104.84079524   180.21383206
 O      6   2   1     2.315035747733   130.69753765     0.11182389
 O      7   5   4     2.315545707453   130.58788480   359.94583862
 C      8   6   2     2.735617237482   123.29260085   179.98196285
 H     11   8   6     2.089797444918   107.38585829   184.41434007
 H     11   8   6     2.095481199947   110.86003804    64.58357190
 H     11   8   6     2.093721388601   110.43846711   304.61585206
 H      1   2   3     2.071506207593   112.09842578   242.08546651
 H      1   2   3     2.071506422160   111.79637898   118.03457178
 H      4   3   1     2.071530514381   107.13724996   239.06908420
 H      4   3   1     2.071530018510   107.24455925   121.00372312

---------------------
BASIS SET INFORMATION
---------------------
There are 5 groups of distinct atoms

 Group   1 Type C   : 7s4p1d contracted to 3s2p1d pattern {511/31/1}
 Group   2 Type S   : 10s7p1d contracted to 4s3p1d pattern {5311/511/1}
 Group   3 Type N   : 7s4p1d contracted to 3s2p1d pattern {511/31/1}
 Group   4 Type O   : 7s4p1d contracted to 3s2p1d pattern {511/31/1}
 Group   5 Type H   : 4s1p contracted to 2s1p pattern {31/1}

Atom   0C    basis set group =>   1
Atom   1C    basis set group =>   1
Atom   2S    basis set group =>   2
Atom   3C    basis set group =>   1
Atom   4C    basis set group =>   1
Atom   5C    basis set group =>   1
Atom   6C    basis set group =>   1
Atom   7N    basis set group =>   3
Atom   8O    basis set group =>   4
Atom   9O    basis set group =>   4
Atom  10C    basis set group =>   1
Atom  11H    basis set group =>   5
Atom  12H    basis set group =>   5
Atom  13H    basis set group =>   5
Atom  14H    basis set group =>   5
Atom  15H    basis set group =>   5
Atom  16H    basis set group =>   5
Atom  17H    basis set group =>   5
---------------------------------
AUXILIARY/J BASIS SET INFORMATION
---------------------------------
There are 5 groups of distinct atoms

 Group   1 Type C   : 12s5p4d2f1g contracted to 6s4p3d1f1g pattern {711111/2111/211/2/1}
 Group   2 Type S   : 14s5p5d2f1g contracted to 8s4p3d1f1g pattern {71111111/2111/311/2/1}
 Group   3 Type N   : 12s5p4d2f1g contracted to 6s4p3d1f1g pattern {711111/2111/211/2/1}
 Group   4 Type O   : 12s5p4d2f1g contracted to 6s4p3d1f1g pattern {711111/2111/211/2/1}
 Group   5 Type H   : 5s2p1d contracted to 3s1p1d pattern {311/2/1}

Atom   0C    basis set group =>   1
Atom   1C    basis set group =>   1
Atom   2S    basis set group =>   2
Atom   3C    basis set group =>   1
Atom   4C    basis set group =>   1
Atom   5C    basis set group =>   1
Atom   6C    basis set group =>   1
Atom   7N    basis set group =>   3
Atom   8O    basis set group =>   4
Atom   9O    basis set group =>   4
Atom  10C    basis set group =>   1
Atom  11H    basis set group =>   5
Atom  12H    basis set group =>   5
Atom  13H    basis set group =>   5
Atom  14H    basis set group =>   5
Atom  15H    basis set group =>   5
Atom  16H    basis set group =>   5
Atom  17H    basis set group =>   5
------------------------------------------------------------------------------
                           ORCA GTO INTEGRAL CALCULATION
                           -- RI-GTO INTEGRALS CHOSEN --
------------------------------------------------------------------------------

                         BASIS SET STATISTICS AND STARTUP INFO

Gaussian basis set:
 # of primitive gaussian shells          ...  173
 # of primitive gaussian functions       ...  325
 # of contracted shells                  ...   89
 # of contracted basis functions         ...  193
 Highest angular momentum                ...    2
 Maximum contraction depth               ...    5
Auxiliary gaussian basis set:
 # of primitive gaussian shells          ...  323
 # of primitive gaussian functions       ...  889
 # of contracted shells                  ...  202
 # of contracted aux-basis functions     ...  618
 Highest angular momentum                ...    4
 Maximum contraction depth               ...    7
Ratio of auxiliary to basis functions    ...  3.20
Integral package used                  ... LIBINT
 One Electron integrals                  ... done
 Ordering auxiliary basis shells         ... done
 Integral threshhold             Thresh  ...  2.500e-11
 Primitive cut-off               TCut    ...  2.500e-12
 Pre-screening matrix                    ... done
 Shell pair data                         ... 
 Ordering of the shell pairs             ... done (   0.001 sec) 3608 of 4005 pairs
 Determination of significant pairs      ... done (   0.000 sec)
 Creation of shell pair data             ... done (   0.001 sec)
 Storage of shell pair data              ... done (   0.008 sec)
 Shell pair data done in (   0.009 sec)
 Computing two index integrals           ... done
 Cholesky decomposition of the V-matrix  ... done


Timings:
 Total evaluation time                   ...   0.654 sec (  0.011 min)
 One electron matrix time                ...   0.157 sec (  0.003 min) = 23.9%
 Schwartz matrix evaluation time         ...   0.114 sec (  0.002 min) = 17.4%
 Two index repulsion integral time       ...   0.101 sec (  0.002 min) = 15.5%
 Cholesky decomposition of V             ...   0.230 sec (  0.004 min) = 35.2%
 Three index repulsion integral time     ...   0.000 sec (  0.000 min) =  0.0%

-------------------------------------------------------------------------------
                                 ORCA SCF
-------------------------------------------------------------------------------

------------
SCF SETTINGS
------------
Hamiltonian:
 Density Functional     Method          .... DFT(GTOs)
 Exchange Functional    Exchange        .... B88
   X-Alpha parameter    XAlpha          ....  0.666667
   Becke's b parameter  XBeta           ....  0.004200
 Correlation Functional Correlation     .... P86
 LDA part of GGA corr.  LDAOpt          .... PW91-LDA
 Gradients option       PostSCFGGA      .... off
   Density functional embedding theory  .... OFF
 RI-approximation to the Coulomb term is turned on
   Number of auxiliary basis functions  .... 618


General Settings:
 Integral files         IntName         .... PDTSTPD_Input_Thienopyrroledione_2_Optimize_Monomer_Hydrogenated
 Hartree-Fock type      HFTyp           .... RHF
 Total Charge           Charge          ....    0
 Multiplicity           Mult            ....    1
 Number of Electrons    NEL             ....   88
 Basis Dimension        Dim             ....  193
 Nuclear Repulsion      ENuc            ....    690.7362735326 Eh

Convergence Acceleration:
 DIIS                   CNVDIIS         .... on
   Start iteration      DIISMaxIt       ....    12
   Startup error        DIISStart       ....  0.200000
   # of expansion vecs  DIISMaxEq       ....     5
   Bias factor          DIISBfac        ....   1.050
   Max. coefficient     DIISMaxC        ....  10.000
 Newton-Raphson         CNVNR           .... off
 SOSCF                  CNVSOSCF        .... on
   Start iteration      SOSCFMaxIt      ....   150
   Startup grad/error   SOSCFStart      ....  0.003300
 Level Shifting         CNVShift        .... on
   Level shift para.    LevelShift      ....    0.2500
   Turn off err/grad.   ShiftErr        ....    0.0010
 Zerner damping         CNVZerner       .... off
 Static damping         CNVDamp         .... on
   Fraction old density DampFac         ....    0.7000
   Max. Damping (<1)    DampMax         ....    0.9800
   Min. Damping (>=0)   DampMin         ....    0.0000
   Turn off err/grad.   DampErr         ....    0.1000
 Fernandez-Rico         CNVRico         .... off

SCF Procedure:
 Maximum # iterations   MaxIter         ....   125
 SCF integral mode      SCFMode         .... Direct
   Integral package                     .... LIBINT
 Reset frequency        DirectResetFreq ....    20
 Integral Threshold     Thresh          ....  2.500e-11 Eh
 Primitive CutOff       TCut            ....  2.500e-12 Eh

Convergence Tolerance:
 Convergence Check Mode ConvCheckMode   .... Total+1el-Energy
 Convergence forced     ConvForced      .... 0
 Energy Change          TolE            ....  1.000e-08 Eh
 1-El. energy change                    ....  1.000e-05 Eh
 Orbital Gradient       TolG            ....  1.000e-05
 Orbital Rotation angle TolX            ....  1.000e-05
 DIIS Error             TolErr          ....  5.000e-07


Diagonalization of the overlap matrix:
Smallest eigenvalue                        ... 5.145e-04
Time for diagonalization                   ...    0.018 sec
Threshold for overlap eigenvalues          ... 1.000e-08
Number of eigenvalues below threshold      ... 0
Time for construction of square roots      ...    0.074 sec
Total time needed                          ...    0.092 sec

-------------------
DFT GRID GENERATION
-------------------

General Integration Accuracy     IntAcc      ...  4.340
Radial Grid Type                 RadialGrid  ... Gauss-Chebyshev
Angular Grid (max. acc.)         AngularGrid ... Lebedev-194
Angular grid pruning method      GridPruning ... 3 (G Style)
Weight generation scheme         WeightScheme... Becke
Basis function cutoff            BFCut       ...    1.0000e-11
Integration weight cutoff        WCut        ...    1.0000e-14
Grids for H and He will be reduced by one unit

# of grid points (after initial pruning)     ...  47274 (   0.0 sec)
# of grid points (after weights+screening)   ...  43278 (   0.1 sec)
nearest neighbour list constructed           ...    0.0 sec
Grid point re-assignment to atoms done       ...    0.0 sec
Grid point division into batches done        ...    0.1 sec
Reduced shell lists constructed in    0.4 sec

Total number of grid points                  ...    43278
Total number of batches                      ...      685
Average number of points per batch           ...       63
Average number of grid points per atom       ...     2404
Average number of shells per batch           ...    55.96 (62.88%)
Average number of basis functions per batch  ...   119.56 (61.95%)
Average number of large shells per batch     ...    41.91 (74.90%)
Average number of large basis fcns per batch ...    88.79 (74.27%)
Maximum spatial batch extension              ...  17.51, 20.16, 19.26 au
Average spatial batch extension              ...   2.92,  3.02,  2.98 au

Time for grid setup =    0.532 sec

------------------------------
INITIAL GUESS: MODEL POTENTIAL
------------------------------
Loading Hartree-Fock densities                     ... done
Calculating cut-offs                               ... done
Setting up the integral package                    ... done
Initializing the effective Hamiltonian             ... done
Starting the Coulomb interaction                   ... done (   0.2 sec)
Reading the grid                                   ... done
Mapping shells                                     ... done
Starting the XC term evaluation                    ... done (   0.5 sec)
  promolecular density results
     # of electrons  =     87.995139669
     EX              =    -86.126989606
     EC              =     -3.378372777
     EX+EC           =    -89.505362382
Transforming the Hamiltonian                       ... done (   0.0 sec)
Diagonalizing the Hamiltonian                      ... done (   0.0 sec)
Back transforming the eigenvectors                 ... done (   0.0 sec)
Now organizing SCF variables                       ... done
                      ------------------
                      INITIAL GUESS DONE (   1.3 sec)
                      ------------------
--------------
SCF ITERATIONS
--------------
ITER       Energy         Delta-E        Max-DP      RMS-DP      [F,P]     Damp
               ***  Starting incremental Fock matrix formation  ***
  0   -873.6651087029   0.000000000000 0.13448287  0.00336621  0.2483629 0.7000
  1   -873.7961806119  -0.131071909011 0.07014656  0.00181732  0.0649787 0.7000
                               ***Turning on DIIS***
  2   -873.8299582966  -0.033777684697 0.06588961  0.00218661  0.0287323 0.0000
  3   -873.9067689480  -0.076810651376 0.05016745  0.00118128  0.0446381 0.0000
  4   -873.9160251742  -0.009256226208 0.01533897  0.00045464  0.0296239 0.0000
  5   -873.9188716573  -0.002846483106 0.00762821  0.00013900  0.0038338 0.0000
                      *** Initiating the SOSCF procedure ***
                           *** Shutting down DIIS ***
                      *** Re-Reading the Fockian *** 
                      *** Removing any level shift *** 
ITER      Energy       Delta-E        Grad      Rot      Max-DP    RMS-DP
  6   -873.91895910  -0.0000874411  0.000396  0.000396  0.001188  0.000046
               *** Restarting incremental Fock matrix formation ***
  7   -873.91897521  -0.0000161100  0.000105  0.000374  0.000889  0.000027
  8   -873.91897424   0.0000009659  0.000339  0.000501  0.000608  0.000014
  9   -873.91897570  -0.0000014530  0.000104  0.000342  0.000507  0.000013
 10   -873.91897525   0.0000004500  0.000146  0.000347  0.000298  0.000008
 11   -873.91897585  -0.0000006080  0.000074  0.000389  0.000390  0.000008
 12   -873.91897551   0.0000003387  0.000178  0.000300  0.000297  0.000006
 13   -873.91897590  -0.0000003822  0.000030  0.000125  0.000164  0.000004
 14   -873.91897585   0.0000000439  0.000058  0.000082  0.000105  0.000003
                  ***Gradient check signals convergence***
              ***Rediagonalizing the Fockian in SOSCF/NRSCF***

               *****************************************************
               *                     SUCCESS                       *
               *           SCF CONVERGED AFTER  15 CYCLES          *
               *****************************************************

Setting up the final grid:

General Integration Accuracy     IntAcc      ...  5.010
Radial Grid Type                 RadialGrid  ... Gauss-Chebyshev
Angular Grid (max. acc.)         AngularGrid ... Lebedev-434
Angular grid pruning method      GridPruning ... 3 (G Style)
Weight generation scheme         WeightScheme... Becke
Basis function cutoff            BFCut       ...    1.0000e-11
Integration weight cutoff        WCut        ...    1.0000e-14
Grids for H and He will be reduced by one unit

# of grid points (after initial pruning)     ... 165744 (   0.1 sec)
# of grid points (after weights+screening)   ... 150257 (   0.4 sec)
nearest neighbour list constructed           ...    0.0 sec
Grid point re-assignment to atoms done       ...    0.0 sec
Grid point division into batches done        ...    1.1 sec
Reduced shell lists constructed in    2.1 sec

Total number of grid points                  ...   150257
Total number of batches                      ...     2357
Average number of points per batch           ...       63
Average number of grid points per atom       ...     8348
Average number of shells per batch           ...    51.97 (58.39%)
Average number of basis functions per batch  ...   110.07 (57.03%)
Average number of large shells per batch     ...    38.06 (73.24%)
Average number of large basis fcns per batch ...    80.07 (72.74%)
Maximum spatial batch extension              ...  15.77, 20.48, 20.54 au
Average spatial batch extension              ...   2.01,  2.04,  2.01 au

Final grid set up in    2.5 sec
Final integration                            ... done (   2.2 sec)
Change in XC energy                          ...    -0.000369750
Integrated number of electrons               ...    88.000004164
Previous integrated no of electrons          ...    87.998873703

----------------
TOTAL SCF ENERGY
----------------

Total Energy       :         -873.91934566 Eh          -23780.55438 eV

Components:
Nuclear Repulsion  :          690.73627353 Eh           18795.88957 eV
Electronic Energy  :        -1564.65561919 Eh          -42576.44394 eV
One Electron Energy:        -2567.33279490 Eh          -69860.67700 eV
Two Electron Energy:         1002.67717571 Eh           27284.23305 eV

Virial components:
Potential Energy   :        -1742.41468876 Eh          -47413.51414 eV
Kinetic Energy     :          868.49534310 Eh           23632.95976 eV
Virial Ratio       :            2.00624529


DFT components:
N(Alpha)           :       44.000002082094 electrons
N(Beta)            :       44.000002082094 electrons
N(Total)           :       88.000004164187 electrons
E(X)               :      -87.070704630115 Eh       
E(C)               :       -3.382754396609 Eh       
E(XC)              :      -90.453459026724 Eh       
DFET-embed. en.    :        0.000000000000 Eh       

---------------
SCF CONVERGENCE
---------------

  Last Energy change         ...   -5.8576e-08  Tolerance :   1.0000e-08
  Last MAX-Density change    ...    5.8094e-06  Tolerance :   1.0000e-07
  Last RMS-Density change    ...    2.2241e-07  Tolerance :   5.0000e-09
  Last Orbital Gradient      ...    1.2818e-06  Tolerance :   1.0000e-05
  Last Orbital Rotation      ...    3.9005e-06  Tolerance :   1.0000e-05

             **** THE GBW FILE WAS UPDATED (PDTSTPD_Input_Thienopyrroledione_2_Optimize_Monomer_Hydrogenated.gbw) ****
             **** DENSITY FILE WAS UPDATED (PDTSTPD_Input_Thienopyrroledione_2_Optimize_Monomer_Hydrogenated.scfp) ****
             **** ENERGY FILE WAS UPDATED (PDTSTPD_Input_Thienopyrroledione_2_Optimize_Monomer_Hydrogenated.en.tmp) ****
             **** THE GBW FILE WAS UPDATED (PDTSTPD_Input_Thienopyrroledione_2_Optimize_Monomer_Hydrogenated.gbw) ****
             **** DENSITY FILE WAS UPDATED (PDTSTPD_Input_Thienopyrroledione_2_Optimize_Monomer_Hydrogenated.scfp) ****
----------------
ORBITAL ENERGIES
----------------

  NO   OCC          E(Eh)            E(eV) 
   0   2.0000     -88.085200     -2396.9202 
   1   2.0000     -18.790012      -511.3022 
   2   2.0000     -18.788374      -511.2576 
   3   2.0000     -14.067365      -382.7925 
   4   2.0000     -10.040449      -273.2145 
   5   2.0000     -10.038815      -273.1700 
   6   2.0000      -9.959256      -271.0051 
   7   2.0000      -9.959212      -271.0039 
   8   2.0000      -9.959121      -271.0015 
   9   2.0000      -9.956975      -270.9431 
  10   2.0000      -9.956928      -270.9418 
  11   2.0000      -7.684966      -209.1186 
  12   2.0000      -5.714090      -155.4883 
  13   2.0000      -5.708919      -155.3476 
  14   2.0000      -5.699888      -155.1018 
  15   2.0000      -0.978749       -26.6331 
  16   2.0000      -0.960439       -26.1349 
  17   2.0000      -0.878058       -23.8932 
  18   2.0000      -0.825653       -22.4672 
  19   2.0000      -0.726036       -19.7564 
  20   2.0000      -0.711998       -19.3745 
  21   2.0000      -0.639934       -17.4135 
  22   2.0000      -0.609411       -16.5829 
  23   2.0000      -0.557196       -15.1621 
  24   2.0000      -0.536484       -14.5985 
  25   2.0000      -0.520651       -14.1676 
  26   2.0000      -0.463572       -12.6144 
  27   2.0000      -0.436552       -11.8792 
  28   2.0000      -0.433579       -11.7983 
  29   2.0000      -0.430617       -11.7177 
  30   2.0000      -0.414595       -11.2817 
  31   2.0000      -0.414561       -11.2808 
  32   2.0000      -0.391798       -10.6614 
  33   2.0000      -0.371155       -10.0996 
  34   2.0000      -0.370574       -10.0838 
  35   2.0000      -0.364191        -9.9102 
  36   2.0000      -0.362232        -9.8568 
  37   2.0000      -0.355165        -9.6645 
  38   2.0000      -0.312973        -8.5164 
  39   2.0000      -0.268101        -7.2954 
  40   2.0000      -0.253188        -6.8896 
  41   2.0000      -0.237096        -6.4517 
  42   2.0000      -0.237043        -6.4503 
  43   2.0000      -0.195711        -5.3256 
  44   0.0000      -0.141580        -3.8526 
  45   0.0000      -0.016573        -0.4510 
  46   0.0000      -0.001316        -0.0358 
  47   0.0000       0.005795         0.1577 
  48   0.0000       0.031200         0.8490 
  49   0.0000       0.052670         1.4332 
  50   0.0000       0.064521         1.7557 
  51   0.0000       0.065938         1.7943 
  52   0.0000       0.090589         2.4651 
  53   0.0000       0.100166         2.7257 
  54   0.0000       0.110965         3.0195 
  55   0.0000       0.111708         3.0397 
  56   0.0000       0.116715         3.1760 
  57   0.0000       0.147169         4.0047 
  58   0.0000       0.176291         4.7971 
  59   0.0000       0.193561         5.2671 
  60   0.0000       0.210682         5.7329 
  61   0.0000       0.217940         5.9305 
  62   0.0000       0.250971         6.8293 
  63   0.0000       0.288843         7.8598 
  64   0.0000       0.295700         8.0464 
  65   0.0000       0.312730         8.5098 
  66   0.0000       0.352126         9.5818 
  67   0.0000       0.361621         9.8402 
  68   0.0000       0.365594         9.9483 
  69   0.0000       0.379069        10.3150 
  70   0.0000       0.387364        10.5407 
  71   0.0000       0.396562        10.7910 
  72   0.0000       0.405120        11.0239 
  73   0.0000       0.419051        11.4030 
  74   0.0000       0.421219        11.4619 
  75   0.0000       0.454236        12.3604 
  76   0.0000       0.465270        12.6606 
  77   0.0000       0.489677        13.3248 
  78   0.0000       0.528736        14.3876 
  79   0.0000       0.538507        14.6535 
  80   0.0000       0.543207        14.7814 
  81   0.0000       0.554071        15.0770 
  82   0.0000       0.561921        15.2906 
  83   0.0000       0.569237        15.4897 
  84   0.0000       0.580135        15.7863 
  85   0.0000       0.587917        15.9980 
  86   0.0000       0.590044        16.0559 
  87   0.0000       0.591119        16.0852 
  88   0.0000       0.599923        16.3247 
  89   0.0000       0.612006        16.6535 
  90   0.0000       0.613678        16.6990 
  91   0.0000       0.630945        17.1689 
  92   0.0000       0.643388        17.5075 
  93   0.0000       0.655767        17.8443 
  94   0.0000       0.657690        17.8966 
  95   0.0000       0.666260        18.1299 
  96   0.0000       0.682861        18.5816 
  97   0.0000       0.708481        19.2787 
  98   0.0000       0.722547        19.6615 
  99   0.0000       0.764668        20.8077 
 100   0.0000       0.772444        21.0193 
 101   0.0000       0.779403        21.2086 
 102   0.0000       0.819006        22.2863 
 103   0.0000       0.820421        22.3248 
 104   0.0000       0.868741        23.6396 
 105   0.0000       0.871420        23.7125 
 106   0.0000       0.896226        24.3875 
 107   0.0000       0.970340        26.4043 
 108   0.0000       0.976001        26.5583 
 109   0.0000       0.989266        26.9193 
 110   0.0000       0.998139        27.1607 
 111   0.0000       1.009624        27.4733 
 112   0.0000       1.045356        28.4456 
 113   0.0000       1.079661        29.3791 
 114   0.0000       1.091813        29.7097 
 115   0.0000       1.131092        30.7786 
 116   0.0000       1.161608        31.6090 
 117   0.0000       1.169122        31.8134 
 118   0.0000       1.179675        32.1006 
 119   0.0000       1.188062        32.3288 
 120   0.0000       1.208596        32.8876 
 121   0.0000       1.300428        35.3864 
 122   0.0000       1.326501        36.0959 
 123   0.0000       1.387482        37.7553 
 124   0.0000       1.406826        38.2817 
 125   0.0000       1.408466        38.3263 
 126   0.0000       1.434240        39.0277 
 127   0.0000       1.451892        39.5080 
 128   0.0000       1.470006        40.0009 
 129   0.0000       1.495408        40.6921 
 130   0.0000       1.523131        41.4465 
 131   0.0000       1.542192        41.9652 
 132   0.0000       1.563275        42.5389 
 133   0.0000       1.572693        42.7952 
 134   0.0000       1.647928        44.8424 
 135   0.0000       1.662613        45.2420 
 136   0.0000       1.665696        45.3259 
 137   0.0000       1.685359        45.8609 
 138   0.0000       1.693529        46.0833 
 139   0.0000       1.715493        46.6809 
 140   0.0000       1.752413        47.6856 
 141   0.0000       1.760961        47.9182 
 142   0.0000       1.772846        48.2416 
 143   0.0000       1.789913        48.7060 
 144   0.0000       1.810084        49.2549 
 145   0.0000       1.846021        50.2328 
 146   0.0000       1.858523        50.5730 
 147   0.0000       1.865404        50.7602 
 148   0.0000       1.906783        51.8862 
 149   0.0000       1.912403        52.0391 
 150   0.0000       1.924332        52.3637 
 151   0.0000       1.943285        52.8795 
 152   0.0000       1.991183        54.1828 
 153   0.0000       2.002487        54.4904 
 154   0.0000       2.030215        55.2449 
 155   0.0000       2.063001        56.1371 
 156   0.0000       2.077673        56.5364 
 157   0.0000       2.144161        58.3456 
 158   0.0000       2.191985        59.6469 
 159   0.0000       2.216186        60.3055 
 160   0.0000       2.222625        60.4807 
 161   0.0000       2.243069        61.0370 
 162   0.0000       2.270551        61.7848 
 163   0.0000       2.315348        63.0038 
 164   0.0000       2.330067        63.4044 
 165   0.0000       2.365759        64.3756 
 166   0.0000       2.403675        65.4073 
 167   0.0000       2.416223        65.7488 
 168   0.0000       2.481070        67.5134 
 169   0.0000       2.501868        68.0793 
 170   0.0000       2.514938        68.4349 
 171   0.0000       2.566935        69.8499 
 172   0.0000       2.588142        70.4269 
 173   0.0000       2.592489        70.5452 
 174   0.0000       2.596536        70.6554 
 175   0.0000       2.641780        71.8865 
 176   0.0000       2.695653        73.3524 
 177   0.0000       2.710171        73.7475 
 178   0.0000       2.735764        74.4439 
 179   0.0000       2.793147        76.0054 
 180   0.0000       2.804364        76.3106 
 181   0.0000       2.821029        76.7641 
 182   0.0000       2.823910        76.8425 
 183   0.0000       2.863768        77.9271 
 184   0.0000       2.900979        78.9397 
 185   0.0000       3.024177        82.2920 
 186   0.0000       3.037945        82.6667 
 187   0.0000       3.065180        83.4078 
 188   0.0000       3.090227        84.0894 
 189   0.0000       3.257908        88.6522 
 190   0.0000       3.453997        93.9880 
 191   0.0000       3.502208        95.2999 
 192   0.0000       3.537440        96.2586 

                    ********************************
                    * MULLIKEN POPULATION ANALYSIS *
                    ********************************

-----------------------
MULLIKEN ATOMIC CHARGES
-----------------------
   0 C :    0.049188
   1 C :   -0.157102
   2 S :   -0.138196
   3 C :    0.049067
   4 C :   -0.165953
   5 C :    0.180933
   6 C :    0.188245
   7 N :   -0.307218
   8 O :   -0.142793
   9 O :   -0.139994
  10 C :    0.071210
  11 H :    0.063094
  12 H :    0.055267
  13 H :    0.056023
  14 H :    0.084737
  15 H :    0.084509
  16 H :    0.084446
  17 H :    0.084537
Sum of atomic charges:   -0.0000000

--------------------------------
MULLIKEN REDUCED ORBITAL CHARGES
--------------------------------
  0 C s       :     2.911594  s :     2.911594
      pz      :     1.056833  p :     2.998776
      px      :     0.996796
      py      :     0.945147
      dz2     :     0.006087  d :     0.040442
      dxz     :     0.011224
      dyz     :     0.006303
      dx2y2   :     0.006562
      dxy     :     0.010266
  1 C s       :     3.199417  s :     3.199417
      pz      :     0.989636  p :     2.917266
      px      :     0.977014
      py      :     0.950616
      dz2     :     0.003043  d :     0.040419
      dxz     :     0.006245
      dyz     :     0.006455
      dx2y2   :     0.013151
      dxy     :     0.011524
  2 S s       :     5.916162  s :     5.916162
      pz      :     3.942838  p :    10.131699
      px      :     2.906635
      py      :     3.282227
      dz2     :     0.011748  d :     0.090335
      dxz     :     0.010980
      dyz     :     0.008032
      dx2y2   :     0.015937
      dxy     :     0.043638
  3 C s       :     2.911649  s :     2.911649
      pz      :     1.057017  p :     2.998874
      px      :     1.007329
      py      :     0.934528
      dz2     :     0.006071  d :     0.040411
      dxz     :     0.011382
      dyz     :     0.006192
      dx2y2   :     0.006321
      dxy     :     0.010444
  4 C s       :     3.202728  s :     3.202728
      pz      :     0.993565  p :     2.922895
      px      :     0.977379
      py      :     0.951951
      dz2     :     0.003030  d :     0.040329
      dxz     :     0.006475
      dyz     :     0.006155
      dx2y2   :     0.013538
      dxy     :     0.011131
  5 C s       :     3.012359  s :     3.012359
      pz      :     0.863507  p :     2.699336
      px      :     0.860287
      py      :     0.975543
      dz2     :     0.005727  d :     0.107372
      dxz     :     0.022511
      dyz     :     0.008004
      dx2y2   :     0.031519
      dxy     :     0.039611
  6 C s       :     3.005281  s :     3.005281
      pz      :     0.864792  p :     2.699366
      px      :     0.852809
      py      :     0.981765
      dz2     :     0.005748  d :     0.107108
      dxz     :     0.022324
      dyz     :     0.008418
      dx2y2   :     0.034273
      dxy     :     0.036346
  7 N s       :     3.457750  s :     3.457750
      pz      :     1.591486  p :     3.824461
      px      :     1.107516
      py      :     1.125459
      dz2     :     0.002388  d :     0.025006
      dxz     :     0.002659
      dyz     :     0.004546
      dx2y2   :     0.006008
      dxy     :     0.009405
  8 O s       :     3.722716  s :     3.722716
      pz      :     1.338043  p :     4.402836
      px      :     1.371130
      py      :     1.693663
      dz2     :     0.001932  d :     0.017241
      dxz     :     0.004749
      dyz     :     0.000660
      dx2y2   :     0.005103
      dxy     :     0.004797
  9 O s       :     3.723656  s :     3.723656
      pz      :     1.344339  p :     4.399127
      px      :     1.386758
      py      :     1.668030
      dz2     :     0.001929  d :     0.017211
      dxz     :     0.004532
      dyz     :     0.000868
      dx2y2   :     0.004879
      dxy     :     0.005003
 10 C s       :     3.012436  s :     3.012436
      pz      :     1.043965  p :     2.880442
      px      :     1.036857
      py      :     0.799620
      dz2     :     0.006138  d :     0.035912
      dxz     :     0.004527
      dyz     :     0.009402
      dx2y2   :     0.011200
      dxy     :     0.004646
 11 H s       :     0.914566  s :     0.914566
      pz      :     0.005190  p :     0.022341
      px      :     0.013411
      py      :     0.003740
 12 H s       :     0.923186  s :     0.923186
      pz      :     0.010921  p :     0.021547
      px      :     0.006608
      py      :     0.004018
 13 H s       :     0.922410  s :     0.922410
      pz      :     0.010071  p :     0.021567
      px      :     0.007837
      py      :     0.003659
 14 H s       :     0.892695  s :     0.892695
      pz      :     0.010516  p :     0.022568
      px      :     0.007159
      py      :     0.004892
 15 H s       :     0.892915  s :     0.892915
      pz      :     0.011017  p :     0.022576
      px      :     0.006831
      py      :     0.004729
 16 H s       :     0.893011  s :     0.893011
      pz      :     0.010872  p :     0.022543
      px      :     0.006943
      py      :     0.004729
 17 H s       :     0.892916  s :     0.892916
      pz      :     0.010640  p :     0.022547
      px      :     0.007316
      py      :     0.004592


                     *******************************
                     * LOEWDIN POPULATION ANALYSIS *
                     *******************************

----------------------
LOEWDIN ATOMIC CHARGES
----------------------
   0 C :   -0.136104
   1 C :   -0.051868
   2 S :    0.240824
   3 C :   -0.136327
   4 C :   -0.053918
   5 C :    0.069116
   6 C :    0.071311
   7 N :   -0.045777
   8 O :   -0.135805
   9 O :   -0.134988
  10 C :    0.015085
  11 H :    0.040815
  12 H :    0.035717
  13 H :    0.036956
  14 H :    0.046388
  15 H :    0.046473
  16 H :    0.046033
  17 H :    0.046070

-------------------------------
LOEWDIN REDUCED ORBITAL CHARGES
-------------------------------
  0 C s       :     2.856939  s :     2.856939
      pz      :     1.089846  p :     3.175445
      px      :     1.043512
      py      :     1.042086
      dz2     :     0.015860  d :     0.103720
      dxz     :     0.029755
      dyz     :     0.013347
      dx2y2   :     0.016713
      dxy     :     0.028045
  1 C s       :     2.877312  s :     2.877312
      pz      :     0.955359  p :     3.065622
      px      :     1.051370
      py      :     1.058893
      dz2     :     0.008479  d :     0.108934
      dxz     :     0.012276
      dyz     :     0.012644
      dx2y2   :     0.044561
      dxy     :     0.030973
  2 S s       :     5.541213  s :     5.541213
      pz      :     3.890201  p :    10.109767
      px      :     2.910362
      py      :     3.309204
      dz2     :     0.014193  d :     0.108196
      dxz     :     0.011060
      dyz     :     0.007732
      dx2y2   :     0.017421
      dxy     :     0.057791
  3 C s       :     2.857201  s :     2.857201
      pz      :     1.090155  p :     3.175514
      px      :     1.047420
      py      :     1.037939
      dz2     :     0.015804  d :     0.103611
      dxz     :     0.030408
      dyz     :     0.012821
      dx2y2   :     0.015980
      dxy     :     0.028599
  4 C s       :     2.876813  s :     2.876813
      pz      :     0.960175  p :     3.068299
      px      :     1.050923
      py      :     1.057202
      dz2     :     0.008433  d :     0.108806
      dxz     :     0.012682
      dyz     :     0.012093
      dx2y2   :     0.045563
      dxy     :     0.030035
  5 C s       :     2.841424  s :     2.841424
      pz      :     0.860315  p :     2.835365
      px      :     0.978585
      py      :     0.996465
      dz2     :     0.014295  d :     0.254096
      dxz     :     0.043898
      dyz     :     0.015395
      dx2y2   :     0.077618
      dxy     :     0.102890
  6 C s       :     2.841694  s :     2.841694
      pz      :     0.859523  p :     2.833824
      px      :     0.972779
      py      :     1.001522
      dz2     :     0.014310  d :     0.253171
      dxz     :     0.043772
      dyz     :     0.016119
      dx2y2   :     0.085199
      dxy     :     0.093771
  7 N s       :     3.102485  s :     3.102485
      pz      :     1.533006  p :     3.880570
      px      :     1.180393
      py      :     1.167171
      dz2     :     0.005700  d :     0.062722
      dxz     :     0.005248
      dyz     :     0.007467
      dx2y2   :     0.017214
      dxy     :     0.027092
  8 O s       :     3.559188  s :     3.559188
      pz      :     1.338567  p :     4.546613
      px      :     1.484618
      py      :     1.723429
      dz2     :     0.004246  d :     0.030004
      dxz     :     0.006064
      dyz     :     0.000824
      dx2y2   :     0.009957
      dxy     :     0.008914
  9 O s       :     3.558910  s :     3.558910
      pz      :     1.345241  p :     4.546074
      px      :     1.497135
      py      :     1.703698
      dz2     :     0.004211  d :     0.030005
      dxz     :     0.005806
      dyz     :     0.001092
      dx2y2   :     0.009255
      dxy     :     0.009640
 10 C s       :     2.841760  s :     2.841760
      pz      :     1.085991  p :     3.050661
      px      :     1.090683
      py      :     0.873987
      dz2     :     0.015728  d :     0.092495
      dxz     :     0.012337
      dyz     :     0.023538
      dx2y2   :     0.029006
      dxy     :     0.011886
 11 H s       :     0.891793  s :     0.891793
      pz      :     0.012716  p :     0.067392
      px      :     0.041956
      py      :     0.012720
 12 H s       :     0.900724  s :     0.900724
      pz      :     0.033204  p :     0.063559
      px      :     0.017024
      py      :     0.013331
 13 H s       :     0.899037  s :     0.899037
      pz      :     0.029889  p :     0.064007
      px      :     0.021970
      py      :     0.012147
 14 H s       :     0.882954  s :     0.882954
      pz      :     0.032569  p :     0.070658
      px      :     0.023855
      py      :     0.014233
 15 H s       :     0.882883  s :     0.882883
      pz      :     0.034165  p :     0.070645
      px      :     0.022662
      py      :     0.013818
 16 H s       :     0.883320  s :     0.883320
      pz      :     0.033878  p :     0.070647
      px      :     0.022854
      py      :     0.013916
 17 H s       :     0.883287  s :     0.883287
      pz      :     0.032855  p :     0.070643
      px      :     0.024179
      py      :     0.013609


                      *****************************
                      * MAYER POPULATION ANALYSIS *
                      *****************************

  NA   - Mulliken gross atomic population
  ZA   - Total nuclear charge
  QA   - Mulliken gross atomic charge
  VA   - Mayer's total valence
  BVA  - Mayer's bonded valence
  FA   - Mayer's free valence

  ATOM       NA         ZA         QA         VA         BVA        FA
  0 C      5.9508     6.0000     0.0492     3.8595     3.8595     0.0000
  1 C      6.1571     6.0000    -0.1571     3.9978     3.9978    -0.0000
  2 S     16.1382    16.0000    -0.1382     2.1040     2.1040     0.0000
  3 C      5.9509     6.0000     0.0491     3.8596     3.8596    -0.0000
  4 C      6.1660     6.0000    -0.1660     4.0031     4.0031     0.0000
  5 C      5.8191     6.0000     0.1809     4.1926     4.1926    -0.0000
  6 C      5.8118     6.0000     0.1882     4.1780     4.1780     0.0000
  7 N      7.3072     7.0000    -0.3072     3.1933     3.1933    -0.0000
  8 O      8.1428     8.0000    -0.1428     2.3933     2.3933     0.0000
  9 O      8.1400     8.0000    -0.1400     2.4000     2.4000     0.0000
 10 C      5.9288     6.0000     0.0712     3.9252     3.9252     0.0000
 11 H      0.9369     1.0000     0.0631     1.0196     1.0196     0.0000
 12 H      0.9447     1.0000     0.0553     0.9911     0.9911     0.0000
 13 H      0.9440     1.0000     0.0560     0.9938     0.9938     0.0000
 14 H      0.9153     1.0000     0.0847     0.9724     0.9724     0.0000
 15 H      0.9155     1.0000     0.0845     0.9723     0.9723     0.0000
 16 H      0.9156     1.0000     0.0844     0.9723     0.9723    -0.0000
 17 H      0.9155     1.0000     0.0845     0.9723     0.9723     0.0000

  Mayer bond orders larger than 0.100000
B(  0-C ,  1-C ) :   1.1259 B(  0-C ,  2-S ) :   0.9871 B(  0-C , 14-H ) :   0.8868 
B(  0-C , 15-H ) :   0.8862 B(  1-C ,  4-C ) :   1.7373 B(  1-C ,  5-C ) :   0.9153 
B(  2-S ,  3-C ) :   0.9882 B(  3-C ,  4-C ) :   1.1237 B(  3-C , 16-H ) :   0.8872 
B(  3-C , 17-H ) :   0.8871 B(  4-C ,  6-C ) :   0.9192 B(  5-C ,  7-N ) :   1.0377 
B(  5-C ,  8-O ) :   2.1663 B(  6-C ,  7-N ) :   1.0338 B(  6-C ,  9-O ) :   2.1538 
B(  7-N , 10-C ) :   0.9658 B( 10-C , 11-H ) :   0.9520 B( 10-C , 12-H ) :   0.9687 
B( 10-C , 13-H ) :   0.9663 

-------
TIMINGS
-------

Total SCF time: 0 days 0 hours 0 min 25 sec 

Total time                  ....      25.318 sec
Sum of individual times     ....      24.697 sec  ( 97.5%)

Fock matrix formation       ....      20.599 sec  ( 81.4%)
  Split-RI-J                ....       6.951 sec  ( 33.7% of F)
  XC integration            ....      13.198 sec  ( 64.1% of F)
    Basis function eval.    ....       4.243 sec  ( 32.1% of XC)
    Density eval.           ....       2.697 sec  ( 20.4% of XC)
    XC-Functional eval.     ....       1.925 sec  ( 14.6% of XC)
    XC-Potential eval.      ....       3.278 sec  ( 24.8% of XC)
Diagonalization             ....       0.051 sec  (  0.2%)
Density matrix formation    ....       0.013 sec  (  0.1%)
Population analysis         ....       0.110 sec  (  0.4%)
Initial guess               ....       0.776 sec  (  3.1%)
Orbital Transformation      ....       0.000 sec  (  0.0%)
Orbital Orthonormalization  ....       0.000 sec  (  0.0%)
DIIS solution               ....       0.044 sec  (  0.2%)
SOSCF solution              ....       0.041 sec  (  0.2%)
Grid generation             ....       3.062 sec  ( 12.1%)


-------------------------------------------------------------------------------
                          DFT DISPERSION CORRECTION                            
                                                                               
                              DFTD3 V3.1  Rev 1                                
                          USING Becke-Johnson damping                          
-------------------------------------------------------------------------------
The BP86 functional is recognized
Active option DFTDOPT                   ...         4   

molecular C6(AA) [au] = 4435.465393 


            DFT-D V3
 parameters
 s6 scaling factor         :     1.0000 
 a1 scaling factor         :     0.3946 
 s8 scaling factor         :     3.2822 
 a2 scaling factor         :     4.8516 
 ad hoc parameters k1-k3   :    16.0000     1.3333    -4.0000 

 Edisp/kcal,au: -21.205001737196  -0.033792317649 
 E6   /kcal   :  -7.682324013 
 E8   /kcal   : -13.522677724 
 % E8         :  63.771170084 

-------------------------   ----------------
Dispersion correction           -0.033792318
-------------------------   ----------------


-------------------------   --------------------
FINAL SINGLE POINT ENERGY      -873.953137979575
-------------------------   --------------------

------------------------------------------------------------------------------
                         ORCA SCF GRADIENT CALCULATION
------------------------------------------------------------------------------

Gradient of the Kohn-Sham DFT energy:
Kohn-Sham wavefunction type      ... RKS
Hartree-Fock exchange scaling    ...    0.000
Number of operators              ...    1
Number of atoms                  ...   18
Basis set dimensions             ...  193
Integral neglect threshold       ... 2.5e-11
Integral primitive cutoff        ... 2.5e-12

Nuclear repulsion gradient       ... done
One Electron Gradient            ... done
Pre-screening matrix             ... done
RI-J gradient                    ... done
Exchange-correlation gradient    ... done
Dispersion correction            ... done

------------------
CARTESIAN GRADIENT
------------------

   1   C   :    0.046937677   -0.044975971    0.002347099
   2   C   :   -0.090978809    0.055578482   -0.003768018
   3   S   :   -0.001027106   -0.039011635    0.001231764
   4   C   :   -0.049506898   -0.040860836    0.000026144
   5   C   :    0.093844751    0.048905311    0.000721003
   6   C   :    0.001208019    0.011070743   -0.000244075
   7   C   :   -0.000554665    0.011836975   -0.000363297
   8   N   :   -0.000446620    0.004237902   -0.000277592
   9   O   :   -0.004895392   -0.004132546    0.000005505
  10   O   :    0.004852636   -0.004842192    0.000246893
  11   C   :    0.000967122   -0.000008596    0.000307196
  12   H   :    0.000180037    0.000319792   -0.000050758
  13   H   :   -0.000299720    0.000685631    0.000038283
  14   H   :   -0.000396709    0.000654789   -0.000190796
  15   H   :    0.014436923   -0.000151472   -0.004407142
  16   H   :    0.014169390   -0.000417376    0.005062196
  17   H   :   -0.014123226    0.000567134   -0.005075989
  18   H   :   -0.014367412    0.000543866    0.004391582

Difference to translation invariance:
           :   -0.0000000000   -0.0000000000    0.0000000000

Norm of the cartesian gradient     ...    0.1836715243
RMS gradient                       ...    0.0249945286
MAX gradient                       ...    0.0938447515

-------
TIMINGS
-------

Total SCF gradient time            ...       10.470 sec

One electron gradient       ....       0.157 sec  (  1.5%)
Prescreening matrices       ....       0.120 sec  (  1.1%)
RI-J Coulomb gradient       ....       1.745 sec  ( 16.7%)
XC gradient                 ....       8.268 sec  ( 79.0%)
------------------------------------------------------------------------------
                         ORCA GEOMETRY RELAXATION STEP
------------------------------------------------------------------------------

Reading the OPT-File                    .... done
Getting information on internals        .... done
Copying old internal coords+grads       .... done
Making the new internal coordinates     .... (new redundants).... done
Validating the new internal coordinates .... (new redundants).... done
Calculating the B-matrix                .... done
Calculating the G,G- and P matrices     .... done
Transforming gradient to internals      .... done
Projecting the internal gradient        .... done
Number of atoms                         ....  18
Number of internal coordinates          ....  97
Current Energy                          ....  -873.953137980 Eh
Current gradient norm                   ....     0.183671524 Eh/bohr
Maximum allowed component of the step   ....  0.300
Current trust radius                    ....  0.300
Evaluating the initial hessian          ....  (Almloef) done
Projecting the Hessian                  .... done
Forming the augmented Hessian           .... done
Diagonalizing the augmented Hessian     .... done
Last element of RFO vector              ....  0.991498957
Lowest eigenvalues of augmented Hessian:
 -0.003572668  0.017495742  0.076131745  0.076308084  0.136725706
Length of the computed step             ....  0.131230233
The final length of the internal step   ....  0.131230233
Converting the step to cartesian space:
 Initial RMS(Int)=    0.0133244113
Transforming coordinates:
 Iter   0:  RMS(Cart)=    0.0171856784 RMS(Int)=    0.0132618611
 Iter   1:  RMS(Cart)=    0.0002792122 RMS(Int)=    0.0002112066
 Iter   2:  RMS(Cart)=    0.0000058233 RMS(Int)=    0.0000045366
 Iter   3:  RMS(Cart)=    0.0000001826 RMS(Int)=    0.0000001400
 Iter   4:  RMS(Cart)=    0.0000000044 RMS(Int)=    0.0000000034
Imposing constraints:
 Iter   0:  RMS(Cart)=    0.0000128465 RMS(Int)=    0.0000013685
 Iter   1:  RMS(Cart)=    0.0000020840 RMS(Int)=    0.0000002248
 Iter   2:  RMS(Cart)=    0.0000003393 RMS(Int)=    0.0000000389
 Iter   3:  RMS(Cart)=    0.0000000561 RMS(Int)=    0.0000000087
CONVERGED
done
Storing new coordinates                 .... done

                                .--------------------.
          ----------------------|Geometry convergence|-------------------------
          Item                value                   Tolerance       Converged
          ---------------------------------------------------------------------
          RMS gradient        0.0029957258            0.0001000000      NO
          MAX gradient        0.0117918942            0.0003000000      NO
          RMS step            0.0133244113            0.0020000000      NO
          MAX step            0.0426456618            0.0040000000      NO
          ........................................................
          Max(Bonds)      0.0175      Max(Angles)    2.44
          Max(Dihed)        1.64      Max(Improp)    0.00
          ---------------------------------------------------------------------

The optimization has not yet converged - more geometry cycles are needed


    ---------------------------------------------------------------------------
                         Redundant Internal Coordinates
                            (Angstroem and degrees)

        Definition                    Value    dE/dq     Step     New-Value
    ----------------------------------------------------------------------------
     1. B(C   1,C   0)                1.3926 -0.075274  0.0000    1.3926 C 
     2. B(S   2,C   0)                1.7804 -0.037455 -0.0000    1.7804 C 
     3. B(C   3,S   2)                1.7797 -0.037740 -0.0000    1.7797 C 
     4. B(C   4,C   1)                1.4261  0.043512  0.0000    1.4261 C 
     5. B(C   4,C   3)                1.3942 -0.074254  0.0000    1.3942 C 
     6. B(C   5,C   1)                1.4820 -0.011109  0.0000    1.4820 C 
     7. B(C   6,C   4)                1.4804 -0.011121 -0.0000    1.4804 C 
     8. B(N   7,C   5)                1.4151  0.006053  0.0000    1.4151 C 
     9. B(N   7,C   6)                1.4192  0.006363 -0.0000    1.4192 C 
    10. B(O   8,C   5)                1.2251  0.006030  0.0000    1.2251 C 
    11. B(O   9,C   6)                1.2253  0.006398  0.0000    1.2253 C 
    12. B(C  10,N   7)                1.4476 -0.001662 -0.0000    1.4476 C 
    13. B(H  11,C  10)                1.1059  0.000059 -0.0001    1.1058   
    14. B(H  12,C  10)                1.1089 -0.000166  0.0003    1.1091   
    15. B(H  13,C  10)                1.1079 -0.000127  0.0002    1.1081   
    16. B(H  14,C   0)                1.0962 -0.011706  0.0174    1.1136   
    17. B(H  15,C   0)                1.0962 -0.011792  0.0175    1.1137   
    18. B(H  16,C   3)                1.0962 -0.011691  0.0174    1.1136   
    19. B(H  17,C   3)                1.0962 -0.011761  0.0175    1.1137   
    20. A(S   2,C   0,H  14)          107.05 -0.008304    1.37    108.42   
    21. A(C   1,C   0,H  15)          111.80 -0.003077    0.05    111.84   
    22. A(C   1,C   0,H  14)          112.10 -0.002497   -0.07    112.02   
    23. A(C   1,C   0,S   2)          108.35  0.013941    0.00    108.35 C 
    24. A(S   2,C   0,H  15)          107.29 -0.007903    1.28    108.58   
    25. A(H  14,C   0,H  15)          110.00  0.007431   -2.44    107.56   
    26. A(C   0,C   1,C   4)          114.85 -0.010465    0.00    114.85 C 
    27. A(C   4,C   1,C   5)          108.52 -0.001718    0.00    108.52 C 
    28. A(C   0,C   1,C   5)          136.63  0.012183   -0.00    136.63 C 
    29. A(C   0,S   2,C   3)           93.66 -0.006538   -0.00     93.66 C 
    30. A(H  16,C   3,H  17)          110.00  0.007394   -2.43    107.57   
    31. A(C   4,C   3,H  16)          112.03 -0.002591   -0.05    111.98   
    32. A(C   4,C   3,H  17)          111.86 -0.002926    0.02    111.88   
    33. A(S   2,C   3,H  17)          107.24 -0.007933    1.30    108.54   
    34. A(S   2,C   3,H  16)          107.14 -0.008122    1.34    108.48   
    35. A(S   2,C   3,C   4)          108.33  0.013773   -0.00    108.33 C 
    36. A(C   1,C   4,C   6)          108.54 -0.001774   -0.00    108.54 C 
    37. A(C   3,C   4,C   6)          136.64  0.012485    0.00    136.64 C 
    38. A(C   1,C   4,C   3)          114.82 -0.010712    0.00    114.82 C 
    39. A(C   1,C   5,N   7)          104.84 -0.003952   -0.00    104.84 C 
    40. A(C   1,C   5,O   8)          130.70  0.004480   -0.00    130.70 C 
    41. A(N   7,C   5,O   8)          124.46 -0.000528    0.00    124.46 C 
    42. A(N   7,C   6,O   9)          124.62 -0.000881    0.00    124.62 C 
    43. A(C   4,C   6,N   7)          104.80 -0.003971   -0.00    104.80 C 
    44. A(C   4,C   6,O   9)          130.59  0.004852    0.00    130.59 C 
    45. A(C   5,N   7,C  10)          123.29 -0.005703    0.00    123.29 C 
    46. A(C   6,N   7,C  10)          123.41 -0.005713   -0.00    123.41 C 
    47. A(C   5,N   7,C   6)          113.30  0.011416    0.00    113.30 C 
    48. A(N   7,C  10,H  13)          110.44 -0.000789    0.16    110.60   
    49. A(H  11,C  10,H  13)          110.21  0.000699   -0.18    110.03   
    50. A(H  12,C  10,H  13)          108.24  0.000428   -0.00    108.24   
    51. A(N   7,C  10,H  11)          107.39 -0.000085   -0.01    107.37   
    52. A(N   7,C  10,H  12)          110.86 -0.000863    0.18    111.04   
    53. A(H  11,C  10,H  12)          109.71  0.000620   -0.14    109.56   
    54. D(C   5,C   1,C   0,H  15)    -62.13 -0.002746    1.60    -60.53   
    55. D(C   5,C   1,C   0,H  14)     61.92  0.002821   -1.64     60.28   
    56. D(C   4,C   1,C   0,S   2)      0.09  0.000055    0.00      0.09 C 
    57. D(C   4,C   1,C   0,H  14)   -117.82  0.002889   -1.64   -119.46   
    58. D(C   5,C   1,C   0,S   2)    179.84 -0.000013    0.00    179.84 C 
    59. D(C   4,C   1,C   0,H  15)    118.13 -0.002678    1.60    119.73   
    60. D(C   3,S   2,C   0,C   1)     -0.11 -0.000078   -0.00     -0.11 C 
    61. D(C   3,S   2,C   0,H  14)    120.98 -0.000026    0.70    121.67   
    62. D(C   3,S   2,C   0,H  15)   -120.98  0.000298   -0.79   -121.77   
    63. D(C   4,C   3,S   2,C   0)      0.10  0.000072    0.00      0.10 C 
    64. D(H  16,C   3,S   2,C   0)   -120.93  0.000107   -0.71   -121.64   
    65. D(H  17,C   3,S   2,C   0)    121.00 -0.000243    0.77    121.77   
    66. D(C   6,C   4,C   1,C   0)    179.79  0.000004    0.00    179.79 C 
    67. D(C   6,C   4,C   3,H  17)     62.20  0.002781   -1.61     60.59   
    68. D(C   3,C   4,C   1,C   0)     -0.02 -0.000001    0.00     -0.02 C 
    69. D(C   1,C   4,C   3,S   2)     -0.07 -0.000054    0.00     -0.07 C 
    70. D(C   6,C   4,C   1,C   5)     -0.02  0.000009    0.00     -0.02 C 
    71. D(C   1,C   4,C   3,H  16)    117.89 -0.002838    1.62    119.51   
    72. D(C   1,C   4,C   3,H  17)   -118.06  0.002723   -1.61   -119.67   
    73. D(C   6,C   4,C   3,H  16)    -61.85 -0.002780    1.62    -60.23   
    74. D(C   6,C   4,C   3,S   2)   -179.81  0.000003   -0.00   -179.81 C 
    75. D(C   3,C   4,C   1,C   5)   -179.83  0.000005    0.00   -179.83 C 
    76. D(N   7,C   5,C   1,C   0)   -179.79  0.000081   -0.00   -179.79 C 
    77. D(N   7,C   5,C   1,C   4)     -0.03 -0.000002    0.00     -0.03 C 
    78. D(O   8,C   5,C   1,C   0)      0.11  0.000054    0.00      0.11 C 
    79. D(O   8,C   5,C   1,C   4)    179.87 -0.000030   -0.00    179.87 C 
    80. D(N   7,C   6,C   4,C   1)      0.06 -0.000017    0.00      0.06 C 
    81. D(N   7,C   6,C   4,C   3)    179.81 -0.000091   -0.00    179.81 C 
    82. D(O   9,C   6,C   4,C   1)   -179.80  0.000021   -0.00   -179.80 C 
    83. D(O   9,C   6,C   4,C   3)     -0.05 -0.000053   -0.00     -0.05 C 
    84. D(C   6,N   7,C   5,C   1)      0.08  0.000002    0.00      0.08 C 
    85. D(C   6,N   7,C   5,O   8)   -179.83  0.000021   -0.00   -179.83 C 
    86. D(C  10,N   7,C   5,C   1)    179.98 -0.000036   -0.00    179.98 C 
    87. D(C  10,N   7,C   5,O   8)      0.08 -0.000017    0.00      0.08 C 
    88. D(C   5,N   7,C   6,C   4)     -0.09  0.000001   -0.00     -0.09 C 
    89. D(C   5,N   7,C   6,O   9)    179.79 -0.000024   -0.00    179.79 C 
    90. D(C  10,N   7,C   6,C   4)   -179.99  0.000039    0.00   -179.99 C 
    91. D(C  10,N   7,C   6,O   9)     -0.12  0.000014   -0.00     -0.12 C 
    92. D(H  11,C  10,N   7,C   5)   -175.59 -0.000011   -0.04   -175.63   
    93. D(H  11,C  10,N   7,C   6)      4.31 -0.000037   -0.04      4.27   
    94. D(H  12,C  10,N   7,C   5)     64.58 -0.000213    0.04     64.62   
    95. D(H  12,C  10,N   7,C   6)   -115.52 -0.000239    0.04   -115.48   
    96. D(H  13,C  10,N   7,C   5)    -55.38  0.000329   -0.18    -55.56   
    97. D(H  13,C  10,N   7,C   6)    124.51  0.000303   -0.18    124.34   
    ----------------------------------------------------------------------------

         *************************************************************
         *                GEOMETRY OPTIMIZATION CYCLE   2            *
         *************************************************************
---------------------------------
CARTESIAN COORDINATES (ANGSTROEM)
---------------------------------
  C     -0.279071    1.196814   -0.064528
  C      0.266684   -0.083563   -0.019670
  S      1.055422    2.375291   -0.066653
  C      2.315428    1.120006   -0.003737
  C      1.691694   -0.126713    0.013939
  C     -0.247193   -1.473346    0.008326
  C      2.118682   -1.543278    0.064600
  N      0.909794   -2.286670    0.057088
  O     -1.395146   -1.900954   -0.003390
  O      3.239279   -2.037103    0.107544
  C      0.863273   -3.732986    0.097449
  H      1.902357   -4.093717    0.211167
  H      0.427734   -4.143542   -0.836328
  H      0.245719   -4.079490    0.949829
  H     -0.930173    1.404106    0.814809
  H     -0.892376    1.353770   -0.980850
  H      2.936074    1.288266    0.905442
  H      2.978919    1.239475   -0.890223

----------------------------
CARTESIAN COORDINATES (A.U.)
----------------------------
  NO LB      ZA    FRAG     MASS         X           Y           Z
   0 C     6.0000    0    12.011   -0.527368    2.261651   -0.121941
   1 C     6.0000    0    12.011    0.503959   -0.157911   -0.037171
   2 S    16.0000    0    32.060    1.994459    4.488649   -0.125955
   3 C     6.0000    0    12.011    4.375525    2.116505   -0.007061
   4 C     6.0000    0    12.011    3.196839   -0.239453    0.026341
   5 C     6.0000    0    12.011   -0.467128   -2.784220    0.015735
   6 C     6.0000    0    12.011    4.003729   -2.916374    0.122077
   7 N     7.0000    0    14.007    1.719261   -4.321180    0.107880
   8 O     8.0000    0    15.999   -2.636444   -3.592283   -0.006406
   9 O     8.0000    0    15.999    6.121349   -3.849567    0.203229
  10 C     6.0000    0    12.011    1.631350   -7.054320    0.184151
  11 H     1.0000    0     1.008    3.594934   -7.736004    0.399047
  12 H     1.0000    0     1.008    0.808301   -7.830160   -1.580431
  13 H     1.0000    0     1.008    0.464341   -7.709118    1.794916
  14 H     1.0000    0     1.008   -1.757772    2.653375    1.539766
  15 H     1.0000    0     1.008   -1.686346    2.558254   -1.853539
  16 H     1.0000    0     1.008    5.548376    2.434470    1.711037
  17 H     1.0000    0     1.008    5.629341    2.342267   -1.682277

--------------------------------
INTERNAL COORDINATES (ANGSTROEM)
--------------------------------
 C      0   0   0     0.000000000000     0.00000000     0.00000000
 C      1   0   0     1.392560828065     0.00000000     0.00000000
 S      1   2   0     1.780360620580   108.35391197     0.00000000
 C      3   1   2     1.779694412238    93.65545818   359.88780447
 C      4   3   1     1.394154269606   108.32732301     0.10367740
 C      2   1   3     1.482008774186   136.63053067   179.83723491
 C      5   4   3     1.480385776219   136.64288035   180.19365554
 N      6   2   1     1.415094764959   104.84079546   180.21383235
 O      6   2   1     1.225064155301   130.69753779     0.11182424
 O      7   5   4     1.225334014507   130.58788464   359.94583837
 C      8   6   2     1.447626294040   123.29260086   179.98196225
 H     11   8   6     1.105782058109   107.37337002   184.37213119
 H     11   8   6     1.109139425231   111.03691120    64.62254157
 H     11   8   6     1.108147353008   110.59496444   304.43909150
 H      1   2   3     1.113614721278   112.01502709   240.44625663
 H      1   2   3     1.113743164881   111.83206992   119.63055653
 H      4   3   1     1.113605964525   108.47398024   238.35599045
 H      4   3   1     1.113710145621   108.54096728   121.77468449

---------------------------
INTERNAL COORDINATES (A.U.)
---------------------------
 C      0   0   0     0.000000000000     0.00000000     0.00000000
 C      1   0   0     2.631558589870     0.00000000     0.00000000
 S      1   2   0     3.364393992514   108.35391197     0.00000000
[...]
 147   0.0000       1.865519        50.7633 
 148   0.0000       1.881786        51.2060 
 149   0.0000       1.892522        51.4981 
 150   0.0000       1.904643        51.8280 
 151   0.0000       1.931367        52.5552 
 152   0.0000       1.958514        53.2939 
 153   0.0000       2.006099        54.5887 
 154   0.0000       2.027671        55.1757 
 155   0.0000       2.064339        56.1735 
 156   0.0000       2.082287        56.6619 
 157   0.0000       2.137791        58.1723 
 158   0.0000       2.191568        59.6356 
 159   0.0000       2.207364        60.0654 
 160   0.0000       2.217208        60.3333 
 161   0.0000       2.223009        60.4911 
 162   0.0000       2.266381        61.6714 
 163   0.0000       2.292354        62.3781 
 164   0.0000       2.329525        63.3896 
 165   0.0000       2.364715        64.3472 
 166   0.0000       2.395086        65.1736 
 167   0.0000       2.407935        65.5232 
 168   0.0000       2.465879        67.1000 
 169   0.0000       2.506324        68.2005 
 170   0.0000       2.513842        68.4051 
 171   0.0000       2.564746        69.7903 
 172   0.0000       2.574343        70.0514 
 173   0.0000       2.588716        70.4426 
 174   0.0000       2.594149        70.5904 
 175   0.0000       2.641746        71.8856 
 176   0.0000       2.643830        71.9423 
 177   0.0000       2.666189        72.5507 
 178   0.0000       2.719456        74.0002 
 179   0.0000       2.791261        75.9541 
 180   0.0000       2.802552        76.2613 
 181   0.0000       2.817078        76.6566 
 182   0.0000       2.825615        76.8889 
 183   0.0000       2.851148        77.5837 
 184   0.0000       2.910184        79.1901 
 185   0.0000       3.024228        82.2934 
 186   0.0000       3.036072        82.6157 
 187   0.0000       3.065149        83.4070 
 188   0.0000       3.090055        84.0847 
 189   0.0000       3.258374        88.6649 
 190   0.0000       3.455019        94.0159 
 191   0.0000       3.502421        95.3057 
 192   0.0000       3.537614        96.2634 

                    ********************************
                    * MULLIKEN POPULATION ANALYSIS *
                    ********************************

-----------------------
MULLIKEN ATOMIC CHARGES
-----------------------
   0 C :    0.024359
   1 C :   -0.146571
   2 S :   -0.103947
   3 C :    0.024818
   4 C :   -0.155656
   5 C :    0.182439
   6 C :    0.189503
   7 N :   -0.306641
   8 O :   -0.143728
   9 O :   -0.140886
  10 C :    0.070168
  11 H :    0.062321
  12 H :    0.055507
  13 H :    0.056071
  14 H :    0.083194
  15 H :    0.083183
  16 H :    0.082875
  17 H :    0.082994
Sum of atomic charges:    0.0000000

--------------------------------
MULLIKEN REDUCED ORBITAL CHARGES
--------------------------------
  0 C s       :     2.939425  s :     2.939425
      pz      :     1.071019  p :     2.996059
      px      :     0.975080
      py      :     0.949961
      dz2     :     0.005165  d :     0.040156
      dxz     :     0.011846
      dyz     :     0.006092
      dx2y2   :     0.006821
      dxy     :     0.010232
  1 C s       :     3.191325  s :     3.191325
      pz      :     0.989296  p :     2.914920
      px      :     0.982304
      py      :     0.943321
      dz2     :     0.003066  d :     0.040326
      dxz     :     0.006352
      dyz     :     0.006456
      dx2y2   :     0.013064
      dxy     :     0.011388
  2 S s       :     5.904458  s :     5.904458
      pz      :     3.925225  p :    10.109690
      px      :     2.902168
      py      :     3.282296
      dz2     :     0.011897  d :     0.089799
      dxz     :     0.010533
      dyz     :     0.008136
      dx2y2   :     0.015330
      dxy     :     0.043903
  3 C s       :     2.939084  s :     2.939084
      pz      :     1.071047  p :     2.995977
      px      :     0.985718
      py      :     0.939213
      dz2     :     0.005162  d :     0.040120
      dxz     :     0.011940
      dyz     :     0.006033
      dx2y2   :     0.006577
      dxy     :     0.010408
  4 C s       :     3.194686  s :     3.194686
      pz      :     0.993355  p :     2.920736
      px      :     0.982260
      py      :     0.945121
      dz2     :     0.003052  d :     0.040235
      dxz     :     0.006588
      dyz     :     0.006149
      dx2y2   :     0.013436
      dxy     :     0.011010
  5 C s       :     3.012151  s :     3.012151
      pz      :     0.863488  p :     2.698023
      px      :     0.860992
      py      :     0.973543
      dz2     :     0.005730  d :     0.107387
      dxz     :     0.022523
      dyz     :     0.008019
      dx2y2   :     0.031483
      dxy     :     0.039632
  6 C s       :     3.004960  s :     3.004960
      pz      :     0.864824  p :     2.698418
      px      :     0.853432
      py      :     0.980162
      dz2     :     0.005753  d :     0.107119
      dxz     :     0.022331
      dyz     :     0.008442
      dx2y2   :     0.034266
      dxy     :     0.036328
  7 N s       :     3.457373  s :     3.457373
      pz      :     1.591508  p :     3.824280
      px      :     1.107706
      py      :     1.125066
      dz2     :     0.002390  d :     0.024989
      dxz     :     0.002657
      dyz     :     0.004527
      dx2y2   :     0.006006
      dxy     :     0.009408
  8 O s       :     3.722704  s :     3.722704
      pz      :     1.339105  p :     4.403786
      px      :     1.370956
      py      :     1.693724
      dz2     :     0.001932  d :     0.017239
      dxz     :     0.004748
      dyz     :     0.000660
      dx2y2   :     0.005104
      dxy     :     0.004795
  9 O s       :     3.723602  s :     3.723602
      pz      :     1.345500  p :     4.400076
      px      :     1.386780
      py      :     1.667795
      dz2     :     0.001929  d :     0.017209
      dxz     :     0.004529
      dyz     :     0.000871
      dx2y2   :     0.004877
      dxy     :     0.005003
 10 C s       :     3.012156  s :     3.012156
      pz      :     1.043676  p :     2.881758
      px      :     1.038526
      py      :     0.799556
      dz2     :     0.006140  d :     0.035918
      dxz     :     0.004439
      dyz     :     0.009507
      dx2y2   :     0.011163
      dxy     :     0.004669
 11 H s       :     0.915314  s :     0.915314
      pz      :     0.005207  p :     0.022364
      px      :     0.013418
      py      :     0.003739
 12 H s       :     0.922945  s :     0.922945
      pz      :     0.010865  p :     0.021548
      px      :     0.006644
      py      :     0.004039
 13 H s       :     0.922359  s :     0.922359
      pz      :     0.010119  p :     0.021570
      px      :     0.007773
      py      :     0.003678
 14 H s       :     0.895107  s :     0.895107
      pz      :     0.010129  p :     0.021699
      px      :     0.007232
      py      :     0.004338
 15 H s       :     0.895117  s :     0.895117
      pz      :     0.010589  p :     0.021701
      px      :     0.006898
      py      :     0.004214
 16 H s       :     0.895445  s :     0.895445
      pz      :     0.010491  p :     0.021680
      px      :     0.007018
      py      :     0.004172
 17 H s       :     0.895327  s :     0.895327
      pz      :     0.010211  p :     0.021679
      px      :     0.007398
      py      :     0.004070


                     *******************************
                     * LOEWDIN POPULATION ANALYSIS *
                     *******************************

----------------------
LOEWDIN ATOMIC CHARGES
----------------------
   0 C :   -0.144654
   1 C :   -0.054700
   2 S :    0.251438
   3 C :   -0.144756
   4 C :   -0.056756
   5 C :    0.069616
   6 C :    0.071827
   7 N :   -0.045573
   8 O :   -0.136520
   9 O :   -0.135724
  10 C :    0.014650
  11 H :    0.040757
  12 H :    0.035742
  13 H :    0.036861
  14 H :    0.049652
  15 H :    0.049682
  16 H :    0.049218
  17 H :    0.049240

-------------------------------
LOEWDIN REDUCED ORBITAL CHARGES
-------------------------------
  0 C s       :     2.867106  s :     2.867106
      pz      :     1.095144  p :     3.174856
      px      :     1.035295
      py      :     1.044417
      dz2     :     0.013164  d :     0.102692
      dxz     :     0.031543
      dyz     :     0.012806
      dx2y2   :     0.017363
      dxy     :     0.027817
  1 C s       :     2.876613  s :     2.876613
      pz      :     0.958398  p :     3.069244
      px      :     1.051642
      py      :     1.059204
      dz2     :     0.008514  d :     0.108844
      dxz     :     0.012451
      dyz     :     0.012748
      dx2y2   :     0.044315
      dxy     :     0.030816
  2 S s       :     5.541673  s :     5.541673
      pz      :     3.878988  p :    10.098413
      px      :     2.910085
      py      :     3.309341
      dz2     :     0.014394  d :     0.108475
      dxz     :     0.010917
      dyz     :     0.007879
      dx2y2   :     0.016811
      dxy     :     0.058475
  3 C s       :     2.867337  s :     2.867337
      pz      :     1.095410  p :     3.174832
      px      :     1.039167
      py      :     1.040255
      dz2     :     0.013142  d :     0.102587
      dxz     :     0.032032
      dyz     :     0.012418
      dx2y2   :     0.016650
      dxy     :     0.028345
  4 C s       :     2.876096  s :     2.876096
      pz      :     0.963291  p :     3.071950
      px      :     1.051228
      py      :     1.057431
      dz2     :     0.008465  d :     0.108710
      dxz     :     0.012875
      dyz     :     0.012177
      dx2y2   :     0.045257
      dxy     :     0.029935
  5 C s       :     2.841323  s :     2.841323
      pz      :     0.860090  p :     2.834982
      px      :     0.978644
      py      :     0.996247
      dz2     :     0.014289  d :     0.254080
      dxz     :     0.043916
      dyz     :     0.015409
      dx2y2   :     0.077532
      dxy     :     0.102933
  6 C s       :     2.841571  s :     2.841571
      pz      :     0.859359  p :     2.833449
      px      :     0.972749
      py      :     1.001341
      dz2     :     0.014305  d :     0.253153
      dxz     :     0.043785
      dyz     :     0.016147
      dx2y2   :     0.085202
      dxy     :     0.093714
  7 N s       :     3.102409  s :     3.102409
      pz      :     1.533037  p :     3.880462
      px      :     1.180407
      py      :     1.167019
      dz2     :     0.005699  d :     0.062702
      dxz     :     0.005244
      dyz     :     0.007444
      dx2y2   :     0.017214
      dxy     :     0.027102
  8 O s       :     3.559134  s :     3.559134
      pz      :     1.339544  p :     4.547389
      px      :     1.484525
      py      :     1.723319
      dz2     :     0.004245  d :     0.029996
      dxz     :     0.006062
      dyz     :     0.000823
      dx2y2   :     0.009960
      dxy     :     0.008906
  9 O s       :     3.558844  s :     3.558844
      pz      :     1.346321  p :     4.546883
      px      :     1.497194
      py      :     1.703367
      dz2     :     0.004211  d :     0.029998
      dxz     :     0.005802
      dyz     :     0.001095
      dx2y2   :     0.009248
      dxy     :     0.009641
 10 C s       :     2.841446  s :     2.841446
      pz      :     1.085881  p :     3.051393
      px      :     1.091670
      py      :     0.873841
      dz2     :     0.015727  d :     0.092512
      dxz     :     0.012124
      dyz     :     0.023820
      dx2y2   :     0.028903
      dxy     :     0.011938
 11 H s       :     0.891868  s :     0.891868
      pz      :     0.012722  p :     0.067375
      px      :     0.041934
      py      :     0.012719
 12 H s       :     0.900700  s :     0.900700
      pz      :     0.033019  p :     0.063558
      px      :     0.017112
      py      :     0.013426
 13 H s       :     0.899184  s :     0.899184
      pz      :     0.030101  p :     0.063954
      px      :     0.021631
      py      :     0.012222
 14 H s       :     0.883580  s :     0.883580
      pz      :     0.030065  p :     0.066767
      px      :     0.024223
      py      :     0.012479
 15 H s       :     0.883549  s :     0.883549
      pz      :     0.031592  p :     0.066769
      px      :     0.022963
      py      :     0.012213
 16 H s       :     0.884006  s :     0.884006
      pz      :     0.031457  p :     0.066776
      px      :     0.023147
      py      :     0.012173
 17 H s       :     0.883994  s :     0.883994
      pz      :     0.030219  p :     0.066766
      px      :     0.024554
      py      :     0.011993


                      *****************************
                      * MAYER POPULATION ANALYSIS *
                      *****************************

  NA   - Mulliken gross atomic population
  ZA   - Total nuclear charge
  QA   - Mulliken gross atomic charge
  VA   - Mayer's total valence
  BVA  - Mayer's bonded valence
  FA   - Mayer's free valence

  ATOM       NA         ZA         QA         VA         BVA        FA
  0 C      5.9756     6.0000     0.0244     3.8630     3.8630     0.0000
  1 C      6.1466     6.0000    -0.1466     3.9929     3.9929    -0.0000
  2 S     16.1039    16.0000    -0.1039     2.1316     2.1316    -0.0000
  3 C      5.9752     6.0000     0.0248     3.8630     3.8630    -0.0000
  4 C      6.1557     6.0000    -0.1557     3.9984     3.9984    -0.0000
  5 C      5.8176     6.0000     0.1824     4.1913     4.1913     0.0000
  6 C      5.8105     6.0000     0.1895     4.1769     4.1769    -0.0000
  7 N      7.3066     7.0000    -0.3066     3.1941     3.1941    -0.0000
  8 O      8.1437     8.0000    -0.1437     2.3925     2.3925    -0.0000
  9 O      8.1409     8.0000    -0.1409     2.3993     2.3993    -0.0000
 10 C      5.9298     6.0000     0.0702     3.9260     3.9260     0.0000
 11 H      0.9377     1.0000     0.0623     1.0198     1.0198    -0.0000
 12 H      0.9445     1.0000     0.0555     0.9910     0.9910    -0.0000
 13 H      0.9439     1.0000     0.0561     0.9935     0.9935    -0.0000
 14 H      0.9168     1.0000     0.0832     0.9703     0.9703     0.0000
 15 H      0.9168     1.0000     0.0832     0.9703     0.9703     0.0000
 16 H      0.9171     1.0000     0.0829     0.9703     0.9703    -0.0000
 17 H      0.9170     1.0000     0.0830     0.9703     0.9703    -0.0000

  Mayer bond orders larger than 0.100000
B(  0-C ,  1-C ) :   1.1310 B(  0-C ,  2-S ) :   0.9961 B(  0-C , 14-H ) :   0.8809 
B(  0-C , 15-H ) :   0.8807 B(  1-C ,  4-C ) :   1.7267 B(  1-C ,  5-C ) :   0.9141 
B(  2-S ,  3-C ) :   0.9972 B(  3-C ,  4-C ) :   1.1287 B(  3-C , 16-H ) :   0.8814 
B(  3-C , 17-H ) :   0.8814 B(  4-C ,  6-C ) :   0.9180 B(  5-C ,  7-N ) :   1.0379 
B(  5-C ,  8-O ) :   2.1657 B(  6-C ,  7-N ) :   1.0341 B(  6-C ,  9-O ) :   2.1532 
B(  7-N , 10-C ) :   0.9664 B( 10-C , 11-H ) :   0.9521 B( 10-C , 12-H ) :   0.9686 
B( 10-C , 13-H ) :   0.9665 

-------
TIMINGS
-------

Total SCF time: 0 days 0 hours 0 min 15 sec 

Total time                  ....      15.105 sec
Sum of individual times     ....      14.745 sec  ( 97.6%)

Fock matrix formation       ....      11.557 sec  ( 76.5%)
  Split-RI-J                ....       3.771 sec  ( 32.6% of F)
  XC integration            ....       7.512 sec  ( 65.0% of F)
    Basis function eval.    ....       2.739 sec  ( 36.5% of XC)
    Density eval.           ....       1.584 sec  ( 21.1% of XC)
    XC-Functional eval.     ....       0.970 sec  ( 12.9% of XC)
    XC-Potential eval.      ....       1.744 sec  ( 23.2% of XC)
Diagonalization             ....       0.008 sec  (  0.1%)
Density matrix formation    ....       0.009 sec  (  0.1%)
Population analysis         ....       0.047 sec  (  0.3%)
Initial guess               ....       0.007 sec  (  0.0%)
Orbital Transformation      ....       0.000 sec  (  0.0%)
Orbital Orthonormalization  ....       0.004 sec  (  0.0%)
DIIS solution               ....       0.001 sec  (  0.0%)
SOSCF solution              ....       0.038 sec  (  0.3%)
Grid generation             ....       3.079 sec  ( 20.4%)


-------------------------------------------------------------------------------
                          DFT DISPERSION CORRECTION                            
                                                                               
                              DFTD3 V3.1  Rev 1                                
                          USING Becke-Johnson damping                          
-------------------------------------------------------------------------------
The BP86 functional is recognized
Active option DFTDOPT                   ...         4   

molecular C6(AA) [au] = 4436.728598 


            DFT-D V3
 parameters
 s6 scaling factor         :     1.0000 
 a1 scaling factor         :     0.3946 
 s8 scaling factor         :     3.2822 
 a2 scaling factor         :     4.8516 
 ad hoc parameters k1-k3   :    16.0000     1.3333    -4.0000 

 Edisp/kcal,au: -21.159310543090  -0.033719504104 
 E6   /kcal   :  -7.663085211 
 E8   /kcal   : -13.496225332 
 % E8         :  63.783861506 

-------------------------   ----------------
Dispersion correction           -0.033719504
-------------------------   ----------------


-------------------------   --------------------
FINAL SINGLE POINT ENERGY      -873.956844368871
-------------------------   --------------------

                                *** OPTIMIZATION RUN DONE ***

                            ***************************************
                            *     ORCA property calculations      *
                            ***************************************

                                    ---------------------
                                    Active property flags
                                    ---------------------
   (+) Dipole Moment


------------------------------------------------------------------------------
                       ORCA ELECTRIC PROPERTIES CALCULATION
------------------------------------------------------------------------------

Dipole Moment Calculation                       ... on
Quadrupole Moment Calculation                   ... off
Polarizability Calculation                      ... off
GBWName                                         ... PDTSTPD_Input_Thienopyrroledione_2_Optimize_Monomer_Hydrogenated.gbw
Electron density file                           ... PDTSTPD_Input_Thienopyrroledione_2_Optimize_Monomer_Hydrogenated.scfp
The origin for moment calculation is the CENTER OF MASS  = ( 1.827430, -0.905510  0.018066)

-------------
DIPOLE MOMENT
-------------
                                X             Y             Z
Electronic contribution:      0.11437       3.76966      -0.11027
Nuclear contribution   :     -0.09725      -3.63149       0.10690
                        -----------------------------------------
Total Dipole Moment    :      0.01712       0.13817      -0.00337
                        -----------------------------------------
Magnitude (a.u.)       :      0.13926
Magnitude (Debye)      :      0.35398



--------------------
Rotational spectrum 
--------------------
 
Rotational constants in cm-1:     0.060085     0.025664     0.018166 
Rotational constants in MHz :  1801.316641   769.381214   544.609717 

 Dipole components along the rotational axes: 
x,y,z [a.u.] :     0.138684     0.012684     0.000063 
x,y,z [Debye]:     0.352508     0.032241     0.000161 

 

Timings for individual modules:

Sum of individual times         ...      171.733 sec (=   2.862 min)
GTO integral calculation        ...        2.121 sec (=   0.035 min)   1.2 %
SCF iterations                  ...      116.291 sec (=   1.938 min)  67.7 %
SCF Gradient evaluation         ...       52.551 sec (=   0.876 min)  30.6 %
Geometry relaxation             ...        0.770 sec (=   0.013 min)   0.4 %
                             ****ORCA TERMINATED NORMALLY****
TOTAL RUN TIME: 0 days 0 hours 2 minutes 53 seconds 946 msec
