
                                 *****************
                                 * O   R   C   A *
                                 *****************

           --- An Ab Initio, DFT and Semiempirical electronic structure package ---

                  #######################################################
                  #                        -***-                        #
                  #          Department of theory and spectroscopy      #
                  #               Directorship: Frank Neese             #
                  #        Max Planck Institute fuer Kohlenforschung    #
                  #                Kaiser Wilhelm Platz 1               #
                  #                 D-45470 Muelheim/Ruhr               #
                  #                      Germany                        #
                  #                                                     #
                  #                  All rights reserved                #
                  #                        -***-                        #
                  #######################################################


                         Program Version 4.2.0 -  RELEASE  -


 With contributions from (in alphabetic order):
   Daniel Aravena         : Magnetic Suceptibility
   Michael Atanasov       : Ab Initio Ligand Field Theory (pilot matlab implementation)
   Alexander A. Auer      : GIAO ZORA, VPT2
   Ute Becker             : Parallelization
   Giovanni Bistoni       : ED, misc. LED, open-shell LED, HFLED
   Martin Brehm           : Molecular dynamics
   Dmytro Bykov           : SCF Hessian
   Vijay G. Chilkuri      : MRCI spin determinant printing, contributions to CSF-ICE
   Dipayan Datta          : RHF DLPNO-CCSD density
   Achintya Kumar Dutta   : EOM-CC, STEOM-CC
   Dmitry Ganyushin       : Spin-Orbit,Spin-Spin,Magnetic field MRCI
   Miquel Garcia          : C-PCM Hessian, Gaussian charge scheme
   Yang Guo               : DLPNO-NEVPT2, CIM, IAO-localization
   Andreas Hansen         : Spin unrestricted coupled pair/coupled cluster methods
   Benjamin Helmich-Paris : CASSCF linear response (MC-RPA)
   Lee Huntington         : MR-EOM, pCC
   Robert Izsak           : Overlap fitted RIJCOSX, COSX-SCS-MP3, EOM
   Christian Kollmar      : KDIIS, OOCD, Brueckner-CCSD(T), CCSD density
   Simone Kossmann        : Meta GGA functionals, TD-DFT gradient, OOMP2, MP2 Hessian
   Martin Krupicka        : AUTO-CI
   Lucas Lang             : DCDCAS
   Dagmar Lenk            : GEPOL surface, SMD
   Dimitrios Liakos       : Extrapolation schemes; Compound Job, initial MDCI parallelization
   Dimitrios Manganas     : Further ROCIS development; embedding schemes
   Dimitrios Pantazis     : SARC Basis sets
   Taras Petrenko         : DFT Hessian,TD-DFT gradient, ASA, ECA, R-Raman, ABS, FL, XAS/XES, NRVS
   Peter Pinski           : DLPNO-MP2, DLPNO-MP2 Gradient
   Christoph Reimann      : Effective Core Potentials
   Marius Retegan         : Local ZFS, SOC
   Christoph Riplinger    : Optimizer, TS searches, QM/MM, DLPNO-CCSD(T), (RO)-DLPNO pert. Triples
   Tobias Risthaus        : Range-separated hybrids, TD-DFT gradient, RPA, STAB
   Michael Roemelt        : Original ROCIS implementation
   Masaaki Saitow         : Open-shell DLPNO-CCSD energy and density
   Barbara Sandhoefer     : DKH picture change effects
   Avijit Sen             : IP-ROCIS
   Kantharuban Sivalingam : CASSCF convergence, NEVPT2, FIC-MRCI
   Bernardo de Souza      : ESD, SOC TD-DFT
   Georgi Stoychev        : AutoAux, RI-MP2 NMR
   Willem Van den Heuvel  : Paramagnetic NMR
   Boris Wezisla          : Elementary symmetry handling
   Frank Wennmohs         : Technical directorship


 We gratefully acknowledge several colleagues who have allowed us to
 interface, adapt or use parts of their codes:
   Stefan Grimme, W. Hujo, H. Kruse,             : VdW corrections, initial TS optimization,
                  C. Bannwarth                     DFT functionals, gCP, sTDA/sTD-DF
   Ed Valeev, F. Pavosevic, A. Kumar             : LibInt (2-el integral package), F12 methods
   Garnet Chan, S. Sharma, J. Yang, R. Olivares  : DMRG
   Ulf Ekstrom                                   : XCFun DFT Library
   Mihaly Kallay                                 : mrcc  (arbitrary order and MRCC methods)
   Andreas Klamt, Michael Diedenhofen            : otool_cosmo (COSMO solvation model)
   Jiri Pittner, Ondrej Demel                    : Mk-CCSD
   Frank Weinhold                                : gennbo (NPA and NBO analysis)
   Christopher J. Cramer and Donald G. Truhlar   : smd solvation model
   Lars Goerigk                                  : TD-DFT with DH, B97 family of functionals
   V. Asgeirsson, H. Jonsson                     : NEB implementation
   FAccTs GmbH                                   : IRC, NEB, NEB-TS, Multilevel, MM, QM/MM, CI optimization
   S Lehtola, MJT Oliveira, MAL Marques          : LibXC Library


 Your calculation uses the libint2 library for the computation of 2-el integrals
 For citations please refer to: http://libint.valeyev.net

 Your ORCA version has been built with support for libXC version: 4.2.3
 For citations please refer to: https://tddft.org/programs/libxc/

 This ORCA versions uses:
   CBLAS   interface :  Fast vector & matrix operations
   LAPACKE interface :  Fast linear algebra routines
   SCALAPACK package :  Parallel linear algebra routines


Your calculation utilizes the atom-pairwise dispersion correction
with the Becke-Johnson damping scheme (D3BJ)
Cite in your paper:
S.Grimme, S.Ehrlich, L.Goerigk, J Comput Chem, (2011), 32, 1456–1465 
S.Grimme, J.Antony, S.Ehrlich and H.Krieg, J.Chem.Phys., 132, (2010), 154104 
   

----- Orbital basis set information -----
Your calculation utilizes the basis: def2-SVP
   F. Weigend and R. Ahlrichs, Phys. Chem. Chem. Phys. 7, 3297 (2005).

----- AuxJ basis set information -----
Your calculation utilizes the auxiliary basis: def2/J
   F. Weigend, Phys. Chem. Chem. Phys. 8, 1057 (2006).

================================================================================
                                        WARNINGS
                       Please study these warnings very carefully!
================================================================================


WARNING: Geometry Optimization
  ===> : Switching off AutoStart
         For restart on a previous wavefunction, please use MOREAD

INFO   : the flag for use of LIBINT has been found!

================================================================================
                                       INPUT FILE
================================================================================
NAME = PDTSTPD_Input_Dimethyl_Dithienosilole_1_Optimize_Monomer_Hydrogenated.inp
|  1> ! RI BP86 def2-SVP def2/J D3BJ TIGHTSCF  Opt Grid3 FinalGrid5
|  2> %maxcore 3000
|  3> %geom
|  4> optimizehydrogens true
|  5> end
|  6> 
|  7> 
|  8> *xyz 0 1
|  9> C	-3.700125	-0.559796	-0.083722
| 10> C	-3.231593	0.767287	-0.108299
| 11> C	-1.826187	0.878874	-0.083672
| 12> H	-3.631755	1.292531	0.771961
| 13> C	-1.213575	-0.396730	-0.038975
| 14> S	-2.353712	-1.707365	-0.027451
| 15> Si	-0.451078	2.185875	-0.087840
| 16> C	0.881794	0.837219	-0.029010
| 17> C	0.230029	-0.419352	-0.009744
| 18> S	1.328169	-1.764868	0.048206
| 19> C	2.710529	-0.657818	0.047499
| 20> C	2.282627	0.683934	0.004080
| 21> H	2.669976	1.190671	0.900957
| 22> C	-0.465462	3.275777	1.451013
| 23> H	-0.494487	2.648816	2.364242
| 24> H	-1.352968	3.941877	1.457430
| 25> H	0.441863	3.913128	1.494674
| 26> C	-0.403115	3.204047	-1.674307
| 27> H	-0.395627	2.536224	-2.558536
| 28> H	0.505423	3.840133	-1.710555
| 29> H	-1.289309	3.867952	-1.746730
| 30> H	-3.629658	1.218925	-1.029405
| 31> H	2.723680	1.129468	-0.900454
| 32> H	-4.316987	-0.728981	0.806948
| 33> H	3.286893	-0.840448	0.962179
| 34> H	-4.266808	-0.816198	-0.986808
| 35> H	3.303953	-0.936000	-0.831507
| 36> **                         ****END OF INPUT****
================================================================================

                       *****************************
                       * Geometry Optimization Run *
                       *****************************

Geometry optimization settings:
Update method            Update   .... BFGS
Choice of coordinates    CoordSys .... Z-matrix Internals
Initial Hessian          InHess   .... Almoef's Model

Convergence Tolerances:
Energy Change            TolE     ....  5.0000e-06 Eh
Max. Gradient            TolMAXG  ....  3.0000e-04 Eh/bohr
RMS Gradient             TolRMSG  ....  1.0000e-04 Eh/bohr
Max. Displacement        TolMAXD  ....  4.0000e-03 bohr
RMS Displacement         TolRMSD  ....  2.0000e-03 bohr
Strict Convergence                ....  False
------------------------------------------------------------------------------
                        ORCA OPTIMIZATION COORDINATE SETUP
------------------------------------------------------------------------------

The optimization will be done in new redundant internal coordinates
Making redundant internal coordinates   ...  (new redundants) done
Evaluating the initial hessian          ...  (Almloef) done
Evaluating the coordinates              ...  done
Calculating the B-matrix                .... done
Calculating the G-matrix                .... done
Diagonalizing the G-matrix              .... done
Imposing constraints:
 Iter   0:  RMS(Cart)=    0.0000000000 RMS(Int)=    0.0000000000
CONVERGED
The first mode is                       ....   92
The number of degrees of freedom        ....   75
Storing new coordinates                 .... done

    -----------------------------------------------------------------
                    Redundant Internal Coordinates


    -----------------------------------------------------------------
         Definition                    Initial Value    Approx d2E/dq
    -----------------------------------------------------------------
      1. B(C   1,C   0)                  1.4076         0.585725 C 
      2. B(C   2,C   1)                  1.4100         0.580443 C 
      3. B(H   3,C   1)                  1.1004         0.346608   
      4. B(C   4,C   2)                  1.4158         0.568322 C 
      5. B(S   5,C   0)                  1.7700         0.417096 C 
      6. B(S   5,C   4)                  1.7372         0.470539 C 
      7. B(Si  6,C   2)                  1.8972         0.421484 C 
      8. B(C   7,Si  6)                  1.8971         0.421611 C 
      9. B(C   8,C   4)                  1.4441         0.512226 C 
     10. B(C   8,C   7)                  1.4157         0.568556 C 
     11. B(S   9,C   8)                  1.7377         0.469608 C 
     12. B(C  10,S   9)                  1.7710         0.415554 C 
     13. B(C  11,C   7)                  1.4096         0.581427 C 
     14. B(C  11,C  10)                  1.4090         0.582671 C 
     15. B(H  12,C  11)                  1.1005         0.346411   
     16. B(C  13,Si  6)                  1.8858         0.439470 C 
     17. B(H  14,C  13)                  1.1081         0.336921   
     18. B(H  15,C  13)                  1.1097         0.334980   
     19. B(H  16,C  13)                  1.1097         0.335000   
     20. B(C  17,Si  6)                  1.8857         0.439603 C 
     21. B(H  18,C  17)                  1.1081         0.336924   
     22. B(H  19,C  17)                  1.1097         0.335001   
     23. B(H  20,C  17)                  1.1097         0.335004   
     24. B(H  21,C   1)                  1.1004         0.346608   
     25. B(H  22,C  11)                  1.1005         0.346411   
     26. B(H  23,C   0)                  1.0966         0.351531   
     27. B(H  24,C  10)                  1.0964         0.351676   
     28. B(H  25,C   0)                  1.0966         0.351530   
     29. B(H  26,C  10)                  1.0964         0.351676   
     30. A(H  23,C   0,H  25)          110.0076         0.288651   
     31. A(C   1,C   0,H  25)          112.2155         0.348117   
     32. A(C   1,C   0,S   5)          111.0153         0.422283 C 
     33. A(S   5,C   0,H  25)          105.5270         0.345796   
     34. A(C   1,C   0,H  23)          110.2977         0.348117   
     35. A(S   5,C   0,H  23)          107.5817         0.345796   
     36. A(C   2,C   1,H  21)          110.0413         0.346763   
     37. A(C   0,C   1,H  21)          106.3297         0.347292   
     38. A(C   0,C   1,H   3)          108.3615         0.347292   
     39. A(C   0,C   1,C   2)          113.9586         0.424608 C 
     40. A(H   3,C   1,H  21)          110.0081         0.287380   
     41. A(C   2,C   1,H   3)          108.1021         0.346763   
     42. A(C   1,C   2,Si  6)          140.9798         0.432244 C 
     43. A(C   1,C   2,C   4)          111.1326         0.422324 C 
     44. A(C   4,C   2,Si  6)          107.8875         0.430609 C 
     45. A(C   2,C   4,S   5)          113.3270         0.429173 C 
     46. A(C   2,C   4,C   8)          116.5713         0.413024 C 
     47. A(S   5,C   4,C   8)          130.1016         0.421265 C 
     48. A(C   0,S   5,C   4)           90.5665         0.428434 C 
     49. A(C   2,Si  6,C  17)          113.0956         0.444142 C 
     50. A(C   7,Si  6,C  17)          113.0836         0.444167 C 
     51. A(C  13,Si  6,C  17)          112.0038         0.447517 C 
     52. A(C   2,Si  6,C   7)           91.1129         0.440799 C 
     53. A(C   2,Si  6,C  13)          113.0074         0.444118 C 
     54. A(C   7,Si  6,C  13)          113.0125         0.444142 C 
     55. A(Si  6,C   7,C  11)          140.9203         0.432399 C 
     56. A(C   8,C   7,C  11)          111.1426         0.422483 C 
     57. A(Si  6,C   7,C   8)          107.9369         0.430664 C 
     58. A(C   7,C   8,S   9)          113.3776         0.429052 C 
     59. A(C   4,C   8,C   7)          116.4912         0.413054 C 
     60. A(C   4,C   8,S   9)          130.1311         0.421116 C 
     61. A(C   8,S   9,C  10)           90.5293         0.427998 C 
     62. A(S   9,C  10,C  11)          110.9913         0.421610 C 
     63. A(S   9,C  10,H  24)          107.8097         0.345605   
     64. A(C  11,C  10,H  24)          110.1185         0.347835   
     65. A(S   9,C  10,H  26)          105.3182         0.345604   
     66. A(C  11,C  10,H  26)          112.4121         0.347835   
     67. A(H  24,C  10,H  26)          110.0002         0.288688   
     68. A(C   7,C  11,C  10)          113.9591         0.424339 C 
     69. A(C   7,C  11,H  12)          108.5925         0.346828   
     70. A(C   7,C  11,H  22)          109.5696         0.346828   
     71. A(C  10,C  11,H  22)          106.8057         0.346953   
     72. A(C  10,C  11,H  12)          107.8463         0.346953   
     73. A(H  12,C  11,H  22)          110.0195         0.287329   
     74. A(Si  6,C  13,H  14)          110.2252         0.353974   
     75. A(Si  6,C  13,H  15)          110.9618         0.353628   
     76. A(H  14,C  13,H  15)          108.2950         0.284595   
     77. A(Si  6,C  13,H  16)          110.9669         0.353631   
     78. A(H  14,C  13,H  16)          108.2981         0.284598   
     79. A(H  15,C  13,H  16)          107.9961         0.284342   
     80. A(Si  6,C  17,H  18)          110.2491         0.353993   
     81. A(Si  6,C  17,H  19)          110.9661         0.353649   
     82. A(H  18,C  17,H  19)          108.2923         0.284598   
     83. A(Si  6,C  17,H  20)          110.9554         0.353650   
     84. A(H  18,C  17,H  20)          108.2938         0.284599   
     85. A(H  19,C  17,H  20)          107.9855         0.284345   
     86. D(H   3,C   1,C   0,S   5)   -120.3527         0.027529   
     87. D(C   2,C   1,C   0,H  23)    119.1778         0.027529   
     88. D(C   2,C   1,C   0,S   5)      0.0274         0.027529 C 
     89. D(C   2,C   1,C   0,H  25)   -117.7903         0.027529   
     90. D(H   3,C   1,C   0,H  23)     -1.2023         0.027529   
     91. D(H  21,C   1,C   0,H  23)   -119.4253         0.027529   
     92. D(H  21,C   1,C   0,S   5)    121.4242         0.027529   
     93. D(H  21,C   1,C   0,H  25)      3.6065         0.027529   
     94. D(H   3,C   1,C   0,H  25)    121.8295         0.027529   
     95. D(C   4,C   2,C   1,C   0)     -0.0131         0.025137 C 
     96. D(C   4,C   2,C   1,H   3)    120.5124         0.025137   
     97. D(C   4,C   2,C   1,H  21)   -119.3275         0.025137   
     98. D(Si  6,C   2,C   1,C   0)   -179.8953         0.025137 C 
     99. D(Si  6,C   2,C   1,H   3)    -59.3699         0.025137   
    100. D(Si  6,C   2,C   1,H  21)     60.7902         0.025137   
    101. D(S   5,C   4,C   2,C   1)     -0.0076         0.022151 C 
    102. D(S   5,C   4,C   2,Si  6)    179.9145         0.022151 C 
    103. D(C   8,C   4,C   2,C   1)   -179.9816         0.022151 C 
    104. D(C   8,C   4,C   2,Si  6)     -0.0595         0.022151 C 
    105. D(C   4,S   5,C   0,C   1)     -0.0262         0.004315 C 
    106. D(C   4,S   5,C   0,H  23)   -120.7938         0.004315   
    107. D(C   4,S   5,C   0,H  25)    121.7842         0.004315   
    108. D(C   0,S   5,C   4,C   2)      0.0194         0.004763 C 
    109. D(C   0,S   5,C   4,C   8)    179.9890         0.004763 C 
    110. D(C  17,Si  6,C   2,C   4)    115.8405         0.003292 C 
    111. D(C   7,Si  6,C   2,C   4)      0.0806         0.003292 C 
    112. D(C  17,Si  6,C   2,C   1)    -64.2749         0.003292 C 
    113. D(C  13,Si  6,C   2,C   4)   -115.5805         0.003292 C 
    114. D(C  13,Si  6,C   2,C   1)     64.3041         0.003292 C 
    115. D(C   7,Si  6,C   2,C   1)    179.9652         0.003292 C 
    116. D(C   8,C   7,Si  6,C   2)     -0.0840         0.003293 C 
    117. D(C   8,C   7,Si  6,C  13)    115.5724         0.003293 C 
    118. D(C   8,C   7,Si  6,C  17)   -115.8546         0.003293 C 
    119. D(C  11,C   7,Si  6,C   2)   -179.8939         0.003293 C 
    120. D(C  11,C   7,Si  6,C  13)    -64.2374         0.003293 C 
    121. D(C  11,C   7,Si  6,C  17)     64.3356         0.003293 C 
    122. D(C   7,C   8,C   4,C   2)     -0.0068         0.017883 C 
    123. D(S   9,C   8,C   7,Si  6)   -179.8706         0.022170 C 
    124. D(S   9,C   8,C   4,C   2)    179.9210         0.017883 C 
    125. D(S   9,C   8,C   4,S   5)     -0.0478         0.017883 C 
    126. D(C   4,C   8,C   7,Si  6)      0.0693         0.022170 C 
    127. D(C   7,C   8,C   4,S   5)   -179.9756         0.017883 C 
    128. D(C   4,C   8,C   7,C  11)    179.9408         0.022170 C 
    129. D(S   9,C   8,C   7,C  11)      0.0009         0.022170 C 
    130. D(C  10,S   9,C   8,C   4)   -179.9467         0.004749 C 
    131. D(C  10,S   9,C   8,C   7)     -0.0170         0.004749 C 
    132. D(C  11,C  10,S   9,C   8)      0.0287         0.004293 C 
    133. D(H  24,C  10,S   9,C   8)    120.7071         0.004293   
    134. D(H  26,C  10,S   9,C   8)   -121.8758         0.004293   
    135. D(H  22,C  11,C  10,H  24)    119.5242         0.027226   
    136. D(C  10,C  11,C   7,C   8)      0.0218         0.025227 C 
    137. D(H  12,C  11,C   7,Si  6)     59.6086         0.025227   
    138. D(H  12,C  11,C  10,S   9)    120.6031         0.027226   
    139. D(H  22,C  11,C   7,Si  6)    -60.5845         0.025227   
    140. D(H  22,C  11,C   7,C   8)    119.6095         0.025227   
    141. D(C   7,C  11,C  10,S   9)     -0.0343         0.027226 C 
    142. D(C   7,C  11,C  10,H  24)   -119.3379         0.027226   
    143. D(H  12,C  11,C   7,C   8)   -120.1974         0.025227   
    144. D(C   7,C  11,C  10,H  26)    117.6317         0.027226   
    145. D(H  12,C  11,C  10,H  24)      1.2995         0.027226   
    146. D(H  12,C  11,C  10,H  26)   -121.7309         0.027226   
    147. D(C  10,C  11,C   7,Si  6)    179.8278         0.025227 C 
    148. D(H  22,C  11,C  10,S   9)   -121.1723         0.027226   
    149. D(H  22,C  11,C  10,H  26)     -3.5063         0.027226   
    150. D(H  14,C  13,Si  6,C   2)     50.8151         0.003605   
    151. D(H  14,C  13,Si  6,C   7)    -50.9137         0.003605   
    152. D(H  14,C  13,Si  6,C  17)    179.9568         0.003605   
    153. D(H  15,C  13,Si  6,C   2)    -69.1445         0.003605   
    154. D(H  15,C  13,Si  6,C   7)   -170.8733         0.003605   
    155. D(H  15,C  13,Si  6,C  17)     59.9972         0.003605   
    156. D(H  16,C  13,Si  6,C   2)    170.7819         0.003605   
    157. D(H  16,C  13,Si  6,C   7)     69.0531         0.003605   
    158. D(H  16,C  13,Si  6,C  17)    -60.0763         0.003605   
    159. D(H  18,C  17,Si  6,C   2)    -50.8970         0.003607   
    160. D(H  18,C  17,Si  6,C   7)     50.9151         0.003607   
    161. D(H  18,C  17,Si  6,C  13)   -179.9926         0.003607   
    162. D(H  19,C  17,Si  6,C   2)   -170.8718         0.003607   
    163. D(H  19,C  17,Si  6,C   7)    -69.0596         0.003607   
    164. D(H  19,C  17,Si  6,C  13)     60.0327         0.003607   
    165. D(H  20,C  17,Si  6,C   2)     69.0727         0.003607   
    166. D(H  20,C  17,Si  6,C   7)    170.8848         0.003607   
    167. D(H  20,C  17,Si  6,C  13)    -60.0229         0.003607   
    -----------------------------------------------------------------

Number of atoms                         .... 27
Number of degrees of freedom            .... 167

         *************************************************************
         *                GEOMETRY OPTIMIZATION CYCLE   1            *
         *************************************************************
---------------------------------
CARTESIAN COORDINATES (ANGSTROEM)
---------------------------------
  C     -3.700125   -0.559796   -0.083722
  C     -3.231593    0.767287   -0.108299
  C     -1.826187    0.878874   -0.083672
  H     -3.631755    1.292531    0.771961
  C     -1.213575   -0.396730   -0.038975
  S     -2.353712   -1.707365   -0.027451
  Si    -0.451078    2.185875   -0.087840
  C      0.881794    0.837219   -0.029010
  C      0.230029   -0.419352   -0.009744
  S      1.328169   -1.764868    0.048206
  C      2.710529   -0.657818    0.047499
  C      2.282627    0.683934    0.004080
  H      2.669976    1.190671    0.900957
  C     -0.465462    3.275777    1.451013
  H     -0.494487    2.648816    2.364242
  H     -1.352968    3.941877    1.457430
  H      0.441863    3.913128    1.494674
  C     -0.403115    3.204047   -1.674307
  H     -0.395627    2.536224   -2.558536
  H      0.505423    3.840133   -1.710555
  H     -1.289309    3.867952   -1.746730
  H     -3.629658    1.218925   -1.029405
  H      2.723680    1.129468   -0.900454
  H     -4.316987   -0.728981    0.806948
  H      3.286893   -0.840448    0.962179
  H     -4.266808   -0.816198   -0.986808
  H      3.303953   -0.936000   -0.831507

----------------------------
CARTESIAN COORDINATES (A.U.)
----------------------------
  NO LB      ZA    FRAG     MASS         X           Y           Z
   0 C     6.0000    0    12.011   -6.992223   -1.057861   -0.158212
   1 C     6.0000    0    12.011   -6.106826    1.449962   -0.204655
   2 C     6.0000    0    12.011   -3.450993    1.660831   -0.158117
   3 H     1.0000    0     1.008   -6.863022    2.442530    1.458795
   4 C     6.0000    0    12.011   -2.293324   -0.749711   -0.073652
   5 S    16.0000    0    32.060   -4.447871   -3.226452   -0.051875
   6 Si   14.0000    0    28.086   -0.852414    4.130705   -0.165994
   7 C     6.0000    0    12.011    1.666349    1.582115   -0.054821
   8 C     6.0000    0    12.011    0.434692   -0.792460   -0.018413
   9 S    16.0000    0    32.060    2.509876   -3.335117    0.091096
  10 C     6.0000    0    12.011    5.122157   -1.243096    0.089760
  11 C     6.0000    0    12.011    4.313540    1.292448    0.007710
  12 H     1.0000    0     1.008    5.045523    2.250042    1.702562
  13 C     6.0000    0    12.011   -0.879596    6.190321    2.742017
  14 H     1.0000    0     1.008   -0.934445    5.005537    4.467770
  15 H     1.0000    0     1.008   -2.556739    7.449068    2.754144
  16 H     1.0000    0     1.008    0.835000    7.394740    2.824525
  17 C     6.0000    0    12.011   -0.761777    6.054771   -3.163982
  18 H     1.0000    0     1.008   -0.747627    4.792769   -4.834932
  19 H     1.0000    0     1.008    0.955111    7.256800   -3.232480
  20 H     1.0000    0     1.008   -2.436441    7.309370   -3.300841
  21 H     1.0000    0     1.008   -6.859060    2.303434   -1.945294
  22 H     1.0000    0     1.008    5.147009    2.134385   -1.701611
  23 H     1.0000    0     1.008   -8.157923   -1.377574    1.524911
  24 H     1.0000    0     1.008    6.211328   -1.588217    1.818255
  25 H     1.0000    0     1.008   -8.063099   -1.542391   -1.864797
  26 H     1.0000    0     1.008    6.243566   -1.768784   -1.571321

--------------------------------
INTERNAL COORDINATES (ANGSTROEM)
--------------------------------
 C      0   0   0     0.000000000000     0.00000000     0.00000000
 C      1   0   0     1.407577902939     0.00000000     0.00000000
 C      2   1   0     1.410044032126   113.95855936     0.00000000
 H      2   1   3     1.100394726169   108.36154542   239.61989049
 C      3   2   1     1.415788419634   111.13255836     0.00000000
 S      5   3   2     1.737184297814   113.32704972     0.00000000
 Si     3   2   1     1.897154118174   140.97984295   180.10465713
 C      7   3   2     1.897071886782    91.11292955   179.96516887
 C      8   7   3     1.415676330247   107.93692768   359.91595679
 S      9   8   7     1.737723501699   113.37762805   180.12943341
 C     10   9   8     1.771010833380    90.52930885     0.00000000
 C     11  10   9     1.409000979655   110.99131906     0.02869885
 H     12  11  10     1.100549857162   107.84626926   120.60306464
 C      7   3   2     1.885778837687   113.00738916    64.30414905
 H     14   7   3     1.108110893632   110.22523095    50.81509760
 H     14   7   3     1.109683417883   110.96180187   290.85547133
 H     14   7   3     1.109667173411   110.96689083   170.78192935
 C      7   3   2     1.885696744719   113.09563440   295.72508160
 H     18   7   3     1.108108547893   110.24910529   309.10295167
 H     18   7   3     1.109666893416   110.96610429   189.12821967
 H     18   7   3     1.109664249037   110.95543179    69.07268772
 H      2   1   3     1.100394879352   106.32970392   121.39681901
 H     12  11  10     1.100549885794   106.80571248   238.82773382
 H      1   2   3     1.096556127232   110.29766663   119.17783756
 H     11  10   9     1.096443650990   107.80966980   120.70706289
 H      1   2   3     1.096556396857   112.21554816   242.20965880
 H     11  10   9     1.096443713528   105.31815237   238.12418663

---------------------------
INTERNAL COORDINATES (A.U.)
---------------------------
 C      0   0   0     0.000000000000     0.00000000     0.00000000
 C      1   0   0     2.659936748714     0.00000000     0.00000000
 C      2   1   0     2.664597057488   113.95855936     0.00000000
 H      2   1   3     2.079444671670   108.36154542   239.61989049
 C      3   2   1     2.675452376685   111.13255836     0.00000000
 S      5   3   2     3.282802567016   113.32704972     0.00000000
 Si     3   2   1     3.585101717190   140.97984295   180.10465713
 C      7   3   2     3.584946322380    91.11292955   179.96516887
 C      8   7   3     2.675240558442   107.93692768   359.91595679
 S      9   8   7     3.283821514689   113.37762805   180.12943341
 C     10   9   8     3.346725455296    90.52930885     0.00000000
 C     11  10   9     2.662625973975   110.99131906     0.02869885
 H     12  11  10     2.079737826762   107.84626926   120.60306464
 C      7   3   2     3.563605552373   113.00738916    64.30414905
 H     14   7   3     2.094026114980   110.22523095    50.81509760
 H     14   7   3     2.096997755153   110.96180187   290.85547133
 H     14   7   3     2.096967057550   110.96689083   170.78192935
 C      7   3   2     3.563450419145   113.09563440   295.72508160
 H     18   7   3     2.094021682175   110.24910529   309.10295167
 H     18   7   3     2.096966528436   110.96610429   189.12821967
 H     18   7   3     2.096961531283   110.95543179    69.07268772
 H      2   1   3     2.079444961145   106.32970392   121.39681901
 H     12  11  10     2.079737880869   106.80571248   238.82773382
 H      1   2   3     2.072190770941   110.29766663   119.17783756
 H     11  10   9     2.071978221648   107.80966980   120.70706289
 H      1   2   3     2.072191280460   112.21554816   242.20965880
 H     11  10   9     2.071978339828   105.31815237   238.12418663

---------------------
BASIS SET INFORMATION
---------------------
There are 4 groups of distinct atoms

 Group   1 Type C   : 7s4p1d contracted to 3s2p1d pattern {511/31/1}
 Group   2 Type H   : 4s1p contracted to 2s1p pattern {31/1}
 Group   3 Type S   : 10s7p1d contracted to 4s3p1d pattern {5311/511/1}
 Group   4 Type Si  : 10s7p1d contracted to 4s3p1d pattern {5311/511/1}

Atom   0C    basis set group =>   1
Atom   1C    basis set group =>   1
Atom   2C    basis set group =>   1
Atom   3H    basis set group =>   2
Atom   4C    basis set group =>   1
Atom   5S    basis set group =>   3
Atom   6Si   basis set group =>   4
Atom   7C    basis set group =>   1
Atom   8C    basis set group =>   1
Atom   9S    basis set group =>   3
Atom  10C    basis set group =>   1
Atom  11C    basis set group =>   1
Atom  12H    basis set group =>   2
Atom  13C    basis set group =>   1
Atom  14H    basis set group =>   2
Atom  15H    basis set group =>   2
Atom  16H    basis set group =>   2
Atom  17C    basis set group =>   1
Atom  18H    basis set group =>   2
Atom  19H    basis set group =>   2
Atom  20H    basis set group =>   2
Atom  21H    basis set group =>   2
Atom  22H    basis set group =>   2
Atom  23H    basis set group =>   2
Atom  24H    basis set group =>   2
Atom  25H    basis set group =>   2
Atom  26H    basis set group =>   2
---------------------------------
AUXILIARY/J BASIS SET INFORMATION
---------------------------------
There are 4 groups of distinct atoms

 Group   1 Type C   : 12s5p4d2f1g contracted to 6s4p3d1f1g pattern {711111/2111/211/2/1}
 Group   2 Type H   : 5s2p1d contracted to 3s1p1d pattern {311/2/1}
 Group   3 Type S   : 14s5p5d2f1g contracted to 8s4p3d1f1g pattern {71111111/2111/311/2/1}
 Group   4 Type Si  : 14s5p5d2f1g contracted to 8s4p3d1f1g pattern {71111111/2111/311/2/1}

Atom   0C    basis set group =>   1
Atom   1C    basis set group =>   1
Atom   2C    basis set group =>   1
Atom   3H    basis set group =>   2
Atom   4C    basis set group =>   1
Atom   5S    basis set group =>   3
Atom   6Si   basis set group =>   4
Atom   7C    basis set group =>   1
Atom   8C    basis set group =>   1
Atom   9S    basis set group =>   3
Atom  10C    basis set group =>   1
Atom  11C    basis set group =>   1
Atom  12H    basis set group =>   2
Atom  13C    basis set group =>   1
Atom  14H    basis set group =>   2
Atom  15H    basis set group =>   2
Atom  16H    basis set group =>   2
Atom  17C    basis set group =>   1
Atom  18H    basis set group =>   2
Atom  19H    basis set group =>   2
Atom  20H    basis set group =>   2
Atom  21H    basis set group =>   2
Atom  22H    basis set group =>   2
Atom  23H    basis set group =>   2
Atom  24H    basis set group =>   2
Atom  25H    basis set group =>   2
Atom  26H    basis set group =>   2
------------------------------------------------------------------------------
                           ORCA GTO INTEGRAL CALCULATION
                           -- RI-GTO INTEGRALS CHOSEN --
------------------------------------------------------------------------------

                         BASIS SET STATISTICS AND STARTUP INFO

Gaussian basis set:
 # of primitive gaussian shells          ...  244
 # of primitive gaussian functions       ...  446
 # of contracted shells                  ...  126
 # of contracted basis functions         ...  264
 Highest angular momentum                ...    2
 Maximum contraction depth               ...    5
Auxiliary gaussian basis set:
 # of primitive gaussian shells          ...  433
 # of primitive gaussian functions       ... 1155
 # of contracted shells                  ...  271
 # of contracted aux-basis functions     ...  797
 Highest angular momentum                ...    4
 Maximum contraction depth               ...    7
Ratio of auxiliary to basis functions    ...  3.02
Integral package used                  ... LIBINT
 One Electron integrals                  ... done
 Ordering auxiliary basis shells         ... done
 Integral threshhold             Thresh  ...  2.500e-11
 Primitive cut-off               TCut    ...  2.500e-12
 Pre-screening matrix                    ... done
 Shell pair data                         ... 
 Ordering of the shell pairs             ... done (   0.001 sec) 6847 of 8001 pairs
 Determination of significant pairs      ... done (   0.000 sec)
 Creation of shell pair data             ... done (   0.001 sec)
 Storage of shell pair data              ... done (   0.029 sec)
 Shell pair data done in (   0.032 sec)
 Computing two index integrals           ... done
 Cholesky decomposition of the V-matrix  ... done


Timings:
 Total evaluation time                   ...   0.435 sec (  0.007 min)
 One electron matrix time                ...   0.074 sec (  0.001 min) = 17.0%
 Schwartz matrix evaluation time         ...   0.130 sec (  0.002 min) = 29.9%
 Two index repulsion integral time       ...   0.026 sec (  0.000 min) =  6.0%
 Cholesky decomposition of V             ...   0.122 sec (  0.002 min) = 28.1%
 Three index repulsion integral time     ...   0.000 sec (  0.000 min) =  0.0%

-------------------------------------------------------------------------------
                                 ORCA SCF
-------------------------------------------------------------------------------

------------
SCF SETTINGS
------------
Hamiltonian:
 Density Functional     Method          .... DFT(GTOs)
 Exchange Functional    Exchange        .... B88
   X-Alpha parameter    XAlpha          ....  0.666667
   Becke's b parameter  XBeta           ....  0.004200
 Correlation Functional Correlation     .... P86
 LDA part of GGA corr.  LDAOpt          .... PW91-LDA
 Gradients option       PostSCFGGA      .... off
   Density functional embedding theory  .... OFF
 RI-approximation to the Coulomb term is turned on
   Number of auxiliary basis functions  .... 797


General Settings:
 Integral files         IntName         .... PDTSTPD_Input_Dimethyl_Dithienosilole_1_Optimize_Monomer_Hydrogenated
 Hartree-Fock type      HFTyp           .... RHF
 Total Charge           Charge          ....    0
 Multiplicity           Mult            ....    1
 Number of Electrons    NEL             ....  120
 Basis Dimension        Dim             ....  264
 Nuclear Repulsion      ENuc            ....   1131.8115848757 Eh

Convergence Acceleration:
 DIIS                   CNVDIIS         .... on
   Start iteration      DIISMaxIt       ....    12
   Startup error        DIISStart       ....  0.200000
   # of expansion vecs  DIISMaxEq       ....     5
   Bias factor          DIISBfac        ....   1.050
   Max. coefficient     DIISMaxC        ....  10.000
 Newton-Raphson         CNVNR           .... off
 SOSCF                  CNVSOSCF        .... on
   Start iteration      SOSCFMaxIt      ....   150
   Startup grad/error   SOSCFStart      ....  0.003300
 Level Shifting         CNVShift        .... on
   Level shift para.    LevelShift      ....    0.2500
   Turn off err/grad.   ShiftErr        ....    0.0010
 Zerner damping         CNVZerner       .... off
 Static damping         CNVDamp         .... on
   Fraction old density DampFac         ....    0.7000
   Max. Damping (<1)    DampMax         ....    0.9800
   Min. Damping (>=0)   DampMin         ....    0.0000
   Turn off err/grad.   DampErr         ....    0.1000
 Fernandez-Rico         CNVRico         .... off

SCF Procedure:
 Maximum # iterations   MaxIter         ....   125
 SCF integral mode      SCFMode         .... Direct
   Integral package                     .... LIBINT
 Reset frequency        DirectResetFreq ....    20
 Integral Threshold     Thresh          ....  2.500e-11 Eh
 Primitive CutOff       TCut            ....  2.500e-12 Eh

Convergence Tolerance:
 Convergence Check Mode ConvCheckMode   .... Total+1el-Energy
 Convergence forced     ConvForced      .... 0
 Energy Change          TolE            ....  1.000e-08 Eh
 1-El. energy change                    ....  1.000e-05 Eh
 Orbital Gradient       TolG            ....  1.000e-05
 Orbital Rotation angle TolX            ....  1.000e-05
 DIIS Error             TolErr          ....  5.000e-07


Diagonalization of the overlap matrix:
Smallest eigenvalue                        ... 4.505e-04
Time for diagonalization                   ...    0.024 sec
Threshold for overlap eigenvalues          ... 1.000e-08
Number of eigenvalues below threshold      ... 0
Time for construction of square roots      ...    0.032 sec
Total time needed                          ...    0.057 sec

-------------------
DFT GRID GENERATION
-------------------

General Integration Accuracy     IntAcc      ...  4.340
Radial Grid Type                 RadialGrid  ... Gauss-Chebyshev
Angular Grid (max. acc.)         AngularGrid ... Lebedev-194
Angular grid pruning method      GridPruning ... 3 (G Style)
Weight generation scheme         WeightScheme... Becke
Basis function cutoff            BFCut       ...    1.0000e-11
Integration weight cutoff        WCut        ...    1.0000e-14
Grids for H and He will be reduced by one unit

# of grid points (after initial pruning)     ...  65032 (   0.0 sec)
# of grid points (after weights+screening)   ...  58348 (   0.3 sec)
nearest neighbour list constructed           ...    0.0 sec
Grid point re-assignment to atoms done       ...    0.0 sec
Grid point division into batches done        ...    0.1 sec
Reduced shell lists constructed in    0.6 sec

Total number of grid points                  ...    58348
Total number of batches                      ...      923
Average number of points per batch           ...       63
Average number of grid points per atom       ...     2161
Average number of shells per batch           ...    71.78 (56.97%)
Average number of basis functions per batch  ...   144.02 (54.55%)
Average number of large shells per batch     ...    49.83 (69.41%)
Average number of large basis fcns per batch ...   100.69 (69.92%)
Maximum spatial batch extension              ...  19.73, 20.20, 18.37 au
Average spatial batch extension              ...   2.84,  2.96,  2.87 au

Time for grid setup =    0.982 sec

------------------------------
INITIAL GUESS: MODEL POTENTIAL
------------------------------
Loading Hartree-Fock densities                     ... done
Calculating cut-offs                               ... done
Setting up the integral package                    ... done
Initializing the effective Hamiltonian             ... done
Starting the Coulomb interaction                   ... done (   0.4 sec)
Reading the grid                                   ... done
Mapping shells                                     ... done
Starting the XC term evaluation                    ... done (   0.9 sec)
  promolecular density results
     # of electrons  =    119.990570049
     EX              =   -126.132079083
     EC              =     -4.705751862
     EX+EC           =   -130.837830945
Transforming the Hamiltonian                       ... done (   0.0 sec)
Diagonalizing the Hamiltonian                      ... done (   0.0 sec)
Back transforming the eigenvectors                 ... done (   0.0 sec)
Now organizing SCF variables                       ... done
                      ------------------
                      INITIAL GUESS DONE (   2.3 sec)
                      ------------------
--------------
SCF ITERATIONS
--------------
ITER       Energy         Delta-E        Max-DP      RMS-DP      [F,P]     Damp
               ***  Starting incremental Fock matrix formation  ***
  0  -1474.3687769850   0.000000000000 0.09259417  0.00258609  0.1915722 0.7000
  1  -1474.5962706504  -0.227493665374 0.05666414  0.00166779  0.0890049 0.7000
                               ***Turning on DIIS***
  2  -1474.6589658626  -0.062695212171 0.09867317  0.00230616  0.0231227 0.0000
  3  -1474.7599702455  -0.101004382980 0.04067074  0.00143367  0.0588946 0.0000
  4  -1474.7943610133  -0.034390767785 0.02525569  0.00051295  0.0180471 0.0000
  5  -1474.7979924157  -0.003631402418 0.01068393  0.00019035  0.0046275 0.0000
                      *** Initiating the SOSCF procedure ***
                           *** Shutting down DIIS ***
                      *** Re-Reading the Fockian *** 
                      *** Removing any level shift *** 
ITER      Energy       Delta-E        Grad      Rot      Max-DP    RMS-DP
  6  -1474.79823686  -0.0002444401  0.000747  0.000747  0.001617  0.000060
               *** Restarting incremental Fock matrix formation ***
  7  -1474.79826694  -0.0000300836  0.000290  0.002475  0.001458  0.000054
  8  -1474.79826728  -0.0000003374  0.000356  0.001101  0.000804  0.000024
  9  -1474.79827307  -0.0000057886  0.000182  0.001663  0.001039  0.000021
 10  -1474.79827298   0.0000000824  0.000172  0.000527  0.000347  0.000010
 11  -1474.79827386  -0.0000008748  0.000064  0.000283  0.000311  0.000009
 12  -1474.79827366   0.0000002016  0.000145  0.000186  0.000256  0.000005
 13  -1474.79827395  -0.0000002910  0.000031  0.000289  0.000259  0.000005
 14  -1474.79827396  -0.0000000107  0.000025  0.000129  0.000123  0.000003
 15  -1474.79827400  -0.0000000386  0.000026  0.000235  0.000170  0.000003
 16  -1474.79827395   0.0000000490  0.000054  0.000163  0.000121  0.000002
 17  -1474.79827400  -0.0000000574  0.000004  0.000047  0.000028  0.000001
 18  -1474.79827400   0.0000000005  0.000005  0.000025  0.000016  0.000000
                 **** Energy Check signals convergence ****
              ***Rediagonalizing the Fockian in SOSCF/NRSCF***

               *****************************************************
               *                     SUCCESS                       *
               *           SCF CONVERGED AFTER  19 CYCLES          *
               *****************************************************

Setting up the final grid:

General Integration Accuracy     IntAcc      ...  5.010
Radial Grid Type                 RadialGrid  ... Gauss-Chebyshev
Angular Grid (max. acc.)         AngularGrid ... Lebedev-434
Angular grid pruning method      GridPruning ... 3 (G Style)
Weight generation scheme         WeightScheme... Becke
Basis function cutoff            BFCut       ...    1.0000e-11
Integration weight cutoff        WCut        ...    1.0000e-14
Grids for H and He will be reduced by one unit

# of grid points (after initial pruning)     ... 235780 (   0.1 sec)
# of grid points (after weights+screening)   ... 209106 (   1.1 sec)
nearest neighbour list constructed           ...    0.0 sec
Grid point re-assignment to atoms done       ...    0.0 sec
Grid point division into batches done        ...    1.4 sec
Reduced shell lists constructed in    3.1 sec

Total number of grid points                  ...   209106
Total number of batches                      ...     3282
Average number of points per batch           ...       63
Average number of grid points per atom       ...     7745
Average number of shells per batch           ...    66.33 (52.65%)
Average number of basis functions per batch  ...   131.77 (49.91%)
Average number of large shells per batch     ...    45.07 (67.95%)
Average number of large basis fcns per batch ...    90.31 (68.54%)
Maximum spatial batch extension              ...  17.62, 24.80, 21.82 au
Average spatial batch extension              ...   1.86,  1.90,  1.94 au

Final grid set up in    4.3 sec
Final integration                            ... done (   3.6 sec)
Change in XC energy                          ...    -0.000902101
Integrated number of electrons               ...   120.000048154
Previous integrated no of electrons          ...   119.998607953

----------------
TOTAL SCF ENERGY
----------------

Total Energy       :        -1474.79917611 Eh          -40131.32582 eV

Components:
Nuclear Repulsion  :         1131.81158488 Eh           30798.15897 eV
Electronic Energy  :        -2606.61076099 Eh          -70929.48479 eV
One Electron Energy:        -4277.61138694 Eh         -116399.72349 eV
Two Electron Energy:         1671.00062595 Eh           45470.23869 eV

Virial components:
Potential Energy   :        -2942.69034619 Eh          -80074.67524 eV
Kinetic Energy     :         1467.89117008 Eh           39943.34942 eV
Virial Ratio       :            2.00470608


DFT components:
N(Alpha)           :       60.000024077108 electrons
N(Beta)            :       60.000024077108 electrons
N(Total)           :      120.000048154217 electrons
E(X)               :     -127.399997763413 Eh       
E(C)               :       -4.706258688770 Eh       
E(XC)              :     -132.106256452183 Eh       
DFET-embed. en.    :        0.000000000000 Eh       

---------------
SCF CONVERGENCE
---------------

  Last Energy change         ...   -5.0723e-09  Tolerance :   1.0000e-08
  Last MAX-Density change    ...    2.9363e-06  Tolerance :   1.0000e-07
  Last RMS-Density change    ...    9.5652e-08  Tolerance :   5.0000e-09
  Last Orbital Gradient      ...    6.3439e-07  Tolerance :   1.0000e-05
  Last Orbital Rotation      ...    4.6721e-06  Tolerance :   1.0000e-05

             **** THE GBW FILE WAS UPDATED (PDTSTPD_Input_Dimethyl_Dithienosilole_1_Optimize_Monomer_Hydrogenated.gbw) ****
             **** DENSITY FILE WAS UPDATED (PDTSTPD_Input_Dimethyl_Dithienosilole_1_Optimize_Monomer_Hydrogenated.scfp) ****
             **** ENERGY FILE WAS UPDATED (PDTSTPD_Input_Dimethyl_Dithienosilole_1_Optimize_Monomer_Hydrogenated.en.tmp) ****
             **** THE GBW FILE WAS UPDATED (PDTSTPD_Input_Dimethyl_Dithienosilole_1_Optimize_Monomer_Hydrogenated.gbw) ****
             **** DENSITY FILE WAS UPDATED (PDTSTPD_Input_Dimethyl_Dithienosilole_1_Optimize_Monomer_Hydrogenated.scfp) ****
----------------
ORBITAL ENERGIES
----------------

  NO   OCC          E(Eh)            E(eV) 
   0   2.0000     -88.078091     -2396.7267 
   1   2.0000     -88.077967     -2396.7233 
   2   2.0000     -65.445061     -1780.8506 
   3   2.0000      -9.938959      -270.4528 
   4   2.0000      -9.938906      -270.4514 
   5   2.0000      -9.927277      -270.1349 
   6   2.0000      -9.927152      -270.1315 
   7   2.0000      -9.907996      -269.6103 
   8   2.0000      -9.907880      -269.6071 
   9   2.0000      -9.902131      -269.4507 
  10   2.0000      -9.902017      -269.4476 
  11   2.0000      -9.887740      -269.0591 
  12   2.0000      -9.887639      -269.0563 
  13   2.0000      -7.676947      -208.9003 
  14   2.0000      -7.676849      -208.8977 
  15   2.0000      -5.704879      -155.2377 
  16   2.0000      -5.704791      -155.2353 
  17   2.0000      -5.700461      -155.1174 
  18   2.0000      -5.700378      -155.1152 
  19   2.0000      -5.693629      -154.9315 
  20   2.0000      -5.693552      -154.9294 
  21   2.0000      -5.052920      -137.4969 
  22   2.0000      -3.468320       -94.3778 
  23   2.0000      -3.467473       -94.3547 
  24   2.0000      -3.466520       -94.3288 
  25   2.0000      -0.808475       -21.9997 
  26   2.0000      -0.792213       -21.5572 
  27   2.0000      -0.705336       -19.1932 
  28   2.0000      -0.672783       -18.3073 
  29   2.0000      -0.662715       -18.0334 
  30   2.0000      -0.630625       -17.1602 
  31   2.0000      -0.626573       -17.0499 
  32   2.0000      -0.609365       -16.5817 
  33   2.0000      -0.546541       -14.8721 
  34   2.0000      -0.518928       -14.1208 
  35   2.0000      -0.487462       -13.2645 
  36   2.0000      -0.453369       -12.3368 
  37   2.0000      -0.447427       -12.1751 
  38   2.0000      -0.445370       -12.1191 
  39   2.0000      -0.441061       -12.0019 
  40   2.0000      -0.392131       -10.6704 
  41   2.0000      -0.388292       -10.5660 
  42   2.0000      -0.367059        -9.9882 
  43   2.0000      -0.364639        -9.9223 
  44   2.0000      -0.355664        -9.6781 
  45   2.0000      -0.354908        -9.6575 
  46   2.0000      -0.352123        -9.5817 
  47   2.0000      -0.331168        -9.0115 
  48   2.0000      -0.328925        -8.9505 
  49   2.0000      -0.328013        -8.9257 
  50   2.0000      -0.314365        -8.5543 
  51   2.0000      -0.306764        -8.3475 
  52   2.0000      -0.295962        -8.0535 
  53   2.0000      -0.292789        -7.9672 
  54   2.0000      -0.274529        -7.4703 
  55   2.0000      -0.263588        -7.1726 
  56   2.0000      -0.257426        -7.0049 
  57   2.0000      -0.239442        -6.5155 
  58   2.0000      -0.173461        -4.7201 
  59   2.0000      -0.141781        -3.8581 
  60   0.0000      -0.074416        -2.0250 
  61   0.0000      -0.001481        -0.0403 
  62   0.0000       0.020757         0.5648 
  63   0.0000       0.030936         0.8418 
  64   0.0000       0.032095         0.8734 
  65   0.0000       0.033239         0.9045 
  66   0.0000       0.043314         1.1786 
  67   0.0000       0.043973         1.1966 
  68   0.0000       0.058659         1.5962 
  69   0.0000       0.060118         1.6359 
  70   0.0000       0.064747         1.7619 
  71   0.0000       0.086579         2.3559 
  72   0.0000       0.090204         2.4546 
  73   0.0000       0.090972         2.4755 
  74   0.0000       0.107676         2.9300 
  75   0.0000       0.109444         2.9781 
  76   0.0000       0.117625         3.2007 
  77   0.0000       0.118650         3.2286 
  78   0.0000       0.121027         3.2933 
  79   0.0000       0.127193         3.4611 
  80   0.0000       0.158386         4.3099 
  81   0.0000       0.160546         4.3687 
  82   0.0000       0.164354         4.4723 
  83   0.0000       0.182827         4.9750 
  84   0.0000       0.195579         5.3220 
  85   0.0000       0.221862         6.0372 
  86   0.0000       0.239324         6.5123 
  87   0.0000       0.252315         6.8658 
  88   0.0000       0.260911         7.0997 
  89   0.0000       0.303052         8.2465 
  90   0.0000       0.308330         8.3901 
  91   0.0000       0.330528         8.9941 
  92   0.0000       0.333070         9.0633 
  93   0.0000       0.367278         9.9941 
  94   0.0000       0.369073        10.0430 
  95   0.0000       0.375930        10.2296 
  96   0.0000       0.381327        10.3764 
  97   0.0000       0.392402        10.6778 
  98   0.0000       0.394125        10.7247 
  99   0.0000       0.399684        10.8759 
 100   0.0000       0.402362        10.9488 
 101   0.0000       0.408032        11.1031 
 102   0.0000       0.438181        11.9235 
 103   0.0000       0.454633        12.3712 
 104   0.0000       0.459032        12.4909 
 105   0.0000       0.473671        12.8892 
 106   0.0000       0.484049        13.1716 
 107   0.0000       0.492795        13.4096 
 108   0.0000       0.497972        13.5505 
 109   0.0000       0.504551        13.7295 
 110   0.0000       0.512382        13.9426 
 111   0.0000       0.522123        14.2077 
 112   0.0000       0.529546        14.4097 
 113   0.0000       0.538127        14.6432 
 114   0.0000       0.546925        14.8826 
 115   0.0000       0.553071        15.0498 
 116   0.0000       0.554013        15.0754 
 117   0.0000       0.556340        15.1388 
 118   0.0000       0.584947        15.9172 
 119   0.0000       0.585142        15.9225 
 120   0.0000       0.587869        15.9967 
 121   0.0000       0.595835        16.2135 
 122   0.0000       0.598207        16.2780 
 123   0.0000       0.602390        16.3919 
 124   0.0000       0.609422        16.5832 
 125   0.0000       0.615508        16.7488 
 126   0.0000       0.617918        16.8144 
 127   0.0000       0.621723        16.9179 
 128   0.0000       0.632764        17.2184 
 129   0.0000       0.637603        17.3501 
 130   0.0000       0.638305        17.3692 
 131   0.0000       0.643154        17.5011 
 132   0.0000       0.644018        17.5246 
 133   0.0000       0.651166        17.7191 
 134   0.0000       0.658319        17.9138 
 135   0.0000       0.659067        17.9341 
 136   0.0000       0.659936        17.9578 
 137   0.0000       0.664011        18.0686 
 138   0.0000       0.684573        18.6282 
 139   0.0000       0.696650        18.9568 
 140   0.0000       0.700697        19.0669 
 141   0.0000       0.708449        19.2779 
 142   0.0000       0.717963        19.5368 
 143   0.0000       0.727176        19.7875 
 144   0.0000       0.730013        19.8647 
 145   0.0000       0.732721        19.9384 
 146   0.0000       0.761190        20.7130 
 147   0.0000       0.772867        21.0308 
 148   0.0000       0.787845        21.4384 
 149   0.0000       0.804738        21.8980 
 150   0.0000       0.818295        22.2669 
 151   0.0000       0.824419        22.4336 
 152   0.0000       0.834600        22.7106 
 153   0.0000       0.842162        22.9164 
 154   0.0000       0.842917        22.9369 
 155   0.0000       0.873014        23.7559 
 156   0.0000       0.874302        23.7910 
 157   0.0000       0.913060        24.8456 
 158   0.0000       0.942181        25.6381 
 159   0.0000       0.951685        25.8967 
 160   0.0000       0.969385        26.3783 
 161   0.0000       0.977810        26.6076 
 162   0.0000       1.025953        27.9176 
 163   0.0000       1.041526        28.3414 
 164   0.0000       1.076472        29.2923 
 165   0.0000       1.103736        30.0342 
 166   0.0000       1.116109        30.3709 
 167   0.0000       1.141300        31.0564 
 168   0.0000       1.152638        31.3649 
 169   0.0000       1.153555        31.3898 
 170   0.0000       1.202420        32.7195 
 171   0.0000       1.214471        33.0474 
 172   0.0000       1.216322        33.0978 
 173   0.0000       1.224531        33.3212 
 174   0.0000       1.259999        34.2863 
 175   0.0000       1.327025        36.1102 
 176   0.0000       1.345475        36.6122 
 177   0.0000       1.348638        36.6983 
 178   0.0000       1.376858        37.4662 
 179   0.0000       1.380753        37.5722 
 180   0.0000       1.422198        38.7000 
 181   0.0000       1.454180        39.5703 
 182   0.0000       1.455755        39.6131 
 183   0.0000       1.459351        39.7110 
 184   0.0000       1.511886        41.1405 
 185   0.0000       1.515313        41.2338 
 186   0.0000       1.563611        42.5480 
 187   0.0000       1.572686        42.7950 
 188   0.0000       1.597637        43.4739 
 189   0.0000       1.618070        44.0299 
 190   0.0000       1.647130        44.8207 
 191   0.0000       1.653692        44.9993 
 192   0.0000       1.663035        45.2535 
 193   0.0000       1.686051        45.8798 
 194   0.0000       1.699768        46.2530 
 195   0.0000       1.705868        46.4190 
 196   0.0000       1.710413        46.5427 
 197   0.0000       1.714239        46.6468 
 198   0.0000       1.723017        46.8857 
 199   0.0000       1.749464        47.6053 
 200   0.0000       1.766900        48.0798 
 201   0.0000       1.769828        48.1595 
 202   0.0000       1.784232        48.5514 
 203   0.0000       1.818666        49.4884 
 204   0.0000       1.830868        49.8204 
 205   0.0000       1.844265        50.1850 
 206   0.0000       1.846086        50.2346 
 207   0.0000       1.855634        50.4944 
 208   0.0000       1.856250        50.5111 
 209   0.0000       1.863272        50.7022 
 210   0.0000       1.867845        50.8266 
 211   0.0000       1.876193        51.0538 
 212   0.0000       1.900594        51.7178 
 213   0.0000       1.901516        51.7429 
 214   0.0000       1.913528        52.0697 
 215   0.0000       1.952185        53.1217 
 216   0.0000       1.960152        53.3385 
 217   0.0000       1.968781        53.5733 
 218   0.0000       1.970461        53.6190 
 219   0.0000       1.983779        53.9814 
 220   0.0000       2.013018        54.7770 
 221   0.0000       2.032402        55.3045 
 222   0.0000       2.062443        56.1219 
 223   0.0000       2.110832        57.4387 
 224   0.0000       2.137410        58.1619 
 225   0.0000       2.159091        58.7518 
 226   0.0000       2.166778        58.9610 
 227   0.0000       2.201911        59.9170 
 228   0.0000       2.208039        60.0838 
 229   0.0000       2.212603        60.2080 
 230   0.0000       2.221945        60.4622 
 231   0.0000       2.230352        60.6910 
 232   0.0000       2.270211        61.7756 
 233   0.0000       2.276986        61.9599 
 234   0.0000       2.327072        63.3229 
 235   0.0000       2.336240        63.5723 
 236   0.0000       2.360278        64.2264 
 237   0.0000       2.378666        64.7268 
 238   0.0000       2.379669        64.7541 
 239   0.0000       2.399434        65.2919 
 240   0.0000       2.438829        66.3639 
 241   0.0000       2.458649        66.9033 
 242   0.0000       2.580423        70.2169 
 243   0.0000       2.583285        70.2948 
 244   0.0000       2.585922        70.3665 
 245   0.0000       2.604486        70.8717 
 246   0.0000       2.611412        71.0601 
 247   0.0000       2.634722        71.6944 
 248   0.0000       2.636029        71.7300 
 249   0.0000       2.658653        72.3456 
 250   0.0000       2.688869        73.1678 
 251   0.0000       2.792225        75.9803 
 252   0.0000       2.793546        76.0163 
 253   0.0000       2.798413        76.1487 
 254   0.0000       2.812592        76.5345 
 255   0.0000       2.818687        76.7004 
 256   0.0000       2.819566        76.7243 
 257   0.0000       2.830127        77.0117 
 258   0.0000       2.839411        77.2643 
 259   0.0000       2.918590        79.4189 
 260   0.0000       2.927160        79.6521 
 261   0.0000       2.965211        80.6875 
 262   0.0000       2.968319        80.7721 
 263   0.0000       2.993883        81.4677 

                    ********************************
                    * MULLIKEN POPULATION ANALYSIS *
                    ********************************

-----------------------
MULLIKEN ATOMIC CHARGES
-----------------------
   0 C :   -0.088685
   1 C :    0.151369
   2 C :   -0.295112
   3 H :    0.017679
   4 C :   -0.094460
   5 S :   -0.008568
   6 Si:    0.469129
   7 C :   -0.294926
   8 C :   -0.093989
   9 S :   -0.008283
  10 C :   -0.088591
  11 C :    0.150649
  12 H :    0.017679
  13 C :   -0.248178
  14 H :    0.071394
  15 H :    0.059559
  16 H :    0.059444
  17 C :   -0.247673
  18 H :    0.071371
  19 H :    0.059306
  20 H :    0.059386
  21 H :    0.017107
  22 H :    0.017408
  23 H :    0.061346
  24 H :    0.061186
  25 H :    0.062168
  26 H :    0.062284
Sum of atomic charges:    0.0000000

--------------------------------
MULLIKEN REDUCED ORBITAL CHARGES
--------------------------------
  0 C s       :     2.996632  s :     2.996632
      pz      :     1.069117  p :     3.051365
      px      :     1.000809
      py      :     0.981440
      dz2     :     0.005779  d :     0.040688
      dxz     :     0.009398
      dyz     :     0.007497
      dx2y2   :     0.007005
      dxy     :     0.011009
  1 C s       :     2.781928  s :     2.781928
      pz      :     0.986503  p :     3.022975
      px      :     1.032724
      py      :     1.003748
      dz2     :     0.006128  d :     0.043728
      dxz     :     0.009501
      dyz     :     0.008377
      dx2y2   :     0.009956
      dxy     :     0.009765
  2 C s       :     3.261731  s :     3.261731
      pz      :     1.060112  p :     3.001684
      px      :     0.965937
      py      :     0.975635
      dz2     :     0.002591  d :     0.031697
      dxz     :     0.006313
      dyz     :     0.003990
      dx2y2   :     0.009358
      dxy     :     0.009445
  3 H s       :     0.958997  s :     0.958997
      pz      :     0.009743  p :     0.023324
      px      :     0.006511
      py      :     0.007071
  4 C s       :     3.058269  s :     3.058269
      pz      :     1.040723  p :     2.991102
      px      :     1.026011
      py      :     0.924368
      dz2     :     0.003213  d :     0.045089
      dxz     :     0.007257
      dyz     :     0.008311
      dx2y2   :     0.012013
      dxy     :     0.014296
  5 S s       :     5.890146  s :     5.890146
      pz      :     3.820784  p :    10.020096
      px      :     2.952545
      py      :     3.246767
      dz2     :     0.011482  d :     0.098326
      dxz     :     0.012144
      dyz     :     0.013073
      dx2y2   :     0.016455
      dxy     :     0.045173
  6 Sis       :     5.137736  s :     5.137736
      pz      :     2.727261  p :     8.091322
      px      :     2.691617
      py      :     2.672444
      dz2     :     0.064372  d :     0.301814
      dxz     :     0.041319
      dyz     :     0.081501
      dx2y2   :     0.029669
      dxy     :     0.084953
  7 C s       :     3.261505  s :     3.261505
      pz      :     1.059746  p :     3.001710
      px      :     0.966081
      py      :     0.975884
      dz2     :     0.002579  d :     0.031711
      dxz     :     0.006444
      dyz     :     0.003879
      dx2y2   :     0.009147
      dxy     :     0.009662
  8 C s       :     3.057818  s :     3.057818
      pz      :     1.040650  p :     2.991106
      px      :     1.028325
      py      :     0.922131
      dz2     :     0.003214  d :     0.045065
      dxz     :     0.007182
      dyz     :     0.008372
      dx2y2   :     0.012258
      dxy     :     0.014039
  9 S s       :     5.890060  s :     5.890060
      pz      :     3.820618  p :    10.020095
      px      :     2.955599
      py      :     3.243879
      dz2     :     0.011482  d :     0.098128
      dxz     :     0.011966
      dyz     :     0.013154
      dx2y2   :     0.016989
      dxy     :     0.044536
 10 C s       :     2.997673  s :     2.997673
      pz      :     1.069407  p :     3.050339
      px      :     0.993686
      py      :     0.987246
      dz2     :     0.005790  d :     0.040578
      dxz     :     0.009264
      dyz     :     0.007557
      dx2y2   :     0.006988
      dxy     :     0.010979
 11 C s       :     2.783018  s :     2.783018
      pz      :     0.986645  p :     3.022650
      px      :     1.036844
      py      :     0.999161
      dz2     :     0.006095  d :     0.043682
      dxz     :     0.009658
      dyz     :     0.008246
      dx2y2   :     0.010079
      dxy     :     0.009604
 12 H s       :     0.959000  s :     0.959000
      pz      :     0.009937  p :     0.023321
      px      :     0.006395
      py      :     0.006988
 13 C s       :     3.120309  s :     3.120309
      pz      :     1.082253  p :     3.112775
      px      :     1.001009
      py      :     1.029513
      dz2     :     0.003831  d :     0.015095
      dxz     :     0.000333
      dyz     :     0.003589
      dx2y2   :     0.001228
      dxy     :     0.006114
 14 H s       :     0.904969  s :     0.904969
      pz      :     0.010383  p :     0.023637
      px      :     0.005084
      py      :     0.008170
 15 H s       :     0.916563  s :     0.916563
      pz      :     0.005898  p :     0.023878
      px      :     0.009878
      py      :     0.008103
 16 H s       :     0.916680  s :     0.916680
      pz      :     0.005896  p :     0.023876
      px      :     0.010091
      py      :     0.007889
 17 C s       :     3.120277  s :     3.120277
      pz      :     1.086005  p :     3.112305
      px      :     1.000813
      py      :     1.025487
      dz2     :     0.003614  d :     0.015091
      dxz     :     0.000361
      dyz     :     0.003732
      dx2y2   :     0.001304
      dxy     :     0.006080
 18 H s       :     0.904985  s :     0.904985
      pz      :     0.010099  p :     0.023644
      px      :     0.005083
      py      :     0.008462
 19 H s       :     0.916814  s :     0.916814
      pz      :     0.005942  p :     0.023880
      px      :     0.010099
      py      :     0.007838
 20 H s       :     0.916728  s :     0.916728
      pz      :     0.005954  p :     0.023885
      px      :     0.009883
      py      :     0.008048
 21 H s       :     0.959489  s :     0.959489
      pz      :     0.010280  p :     0.023404
      px      :     0.006274
      py      :     0.006850
 22 H s       :     0.959221  s :     0.959221
      pz      :     0.010071  p :     0.023371
      px      :     0.006575
      py      :     0.006726
 23 H s       :     0.916568  s :     0.916568
      pz      :     0.010395  p :     0.022086
      px      :     0.006947
      py      :     0.004745
 24 H s       :     0.916716  s :     0.916716
      pz      :     0.010703  p :     0.022098
      px      :     0.006573
      py      :     0.004822
 25 H s       :     0.915830  s :     0.915830
      pz      :     0.010503  p :     0.022002
      px      :     0.006608
      py      :     0.004890
 26 H s       :     0.915722  s :     0.915722
      pz      :     0.010217  p :     0.021994
      px      :     0.006804
      py      :     0.004973


                     *******************************
                     * LOEWDIN POPULATION ANALYSIS *
                     *******************************

----------------------
LOEWDIN ATOMIC CHARGES
----------------------
   0 C :   -0.138915
   1 C :   -0.072228
   2 C :   -0.221079
   3 H :    0.038781
   4 C :   -0.180671
   5 S :    0.294530
   6 Si:    0.625762
   7 C :   -0.220915
   8 C :   -0.180610
   9 S :    0.294113
  10 C :   -0.138575
  11 C :   -0.072076
  12 H :    0.038692
  13 C :   -0.255504
  14 H :    0.045655
  15 H :    0.040224
  16 H :    0.040209
  17 C :   -0.255356
  18 H :    0.045688
  19 H :    0.040204
  20 H :    0.040249
  21 H :    0.039121
  22 H :    0.039221
  23 H :    0.029056
  24 H :    0.028978
  25 H :    0.027741
  26 H :    0.027702

-------------------------------
LOEWDIN REDUCED ORBITAL CHARGES
-------------------------------
  0 C s       :     2.868219  s :     2.868219
      pz      :     1.094635  p :     3.169727
      px      :     1.033000
      py      :     1.042092
      dz2     :     0.015333  d :     0.100969
      dxz     :     0.025812
      dyz     :     0.014528
      dx2y2   :     0.016606
      dxy     :     0.028691
  1 C s       :     2.796754  s :     2.796754
      pz      :     1.044680  p :     3.156499
      px      :     1.066636
      py      :     1.045182
      dz2     :     0.017073  d :     0.118976
      dxz     :     0.022628
      dyz     :     0.022603
      dx2y2   :     0.031662
      dxy     :     0.025009
  2 C s       :     2.926584  s :     2.926584
      pz      :     1.042588  p :     3.212639
      px      :     1.059875
      py      :     1.110176
      dz2     :     0.006549  d :     0.081856
      dxz     :     0.012516
      dyz     :     0.007108
      dx2y2   :     0.027678
      dxy     :     0.028005
  3 H s       :     0.894749  s :     0.894749
      pz      :     0.029540  p :     0.066470
      px      :     0.017850
      py      :     0.019080
  4 C s       :     2.924753  s :     2.924753
      pz      :     1.032277  p :     3.145110
      px      :     1.054484
      py      :     1.058349
      dz2     :     0.007678  d :     0.110809
      dxz     :     0.014499
      dyz     :     0.017382
      dx2y2   :     0.034033
      dxy     :     0.037216
  5 S s       :     5.521062  s :     5.521062
      pz      :     3.774806  p :    10.060938
      px      :     2.959723
      py      :     3.326409
      dz2     :     0.015064  d :     0.123470
      dxz     :     0.013428
      dyz     :     0.014424
      dx2y2   :     0.018913
      dxy     :     0.061641
  6 Sis       :     4.817657  s :     4.817657
      pz      :     2.724635  p :     8.111759
      px      :     2.693464
      py      :     2.693660
      dz2     :     0.094763  d :     0.444822
      dxz     :     0.056517
      dyz     :     0.124624
      dx2y2   :     0.039572
      dxy     :     0.129344
  7 C s       :     2.926451  s :     2.926451
      pz      :     1.042238  p :     3.212552
      px      :     1.057232
      py      :     1.113082
      dz2     :     0.006533  d :     0.081912
      dxz     :     0.012790
      dyz     :     0.006869
      dx2y2   :     0.026792
      dxy     :     0.028929
  8 C s       :     2.924781  s :     2.924781
      pz      :     1.032257  p :     3.145080
      px      :     1.056426
      py      :     1.056397
      dz2     :     0.007680  d :     0.110749
      dxz     :     0.014392
      dyz     :     0.017456
      dx2y2   :     0.034273
      dxy     :     0.036948
  9 S s       :     5.521757  s :     5.521757
      pz      :     3.774811  p :    10.060935
      px      :     2.962002
      py      :     3.324123
      dz2     :     0.015056  d :     0.123195
      dxz     :     0.013207
      dyz     :     0.014542
      dx2y2   :     0.019748
      dxy     :     0.060642
 10 C s       :     2.868683  s :     2.868683
      pz      :     1.094993  p :     3.169229
      px      :     1.030195
      py      :     1.044041
      dz2     :     0.015377  d :     0.100663
      dxz     :     0.025332
      dyz     :     0.014794
      dx2y2   :     0.016749
      dxy     :     0.028410
 11 C s       :     2.797040  s :     2.797040
      pz      :     1.044712  p :     3.156210
      px      :     1.067088
      py      :     1.044410
      dz2     :     0.016952  d :     0.118826
      dxz     :     0.023273
      dyz     :     0.022052
      dx2y2   :     0.032048
      dxy     :     0.024501
 12 H s       :     0.894874  s :     0.894874
      pz      :     0.030166  p :     0.066434
      px      :     0.017575
      py      :     0.018692
 13 C s       :     2.901150  s :     2.901150
      pz      :     1.143701  p :     3.311496
      px      :     1.066930
      py      :     1.100865
      dz2     :     0.010754  d :     0.042857
      dxz     :     0.000627
      dyz     :     0.011244
      dx2y2   :     0.003609
      dxy     :     0.016623
 14 H s       :     0.886283  s :     0.886283
      pz      :     0.033887  p :     0.068061
      px      :     0.011758
      py      :     0.022416
 15 H s       :     0.892003  s :     0.892003
      pz      :     0.015392  p :     0.067773
      px      :     0.029100
      py      :     0.023282
 16 H s       :     0.892016  s :     0.892016
      pz      :     0.015432  p :     0.067775
      px      :     0.029880
      py      :     0.022462
 17 C s       :     2.901167  s :     2.901167
      pz      :     1.147737  p :     3.311334
      px      :     1.066940
      py      :     1.096657
      dz2     :     0.010333  d :     0.042855
      dxz     :     0.000684
      dyz     :     0.011499
      dx2y2   :     0.003790
      dxy     :     0.016549
 18 H s       :     0.886262  s :     0.886262
      pz      :     0.032895  p :     0.068049
      px      :     0.011742
      py      :     0.023413
 19 H s       :     0.892026  s :     0.892026
      pz      :     0.015628  p :     0.067770
      px      :     0.029935
      py      :     0.022208
 20 H s       :     0.891983  s :     0.891983
      pz      :     0.015713  p :     0.067768
      px      :     0.029057
      py      :     0.022998
 21 H s       :     0.894112  s :     0.894112
      pz      :     0.031279  p :     0.066766
      px      :     0.017519
      py      :     0.017969
 22 H s       :     0.894071  s :     0.894071
      pz      :     0.030610  p :     0.066708
      px      :     0.018366
      py      :     0.017732
 23 H s       :     0.901624  s :     0.901624
      pz      :     0.032069  p :     0.069320
      px      :     0.023355
      py      :     0.013896
 24 H s       :     0.901727  s :     0.901727
      pz      :     0.033136  p :     0.069295
      px      :     0.022173
      py      :     0.013987
 25 H s       :     0.902968  s :     0.902968
      pz      :     0.032674  p :     0.069291
      px      :     0.022146
      py      :     0.014470
 26 H s       :     0.902926  s :     0.902926
      pz      :     0.031655  p :     0.069372
      px      :     0.022954
      py      :     0.014762


                      *****************************
                      * MAYER POPULATION ANALYSIS *
                      *****************************

  NA   - Mulliken gross atomic population
  ZA   - Total nuclear charge
  QA   - Mulliken gross atomic charge
  VA   - Mayer's total valence
  BVA  - Mayer's bonded valence
  FA   - Mayer's free valence

  ATOM       NA         ZA         QA         VA         BVA        FA
  0 C      6.0887     6.0000    -0.0887     4.0441     4.0441     0.0000
  1 C      5.8486     6.0000     0.1514     4.0692     4.0692     0.0000
  2 C      6.2951     6.0000    -0.2951     3.9980     3.9980     0.0000
  3 H      0.9823     1.0000     0.0177     0.9727     0.9727    -0.0000
  4 C      6.0945     6.0000    -0.0945     4.0397     4.0397     0.0000
  5 S     16.0086    16.0000    -0.0086     2.2621     2.2621     0.0000
  6 Si    13.5309    14.0000     0.4691     4.1753     4.1753    -0.0000
  7 C      6.2949     6.0000    -0.2949     3.9985     3.9985    -0.0000
  8 C      6.0940     6.0000    -0.0940     4.0396     4.0396     0.0000
  9 S     16.0083    16.0000    -0.0083     2.2615     2.2615    -0.0000
 10 C      6.0886     6.0000    -0.0886     4.0433     4.0433     0.0000
 11 C      5.8494     6.0000     0.1506     4.0693     4.0693    -0.0000
 12 H      0.9823     1.0000     0.0177     0.9727     0.9727    -0.0000
 13 C      6.2482     6.0000    -0.2482     3.9085     3.9085     0.0000
 14 H      0.9286     1.0000     0.0714     0.9850     0.9850     0.0000
 15 H      0.9404     1.0000     0.0596     0.9815     0.9815     0.0000
 16 H      0.9406     1.0000     0.0594     0.9814     0.9814     0.0000
 17 C      6.2477     6.0000    -0.2477     3.9086     3.9086     0.0000
 18 H      0.9286     1.0000     0.0714     0.9851     0.9851     0.0000
 19 H      0.9407     1.0000     0.0593     0.9814     0.9814    -0.0000
 20 H      0.9406     1.0000     0.0594     0.9815     0.9815    -0.0000
 21 H      0.9829     1.0000     0.0171     0.9730     0.9730     0.0000
 22 H      0.9826     1.0000     0.0174     0.9729     0.9729    -0.0000
 23 H      0.9387     1.0000     0.0613     0.9717     0.9717    -0.0000
 24 H      0.9388     1.0000     0.0612     0.9716     0.9716    -0.0000
 25 H      0.9378     1.0000     0.0622     0.9715     0.9715     0.0000
 26 H      0.9377     1.0000     0.0623     0.9716     0.9716     0.0000

  Mayer bond orders larger than 0.100000
B(  0-C ,  1-C ) :   1.1293 B(  0-C ,  5-S ) :   0.9896 B(  0-C , 23-H ) :   0.9298 
B(  0-C , 25-H ) :   0.9325 B(  1-C ,  2-C ) :   1.1105 B(  1-C ,  3-H ) :   0.8780 
B(  1-C , 21-H ) :   0.8743 B(  2-C ,  4-C ) :   1.6474 B(  2-C ,  5-S ) :   0.1193 
B(  2-C ,  6-Si) :   0.9006 B(  2-C ,  7-C ) :   0.1189 B(  4-C ,  5-S ) :   1.0437 
B(  4-C ,  8-C ) :   1.1844 B(  6-Si,  7-C ) :   0.9004 B(  6-Si, 13-C ) :   1.0353 
B(  6-Si, 17-C ) :   1.0356 B(  7-C ,  8-C ) :   1.6478 B(  7-C ,  9-S ) :   0.1192 
B(  7-C , 11-C ) :   1.1110 B(  8-C ,  9-S ) :   1.0435 B(  9-S , 10-C ) :   0.9895 
B( 10-C , 11-C ) :   1.1287 B( 10-C , 24-H ) :   0.9306 B( 10-C , 26-H ) :   0.9322 
B( 11-C , 12-H ) :   0.8786 B( 11-C , 22-H ) :   0.8740 B( 13-C , 14-H ) :   0.9465 
B( 13-C , 15-H ) :   0.9487 B( 13-C , 16-H ) :   0.9487 B( 17-C , 18-H ) :   0.9467 
B( 17-C , 19-H ) :   0.9486 B( 17-C , 20-H ) :   0.9488 

-------
TIMINGS
-------

Total SCF time: 0 days 0 hours 0 min 47 sec 

Total time                  ....      47.618 sec
Sum of individual times     ....      47.042 sec  ( 98.8%)

Fock matrix formation       ....      39.918 sec  ( 83.8%)
  Split-RI-J                ....      15.855 sec  ( 39.7% of F)
  XC integration            ....      23.233 sec  ( 58.2% of F)
    Basis function eval.    ....       8.151 sec  ( 35.1% of XC)
    Density eval.           ....       5.189 sec  ( 22.3% of XC)
    XC-Functional eval.     ....       2.381 sec  ( 10.2% of XC)
    XC-Potential eval.      ....       6.061 sec  ( 26.1% of XC)
Diagonalization             ....       0.084 sec  (  0.2%)
Density matrix formation    ....       0.036 sec  (  0.1%)
Population analysis         ....       0.098 sec  (  0.2%)
Initial guess               ....       1.361 sec  (  2.9%)
Orbital Transformation      ....       0.000 sec  (  0.0%)
Orbital Orthonormalization  ....       0.000 sec  (  0.0%)
DIIS solution               ....       0.075 sec  (  0.2%)
SOSCF solution              ....       0.150 sec  (  0.3%)
Grid generation             ....       5.320 sec  ( 11.2%)


-------------------------------------------------------------------------------
                          DFT DISPERSION CORRECTION                            
                                                                               
                              DFTD3 V3.1  Rev 1                                
                          USING Becke-Johnson damping                          
-------------------------------------------------------------------------------
The BP86 functional is recognized
Active option DFTDOPT                   ...         4   

molecular C6(AA) [au] = 10824.786794 


            DFT-D V3
 parameters
 s6 scaling factor         :     1.0000 
 a1 scaling factor         :     0.3946 
 s8 scaling factor         :     3.2822 
 a2 scaling factor         :     4.8516 
 ad hoc parameters k1-k3   :    16.0000     1.3333    -4.0000 

 Edisp/kcal,au: -39.053139083245  -0.062235131949 
 E6   /kcal   : -13.360950950 
 E8   /kcal   : -25.692188133 
 % E8         :  65.787766966 

-------------------------   ----------------
Dispersion correction           -0.062235132
-------------------------   ----------------


-------------------------   --------------------
FINAL SINGLE POINT ENERGY     -1474.861411242710
-------------------------   --------------------

------------------------------------------------------------------------------
                         ORCA SCF GRADIENT CALCULATION
------------------------------------------------------------------------------

Gradient of the Kohn-Sham DFT energy:
Kohn-Sham wavefunction type      ... RKS
Hartree-Fock exchange scaling    ...    0.000
Number of operators              ...    1
Number of atoms                  ...   27
Basis set dimensions             ...  264
Integral neglect threshold       ... 2.5e-11
Integral primitive cutoff        ... 2.5e-12

Nuclear repulsion gradient       ... done
One Electron Gradient            ... done
Pre-screening matrix             ... done
RI-J gradient                    ... done
Exchange-correlation gradient    ... done
Dispersion correction            ... done

------------------
CARTESIAN GRADIENT
------------------

   1   C   :    0.048781321    0.074360651   -0.002927060
   2   C   :    0.029021188   -0.087978368    0.004470860
   3   C   :   -0.081593683    0.029336198   -0.000449747
   4   H   :    0.009278906   -0.013756458   -0.001172115
   5   C   :    0.013522863   -0.040043819    0.001204999
   6   S   :   -0.028826871    0.038475802   -0.002958126
   7   Si  :    0.000325699    0.015827336   -0.000279199
   8   C   :    0.082421650    0.026894608    0.002060312
   9   C   :   -0.014615810   -0.039627282    0.000498594
  10   S   :    0.029852003    0.036915673   -0.001959549
  11   C   :   -0.045641517    0.074784690   -0.004154177
[...]
      pz      :     2.727939  p :     8.091923
      px      :     2.691430
      py      :     2.672554
      dz2     :     0.064536  d :     0.301588
      dxz     :     0.041021
      dyz     :     0.081329
      dx2y2   :     0.029641
      dxy     :     0.085061
  7 C s       :     3.243821  s :     3.243821
      pz      :     1.052822  p :     2.993625
      px      :     0.960755
      py      :     0.980049
      dz2     :     0.002607  d :     0.031566
      dxz     :     0.006447
      dyz     :     0.003932
      dx2y2   :     0.009090
      dxy     :     0.009491
  8 C s       :     3.055424  s :     3.055424
      pz      :     1.043358  p :     2.995462
      px      :     1.028395
      py      :     0.923709
      dz2     :     0.003225  d :     0.045016
      dxz     :     0.007228
      dyz     :     0.008350
      dx2y2   :     0.012217
      dxy     :     0.013996
  9 S s       :     5.886386  s :     5.886386
      pz      :     3.818863  p :    10.015081
      px      :     2.952470
      py      :     3.243748
      dz2     :     0.011537  d :     0.098166
      dxz     :     0.012215
      dyz     :     0.013158
      dx2y2   :     0.016800
      dxy     :     0.044457
 10 C s       :     3.000291  s :     3.000291
      pz      :     1.078156  p :     3.038761
      px      :     0.979440
      py      :     0.981166
      dz2     :     0.005082  d :     0.039806
      dxz     :     0.009405
      dyz     :     0.007455
      dx2y2   :     0.006908
      dxy     :     0.010956
 11 C s       :     2.833278  s :     2.833278
      pz      :     1.010014  p :     3.016790
      px      :     1.032854
      py      :     0.973921
      dz2     :     0.004770  d :     0.042967
      dxz     :     0.009456
      dyz     :     0.008827
      dx2y2   :     0.010011
      dxy     :     0.009903
 12 H s       :     0.960200  s :     0.960200
      pz      :     0.009731  p :     0.022362
      px      :     0.005962
      py      :     0.006668
 13 C s       :     3.120660  s :     3.120660
      pz      :     1.082814  p :     3.111970
      px      :     1.000850
      py      :     1.028306
      dz2     :     0.003807  d :     0.015072
      dxz     :     0.000330
      dyz     :     0.003605
      dx2y2   :     0.001224
      dxy     :     0.006106
 14 H s       :     0.903979  s :     0.903979
      pz      :     0.010383  p :     0.023645
      px      :     0.005084
      py      :     0.008179
 15 H s       :     0.916752  s :     0.916752
      pz      :     0.005884  p :     0.023858
      px      :     0.009873
      py      :     0.008101
 16 H s       :     0.916910  s :     0.916910
      pz      :     0.005884  p :     0.023856
      px      :     0.010089
      py      :     0.007883
 17 C s       :     3.120737  s :     3.120737
      pz      :     1.086748  p :     3.111864
      px      :     1.000902
      py      :     1.024213
      dz2     :     0.003579  d :     0.015068
      dxz     :     0.000362
      dyz     :     0.003756
      dx2y2   :     0.001305
      dxy     :     0.006065
 18 H s       :     0.904013  s :     0.904013
      pz      :     0.010085  p :     0.023653
      px      :     0.005082
      py      :     0.008486
 19 H s       :     0.916979  s :     0.916979
      pz      :     0.005932  p :     0.023860
      px      :     0.010095
      py      :     0.007834
 20 H s       :     0.916936  s :     0.916936
      pz      :     0.005946  p :     0.023867
      px      :     0.009878
      py      :     0.008043
 21 H s       :     0.960151  s :     0.960151
      pz      :     0.010021  p :     0.022356
      px      :     0.005853
      py      :     0.006482
 22 H s       :     0.960051  s :     0.960051
      pz      :     0.009847  p :     0.022358
      px      :     0.006145
      py      :     0.006365
 23 H s       :     0.916329  s :     0.916329
      pz      :     0.010134  p :     0.021346
      px      :     0.006961
      py      :     0.004251
 24 H s       :     0.916391  s :     0.916391
      pz      :     0.010430  p :     0.021344
      px      :     0.006587
      py      :     0.004327
 25 H s       :     0.916498  s :     0.916498
      pz      :     0.010258  p :     0.021351
      px      :     0.006665
      py      :     0.004429
 26 H s       :     0.916382  s :     0.916382
      pz      :     0.009976  p :     0.021341
      px      :     0.006849
      py      :     0.004516


                     *******************************
                     * LOEWDIN POPULATION ANALYSIS *
                     *******************************

----------------------
LOEWDIN ATOMIC CHARGES
----------------------
   0 C :   -0.144465
   1 C :   -0.077077
   2 C :   -0.219649
   3 H :    0.038721
   4 C :   -0.181477
   5 S :    0.298803
   6 Si:    0.627072
   7 C :   -0.219487
   8 C :   -0.181407
   9 S :    0.298351
  10 C :   -0.144099
  11 C :   -0.076960
  12 H :    0.038723
  13 C :   -0.255440
  14 H :    0.046154
  15 H :    0.040319
  16 H :    0.040281
  17 C :   -0.255451
  18 H :    0.046135
  19 H :    0.040296
  20 H :    0.040313
  21 H :    0.038683
  22 H :    0.038691
  23 H :    0.030777
  24 H :    0.030736
  25 H :    0.030745
  26 H :    0.030708

-------------------------------
LOEWDIN REDUCED ORBITAL CHARGES
-------------------------------
  0 C s       :     2.874039  s :     2.874039
      pz      :     1.101367  p :     3.170895
      px      :     1.026096
      py      :     1.043432
      dz2     :     0.013181  d :     0.099530
      dxz     :     0.026390
      dyz     :     0.014577
      dx2y2   :     0.016690
      dxy     :     0.028692
  1 C s       :     2.806237  s :     2.806237
      pz      :     1.053159  p :     3.153386
      px      :     1.064095
      py      :     1.036132
      dz2     :     0.013270  d :     0.117454
      dxz     :     0.022123
      dyz     :     0.024494
      dx2y2   :     0.031627
      dxy     :     0.025940
  2 C s       :     2.925845  s :     2.925845
      pz      :     1.041177  p :     3.212080
      px      :     1.060553
      py      :     1.110349
      dz2     :     0.006600  d :     0.081724
      dxz     :     0.012714
      dyz     :     0.007204
      dx2y2   :     0.027774
      dxy     :     0.027433
  3 H s       :     0.898479  s :     0.898479
      pz      :     0.027244  p :     0.062800
      px      :     0.016734
      py      :     0.018822
  4 C s       :     2.923705  s :     2.923705
      pz      :     1.034873  p :     3.147228
      px      :     1.054105
      py      :     1.058250
      dz2     :     0.007651  d :     0.110544
      dxz     :     0.014570
      dyz     :     0.017285
      dx2y2   :     0.033944
      dxy     :     0.037094
  5 S s       :     5.520783  s :     5.520783
      pz      :     3.774024  p :    10.056923
      px      :     2.957679
      py      :     3.325221
      dz2     :     0.015122  d :     0.123491
      dxz     :     0.013814
      dyz     :     0.014443
      dx2y2   :     0.018601
      dxy     :     0.061511
  6 Sis       :     4.817722  s :     4.817722
      pz      :     2.724491  p :     8.111195
      px      :     2.692703
      py      :     2.694001
      dz2     :     0.094846  d :     0.444010
      dxz     :     0.055904
      dyz     :     0.124332
      dx2y2   :     0.039415
      dxy     :     0.129514
  7 C s       :     2.925701  s :     2.925701
      pz      :     1.040874  p :     3.212000
      px      :     1.057873
      py      :     1.113252
      dz2     :     0.006589  d :     0.081786
      dxz     :     0.012991
      dyz     :     0.006954
      dx2y2   :     0.026881
      dxy     :     0.028371
  8 C s       :     2.923736  s :     2.923736
      pz      :     1.034858  p :     3.147186
      px      :     1.056069
      py      :     1.056259
      dz2     :     0.007654  d :     0.110485
      dxz     :     0.014464
      dyz     :     0.017359
      dx2y2   :     0.034186
      dxy     :     0.036822
  9 S s       :     5.521481  s :     5.521481
      pz      :     3.774239  p :    10.056957
      px      :     2.959630
      py      :     3.323089
      dz2     :     0.015109  d :     0.123211
      dxz     :     0.013599
      dyz     :     0.014562
      dx2y2   :     0.019469
      dxy     :     0.060472
 10 C s       :     2.874550  s :     2.874550
      pz      :     1.101528  p :     3.170320
      px      :     1.023693
      py      :     1.045099
      dz2     :     0.013231  d :     0.099229
      dxz     :     0.025867
      dyz     :     0.014899
      dx2y2   :     0.016872
      dxy     :     0.028360
 11 C s       :     2.806434  s :     2.806434
      pz      :     1.053231  p :     3.153205
      px      :     1.064074
      py      :     1.035900
      dz2     :     0.013165  d :     0.117321
      dxz     :     0.022818
      dyz     :     0.023881
      dx2y2   :     0.031964
      dxy     :     0.025493
 12 H s       :     0.898476  s :     0.898476
      pz      :     0.027808  p :     0.062801
      px      :     0.016516
      py      :     0.018477
 13 C s       :     2.901407  s :     2.901407
      pz      :     1.144070  p :     3.311233
      px      :     1.067130
      py      :     1.100032
      dz2     :     0.010691  d :     0.042800
      dxz     :     0.000623
      dyz     :     0.011276
      dx2y2   :     0.003590
      dxy     :     0.016620
 14 H s       :     0.885768  s :     0.885768
      pz      :     0.033877  p :     0.068078
      px      :     0.011761
      py      :     0.022439
 15 H s       :     0.891996  s :     0.891996
      pz      :     0.015367  p :     0.067685
      px      :     0.029045
      py      :     0.023273
 16 H s       :     0.892032  s :     0.892032
      pz      :     0.015414  p :     0.067687
      px      :     0.029840
      py      :     0.022433
 17 C s       :     2.901415  s :     2.901415
      pz      :     1.148317  p :     3.311239
      px      :     1.067194
      py      :     1.095728
      dz2     :     0.010249  d :     0.042798
      dxz     :     0.000690
      dyz     :     0.011542
      dx2y2   :     0.003786
      dxy     :     0.016531
 18 H s       :     0.885791  s :     0.885791
      pz      :     0.032833  p :     0.068073
      px      :     0.011748
      py      :     0.023492
 19 H s       :     0.892017  s :     0.892017
      pz      :     0.015619  p :     0.067687
      px      :     0.029885
      py      :     0.022183
 20 H s       :     0.892001  s :     0.892001
      pz      :     0.015713  p :     0.067686
      px      :     0.029008
      py      :     0.022966
 21 H s       :     0.898505  s :     0.898505
      pz      :     0.028791  p :     0.062812
      px      :     0.016218
      py      :     0.017804
 22 H s       :     0.898488  s :     0.898488
      pz      :     0.028212  p :     0.062821
      px      :     0.017150
      py      :     0.017460
 23 H s       :     0.902496  s :     0.902496
      pz      :     0.030309  p :     0.066727
      px      :     0.023490
      py      :     0.012927
 24 H s       :     0.902525  s :     0.902525
      pz      :     0.031393  p :     0.066739
      px      :     0.022235
      py      :     0.013111
 25 H s       :     0.902530  s :     0.902530
      pz      :     0.030945  p :     0.066725
      px      :     0.022390
      py      :     0.013390
 26 H s       :     0.902561  s :     0.902561
      pz      :     0.029905  p :     0.066731
      px      :     0.023209
      py      :     0.013617


                      *****************************
                      * MAYER POPULATION ANALYSIS *
                      *****************************

  NA   - Mulliken gross atomic population
  ZA   - Total nuclear charge
  QA   - Mulliken gross atomic charge
  VA   - Mayer's total valence
  BVA  - Mayer's bonded valence
  FA   - Mayer's free valence

  ATOM       NA         ZA         QA         VA         BVA        FA
  0 C      6.0787     6.0000    -0.0787     4.0150     4.0150     0.0000
  1 C      5.8925     6.0000     0.1075     4.0607     4.0607     0.0000
  2 C      6.2693     6.0000    -0.2693     3.9885     3.9885     0.0000
  3 H      0.9827     1.0000     0.0173     0.9699     0.9699    -0.0000
  4 C      6.0964     6.0000    -0.0964     4.0471     4.0471    -0.0000
  5 S     15.9999    16.0000     0.0001     2.2663     2.2663     0.0000
  6 Si    13.5319    14.0000     0.4681     4.1760     4.1760    -0.0000
  7 C      6.2690     6.0000    -0.2690     3.9889     3.9889    -0.0000
  8 C      6.0959     6.0000    -0.0959     4.0471     4.0471     0.0000
  9 S     15.9996    16.0000     0.0004     2.2658     2.2658     0.0000
 10 C      6.0789     6.0000    -0.0789     4.0144     4.0144     0.0000
 11 C      5.8930     6.0000     0.1070     4.0605     4.0605    -0.0000
 12 H      0.9826     1.0000     0.0174     0.9700     0.9700    -0.0000
 13 C      6.2477     6.0000    -0.2477     3.9082     3.9082     0.0000
 14 H      0.9276     1.0000     0.0724     0.9849     0.9849     0.0000
 15 H      0.9406     1.0000     0.0594     0.9816     0.9816    -0.0000
 16 H      0.9408     1.0000     0.0592     0.9815     0.9815    -0.0000
 17 C      6.2477     6.0000    -0.2477     3.9080     3.9080    -0.0000
 18 H      0.9277     1.0000     0.0723     0.9849     0.9849     0.0000
 19 H      0.9408     1.0000     0.0592     0.9816     0.9816     0.0000
 20 H      0.9408     1.0000     0.0592     0.9816     0.9816     0.0000
 21 H      0.9825     1.0000     0.0175     0.9700     0.9700    -0.0000
 22 H      0.9824     1.0000     0.0176     0.9700     0.9700    -0.0000
 23 H      0.9377     1.0000     0.0623     0.9709     0.9709     0.0000
 24 H      0.9377     1.0000     0.0623     0.9710     0.9710     0.0000
 25 H      0.9378     1.0000     0.0622     0.9708     0.9708     0.0000
 26 H      0.9377     1.0000     0.0623     0.9709     0.9709     0.0000

  Mayer bond orders larger than 0.100000
B(  0-C ,  1-C ) :   1.1171 B(  0-C ,  5-S ) :   0.9924 B(  0-C , 23-H ) :   0.9278 
B(  0-C , 25-H ) :   0.9278 B(  1-C ,  2-C ) :   1.1151 B(  1-C ,  3-H ) :   0.8749 
B(  1-C , 21-H ) :   0.8753 B(  2-C ,  4-C ) :   1.6438 B(  2-C ,  5-S ) :   0.1171 
B(  2-C ,  6-Si) :   0.8992 B(  2-C ,  7-C ) :   0.1158 B(  4-C ,  5-S ) :   1.0433 
B(  4-C ,  8-C ) :   1.1872 B(  6-Si,  7-C ) :   0.8990 B(  6-Si, 13-C ) :   1.0359 
B(  6-Si, 17-C ) :   1.0356 B(  7-C ,  8-C ) :   1.6442 B(  7-C ,  9-S ) :   0.1170 
B(  7-C , 11-C ) :   1.1154 B(  8-C ,  9-S ) :   1.0431 B(  9-S , 10-C ) :   0.9924 
B( 10-C , 11-C ) :   1.1163 B( 10-C , 24-H ) :   0.9281 B( 10-C , 26-H ) :   0.9281 
B( 11-C , 12-H ) :   0.8751 B( 11-C , 22-H ) :   0.8754 B( 13-C , 14-H ) :   0.9464 
B( 13-C , 15-H ) :   0.9486 B( 13-C , 16-H ) :   0.9486 B( 17-C , 18-H ) :   0.9465 
B( 17-C , 19-H ) :   0.9486 B( 17-C , 20-H ) :   0.9487 

-------
TIMINGS
-------

Total SCF time: 0 days 0 hours 0 min 21 sec 

Total time                  ....      21.874 sec
Sum of individual times     ....      21.554 sec  ( 98.5%)

Fock matrix formation       ....      15.969 sec  ( 73.0%)
  Split-RI-J                ....       5.502 sec  ( 34.5% of F)
  XC integration            ....      10.014 sec  ( 62.7% of F)
    Basis function eval.    ....       3.647 sec  ( 36.4% of XC)
    Density eval.           ....       2.280 sec  ( 22.8% of XC)
    XC-Functional eval.     ....       1.025 sec  ( 10.2% of XC)
    XC-Potential eval.      ....       2.532 sec  ( 25.3% of XC)
Diagonalization             ....       0.012 sec  (  0.1%)
Density matrix formation    ....       0.013 sec  (  0.1%)
Population analysis         ....       0.121 sec  (  0.6%)
Initial guess               ....       0.013 sec  (  0.1%)
Orbital Transformation      ....       0.000 sec  (  0.0%)
Orbital Orthonormalization  ....       0.007 sec  (  0.0%)
DIIS solution               ....       0.002 sec  (  0.0%)
SOSCF solution              ....       0.062 sec  (  0.3%)
Grid generation             ....       5.361 sec  ( 24.5%)


-------------------------------------------------------------------------------
                          DFT DISPERSION CORRECTION                            
                                                                               
                              DFTD3 V3.1  Rev 1                                
                          USING Becke-Johnson damping                          
-------------------------------------------------------------------------------
The BP86 functional is recognized
Active option DFTDOPT                   ...         4   

molecular C6(AA) [au] = 10827.441786 


            DFT-D V3
 parameters
 s6 scaling factor         :     1.0000 
 a1 scaling factor         :     0.3946 
 s8 scaling factor         :     3.2822 
 a2 scaling factor         :     4.8516 
 ad hoc parameters k1-k3   :    16.0000     1.3333    -4.0000 

 Edisp/kcal,au: -38.918665519661  -0.062020834707 
 E6   /kcal   : -13.309389757 
 E8   /kcal   : -25.609275763 
 % E8         :  65.802039770 

-------------------------   ----------------
Dispersion correction           -0.062020835
-------------------------   ----------------


-------------------------   --------------------
FINAL SINGLE POINT ENERGY     -1474.869619668895
-------------------------   --------------------

                                *** OPTIMIZATION RUN DONE ***

                            ***************************************
                            *     ORCA property calculations      *
                            ***************************************

                                    ---------------------
                                    Active property flags
                                    ---------------------
   (+) Dipole Moment


------------------------------------------------------------------------------
                       ORCA ELECTRIC PROPERTIES CALCULATION
------------------------------------------------------------------------------

Dipole Moment Calculation                       ... on
Quadrupole Moment Calculation                   ... off
Polarizability Calculation                      ... off
GBWName                                         ... PDTSTPD_Input_Dimethyl_Dithienosilole_1_Optimize_Monomer_Hydrogenated.gbw
Electron density file                           ... PDTSTPD_Input_Dimethyl_Dithienosilole_1_Optimize_Monomer_Hydrogenated.scfp
The origin for moment calculation is the CENTER OF MASS  = (-0.909239,  0.519544 -0.074338)

-------------
DIPOLE MOMENT
-------------
                                X             Y             Z
Electronic contribution:     -0.25660     -16.31403       0.40904
Nuclear contribution   :      0.27407      17.38384      -0.43618
                        -----------------------------------------
Total Dipole Moment    :      0.01747       1.06981      -0.02714
                        -----------------------------------------
Magnitude (a.u.)       :      1.07029
Magnitude (Debye)      :      2.72047



--------------------
Rotational spectrum 
--------------------
 
Rotational constants in cm-1:     0.021696     0.018833     0.011259 
Rotational constants in MHz :   650.415735   564.593021   337.537218 

 Dipole components along the rotational axes: 
x,y,z [a.u.] :    -0.000167     1.070295     0.000676 
x,y,z [Debye]:    -0.000424     2.720472     0.001718 

 

Timings for individual modules:

Sum of individual times         ...      300.132 sec (=   5.002 min)
GTO integral calculation        ...        2.601 sec (=   0.043 min)   0.9 %
SCF iterations                  ...      195.230 sec (=   3.254 min)  65.0 %
SCF Gradient evaluation         ...      100.991 sec (=   1.683 min)  33.6 %
Geometry relaxation             ...        1.310 sec (=   0.022 min)   0.4 %
                             ****ORCA TERMINATED NORMALLY****
TOTAL RUN TIME: 0 days 0 hours 5 minutes 2 seconds 216 msec
