
                                 *****************
                                 * O   R   C   A *
                                 *****************

           --- An Ab Initio, DFT and Semiempirical electronic structure package ---

                  #######################################################
                  #                        -***-                        #
                  #          Department of theory and spectroscopy      #
                  #               Directorship: Frank Neese             #
                  #        Max Planck Institute fuer Kohlenforschung    #
                  #                Kaiser Wilhelm Platz 1               #
                  #                 D-45470 Muelheim/Ruhr               #
                  #                      Germany                        #
                  #                                                     #
                  #                  All rights reserved                #
                  #                        -***-                        #
                  #######################################################


                         Program Version 4.2.0 -  RELEASE  -


 With contributions from (in alphabetic order):
   Daniel Aravena         : Magnetic Suceptibility
   Michael Atanasov       : Ab Initio Ligand Field Theory (pilot matlab implementation)
   Alexander A. Auer      : GIAO ZORA, VPT2
   Ute Becker             : Parallelization
   Giovanni Bistoni       : ED, misc. LED, open-shell LED, HFLED
   Martin Brehm           : Molecular dynamics
   Dmytro Bykov           : SCF Hessian
   Vijay G. Chilkuri      : MRCI spin determinant printing, contributions to CSF-ICE
   Dipayan Datta          : RHF DLPNO-CCSD density
   Achintya Kumar Dutta   : EOM-CC, STEOM-CC
   Dmitry Ganyushin       : Spin-Orbit,Spin-Spin,Magnetic field MRCI
   Miquel Garcia          : C-PCM Hessian, Gaussian charge scheme
   Yang Guo               : DLPNO-NEVPT2, CIM, IAO-localization
   Andreas Hansen         : Spin unrestricted coupled pair/coupled cluster methods
   Benjamin Helmich-Paris : CASSCF linear response (MC-RPA)
   Lee Huntington         : MR-EOM, pCC
   Robert Izsak           : Overlap fitted RIJCOSX, COSX-SCS-MP3, EOM
   Christian Kollmar      : KDIIS, OOCD, Brueckner-CCSD(T), CCSD density
   Simone Kossmann        : Meta GGA functionals, TD-DFT gradient, OOMP2, MP2 Hessian
   Martin Krupicka        : AUTO-CI
   Lucas Lang             : DCDCAS
   Dagmar Lenk            : GEPOL surface, SMD
   Dimitrios Liakos       : Extrapolation schemes; Compound Job, initial MDCI parallelization
   Dimitrios Manganas     : Further ROCIS development; embedding schemes
   Dimitrios Pantazis     : SARC Basis sets
   Taras Petrenko         : DFT Hessian,TD-DFT gradient, ASA, ECA, R-Raman, ABS, FL, XAS/XES, NRVS
   Peter Pinski           : DLPNO-MP2, DLPNO-MP2 Gradient
   Christoph Reimann      : Effective Core Potentials
   Marius Retegan         : Local ZFS, SOC
   Christoph Riplinger    : Optimizer, TS searches, QM/MM, DLPNO-CCSD(T), (RO)-DLPNO pert. Triples
   Tobias Risthaus        : Range-separated hybrids, TD-DFT gradient, RPA, STAB
   Michael Roemelt        : Original ROCIS implementation
   Masaaki Saitow         : Open-shell DLPNO-CCSD energy and density
   Barbara Sandhoefer     : DKH picture change effects
   Avijit Sen             : IP-ROCIS
   Kantharuban Sivalingam : CASSCF convergence, NEVPT2, FIC-MRCI
   Bernardo de Souza      : ESD, SOC TD-DFT
   Georgi Stoychev        : AutoAux, RI-MP2 NMR
   Willem Van den Heuvel  : Paramagnetic NMR
   Boris Wezisla          : Elementary symmetry handling
   Frank Wennmohs         : Technical directorship


 We gratefully acknowledge several colleagues who have allowed us to
 interface, adapt or use parts of their codes:
   Stefan Grimme, W. Hujo, H. Kruse,             : VdW corrections, initial TS optimization,
                  C. Bannwarth                     DFT functionals, gCP, sTDA/sTD-DF
   Ed Valeev, F. Pavosevic, A. Kumar             : LibInt (2-el integral package), F12 methods
   Garnet Chan, S. Sharma, J. Yang, R. Olivares  : DMRG
   Ulf Ekstrom                                   : XCFun DFT Library
   Mihaly Kallay                                 : mrcc  (arbitrary order and MRCC methods)
   Andreas Klamt, Michael Diedenhofen            : otool_cosmo (COSMO solvation model)
   Jiri Pittner, Ondrej Demel                    : Mk-CCSD
   Frank Weinhold                                : gennbo (NPA and NBO analysis)
   Christopher J. Cramer and Donald G. Truhlar   : smd solvation model
   Lars Goerigk                                  : TD-DFT with DH, B97 family of functionals
   V. Asgeirsson, H. Jonsson                     : NEB implementation
   FAccTs GmbH                                   : IRC, NEB, NEB-TS, Multilevel, MM, QM/MM, CI optimization
   S Lehtola, MJT Oliveira, MAL Marques          : LibXC Library


 Your calculation uses the libint2 library for the computation of 2-el integrals
 For citations please refer to: http://libint.valeyev.net

 Your ORCA version has been built with support for libXC version: 4.2.3
 For citations please refer to: https://tddft.org/programs/libxc/

 This ORCA versions uses:
   CBLAS   interface :  Fast vector & matrix operations
   LAPACKE interface :  Fast linear algebra routines
   SCALAPACK package :  Parallel linear algebra routines


Your calculation utilizes the atom-pairwise dispersion correction
with the Becke-Johnson damping scheme (D3BJ)
Cite in your paper:
S.Grimme, S.Ehrlich, L.Goerigk, J Comput Chem, (2011), 32, 1456–1465 
S.Grimme, J.Antony, S.Ehrlich and H.Krieg, J.Chem.Phys., 132, (2010), 154104 
   

----- Orbital basis set information -----
Your calculation utilizes the basis: def2-SVP
   F. Weigend and R. Ahlrichs, Phys. Chem. Chem. Phys. 7, 3297 (2005).

----- AuxJ basis set information -----
Your calculation utilizes the auxiliary basis: def2/J
   F. Weigend, Phys. Chem. Chem. Phys. 8, 1057 (2006).

================================================================================
                                        WARNINGS
                       Please study these warnings very carefully!
================================================================================


WARNING: Geometry Optimization
  ===> : Switching off AutoStart
         For restart on a previous wavefunction, please use MOREAD

INFO   : the flag for use of LIBINT has been found!

================================================================================
                                       INPUT FILE
================================================================================
NAME = PNDI_T_Dimethyl_Naphthalene_Dicarboximide_With_Sidechain_1_Optimize_Monomer.inp
|  1> ! RI BP86 def2-SVP def2/J D3BJ TIGHTSCF  Opt Grid3 FinalGrid5
|  2> %maxcore 3000
|  3> %geom
|  4> optimizehydrogens true
|  5> end
|  6> 
|  7> 
|  8> *xyz 0 1
|  9> C	-1.636004	2.964241	0.485260
| 10> C	-1.898954	1.510974	0.637776
| 11> N	-0.291641	3.403962	0.545773
| 12> C	0.625253	2.518825	1.155646
| 13> C	0.552868	1.140382	0.578064
| 14> C	-0.787359	0.657793	0.479738
| 15> O	-2.583102	3.720280	0.280537
| 16> O	1.314055	2.812881	2.137116
| 17> C	-3.208551	1.000093	0.702924
| 18> C	1.656871	0.348686	0.096342
| 19> C	-1.066199	-0.690310	0.164312
| 20> C	-3.505831	-0.396329	0.654072
| 21> H	-4.018378	1.738403	0.774321
| 22> C	1.308200	-0.905221	-0.499251
| 23> C	-2.370690	-1.255027	0.395524
| 24> C	0.013215	-1.413783	-0.414577
| 25> H	2.087972	-1.528335	-0.948265
| 26> C	-2.315168	-2.771349	0.515054
| 27> C	-0.296539	-2.805368	-0.828566
| 28> N	-1.109071	-3.412337	0.135900
| 29> O	-3.233351	-3.421621	1.004660
| 30> O	0.194588	-3.342260	-1.812240
| 31> C	-0.167447	4.872684	0.634651
| 32> C	1.052340	5.735917	0.126888
| 33> H	-0.422921	5.135990	1.678457
| 34> H	-0.987331	5.213854	-0.013844
| 35> C	1.145045	7.058319	0.992227
| 36> C	1.345726	8.450766	0.266506
| 37> H	1.918973	6.927258	1.776889
| 38> H	0.185173	7.157521	1.545174
| 39> C	2.819141	8.897502	0.124172
| 40> H	0.788000	9.217268	0.847746
| 41> H	0.896487	8.441118	-0.743525
| 42> C	3.148473	10.369525	-0.250144
| 43> H	3.267625	8.320893	-0.699841
| 44> H	3.364995	8.639250	1.057427
| 45> C	4.693679	10.404030	-0.486271
| 46> H	2.847682	11.053978	0.566403
| 47> H	2.607177	10.690581	-1.168118
| 48> C	5.371236	11.770051	-0.746768
| 49> H	4.937675	9.745205	-1.345170
| 50> H	5.183493	9.933541	0.400671
| 51> C	6.913192	11.547164	-0.879864
| 52> H	5.153655	12.456027	0.093966
| 53> H	4.972708	12.251588	-1.670526
| 54> C	7.725779	12.842209	-1.069254
| 55> H	7.122630	10.877665	-1.737818
| 56> H	7.284314	11.008241	0.025930
| 57> H	7.429030	13.389336	-1.993008
| 58> H	8.814930	12.602977	-1.146098
| 59> H	7.581761	13.518745	-0.208796
| 60> C	2.386241	4.977321	-0.014164
| 61> H	0.783145	6.059322	-0.902496
| 62> C	3.475844	5.859659	-0.629042
| 63> H	2.243152	4.081350	-0.642649
| 64> H	2.744152	4.645306	0.988315
| 65> C	4.852058	5.216501	-0.872666
| 66> H	3.667048	6.640705	0.115432
| 67> H	3.106738	6.329018	-1.569138
| 68> C	5.858082	6.344953	-1.216061
| 69> H	4.805749	4.486566	-1.698542
| 70> H	5.175101	4.670069	0.044843
| 71> C	7.320369	5.858127	-1.227285
| 72> H	5.758092	7.153688	-0.465320
| 73> H	5.598253	6.810104	-2.194882
| 74> C	8.296491	7.039122	-1.403460
| 75> H	7.465777	5.129018	-2.045846
| 76> H	7.544016	5.322256	-0.275727
| 77> C	9.763003	6.555479	-1.442390
| 78> H	8.157108	7.744867	-0.562488
| 79> H	8.055151	7.604487	-2.332984
| 80> C	10.757745	7.718153	-1.625252
| 81> H	9.887918	5.839852	-2.276695
| 82> H	9.996372	5.996182	-0.506866
| 83> C	12.212350	7.205761	-1.752889
| 84> H	10.674509	8.397618	-0.756455
| 85> H	10.484232	8.316463	-2.525290
| 86> C	13.220093	8.351207	-1.948331
| 87> H	12.285336	6.518666	-2.616087
| 88> H	12.481349	6.611654	-0.849479
| 89> H	12.981817	8.945899	-2.857461
| 90> H	14.254006	7.954395	-2.053741
| 91> H	13.199724	9.034011	-1.081954
| 92> C	-0.972800	-4.831774	0.533838
| 93> C	0.366086	-5.728606	0.388322
| 94> H	-1.762358	-5.378658	-0.024420
| 95> H	-1.283347	-4.861360	1.593169
| 96> C	-0.021260	-7.138292	1.055043
| 97> C	0.367129	-8.511344	0.332121
| 98> H	-1.148690	-7.168672	1.154984
| 99> H	0.370579	-7.160324	2.088879
|100> C	1.852878	-9.013562	0.496559
|101> H	0.132081	-8.421707	-0.743147
|102> H	-0.325778	-9.311901	0.737461
|103> C	2.150520	-10.551491	0.206598
|104> H	2.178283	-8.803877	1.532788
|105> H	2.520719	-8.432564	-0.190954
|106> C	3.733525	-10.772184	0.276639
|107> H	1.777452	-10.849935	-0.793870
|108> H	1.608854	-11.209340	0.943359
|109> C	4.202833	-12.288798	0.157519
|110> H	4.114725	-10.335692	1.228593
|111> H	4.243903	-10.164923	-0.522758
|112> C	5.796539	-12.380320	0.187786
|113> H	3.821453	-12.756630	-0.778932
|114> H	3.748863	-12.894268	0.987070
|115> C	6.320858	-13.877367	0.135709
|116> H	6.183259	-11.863570	1.098728
|117> H	6.245236	-11.804151	-0.664426
|118> H	5.928640	-14.471968	0.997605
|119> H	7.461635	-13.896720	0.145060
|120> H	5.979780	-14.413776	-0.780064
|121> C	1.733671	-5.102649	0.946451
|122> H	0.528005	-5.913751	-0.692265
|123> C	2.964436	-6.050722	0.590045
|124> H	1.658064	-4.971109	2.042500
|125> H	1.932460	-4.081117	0.526119
|126> C	4.486044	-5.567299	0.650263
|127> H	2.809922	-6.441145	-0.436246
|128> H	2.897975	-6.919474	1.284058
|129> C	5.405898	-6.867036	0.427157
|130> H	4.714958	-5.078796	1.622971
|131> H	4.709105	-4.813194	-0.138697
|132> C	6.975482	-6.621515	0.385877
|133> H	5.104304	-7.385049	-0.513764
|134> H	5.170785	-7.610093	1.232753
|135> C	7.749734	-8.011912	0.264959
|136> H	7.302089	-6.068597	1.297178
|137> H	7.251254	-5.960335	-0.471085
|138> C	9.326945	-7.854185	0.200339
|139> H	7.399545	-8.576183	-0.632590
|140> H	7.468129	-8.663297	1.128454
|141> C	10.059950	-9.261943	0.142824
|142> H	9.682863	-7.265470	1.079545
|143> H	9.621583	-7.247913	-0.688758
|144> C	11.635951	-9.115193	0.083426
|145> H	9.708398	-9.854826	-0.736080
|146> H	9.763700	-9.870862	1.030256
|147> C	12.364997	-10.514161	0.049078
|148> H	11.993491	-8.515479	0.954618
|149> H	11.940755	-8.524988	-0.812422
|150> H	12.106068	-11.124699	0.942896
|151> H	13.490114	-10.374170	0.010003
|152> H	12.064606	-11.123932	-0.834900
|153> H	2.708021	0.584770	0.172157
|154> H	-4.540302	-0.693071	0.744706
|155> **                         ****END OF INPUT****
================================================================================

                       *****************************
                       * Geometry Optimization Run *
                       *****************************

Geometry optimization settings:
Update method            Update   .... BFGS
Choice of coordinates    CoordSys .... Z-matrix Internals
Initial Hessian          InHess   .... Almoef's Model

Convergence Tolerances:
Energy Change            TolE     ....  5.0000e-06 Eh
Max. Gradient            TolMAXG  ....  3.0000e-04 Eh/bohr
RMS Gradient             TolRMSG  ....  1.0000e-04 Eh/bohr
Max. Displacement        TolMAXD  ....  4.0000e-03 bohr
RMS Displacement         TolRMSD  ....  2.0000e-03 bohr
Strict Convergence                ....  False
