
                                 *****************
                                 * O   R   C   A *
                                 *****************

           --- An Ab Initio, DFT and Semiempirical electronic structure package ---

                  #######################################################
                  #                        -***-                        #
                  #          Department of theory and spectroscopy      #
                  #               Directorship: Frank Neese             #
                  #        Max Planck Institute fuer Kohlenforschung    #
                  #                Kaiser Wilhelm Platz 1               #
                  #                 D-45470 Muelheim/Ruhr               #
                  #                      Germany                        #
                  #                                                     #
                  #                  All rights reserved                #
                  #                        -***-                        #
                  #######################################################


                         Program Version 4.2.0 -  RELEASE  -


 With contributions from (in alphabetic order):
   Daniel Aravena         : Magnetic Suceptibility
   Michael Atanasov       : Ab Initio Ligand Field Theory (pilot matlab implementation)
   Alexander A. Auer      : GIAO ZORA, VPT2
   Ute Becker             : Parallelization
   Giovanni Bistoni       : ED, misc. LED, open-shell LED, HFLED
   Martin Brehm           : Molecular dynamics
   Dmytro Bykov           : SCF Hessian
   Vijay G. Chilkuri      : MRCI spin determinant printing, contributions to CSF-ICE
   Dipayan Datta          : RHF DLPNO-CCSD density
   Achintya Kumar Dutta   : EOM-CC, STEOM-CC
   Dmitry Ganyushin       : Spin-Orbit,Spin-Spin,Magnetic field MRCI
   Miquel Garcia          : C-PCM Hessian, Gaussian charge scheme
   Yang Guo               : DLPNO-NEVPT2, CIM, IAO-localization
   Andreas Hansen         : Spin unrestricted coupled pair/coupled cluster methods
   Benjamin Helmich-Paris : CASSCF linear response (MC-RPA)
   Lee Huntington         : MR-EOM, pCC
   Robert Izsak           : Overlap fitted RIJCOSX, COSX-SCS-MP3, EOM
   Christian Kollmar      : KDIIS, OOCD, Brueckner-CCSD(T), CCSD density
   Simone Kossmann        : Meta GGA functionals, TD-DFT gradient, OOMP2, MP2 Hessian
   Martin Krupicka        : AUTO-CI
   Lucas Lang             : DCDCAS
   Dagmar Lenk            : GEPOL surface, SMD
   Dimitrios Liakos       : Extrapolation schemes; Compound Job, initial MDCI parallelization
   Dimitrios Manganas     : Further ROCIS development; embedding schemes
   Dimitrios Pantazis     : SARC Basis sets
   Taras Petrenko         : DFT Hessian,TD-DFT gradient, ASA, ECA, R-Raman, ABS, FL, XAS/XES, NRVS
   Peter Pinski           : DLPNO-MP2, DLPNO-MP2 Gradient
   Christoph Reimann      : Effective Core Potentials
   Marius Retegan         : Local ZFS, SOC
   Christoph Riplinger    : Optimizer, TS searches, QM/MM, DLPNO-CCSD(T), (RO)-DLPNO pert. Triples
   Tobias Risthaus        : Range-separated hybrids, TD-DFT gradient, RPA, STAB
   Michael Roemelt        : Original ROCIS implementation
   Masaaki Saitow         : Open-shell DLPNO-CCSD energy and density
   Barbara Sandhoefer     : DKH picture change effects
   Avijit Sen             : IP-ROCIS
   Kantharuban Sivalingam : CASSCF convergence, NEVPT2, FIC-MRCI
   Bernardo de Souza      : ESD, SOC TD-DFT
   Georgi Stoychev        : AutoAux, RI-MP2 NMR
   Willem Van den Heuvel  : Paramagnetic NMR
   Boris Wezisla          : Elementary symmetry handling
   Frank Wennmohs         : Technical directorship


 We gratefully acknowledge several colleagues who have allowed us to
 interface, adapt or use parts of their codes:
   Stefan Grimme, W. Hujo, H. Kruse,             : VdW corrections, initial TS optimization,
                  C. Bannwarth                     DFT functionals, gCP, sTDA/sTD-DF
   Ed Valeev, F. Pavosevic, A. Kumar             : LibInt (2-el integral package), F12 methods
   Garnet Chan, S. Sharma, J. Yang, R. Olivares  : DMRG
   Ulf Ekstrom                                   : XCFun DFT Library
   Mihaly Kallay                                 : mrcc  (arbitrary order and MRCC methods)
   Andreas Klamt, Michael Diedenhofen            : otool_cosmo (COSMO solvation model)
   Jiri Pittner, Ondrej Demel                    : Mk-CCSD
   Frank Weinhold                                : gennbo (NPA and NBO analysis)
   Christopher J. Cramer and Donald G. Truhlar   : smd solvation model
   Lars Goerigk                                  : TD-DFT with DH, B97 family of functionals
   V. Asgeirsson, H. Jonsson                     : NEB implementation
   FAccTs GmbH                                   : IRC, NEB, NEB-TS, Multilevel, MM, QM/MM, CI optimization
   S Lehtola, MJT Oliveira, MAL Marques          : LibXC Library


 Your calculation uses the libint2 library for the computation of 2-el integrals
 For citations please refer to: http://libint.valeyev.net

 Your ORCA version has been built with support for libXC version: 4.2.3
 For citations please refer to: https://tddft.org/programs/libxc/

 This ORCA versions uses:
   CBLAS   interface :  Fast vector & matrix operations
   LAPACKE interface :  Fast linear algebra routines
   SCALAPACK package :  Parallel linear algebra routines


Your calculation utilizes the atom-pairwise dispersion correction
with the Becke-Johnson damping scheme (D3BJ)
Cite in your paper:
S.Grimme, S.Ehrlich, L.Goerigk, J Comput Chem, (2011), 32, 1456–1465 
S.Grimme, J.Antony, S.Ehrlich and H.Krieg, J.Chem.Phys., 132, (2010), 154104 
   

----- Orbital basis set information -----
Your calculation utilizes the basis: def2-SVP
   F. Weigend and R. Ahlrichs, Phys. Chem. Chem. Phys. 7, 3297 (2005).

----- AuxJ basis set information -----
Your calculation utilizes the auxiliary basis: def2/J
   F. Weigend, Phys. Chem. Chem. Phys. 8, 1057 (2006).

================================================================================
                                        WARNINGS
                       Please study these warnings very carefully!
================================================================================


WARNING: Geometry Optimization
  ===> : Switching off AutoStart
         For restart on a previous wavefunction, please use MOREAD

INFO   : the flag for use of LIBINT has been found!

================================================================================
                                       INPUT FILE
================================================================================
NAME = PNDI_T_Input_Napthalenediimide_1_Optimize_Monomer.inp
|  1> ! RI BP86 def2-SVP def2/J D3BJ TIGHTSCF  Opt Grid3 FinalGrid5
|  2> %maxcore 3000
|  3> %geom
|  4> optimizehydrogens true
|  5> end
|  6> 
|  7> 
|  8> *xyz 0 1
|  9> C	-4.014986	0.955248	-0.001240
| 10> C	-3.895312	-0.470858	-0.001971
| 11> C	-2.759306	1.663061	-0.000857
| 12> C	-2.712305	-1.181917	-0.001586
| 13> H	-4.791985	-1.107714	-0.002752
| 14> C	-1.523140	0.919400	0.000010
| 15> C	-1.454274	-0.515072	-0.000266
| 16> C	-0.265678	1.585159	0.001396
| 17> C	-0.218518	-1.256116	0.000584
| 18> C	0.920181	0.876602	0.002167
| 19> C	1.035646	-0.547505	0.001606
| 20> H	1.817906	1.512895	0.003192
| 21> C	-2.655103	3.155459	-0.001969
| 22> C	-0.154635	3.062541	0.002010
| 23> N	-1.368140	3.747101	0.000132
| 24> C	-2.830588	-2.660887	-0.002372
| 25> C	-0.329382	-2.747291	0.000617
| 26> N	-1.611282	-3.340982	-0.001154
| 27> O	-3.624578	3.910983	-0.004870
| 28> O	0.916907	3.664558	0.003663
| 29> O	-3.910425	-3.248356	-0.003799
| 30> O	0.626012	-3.520725	0.002081
| 31> C	-1.271278	5.210352	-0.000201
| 32> H	-2.293332	5.619712	-0.001780
| 33> H	-0.710210	5.545738	-0.893430
| 34> H	-0.712670	5.546253	0.894368
| 35> C	-1.636993	-4.806488	-0.001398
| 36> H	-2.695537	-5.114795	-0.002850
| 37> H	-1.114540	-5.194701	0.893451
| 38> H	-1.112168	-5.194435	-0.894974
| 39> H	-5.037090	1.304109	-0.000625
| 40> H	2.055836	-0.901923	0.001801
| 41> **                         ****END OF INPUT****
================================================================================

                       *****************************
                       * Geometry Optimization Run *
                       *****************************

Geometry optimization settings:
Update method            Update   .... BFGS
Choice of coordinates    CoordSys .... Z-matrix Internals
Initial Hessian          InHess   .... Almoef's Model

Convergence Tolerances:
Energy Change            TolE     ....  5.0000e-06 Eh
Max. Gradient            TolMAXG  ....  3.0000e-04 Eh/bohr
RMS Gradient             TolRMSG  ....  1.0000e-04 Eh/bohr
Max. Displacement        TolMAXD  ....  4.0000e-03 bohr
RMS Displacement         TolRMSD  ....  2.0000e-03 bohr
Strict Convergence                ....  False
------------------------------------------------------------------------------
                        ORCA OPTIMIZATION COORDINATE SETUP
------------------------------------------------------------------------------

The optimization will be done in new redundant internal coordinates
Making redundant internal coordinates   ...  (new redundants) done
Evaluating the initial hessian          ...  (Almloef) done
Evaluating the coordinates              ...  done
Calculating the B-matrix                .... done
Calculating the G-matrix                .... done
Diagonalizing the G-matrix              .... done
Imposing constraints:
 Iter   0:  RMS(Cart)=    0.0000000000 RMS(Int)=    0.0000000000
CONVERGED
Small eigenvalue found = 2.374e-02
The first mode is                       ....   93
The number of degrees of freedom        ....   90
Storing new coordinates                 .... done

    -----------------------------------------------------------------
                    Redundant Internal Coordinates


    -----------------------------------------------------------------
         Definition                    Initial Value    Approx d2E/dq
    -----------------------------------------------------------------
      1. B(C   1,C   0)                  1.4311         0.537200 C 
      2. B(C   2,C   0)                  1.4414         0.517224 C 
      3. B(C   3,C   1)                  1.3803         0.647563 C 
      4. B(H   4,C   1)                  1.0998         0.347338   
      5. B(C   5,C   2)                  1.4426         0.514985 C 
      6. B(C   6,C   3)                  1.4238         0.551754 C 
      7. B(C   6,C   5)                  1.4361         0.527413 C 
      8. B(C   7,C   5)                  1.4228         0.553808 C 
      9. B(C   8,C   6)                  1.4409         0.518209 C 
     10. B(C   9,C   7)                  1.3814         0.644809 C 
     11. B(C  10,C   8)                  1.4405         0.518990 C 
     12. B(C  10,C   9)                  1.4288         0.541835 C 
     13. B(H  11,C   9)                  1.1004         0.346660   
     14. B(C  12,C   2)                  1.4960         0.423225 C 
     15. B(C  13,C   7)                  1.4815         0.446352 C 
     16. B(N  14,C  12)                  1.4164         0.507789 C 
     17. B(N  14,C  13)                  1.3933         0.552901 C 
     18. B(C  15,C   3)                  1.4837         0.442851 C 
     19. B(C  16,C   8)                  1.4953         0.424379 C 
     20. B(N  17,C  15)                  1.3962         0.547094 C 
     21. B(N  17,C  16)                  1.4127         0.514812 C 
     22. B(O  18,C  12)                  1.2291         1.010574 C 
     23. B(O  19,C  13)                  1.2291         1.010691 C 
     24. B(O  20,C  15)                  1.2293         1.009875 C 
     25. B(O  21,C  16)                  1.2292         1.010162 C 
     26. B(C  22,N  14)                  1.4665         0.422570 C 
     27. B(H  23,C  22)                  1.1010         0.345855   
     28. B(H  24,C  22)                  1.1069         0.338473   
     29. B(H  25,C  22)                  1.1069         0.338480   
     30. B(C  26,N  17)                  1.4657         0.423692 C 
     31. B(H  27,C  26)                  1.1025         0.343901   
     32. B(H  28,C  26)                  1.1065         0.338877   
     33. B(H  29,C  26)                  1.1065         0.338876   
     34. B(H  30,C   0)                  1.0800         0.373574   
     35. B(H  31,C  10)                  1.0800         0.373575   
     36. A(C   1,C   0,H  30)          113.6425         0.346617   
     37. A(C   1,C   0,C   2)          114.6127         0.409624 C 
     38. A(C   2,C   0,H  30)          131.7449         0.344417   
     39. A(C   0,C   1,C   3)          125.8052         0.426355 C 
     40. A(C   0,C   1,H   4)          120.5872         0.342406   
     41. A(C   3,C   1,H   4)          113.6076         0.353352   
     42. A(C   0,C   2,C   5)          119.5600         0.406574 C 
     43. A(C   5,C   2,C  12)          117.0365         0.392479 C 
     44. A(C   0,C   2,C  12)          123.4035         0.392777 C 
     45. A(C   6,C   3,C  15)          122.4993         0.400432 C 
     46. A(C   1,C   3,C   6)          121.0648         0.428402 C 
     47. A(C   1,C   3,C  15)          116.4358         0.411925 C 
     48. A(C   2,C   5,C   6)          123.7791         0.407979 C 
     49. A(C   2,C   5,C   7)          121.0706         0.411524 C 
     50. A(C   6,C   5,C   7)          115.1503         0.413269 C 
     51. A(C   3,C   6,C   5)          115.1782         0.412997 C 
     52. A(C   5,C   6,C   8)          123.6983         0.408430 C 
     53. A(C   3,C   6,C   8)          121.1235         0.411709 C 
     54. A(C   5,C   7,C  13)          122.1972         0.401250 C 
     55. A(C   9,C   7,C  13)          116.5601         0.412189 C 
     56. A(C   5,C   7,C   9)          121.2426         0.428360 C 
     57. A(C   6,C   8,C  16)          116.6979         0.393095 C 
     58. A(C  10,C   8,C  16)          123.7187         0.393199 C 
     59. A(C   6,C   8,C  10)          119.5835         0.407268 C 
     60. A(C  10,C   9,H  11)          120.6931         0.342787   
     61. A(C   7,C   9,C  10)          125.4939         0.426686 C 
     62. A(C   7,C   9,H  11)          113.8131         0.352980   
     63. A(C   8,C  10,C   9)          114.8314         0.410496 C 
     64. A(C   9,C  10,H  31)          113.7928         0.347118   
     65. A(C   8,C  10,H  31)          131.3758         0.344614   
     66. A(C   2,C  12,N  14)          118.6831         0.389025 C 
     67. A(C   2,C  12,O  18)          123.9357         0.439595 C 
     68. A(N  14,C  12,O  18)          117.3812         0.451346 C 
     69. A(C   7,C  13,O  19)          123.6267         0.443852 C 
     70. A(N  14,C  13,O  19)          121.2437         0.458404 C 
     71. A(C   7,C  13,N  14)          115.1297         0.398566 C 
     72. A(C  12,N  14,C  22)          118.4764         0.386452 C 
     73. A(C  13,N  14,C  22)          115.6409         0.392237 C 
     74. A(C  12,N  14,C  13)          125.8828         0.405112 C 
     75. A(C   3,C  15,O  20)          123.1203         0.443155 C 
     76. A(N  17,C  15,O  20)          122.3007         0.457455 C 
     77. A(C   3,C  15,N  17)          114.5789         0.397277 C 
     78. A(C   8,C  16,O  21)          124.7398         0.439779 C 
     79. A(N  17,C  16,O  21)          116.1579         0.452441 C 
     80. A(C   8,C  16,N  17)          119.1023         0.390145 C 
     81. A(C  15,N  17,C  16)          125.9980         0.405339 C 
     82. A(C  15,N  17,C  26)          118.1464         0.391695 C 
     83. A(C  16,N  17,C  26)          115.8555         0.387557 C 
     84. A(N  14,C  22,H  23)          108.0402         0.326802   
     85. A(N  14,C  22,H  24)          109.6340         0.325643   
     86. A(H  23,C  22,H  24)          110.9002         0.286220   
     87. A(N  14,C  22,H  25)          109.6311         0.325644   
     88. A(H  23,C  22,H  25)          110.9052         0.286221   
     89. A(H  24,C  22,H  25)          107.7246         0.285260   
     90. A(N  17,C  26,H  27)          107.2436         0.326639   
     91. A(N  17,C  26,H  28)          110.0211         0.325849   
     92. A(H  27,C  26,H  28)          110.8715         0.286020   
     93. A(N  17,C  26,H  29)          110.0205         0.325849   
     94. A(H  27,C  26,H  29)          110.8713         0.286020   
     95. A(H  28,C  26,H  29)          107.8252         0.285365   
     96. D(C   3,C   1,C   0,C   2)      0.0375         0.019713 C 
     97. D(H   4,C   1,C   0,H  30)      0.0528         0.019713   
     98. D(C   3,C   1,C   0,H  30)   -179.9364         0.019713   
     99. D(H   4,C   1,C   0,C   2)   -179.9734         0.019713   
    100. D(C   5,C   2,C   0,H  30)    179.9117         0.018240   
    101. D(C   5,C   2,C   0,C   1)     -0.0562         0.018240 C 
    102. D(C  12,C   2,C   0,H  30)     -0.1184         0.018240   
    103. D(C  12,C   2,C   0,C   1)    179.9137         0.018240 C 
    104. D(C  15,C   3,C   1,C   0)    179.9942         0.029182 C 
    105. D(C   6,C   3,C   1,H   4)   -179.9850         0.029182   
    106. D(C  15,C   3,C   1,H   4)      0.0044         0.029182   
    107. D(C   6,C   3,C   1,C   0)      0.0048         0.029182 C 
    108. D(C   6,C   5,C   2,C   0)      0.0383         0.018080 C 
    109. D(C   6,C   5,C   2,C  12)   -179.9335         0.018080 C 
    110. D(C   7,C   5,C   2,C   0)   -179.9536         0.018080 C 
    111. D(C   7,C   5,C   2,C  12)      0.0747         0.018080 C 
    112. D(C   8,C   6,C   3,C   1)    179.9792         0.020831 C 
    113. D(C   8,C   6,C   3,C  15)     -0.0096         0.020831 C 
    114. D(C   5,C   6,C   3,C   1)     -0.0261         0.020831 C 
    115. D(C   8,C   6,C   5,C   2)    179.9992         0.018982 C 
    116. D(C   3,C   6,C   5,C   2)      0.0047         0.018982 C 
    117. D(C   8,C   6,C   5,C   7)     -0.0085         0.018982 C 
    118. D(C   5,C   6,C   3,C  15)    179.9850         0.020831 C 
    119. D(C   3,C   6,C   5,C   7)    179.9970         0.018982 C 
    120. D(C   9,C   7,C   5,C   2)   -179.9970         0.020991 C 
    121. D(C   9,C   7,C   5,C   6)      0.0105         0.020991 C 
    122. D(C  13,C   7,C   5,C   2)     -0.0005         0.020991 C 
    123. D(C  13,C   7,C   5,C   6)   -179.9930         0.020991 C 
    124. D(C  10,C   8,C   6,C   3)    179.9859         0.018311 C 
    125. D(C  10,C   8,C   6,C   5)     -0.0082         0.018311 C 
    126. D(C  16,C   8,C   6,C   3)     -0.0261         0.018311 C 
    127. D(C  16,C   8,C   6,C   5)    179.9798         0.018311 C 
    128. D(C  10,C   9,C   7,C   5)      0.0046         0.028917 C 
    129. D(C  10,C   9,C   7,C  13)   -179.9921         0.028917 C 
    130. D(H  11,C   9,C   7,C   5)    179.9983         0.028917   
    131. D(H  11,C   9,C   7,C  13)      0.0017         0.028917   
    132. D(C   9,C  10,C   8,C   6)      0.0218         0.018368 C 
    133. D(H  31,C  10,C   9,C   7)    179.9659         0.020064   
    134. D(H  31,C  10,C   8,C   6)   -179.9622         0.018368   
    135. D(H  31,C  10,C   8,C  16)      0.0507         0.018368   
    136. D(C   8,C  10,C   9,C   7)     -0.0209         0.020064 C 
    137. D(C   9,C  10,C   8,C  16)   -179.9654         0.018368 C 
    138. D(C   8,C  10,C   9,H  11)    179.9857         0.020064   
    139. D(H  31,C  10,C   9,H  11)     -0.0275         0.020064   
    140. D(N  14,C  12,C   2,C   0)    179.9261         0.012252 C 
    141. D(N  14,C  12,C   2,C   5)     -0.1032         0.012252 C 
    142. D(O  18,C  12,C   2,C   0)     -0.0880         0.012252 C 
    143. D(O  18,C  12,C   2,C   5)    179.8826         0.012252 C 
    144. D(N  14,C  13,C   7,C   5)     -0.0454         0.013585 C 
    145. D(N  14,C  13,C   7,C   9)    179.9512         0.013585 C 
    146. D(O  19,C  13,C   7,C   5)    179.9743         0.013585 C 
    147. D(O  19,C  13,C   7,C   9)     -0.0291         0.013585 C 
    148. D(C  13,N  14,C  12,C   2)      0.0612         0.020406 C 
    149. D(C  22,N  14,C  13,C   7)   -179.9602         0.024379 C 
    150. D(C  22,N  14,C  12,C   2)   -179.9659         0.020406 C 
    151. D(C  22,N  14,C  12,O  18)      0.0474         0.020406 C 
    152. D(C  12,N  14,C  13,C   7)      0.0134         0.024379 C 
    153. D(C  13,N  14,C  12,O  18)   -179.9256         0.020406 C 
    154. D(C  12,N  14,C  13,O  19)    179.9943         0.024379 C 
    155. D(C  22,N  14,C  13,O  19)      0.0206         0.024379 C 
    156. D(N  17,C  15,C   3,C   1)   -179.9641         0.013378 C 
    157. D(N  17,C  15,C   3,C   6)      0.0252         0.013378 C 
    158. D(O  20,C  15,C   3,C   1)      0.0267         0.013378 C 
    159. D(O  20,C  15,C   3,C   6)   -179.9840         0.013378 C 
    160. D(N  17,C  16,C   8,C   6)      0.0457         0.012316 C 
    161. D(N  17,C  16,C   8,C  10)   -179.9668         0.012316 C 
    162. D(O  21,C  16,C   8,C   6)   -179.9550         0.012316 C 
    163. D(O  21,C  16,C   8,C  10)      0.0324         0.012316 C 
    164. D(C  16,N  17,C  15,C   3)     -0.0038         0.023843 C 
    165. D(C  16,N  17,C  15,O  20)   -179.9946         0.023843 C 
    166. D(C  26,N  17,C  15,C   3)    179.9813         0.023843 C 
    167. D(C  26,N  17,C  15,O  20)     -0.0095         0.023843 C 
    168. D(C  15,N  17,C  16,C   8)     -0.0318         0.020996 C 
    169. D(C  15,N  17,C  16,O  21)    179.9689         0.020996 C 
    170. D(C  26,N  17,C  16,C   8)    179.9828         0.020996 C 
    171. D(C  26,N  17,C  16,O  21)     -0.0165         0.020996 C 
    172. D(H  23,C  22,N  14,C  12)      0.0216         0.015225   
    173. D(H  23,C  22,N  14,C  13)    179.9972         0.015225   
    174. D(H  24,C  22,N  14,C  12)   -120.9450         0.015225   
    175. D(H  24,C  22,N  14,C  13)     59.0307         0.015225   
    176. D(H  25,C  22,N  14,C  12)    120.9925         0.015225   
    177. D(H  25,C  22,N  14,C  13)    -59.0318         0.015225   
    178. D(H  27,C  26,N  17,C  15)      0.0143         0.015306   
    179. D(H  27,C  26,N  17,C  16)   -179.9991         0.015306   
    180. D(H  28,C  26,N  17,C  15)   -120.6586         0.015306   
    181. D(H  28,C  26,N  17,C  16)     59.3280         0.015306   
    182. D(H  29,C  26,N  17,C  15)    120.6866         0.015306   
    183. D(H  29,C  26,N  17,C  16)    -59.3269         0.015306   
    -----------------------------------------------------------------

Number of atoms                         .... 32
Number of degrees of freedom            .... 183

         *************************************************************
         *                GEOMETRY OPTIMIZATION CYCLE   1            *
         *************************************************************
---------------------------------
CARTESIAN COORDINATES (ANGSTROEM)
---------------------------------
  C     -4.014986    0.955248   -0.001240
  C     -3.895312   -0.470858   -0.001971
  C     -2.759306    1.663061   -0.000857
  C     -2.712305   -1.181917   -0.001586
  H     -4.791985   -1.107714   -0.002752
  C     -1.523140    0.919400    0.000010
  C     -1.454274   -0.515072   -0.000266
  C     -0.265678    1.585159    0.001396
  C     -0.218518   -1.256116    0.000584
  C      0.920181    0.876602    0.002167
  C      1.035646   -0.547505    0.001606
  H      1.817906    1.512895    0.003192
  C     -2.655103    3.155459   -0.001969
  C     -0.154635    3.062541    0.002010
  N     -1.368140    3.747101    0.000132
  C     -2.830588   -2.660887   -0.002372
  C     -0.329382   -2.747291    0.000617
  N     -1.611282   -3.340982   -0.001154
  O     -3.624578    3.910983   -0.004870
  O      0.916907    3.664558    0.003663
  O     -3.910425   -3.248356   -0.003799
  O      0.626012   -3.520725    0.002081
  C     -1.271278    5.210352   -0.000201
  H     -2.293332    5.619712   -0.001780
  H     -0.710210    5.545738   -0.893430
  H     -0.712670    5.546253    0.894368
  C     -1.636993   -4.806488   -0.001398
  H     -2.695537   -5.114795   -0.002850
  H     -1.114540   -5.194701    0.893451
  H     -1.112168   -5.194435   -0.894974
  H     -5.037090    1.304109   -0.000625
  H      2.055836   -0.901923    0.001801

----------------------------
CARTESIAN COORDINATES (A.U.)
----------------------------
  NO LB      ZA    FRAG     MASS         X           Y           Z
   0 C     6.0000    0    12.011   -7.587224    1.805157   -0.002343
   1 C     6.0000    0    12.011   -7.361073   -0.889793   -0.003725
   2 C     6.0000    0    12.011   -5.214333    3.142730   -0.001619
   3 C     6.0000    0    12.011   -5.125514   -2.233499   -0.002997
   4 H     1.0000    0     1.008   -9.055539   -2.093276   -0.005201
   5 C     6.0000    0    12.011   -2.878317    1.737414    0.000019
   6 C     6.0000    0    12.011   -2.748180   -0.973345   -0.000503
   7 C     6.0000    0    12.011   -0.502059    2.995516    0.002638
   8 C     6.0000    0    12.011   -0.412939   -2.373715    0.001104
   9 C     6.0000    0    12.011    1.738890    1.656538    0.004095
  10 C     6.0000    0    12.011    1.957087   -1.034635    0.003035
  11 H     1.0000    0     1.008    3.435344    2.858957    0.006032
  12 C     6.0000    0    12.011   -5.017418    5.962953   -0.003721
  13 C     6.0000    0    12.011   -0.292218    5.787364    0.003798
  14 N     7.0000    0    14.007   -2.585410    7.080995    0.000249
  15 C     6.0000    0    12.011   -5.349036   -5.028348   -0.004482
  16 C     6.0000    0    12.011   -0.622442   -5.191628    0.001166
  17 N     7.0000    0    14.007   -3.044882   -6.313541   -0.002181
  18 O     8.0000    0    15.999   -6.849460    7.390687   -0.009203
  19 O     8.0000    0    15.999    1.732703    6.925011    0.006922
  20 O     8.0000    0    15.999   -7.389632   -6.138503   -0.007179
  21 O     8.0000    0    15.999    1.182991   -6.653206    0.003933
  22 C     6.0000    0    12.011   -2.402367    9.846138   -0.000380
  23 H     1.0000    0     1.008   -4.333769   10.619717   -0.003364
  24 H     1.0000    0     1.008   -1.342102   10.479926   -1.688338
  25 H     1.0000    0     1.008   -1.346751   10.480899    1.690111
  26 C     6.0000    0    12.011   -3.093468   -9.082946   -0.002642
  27 H     1.0000    0     1.008   -5.093827   -9.665562   -0.005386
  28 H     1.0000    0     1.008   -2.106175   -9.816562    1.688378
  29 H     1.0000    0     1.008   -2.101693   -9.816060   -1.691256
  30 H     1.0000    0     1.008   -9.518721    2.464409   -0.001181
  31 H     1.0000    0     1.008    3.884967   -1.704387    0.003403

--------------------------------
INTERNAL COORDINATES (ANGSTROEM)
--------------------------------
 C      0   0   0     0.000000000000     0.00000000     0.00000000
 C      1   0   0     1.431118696640     0.00000000     0.00000000
 C      1   2   0     1.441433887509   114.61265218     0.00000000
 C      2   1   3     1.380257444014   125.80523415     0.03747888
 H      2   1   3     1.099822096353   120.58720075   180.02662541
 C      3   1   2     1.442615268936   119.55997049   359.94383072
 C      4   2   1     1.423841983292   121.06484072     0.00000000
 C      6   3   1     1.422830857313   121.07063049   180.04644080
 C      7   4   2     1.440916314007   121.12348642   179.97924946
 C      8   6   3     1.381417816799   121.24264418   180.00302865
 C     10   8   6     1.428780328950   125.49385285     0.00000000
 H     10   8   6     1.100354492016   113.81307884   179.99834538
 C      3   1   2     1.496031848644   123.40350626   179.91372879
 C      8   6   3     1.481549357520   122.19722155     0.00000000
 N     14   8   6     1.393276823000   115.12968100   359.95456262
 C      4   2   1     1.483692605220   116.43581764   179.99422883
 C      9   7   4     1.495290509637   116.69785443   359.97394109
 N     16   4   2     1.396151071405   114.57893150   180.03590937
 O     13   3   1     1.229108093701   123.93568168   359.91198164
 O     14   8   6     1.229076669074   123.62666578   179.97425225
 O     16   4   2     1.229296469066   123.12033412     0.02667191
 O     17   9   7     1.229219260705   124.73975352   180.04496829
 C     15  14   8     1.466453492933   115.64086966   180.03981530
 H     23  15  14     1.100987048860   108.04017309   179.99723724
 H     23  15  14     1.106860025505   109.63396505    59.03068683
 H     23  15  14     1.106854134575   109.63107400   300.96820395
 C     18  16   4     1.465731541277   118.14644170   179.98131875
 H     27  18  16     1.102529235208   107.24360091     0.00000000
 H     27  18  16     1.106535676505   110.02106403   239.34139212
 H     27  18  16     1.106536137327   110.02051258   120.68655319
 H      1   2   3     1.080000445538   113.64246234   180.02614277
 H     11  10   8     1.079999904097   113.79275843   179.96590517

---------------------------
INTERNAL COORDINATES (A.U.)
---------------------------
 C      0   0   0     0.000000000000     0.00000000     0.00000000
 C      1   0   0     2.704422401784     0.00000000     0.00000000
 C      1   2   0     2.723915287545   114.61265218     0.00000000
 C      2   1   3     2.608308563492   125.80523415     0.03747888
 H      2   1   3     2.078362558142   120.58720075   180.02662541
 C      3   1   2     2.726147774901   119.55997049   359.94383072
 C      4   2   1     2.690671406402   121.06484072     0.00000000
 C      6   3   1     2.688760655213   121.07063049   180.04644080
 C      7   4   2     2.722937215373   121.12348642   179.97924946
 C      8   6   3     2.610501350270   121.24264418   180.00302865
 C     10   8   6     2.700003527250   125.49385285     0.00000000
 H     10   8   6     2.079368640140   113.81307884   179.99834538
 C      3   1   2     2.827090481561   123.40350626   179.91372879
 C      8   6   3     2.799722539600   122.19722155     0.00000000
 N     14   8   6     2.632911624210   115.12968100   359.95456262
 C      4   2   1     2.803772690790   116.43581764   179.99422883
 C      9   7   4     2.825689553865   116.69785443   359.97394109
 N     16   4   2     2.638343166536   114.57893150   180.03590937
 O     13   3   1     2.322677686081   123.93568168   359.91198164
 O     14   8   6     2.322618302142   123.62666578   179.97425225
 O     16   4   2     2.323033663932   123.12033412     0.02667191
 O     17   9   7     2.322887761273   124.73975352   180.04496829
 C     15  14   8     2.771195489775   115.64086966   180.03981530
 H     23  15  14     2.080563999339   108.04017309   179.99723724
 H     23  15  14     2.091662316790   109.63396505    59.03068683
 H     23  15  14     2.091651184545   109.63107400   300.96820395
 C     18  16   4     2.769831198863   118.14644170   179.98131875
 H     27  18  16     2.083478309185   107.24360091     0.00000000
 H     27  18  16     2.091049386008   110.02106403   239.34139212
 H     27  18  16     2.091050256835   110.02051258   120.68655319
 H      1   2   3     2.040905066580   113.64246234   180.02614277
 H     11  10   8     2.040904043404   113.79275843   179.96590517

---------------------
BASIS SET INFORMATION
---------------------
There are 4 groups of distinct atoms

 Group   1 Type C   : 7s4p1d contracted to 3s2p1d pattern {511/31/1}
 Group   2 Type H   : 4s1p contracted to 2s1p pattern {31/1}
 Group   3 Type N   : 7s4p1d contracted to 3s2p1d pattern {511/31/1}
 Group   4 Type O   : 7s4p1d contracted to 3s2p1d pattern {511/31/1}

Atom   0C    basis set group =>   1
Atom   1C    basis set group =>   1
Atom   2C    basis set group =>   1
Atom   3C    basis set group =>   1
Atom   4H    basis set group =>   2
Atom   5C    basis set group =>   1
Atom   6C    basis set group =>   1
Atom   7C    basis set group =>   1
Atom   8C    basis set group =>   1
Atom   9C    basis set group =>   1
Atom  10C    basis set group =>   1
Atom  11H    basis set group =>   2
Atom  12C    basis set group =>   1
Atom  13C    basis set group =>   1
Atom  14N    basis set group =>   3
Atom  15C    basis set group =>   1
Atom  16C    basis set group =>   1
Atom  17N    basis set group =>   3
Atom  18O    basis set group =>   4
Atom  19O    basis set group =>   4
Atom  20O    basis set group =>   4
Atom  21O    basis set group =>   4
Atom  22C    basis set group =>   1
Atom  23H    basis set group =>   2
Atom  24H    basis set group =>   2
Atom  25H    basis set group =>   2
Atom  26C    basis set group =>   1
Atom  27H    basis set group =>   2
Atom  28H    basis set group =>   2
Atom  29H    basis set group =>   2
Atom  30H    basis set group =>   2
Atom  31H    basis set group =>   2
---------------------------------
AUXILIARY/J BASIS SET INFORMATION
---------------------------------
There are 4 groups of distinct atoms

 Group   1 Type C   : 12s5p4d2f1g contracted to 6s4p3d1f1g pattern {711111/2111/211/2/1}
 Group   2 Type H   : 5s2p1d contracted to 3s1p1d pattern {311/2/1}
 Group   3 Type N   : 12s5p4d2f1g contracted to 6s4p3d1f1g pattern {711111/2111/211/2/1}
 Group   4 Type O   : 12s5p4d2f1g contracted to 6s4p3d1f1g pattern {711111/2111/211/2/1}

Atom   0C    basis set group =>   1
Atom   1C    basis set group =>   1
Atom   2C    basis set group =>   1
Atom   3C    basis set group =>   1
Atom   4H    basis set group =>   2
Atom   5C    basis set group =>   1
Atom   6C    basis set group =>   1
Atom   7C    basis set group =>   1
Atom   8C    basis set group =>   1
Atom   9C    basis set group =>   1
Atom  10C    basis set group =>   1
Atom  11H    basis set group =>   2
Atom  12C    basis set group =>   1
Atom  13C    basis set group =>   1
Atom  14N    basis set group =>   3
Atom  15C    basis set group =>   1
Atom  16C    basis set group =>   1
Atom  17N    basis set group =>   3
Atom  18O    basis set group =>   4
Atom  19O    basis set group =>   4
Atom  20O    basis set group =>   4
Atom  21O    basis set group =>   4
Atom  22C    basis set group =>   1
Atom  23H    basis set group =>   2
Atom  24H    basis set group =>   2
Atom  25H    basis set group =>   2
Atom  26C    basis set group =>   1
Atom  27H    basis set group =>   2
Atom  28H    basis set group =>   2
Atom  29H    basis set group =>   2
Atom  30H    basis set group =>   2
Atom  31H    basis set group =>   2
------------------------------------------------------------------------------
                           ORCA GTO INTEGRAL CALCULATION
                           -- RI-GTO INTEGRALS CHOSEN --
------------------------------------------------------------------------------

                         BASIS SET STATISTICS AND STARTUP INFO

Gaussian basis set:
 # of primitive gaussian shells          ...  314
 # of primitive gaussian functions       ...  598
 # of contracted shells                  ...  162
 # of contracted basis functions         ...  358
 Highest angular momentum                ...    2
 Maximum contraction depth               ...    5
Auxiliary gaussian basis set:
 # of primitive gaussian shells          ...  608
 # of primitive gaussian functions       ... 1700
 # of contracted shells                  ...  380
 # of contracted aux-basis functions     ... 1188
 Highest angular momentum                ...    4
 Maximum contraction depth               ...    7
Ratio of auxiliary to basis functions    ...  3.32
Integral package used                  ... LIBINT
 One Electron integrals                  ... done
 Ordering auxiliary basis shells         ... done
 Integral threshhold             Thresh  ...  2.500e-11
 Primitive cut-off               TCut    ...  2.500e-12
 Pre-screening matrix                    ... done
 Shell pair data                         ... 
 Ordering of the shell pairs             ... done (   0.002 sec) 9958 of 13203 pairs
 Determination of significant pairs      ... done (   0.000 sec)
 Creation of shell pair data             ... done (   0.002 sec)
 Storage of shell pair data              ... done (   0.305 sec)
 Shell pair data done in (   0.309 sec)
 Computing two index integrals           ... done
 Cholesky decomposition of the V-matrix  ... done


Timings:
 Total evaluation time                   ...   1.006 sec (  0.017 min)
 One electron matrix time                ...   0.101 sec (  0.002 min) = 10.0%
 Schwartz matrix evaluation time         ...   0.128 sec (  0.002 min) = 12.8%
 Two index repulsion integral time       ...   0.067 sec (  0.001 min) =  6.7%
 Cholesky decomposition of V             ...   0.359 sec (  0.006 min) = 35.7%
 Three index repulsion integral time     ...   0.000 sec (  0.000 min) =  0.0%

-------------------------------------------------------------------------------
                                 ORCA SCF
-------------------------------------------------------------------------------

------------
SCF SETTINGS
------------
Hamiltonian:
 Density Functional     Method          .... DFT(GTOs)
 Exchange Functional    Exchange        .... B88
   X-Alpha parameter    XAlpha          ....  0.666667
   Becke's b parameter  XBeta           ....  0.004200
 Correlation Functional Correlation     .... P86
 LDA part of GGA corr.  LDAOpt          .... PW91-LDA
 Gradients option       PostSCFGGA      .... off
   Density functional embedding theory  .... OFF
 RI-approximation to the Coulomb term is turned on
   Number of auxiliary basis functions  .... 1188


General Settings:
 Integral files         IntName         .... PNDI_T_Input_Napthalenediimide_1_Optimize_Monomer
 Hartree-Fock type      HFTyp           .... RHF
 Total Charge           Charge          ....    0
 Multiplicity           Mult            ....    1
 Number of Electrons    NEL             ....  152
 Basis Dimension        Dim             ....  358
 Nuclear Repulsion      ENuc            ....   1711.1238479446 Eh

Convergence Acceleration:
 DIIS                   CNVDIIS         .... on
   Start iteration      DIISMaxIt       ....    12
   Startup error        DIISStart       ....  0.200000
   # of expansion vecs  DIISMaxEq       ....     5
   Bias factor          DIISBfac        ....   1.050
   Max. coefficient     DIISMaxC        ....  10.000
 Newton-Raphson         CNVNR           .... off
 SOSCF                  CNVSOSCF        .... on
   Start iteration      SOSCFMaxIt      ....   150
   Startup grad/error   SOSCFStart      ....  0.003300
 Level Shifting         CNVShift        .... on
   Level shift para.    LevelShift      ....    0.2500
   Turn off err/grad.   ShiftErr        ....    0.0010
 Zerner damping         CNVZerner       .... off
 Static damping         CNVDamp         .... on
   Fraction old density DampFac         ....    0.7000
   Max. Damping (<1)    DampMax         ....    0.9800
   Min. Damping (>=0)   DampMin         ....    0.0000
   Turn off err/grad.   DampErr         ....    0.1000
 Fernandez-Rico         CNVRico         .... off

SCF Procedure:
 Maximum # iterations   MaxIter         ....   125
 SCF integral mode      SCFMode         .... Direct
   Integral package                     .... LIBINT
 Reset frequency        DirectResetFreq ....    20
 Integral Threshold     Thresh          ....  2.500e-11 Eh
 Primitive CutOff       TCut            ....  2.500e-12 Eh

Convergence Tolerance:
 Convergence Check Mode ConvCheckMode   .... Total+1el-Energy
 Convergence forced     ConvForced      .... 0
 Energy Change          TolE            ....  1.000e-08 Eh
 1-El. energy change                    ....  1.000e-05 Eh
 Orbital Gradient       TolG            ....  1.000e-05
 Orbital Rotation angle TolX            ....  1.000e-05
 DIIS Error             TolErr          ....  5.000e-07


Diagonalization of the overlap matrix:
Smallest eigenvalue                        ... 2.497e-04
Time for diagonalization                   ...    0.136 sec
Threshold for overlap eigenvalues          ... 1.000e-08
Number of eigenvalues below threshold      ... 0
Time for construction of square roots      ...    0.022 sec
Total time needed                          ...    0.159 sec

-------------------
DFT GRID GENERATION
-------------------

General Integration Accuracy     IntAcc      ...  4.340
Radial Grid Type                 RadialGrid  ... Gauss-Chebyshev
Angular Grid (max. acc.)         AngularGrid ... Lebedev-194
Angular grid pruning method      GridPruning ... 3 (G Style)
Weight generation scheme         WeightScheme... Becke
Basis function cutoff            BFCut       ...    1.0000e-11
Integration weight cutoff        WCut        ...    1.0000e-14
Grids for H and He will be reduced by one unit

# of grid points (after initial pruning)     ...  87784 (   0.1 sec)
# of grid points (after weights+screening)   ...  78165 (   0.5 sec)
nearest neighbour list constructed           ...    0.0 sec
Grid point re-assignment to atoms done       ...    0.0 sec
Grid point division into batches done        ...    0.1 sec
Reduced shell lists constructed in    0.8 sec

Total number of grid points                  ...    78165
Total number of batches                      ...     1234
Average number of points per batch           ...       63
Average number of grid points per atom       ...     2443
Average number of shells per batch           ...    77.70 (47.96%)
Average number of basis functions per batch  ...   165.60 (46.26%)
Average number of large shells per batch     ...    52.81 (67.97%)
Average number of large basis fcns per batch ...   113.20 (68.36%)
Maximum spatial batch extension              ...  17.15, 20.27, 22.17 au
Average spatial batch extension              ...   2.64,  2.61,  3.19 au

Time for grid setup =    1.383 sec

------------------------------
INITIAL GUESS: MODEL POTENTIAL
------------------------------
Loading Hartree-Fock densities                     ... done
Calculating cut-offs                               ... done
Setting up the integral package                    ... done
Initializing the effective Hamiltonian             ... done
Starting the Coulomb interaction                   ... done (   0.6 sec)
Reading the grid                                   ... done
Mapping shells                                     ... done
Starting the XC term evaluation                    ... done (   1.2 sec)
  promolecular density results
     # of electrons  =    151.995957306
     EX              =   -131.144850760
     EC              =     -5.655405110
     EX+EC           =   -136.800255870
Transforming the Hamiltonian                       ... done (   0.0 sec)
Diagonalizing the Hamiltonian                      ... done (   0.0 sec)
Back transforming the eigenvectors                 ... done (   0.0 sec)
Now organizing SCF variables                       ... done
                      ------------------
                      INITIAL GUESS DONE (   3.3 sec)
                      ------------------
--------------
SCF ITERATIONS
--------------
ITER       Energy         Delta-E        Max-DP      RMS-DP      [F,P]     Damp
               ***  Starting incremental Fock matrix formation  ***
  0  -1025.0260539018   0.000000000000 0.14515778  0.00297603  0.2611307 0.7000
  1  -1025.2716847603  -0.245630858466 0.07267111  0.00148881  0.0640383 0.7000
                               ***Turning on DIIS***
  2  -1025.3281655733  -0.056480813028 0.06183427  0.00163546  0.0345922 0.0000
  3  -1025.4831238518  -0.154958278526 0.04963378  0.00090161  0.0439941 0.0000
  4  -1025.4958210247  -0.012697172875 0.01379928  0.00031669  0.0282752 0.0000
  5  -1025.5004999214  -0.004678896733 0.00347552  0.00009759  0.0053960 0.0000
                      *** Initiating the SOSCF procedure ***
                           *** Shutting down DIIS ***
                      *** Re-Reading the Fockian *** 
                      *** Removing any level shift *** 
ITER      Energy       Delta-E        Grad      Rot      Max-DP    RMS-DP
  6  -1025.50069508  -0.0001951625  0.000451  0.000451  0.001363  0.000039
               *** Restarting incremental Fock matrix formation ***
  7  -1025.50072545  -0.0000303708  0.000150  0.000988  0.000691  0.000017
  8  -1025.50072313   0.0000023250  0.000317  0.000732  0.000512  0.000010
  9  -1025.50072676  -0.0000036258  0.000067  0.000414  0.000412  0.000008
 10  -1025.50072609   0.0000006697  0.000124  0.000284  0.000354  0.000006
 11  -1025.50072694  -0.0000008540  0.000027  0.000159  0.000156  0.000004
 12  -1025.50072684   0.0000000982  0.000036  0.000093  0.000116  0.000002
 13  -1025.50072700  -0.0000001559  0.000010  0.000039  0.000055  0.000001
 14  -1025.50072700  -0.0000000036  0.000018  0.000044  0.000034  0.000001
 15  -1025.50072700   0.0000000003  0.000006  0.000053  0.000029  0.000001
 16  -1025.50072699   0.0000000115  0.000014  0.000039  0.000022  0.000000
                  ***Gradient check signals convergence***
              ***Rediagonalizing the Fockian in SOSCF/NRSCF***

               *****************************************************
               *                     SUCCESS                       *
               *           SCF CONVERGED AFTER  17 CYCLES          *
               *****************************************************

Setting up the final grid:

General Integration Accuracy     IntAcc      ...  5.010
Radial Grid Type                 RadialGrid  ... Gauss-Chebyshev
Angular Grid (max. acc.)         AngularGrid ... Lebedev-434
Angular grid pruning method      GridPruning ... 3 (G Style)
Weight generation scheme         WeightScheme... Becke
Basis function cutoff            BFCut       ...    1.0000e-11
Integration weight cutoff        WCut        ...    1.0000e-14
Grids for H and He will be reduced by one unit

# of grid points (after initial pruning)     ... 302636 (   0.1 sec)
# of grid points (after weights+screening)   ... 266237 (   1.5 sec)
nearest neighbour list constructed           ...    0.0 sec
Grid point re-assignment to atoms done       ...    0.0 sec
Grid point division into batches done        ...    1.7 sec
Reduced shell lists constructed in    3.9 sec

Total number of grid points                  ...   266237
Total number of batches                      ...     4176
Average number of points per batch           ...       63
Average number of grid points per atom       ...     8320
Average number of shells per batch           ...    71.33 (44.03%)
Average number of basis functions per batch  ...   151.15 (42.22%)
Average number of large shells per batch     ...    47.74 (66.93%)
Average number of large basis fcns per batch ...   101.49 (67.15%)
Maximum spatial batch extension              ...  19.62, 21.38, 21.70 au
Average spatial batch extension              ...   1.83,  1.81,  2.01 au

Final grid set up in    5.6 sec
Final integration                            ... done (   4.6 sec)
Change in XC energy                          ...    -0.000338747
Integrated number of electrons               ...   152.000062238
Previous integrated no of electrons          ...   151.999699362

----------------
TOTAL SCF ENERGY
----------------

Total Energy       :        -1025.50106575 Eh          -27905.30268 eV

Components:
Nuclear Repulsion  :         1711.12384794 Eh           46562.04707 eV
Electronic Energy  :        -2736.62491369 Eh          -74467.34975 eV
One Electron Energy:        -4793.47977094 Eh         -130437.21587 eV
Two Electron Energy:         2056.85485725 Eh           55969.86612 eV

Virial components:
Potential Energy   :        -2040.14119017 Eh          -55515.06412 eV
Kinetic Energy     :         1014.64012442 Eh           27609.76144 eV
Virial Ratio       :            2.01070423


DFT components:
N(Alpha)           :       76.000031118910 electrons
N(Beta)            :       76.000031118910 electrons
N(Total)           :      152.000062237820 electrons
E(X)               :     -132.861501109395 Eh       
E(C)               :       -5.659736786552 Eh       
E(XC)              :     -138.521237895947 Eh       
DFET-embed. en.    :        0.000000000000 Eh       

---------------
SCF CONVERGENCE
---------------

  Last Energy change         ...   -9.5256e-09  Tolerance :   1.0000e-08
  Last MAX-Density change    ...    6.9627e-06  Tolerance :   1.0000e-07
  Last RMS-Density change    ...    1.4235e-07  Tolerance :   5.0000e-09
  Last Orbital Gradient      ...    1.0252e-06  Tolerance :   1.0000e-05
  Last Orbital Rotation      ...    7.1067e-06  Tolerance :   1.0000e-05

             **** THE GBW FILE WAS UPDATED (PNDI_T_Input_Napthalenediimide_1_Optimize_Monomer.gbw) ****
             **** DENSITY FILE WAS UPDATED (PNDI_T_Input_Napthalenediimide_1_Optimize_Monomer.scfp) ****
             **** ENERGY FILE WAS UPDATED (PNDI_T_Input_Napthalenediimide_1_Optimize_Monomer.en.tmp) ****
             **** THE GBW FILE WAS UPDATED (PNDI_T_Input_Napthalenediimide_1_Optimize_Monomer.gbw) ****
             **** DENSITY FILE WAS UPDATED (PNDI_T_Input_Napthalenediimide_1_Optimize_Monomer.scfp) ****
----------------
ORBITAL ENERGIES
----------------

  NO   OCC          E(Eh)            E(eV) 
   0   2.0000     -18.780388      -511.0403 
   1   2.0000     -18.780197      -511.0351 
   2   2.0000     -18.778856      -510.9986 
   3   2.0000     -18.778634      -510.9926 
   4   2.0000     -14.084995      -383.2722 
   5   2.0000     -14.084811      -383.2672 
   6   2.0000     -10.043920      -273.3089 
   7   2.0000     -10.041290      -273.2374 
   8   2.0000     -10.038548      -273.1628 
   9   2.0000     -10.035860      -273.0896 
  10   2.0000      -9.980783      -271.5909 
  11   2.0000      -9.979724      -271.5621 
  12   2.0000      -9.975153      -271.4377 
  13   2.0000      -9.975037      -271.4345 
  14   2.0000      -9.972458      -271.3644 
  15   2.0000      -9.971755      -271.3453 
  16   2.0000      -9.963197      -271.1124 
  17   2.0000      -9.962496      -271.0933 
  18   2.0000      -9.956079      -270.9187 
  19   2.0000      -9.955962      -270.9155 
  20   2.0000      -9.955906      -270.9140 
  21   2.0000      -9.955619      -270.9062 
  22   2.0000      -0.981248       -26.7011 
  23   2.0000      -0.980942       -26.6928 
  24   2.0000      -0.959862       -26.1192 
  25   2.0000      -0.959744       -26.1160 
  26   2.0000      -0.868607       -23.6360 
  27   2.0000      -0.867046       -23.5935 
  28   2.0000      -0.835447       -22.7337 
  29   2.0000      -0.782740       -21.2994 
  30   2.0000      -0.763121       -20.7656 
  31   2.0000      -0.709855       -19.3161 
  32   2.0000      -0.706501       -19.2249 
  33   2.0000      -0.680744       -18.5240 
  34   2.0000      -0.651809       -17.7366 
  35   2.0000      -0.645713       -17.5707 
  36   2.0000      -0.609383       -16.5822 
  37   2.0000      -0.592802       -16.1310 
  38   2.0000      -0.591825       -16.1044 
  39   2.0000      -0.583932       -15.8896 
  40   2.0000      -0.537548       -14.6274 
  41   2.0000      -0.513856       -13.9827 
  42   2.0000      -0.508150       -13.8275 
  43   2.0000      -0.490522       -13.3478 
  44   2.0000      -0.467788       -12.7292 
  45   2.0000      -0.452856       -12.3228 
  46   2.0000      -0.448108       -12.1936 
  47   2.0000      -0.445014       -12.1095 
  48   2.0000      -0.438204       -11.9241 
  49   2.0000      -0.433475       -11.7954 
  50   2.0000      -0.424836       -11.5604 
  51   2.0000      -0.406663       -11.0659 
  52   2.0000      -0.404005       -10.9935 
  53   2.0000      -0.398901       -10.8547 
  54   2.0000      -0.393053       -10.6955 
  55   2.0000      -0.390667       -10.6306 
  56   2.0000      -0.388108       -10.5609 
  57   2.0000      -0.381304       -10.3758 
  58   2.0000      -0.375582       -10.2201 
  59   2.0000      -0.369122       -10.0443 
  60   2.0000      -0.368823       -10.0362 
  61   2.0000      -0.364284        -9.9127 
  62   2.0000      -0.355440        -9.6720 
  63   2.0000      -0.350931        -9.5493 
  64   2.0000      -0.349386        -9.5073 
  65   2.0000      -0.333151        -9.0655 
  66   2.0000      -0.321193        -8.7401 
  67   2.0000      -0.293416        -7.9843 
  68   2.0000      -0.271221        -7.3803 
  69   2.0000      -0.259024        -7.0484 
  70   2.0000      -0.255295        -6.9469 
  71   2.0000      -0.253759        -6.9051 
  72   2.0000      -0.253032        -6.8854 
  73   2.0000      -0.243133        -6.6160 
  74   2.0000      -0.236996        -6.4490 
  75   2.0000      -0.232166        -6.3176 
  76   0.0000      -0.158809        -4.3214 
  77   0.0000      -0.101717        -2.7679 
  78   0.0000      -0.089276        -2.4293 
  79   0.0000      -0.079310        -2.1581 
  80   0.0000      -0.026795        -0.7291 
  81   0.0000      -0.024967        -0.6794 
  82   0.0000       0.027593         0.7508 
  83   0.0000       0.043356         1.1798 
  84   0.0000       0.056223         1.5299 
  85   0.0000       0.057796         1.5727 
  86   0.0000       0.058297         1.5863 
  87   0.0000       0.062101         1.6899 
  88   0.0000       0.092726         2.5232 
  89   0.0000       0.097714         2.6589 
  90   0.0000       0.100997         2.7483 
  91   0.0000       0.105632         2.8744 
  92   0.0000       0.108093         2.9414 
  93   0.0000       0.113826         3.0974 
  94   0.0000       0.115332         3.1383 
  95   0.0000       0.121658         3.3105 
  96   0.0000       0.139294         3.7904 
  97   0.0000       0.142996         3.8911 
  98   0.0000       0.153175         4.1681 
  99   0.0000       0.158041         4.3005 
 100   0.0000       0.166534         4.5316 
 101   0.0000       0.167934         4.5697 
 102   0.0000       0.171828         4.6757 
 103   0.0000       0.173301         4.7158 
 104   0.0000       0.190779         5.1914 
 105   0.0000       0.200196         5.4476 
 106   0.0000       0.205677         5.5968 
 107   0.0000       0.206292         5.6135 
 108   0.0000       0.233075         6.3423 
 109   0.0000       0.244326         6.6484 
 110   0.0000       0.253370         6.8946 
 111   0.0000       0.254494         6.9251 
 112   0.0000       0.262856         7.1527 
 113   0.0000       0.279107         7.5949 
 114   0.0000       0.285567         7.7707 
 115   0.0000       0.301499         8.2042 
 116   0.0000       0.304715         8.2917 
 117   0.0000       0.313784         8.5385 
 118   0.0000       0.320275         8.7151 
 119   0.0000       0.334589         9.1046 
 120   0.0000       0.354154         9.6370 
 121   0.0000       0.356536         9.7018 
 122   0.0000       0.359547         9.7838 
 123   0.0000       0.372716        10.1421 
 124   0.0000       0.382647        10.4124 
 125   0.0000       0.387696        10.5497 
 126   0.0000       0.389644        10.6028 
 127   0.0000       0.404901        11.0179 
 128   0.0000       0.412305        11.2194 
 129   0.0000       0.418045        11.3756 
 130   0.0000       0.418170        11.3790 
 131   0.0000       0.428330        11.6554 
 132   0.0000       0.453099        12.3295 
 133   0.0000       0.453869        12.3504 
 134   0.0000       0.462855        12.5949 
 135   0.0000       0.465608        12.6698 
 136   0.0000       0.468552        12.7499 
 137   0.0000       0.487069        13.2538 
 138   0.0000       0.500797        13.6274 
 139   0.0000       0.510754        13.8983 
 140   0.0000       0.511828        13.9275 
 141   0.0000       0.523662        14.2496 
 142   0.0000       0.525984        14.3128 
 143   0.0000       0.534202        14.5364 
 144   0.0000       0.551743        15.0137 
 145   0.0000       0.559110        15.2142 
 146   0.0000       0.564279        15.3548 
 147   0.0000       0.567747        15.4492 
 148   0.0000       0.568905        15.4807 
 149   0.0000       0.573556        15.6072 
 150   0.0000       0.575914        15.6714 
 151   0.0000       0.586729        15.9657 
 152   0.0000       0.590537        16.0693 
 153   0.0000       0.592982        16.1358 
 154   0.0000       0.595486        16.2040 
 155   0.0000       0.602042        16.3824 
 156   0.0000       0.604325        16.4445 
 157   0.0000       0.608597        16.5608 
 158   0.0000       0.609410        16.5829 
 159   0.0000       0.619201        16.8493 
 160   0.0000       0.623645        16.9703 
 161   0.0000       0.630826        17.1656 
 162   0.0000       0.633991        17.2518 
 163   0.0000       0.647174        17.6105 
 164   0.0000       0.657485        17.8911 
 165   0.0000       0.661605        18.0032 
 166   0.0000       0.672038        18.2871 
 167   0.0000       0.681104        18.5338 
 168   0.0000       0.692626        18.8473 
 169   0.0000       0.703143        19.1335 
 170   0.0000       0.716488        19.4966 
 171   0.0000       0.732633        19.9360 
 172   0.0000       0.734181        19.9781 
 173   0.0000       0.739829        20.1318 
 174   0.0000       0.745382        20.2829 
 175   0.0000       0.755667        20.5627 
 176   0.0000       0.757940        20.6246 
 177   0.0000       0.781688        21.2708 
 178   0.0000       0.798834        21.7374 
 179   0.0000       0.818955        22.2849 
 180   0.0000       0.819676        22.3045 
 181   0.0000       0.853548        23.2262 
 182   0.0000       0.870000        23.6739 
 183   0.0000       0.907345        24.6901 
 184   0.0000       0.919775        25.0284 
 185   0.0000       0.921106        25.0646 
 186   0.0000       0.955529        26.0013 
 187   0.0000       0.967913        26.3382 
 188   0.0000       0.981427        26.7060 
 189   0.0000       0.985794        26.8248 
 190   0.0000       0.991428        26.9781 
 191   0.0000       0.992719        27.0133 
 192   0.0000       1.004194        27.3255 
 193   0.0000       1.035215        28.1696 
 194   0.0000       1.074448        29.2372 
 195   0.0000       1.083964        29.4962 
 196   0.0000       1.103039        30.0152 
 197   0.0000       1.112287        30.2669 
 198   0.0000       1.112946        30.2848 
 199   0.0000       1.118670        30.4406 
 200   0.0000       1.122205        30.5367 
 201   0.0000       1.132377        30.8135 
 202   0.0000       1.138637        30.9839 
 203   0.0000       1.143696        31.1215 
 204   0.0000       1.154865        31.4255 
 205   0.0000       1.164093        31.6766 
 206   0.0000       1.171879        31.8885 
 207   0.0000       1.171999        31.8917 
 208   0.0000       1.184695        32.2372 
 209   0.0000       1.203254        32.7422 
 210   0.0000       1.203906        32.7599 
 211   0.0000       1.213327        33.0163 
 212   0.0000       1.213674        33.0257 
 213   0.0000       1.222793        33.2739 
 214   0.0000       1.247246        33.9393 
 215   0.0000       1.274359        34.6771 
 216   0.0000       1.279252        34.8102 
 217   0.0000       1.295379        35.2491 
 218   0.0000       1.318147        35.8686 
 219   0.0000       1.324347        36.0373 
 220   0.0000       1.336853        36.3776 
 221   0.0000       1.358639        36.9704 
 222   0.0000       1.364351        37.1259 
 223   0.0000       1.382971        37.6325 
 224   0.0000       1.406019        38.2597 
 225   0.0000       1.411253        38.4021 
 226   0.0000       1.412890        38.4467 
 227   0.0000       1.417179        38.5634 
 228   0.0000       1.437721        39.1224 
 229   0.0000       1.437934        39.1282 
 230   0.0000       1.439439        39.1691 
 231   0.0000       1.475991        40.1638 
 232   0.0000       1.505577        40.9688 
 233   0.0000       1.519293        41.3421 
 234   0.0000       1.524051        41.4715 
 235   0.0000       1.561178        42.4818 
 236   0.0000       1.567494        42.6537 
 237   0.0000       1.579269        42.9741 
 238   0.0000       1.581491        43.0346 
 239   0.0000       1.601410        43.5766 
 240   0.0000       1.615733        43.9663 
 241   0.0000       1.626691        44.2645 
 242   0.0000       1.633933        44.4616 
 243   0.0000       1.634166        44.4679 
 244   0.0000       1.634815        44.4856 
 245   0.0000       1.640982        44.6534 
 246   0.0000       1.641791        44.6754 
 247   0.0000       1.678184        45.6657 
 248   0.0000       1.685138        45.8549 
 249   0.0000       1.686717        45.8979 
 250   0.0000       1.688879        45.9567 
 251   0.0000       1.694850        46.1192 
 252   0.0000       1.698354        46.2146 
 253   0.0000       1.720934        46.8290 
 254   0.0000       1.740783        47.3691 
 255   0.0000       1.744842        47.4796 
 256   0.0000       1.761258        47.9263 
 257   0.0000       1.782286        48.4985 
 258   0.0000       1.784800        48.5669 
 259   0.0000       1.818449        49.4825 
 260   0.0000       1.825115        49.6639 
 261   0.0000       1.837621        50.0042 
 262   0.0000       1.838694        50.0334 
 263   0.0000       1.847528        50.2738 
 264   0.0000       1.858249        50.5655 
 265   0.0000       1.862974        50.6941 
 266   0.0000       1.867045        50.8049 
 267   0.0000       1.874251        51.0010 
 268   0.0000       1.901046        51.7301 
 269   0.0000       1.907155        51.8963 
 270   0.0000       1.917799        52.1860 
 271   0.0000       1.954539        53.1857 
 272   0.0000       1.962198        53.3941 
 273   0.0000       1.963112        53.4190 
 274   0.0000       1.974373        53.7254 
 275   0.0000       1.983378        53.9705 
 276   0.0000       1.991594        54.1940 
 277   0.0000       1.996177        54.3187 
 278   0.0000       1.999756        54.4161 
 279   0.0000       2.030666        55.2572 
 280   0.0000       2.033647        55.3384 
 281   0.0000       2.044058        55.6216 
 282   0.0000       2.080414        56.6110 
 283   0.0000       2.089165        56.8491 
 284   0.0000       2.094336        56.9898 
 285   0.0000       2.095203        57.0134 
 286   0.0000       2.142513        58.3007 
 287   0.0000       2.144427        58.3528 
 288   0.0000       2.146603        58.4120 
 289   0.0000       2.167083        58.9693 
 290   0.0000       2.168984        59.0210 
 291   0.0000       2.178956        59.2924 
 292   0.0000       2.206578        60.0440 
 293   0.0000       2.219744        60.4023 
 294   0.0000       2.249425        61.2100 
 295   0.0000       2.292148        62.3725 
 296   0.0000       2.303262        62.6749 
 297   0.0000       2.325523        63.2807 
 298   0.0000       2.329978        63.4019 
 299   0.0000       2.332818        63.4792 
 300   0.0000       2.363986        64.3273 
 301   0.0000       2.371119        64.5214 
 302   0.0000       2.385013        64.8995 
 303   0.0000       2.397862        65.2491 
 304   0.0000       2.419566        65.8397 
 305   0.0000       2.424341        65.9697 
 306   0.0000       2.431171        66.1555 
 307   0.0000       2.460408        66.9511 
 308   0.0000       2.468164        67.1621 
 309   0.0000       2.489907        67.7538 
 310   0.0000       2.494071        67.8671 
 311   0.0000       2.503939        68.1356 
 312   0.0000       2.513873        68.4060 
 313   0.0000       2.515483        68.4498 
 314   0.0000       2.524242        68.6881 
 315   0.0000       2.535527        68.9952 
 316   0.0000       2.572358        69.9974 
 317   0.0000       2.589979        70.4769 
 318   0.0000       2.593717        70.5786 
 319   0.0000       2.595002        70.6136 
 320   0.0000       2.596996        70.6679 
 321   0.0000       2.613194        71.1086 
 322   0.0000       2.660004        72.3824 
 323   0.0000       2.670452        72.6667 
 324   0.0000       2.677950        72.8707 
 325   0.0000       2.683134        73.0118 
 326   0.0000       2.690935        73.2241 
 327   0.0000       2.704501        73.5932 
 328   0.0000       2.734482        74.4091 
 329   0.0000       2.746382        74.7329 
 330   0.0000       2.748340        74.7861 
 331   0.0000       2.784305        75.7648 
 332   0.0000       2.798860        76.1608 
 333   0.0000       2.808997        76.4367 
 334   0.0000       2.813447        76.5578 
 335   0.0000       2.816874        76.6510 
 336   0.0000       2.842609        77.3513 
 337   0.0000       2.856367        77.7257 
 338   0.0000       2.881026        78.3967 
 339   0.0000       2.884304        78.4859 
 340   0.0000       2.905869        79.0727 
 341   0.0000       2.967898        80.7606 
 342   0.0000       3.003693        81.7346 
 343   0.0000       3.005321        81.7789 
 344   0.0000       3.040622        82.7395 
 345   0.0000       3.044069        82.8333 
 346   0.0000       3.146577        85.6227 
 347   0.0000       3.182383        86.5970 
 348   0.0000       3.236184        88.0610 
 349   0.0000       3.251518        88.4783 
 350   0.0000       3.281338        89.2897 
 351   0.0000       3.352822        91.2349 
 352   0.0000       3.429385        93.3183 
 353   0.0000       3.492041        95.0233 
 354   0.0000       3.497361        95.1680 
 355   0.0000       3.541850        96.3786 
 356   0.0000       3.557748        96.8113 
 357   0.0000       3.583173        97.5031 

                    ********************************
                    * MULLIKEN POPULATION ANALYSIS *
                    ********************************

-----------------------
MULLIKEN ATOMIC CHARGES
-----------------------
   0 C :    0.009903
   1 C :   -0.048870
   2 C :   -0.006293
   3 C :   -0.077094
   4 H :    0.030179
   5 C :    0.137194
   6 C :    0.133207
   7 C :   -0.072535
   8 C :    0.000283
   9 C :   -0.048191
  10 C :    0.007006
  11 H :    0.029293
  12 C :    0.136469
  13 C :    0.133288
  14 N :   -0.251879
  15 C :    0.147358
  16 C :    0.126053
  17 N :   -0.252426
  18 O :   -0.170856
  19 O :   -0.179766
  20 O :   -0.176274
  21 O :   -0.175137
  22 C :    0.071562
  23 H :    0.071459
  24 H :    0.059514
  25 H :    0.059518
  26 C :    0.072752
  27 H :    0.068254
  28 H :    0.060104
  29 H :    0.060099
  30 H :    0.023448
  31 H :    0.022377
Sum of atomic charges:   -0.0000000

--------------------------------
MULLIKEN REDUCED ORBITAL CHARGES
--------------------------------
  0 C s       :     3.315537  s :     3.315537
      pz      :     0.920677  p :     2.645068
      px      :     0.805654
      py      :     0.918737
      dz2     :     0.002176  d :     0.029491
      dxz     :     0.002916
      dyz     :     0.004430
      dx2y2   :     0.010787
      dxy     :     0.009182
  1 C s       :     3.257093  s :     3.257093
      pz      :     0.918983  p :     2.760132
      px      :     0.974602
      py      :     0.866547
      dz2     :     0.002224  d :     0.031645
      dxz     :     0.003273
      dyz     :     0.004812
      dx2y2   :     0.009024
      dxy     :     0.012313
  2 C s       :     3.163356  s :     3.163356
      pz      :     1.009605  p :     2.808182
      px      :     0.896359
      py      :     0.902218
      dz2     :     0.002866  d :     0.034755
      dxz     :     0.005716
      dyz     :     0.003771
      dx2y2   :     0.012201
      dxy     :     0.010202
  3 C s       :     3.162541  s :     3.162541
      pz      :     1.000533  p :     2.876937
      px      :     0.954581
      py      :     0.921824
      dz2     :     0.002919  d :     0.037616
      dxz     :     0.006526
      dyz     :     0.004018
      dx2y2   :     0.013826
      dxy     :     0.010327
  4 H s       :     0.946756  s :     0.946756
      pz      :     0.004092  p :     0.023065
      px      :     0.010587
      py      :     0.008386
  5 C s       :     3.119198  s :     3.119198
      pz      :     0.970972  p :     2.705066
      px      :     0.848749
      py      :     0.885345
      dz2     :     0.002865  d :     0.038543
      dxz     :     0.006217
      dyz     :     0.005538
      dx2y2   :     0.011732
      dxy     :     0.012191
  6 C s       :     3.122626  s :     3.122626
      pz      :     0.970833  p :     2.705575
      px      :     0.848689
      py      :     0.886053
      dz2     :     0.002869  d :     0.038592
      dxz     :     0.006236
      dyz     :     0.005540
      dx2y2   :     0.011748
      dxy     :     0.012201
  7 C s       :     3.162678  s :     3.162678
      pz      :     0.999149  p :     2.872221
      px      :     0.951108
      py      :     0.921963
      dz2     :     0.002922  d :     0.037636
      dxz     :     0.006528
      dyz     :     0.004090
      dx2y2   :     0.013789
      dxy     :     0.010307
  8 C s       :     3.162133  s :     3.162133
      pz      :     1.008598  p :     2.802776
      px      :     0.892510
      py      :     0.901668
      dz2     :     0.002871  d :     0.034808
      dxz     :     0.005727
      dyz     :     0.003838
      dx2y2   :     0.012176
      dxy     :     0.010196
  9 C s       :     3.259854  s :     3.259854
      pz      :     0.920231  p :     2.756663
      px      :     0.970453
      py      :     0.865979
      dz2     :     0.002223  d :     0.031674
      dxz     :     0.003265
      dyz     :     0.004824
      dx2y2   :     0.009063
      dxy     :     0.012299
 10 C s       :     3.317147  s :     3.317147
      pz      :     0.921856  p :     2.646230
      px      :     0.806398
      py      :     0.917976
      dz2     :     0.002178  d :     0.029617
      dxz     :     0.002917
      dyz     :     0.004476
      dx2y2   :     0.010778
      dxy     :     0.009268
 11 H s       :     0.947713  s :     0.947713
      pz      :     0.004092  p :     0.022993
      px      :     0.010562
      py      :     0.008339
 12 C s       :     3.040131  s :     3.040131
      pz      :     0.877765  p :     2.719294
      px      :     0.863072
      py      :     0.978457
      dz2     :     0.005740  d :     0.104106
      dxz     :     0.019366
      dyz     :     0.010221
      dx2y2   :     0.042716
      dxy     :     0.026063
 13 C s       :     3.023373  s :     3.023373
      pz      :     0.876652  p :     2.735829
      px      :     0.871952
      py      :     0.987226
      dz2     :     0.005777  d :     0.107509
      dxz     :     0.022096
      dyz     :     0.008726
      dx2y2   :     0.039170
      dxy     :     0.031740
 14 N s       :     3.451271  s :     3.451271
      pz      :     1.543183  p :     3.776183
      px      :     1.074885
      py      :     1.158116
      dz2     :     0.002298  d :     0.024425
      dxz     :     0.003352
      dyz     :     0.003901
      dx2y2   :     0.006446
      dxy     :     0.008429
 15 C s       :     3.014190  s :     3.014190
      pz      :     0.876056  p :     2.731339
      px      :     0.868845
      py      :     0.986438
      dz2     :     0.005775  d :     0.107113
      dxz     :     0.022524
      dyz     :     0.008565
      dx2y2   :     0.038345
      dxy     :     0.031905
 16 C s       :     3.048427  s :     3.048427
      pz      :     0.878687  p :     2.721035
      px      :     0.863919
      py      :     0.978429
      dz2     :     0.005744  d :     0.104485
      dxz     :     0.018836
      dyz     :     0.010453
      dx2y2   :     0.043529
      dxy     :     0.025923
 17 N s       :     3.452340  s :     3.452340
      pz      :     1.542250  p :     3.775551
      px      :     1.074399
      py      :     1.158901
      dz2     :     0.002310  d :     0.024535
      dxz     :     0.003335
      dyz     :     0.003928
      dx2y2   :     0.006484
      dxy     :     0.008478
 18 O s       :     3.740540  s :     3.740540
      pz      :     1.368621  p :     4.413383
      px      :     1.478482
      py      :     1.566280
      dz2     :     0.001919  d :     0.016933
      dxz     :     0.003359
      dyz     :     0.001940
      dx2y2   :     0.003921
      dxy     :     0.005794
 19 O s       :     3.738094  s :     3.738094
      pz      :     1.379501  p :     4.424711
      px      :     1.403876
      py      :     1.641335
      dz2     :     0.001920  d :     0.016961
      dxz     :     0.004012
      dyz     :     0.001289
      dx2y2   :     0.004369
      dxy     :     0.005370
 20 O s       :     3.738189  s :     3.738189
      pz      :     1.387739  p :     4.421136
      px      :     1.396922
      py      :     1.636475
      dz2     :     0.001918  d :     0.016949
      dxz     :     0.004069
      dyz     :     0.001206
      dx2y2   :     0.004464
      dxy     :     0.005292
 21 O s       :     3.742073  s :     3.742073
      pz      :     1.360461  p :     4.416118
      px      :     1.489010
      py      :     1.566646
      dz2     :     0.001918  d :     0.016946
      dxz     :     0.003260
      dyz     :     0.002071
      dx2y2   :     0.003852
      dxy     :     0.005844
 22 C s       :     3.017334  s :     3.017334
      pz      :     1.050539  p :     2.876633
      px      :     1.041536
      py      :     0.784558
      dz2     :     0.006170  d :     0.034471
      dxz     :     0.005045
      dyz     :     0.007298
      dx2y2   :     0.011074
      dxy     :     0.004884
 23 H s       :     0.904962  s :     0.904962
      pz      :     0.005026  p :     0.023579
      px      :     0.014510
      py      :     0.004044
 24 H s       :     0.918638  s :     0.918638
      pz      :     0.010534  p :     0.021848
      px      :     0.007686
      py      :     0.003628
 25 H s       :     0.918634  s :     0.918634
      pz      :     0.010549  p :     0.021848
      px      :     0.007668
      py      :     0.003631
 26 C s       :     3.016009  s :     3.016009
      pz      :     1.052549  p :     2.876568
      px      :     1.043867
      py      :     0.780152
      dz2     :     0.006256  d :     0.034670
      dxz     :     0.004348
      dyz     :     0.007950
      dx2y2   :     0.011808
      dxy     :     0.004308
 27 H s       :     0.908520  s :     0.908520
      pz      :     0.005014  p :     0.023226
      px      :     0.014612
      py      :     0.003600
 28 H s       :     0.918042  s :     0.918042
      pz      :     0.010537  p :     0.021854
      px      :     0.007446
      py      :     0.003872
 29 H s       :     0.918047  s :     0.918047
      pz      :     0.010522  p :     0.021854
      px      :     0.007462
      py      :     0.003870
 30 H s       :     0.953784  s :     0.953784
      pz      :     0.004697  p :     0.022768
      px      :     0.012855
      py      :     0.005216
 31 H s       :     0.954873  s :     0.954873
      pz      :     0.004695  p :     0.022750
      px      :     0.012809
      py      :     0.005246


                     *******************************
                     * LOEWDIN POPULATION ANALYSIS *
                     *******************************

----------------------
LOEWDIN ATOMIC CHARGES
----------------------
   0 C :    0.034046
   1 C :    0.016610
   2 C :   -0.037536
   3 C :   -0.047751
   4 H :    0.045443
   5 C :   -0.000262
   6 C :   -0.000162
   7 C :   -0.048094
   8 C :   -0.038575
   9 C :    0.016201
  10 C :    0.033181
  11 H :    0.045635
  12 C :    0.070533
  13 C :    0.060196
  14 N :   -0.011446
  15 C :    0.063180
  16 C :    0.067497
  17 N :   -0.010504
  18 O :   -0.154454
  19 O :   -0.160288
  20 O :   -0.159877
  21 O :   -0.154702
  22 C :    0.020507
  23 H :    0.037144
  24 H :    0.039529
  25 H :    0.039530
  26 C :    0.020688
  27 H :    0.036846
  28 H :    0.039272
  29 H :    0.039271
  30 H :    0.049344
  31 H :    0.048999

-------------------------------
LOEWDIN REDUCED ORBITAL CHARGES
-------------------------------
  0 C s       :     2.883051  s :     2.883051
      pz      :     0.913291  p :     3.003970
      px      :     1.041703
      py      :     1.048976
      dz2     :     0.005379  d :     0.078934
      dxz     :     0.005609
      dyz     :     0.008852
      dx2y2   :     0.032041
      dxy     :     0.027054
  1 C s       :     2.871698  s :     2.871698
      pz      :     0.912241  p :     3.026222
      px      :     1.068129
      py      :     1.045852
      dz2     :     0.005797  d :     0.085470
      dxz     :     0.006592
      dyz     :     0.009866
      dx2y2   :     0.027820
      dxy     :     0.035394
  2 C s       :     2.879441  s :     2.879441
      pz      :     0.985128  p :     3.062955
      px      :     1.050375
      py      :     1.027453
      dz2     :     0.007641  d :     0.095139
      dxz     :     0.011421
      dyz     :     0.007396
      dx2y2   :     0.036715
      dxy     :     0.031966
  3 C s       :     2.860565  s :     2.860565
      pz      :     0.971679  p :     3.081605
      px      :     1.069783
      py      :     1.040143
      dz2     :     0.008239  d :     0.105581
      dxz     :     0.013527
      dyz     :     0.008040
      dx2y2   :     0.042048
      dxy     :     0.033727
  4 H s       :     0.882256  s :     0.882256
      pz      :     0.012329  p :     0.072301
      px      :     0.032815
      py      :     0.027157
  5 C s       :     2.846150  s :     2.846150
      pz      :     0.962366  p :     3.048298
      px      :     1.042000
      py      :     1.043932
      dz2     :     0.007372  d :     0.105814
      dxz     :     0.012685
      dyz     :     0.011146
      dx2y2   :     0.036890
      dxy     :     0.037722
  6 C s       :     2.846076  s :     2.846076
      pz      :     0.962095  p :     3.048121
      px      :     1.042110
      py      :     1.043916
      dz2     :     0.007376  d :     0.105966
      dxz     :     0.012727
      dyz     :     0.011151
      dx2y2   :     0.036952
      dxy     :     0.037759
  7 C s       :     2.860386  s :     2.860386
      pz      :     0.970536  p :     3.081867
      px      :     1.069412
      py      :     1.041919
      dz2     :     0.008276  d :     0.105841
      dxz     :     0.013540
      dyz     :     0.008189
      dx2y2   :     0.042109
      dxy     :     0.033727
  8 C s       :     2.878902  s :     2.878902
      pz      :     0.984477  p :     3.064149
      px      :     1.050474
      py      :     1.029197
      dz2     :     0.007691  d :     0.095525
      dxz     :     0.011460
      dyz     :     0.007525
      dx2y2   :     0.036769
      dxy     :     0.032080
  9 C s       :     2.871543  s :     2.871543
      pz      :     0.913312  p :     3.026681
      px      :     1.067294
      py      :     1.046075
      dz2     :     0.005797  d :     0.085576
      dxz     :     0.006564
      dyz     :     0.009898
      dx2y2   :     0.027928
      dxy     :     0.035389
 10 C s       :     2.882173  s :     2.882173
      pz      :     0.914090  p :     3.005332
      px      :     1.041682
      py      :     1.049560
      dz2     :     0.005395  d :     0.079314
      dxz     :     0.005607
      dyz     :     0.008959
      dx2y2   :     0.032031
      dxy     :     0.027322
 11 H s       :     0.882363  s :     0.882363
      pz      :     0.012323  p :     0.072002
      px      :     0.032778
      py      :     0.026901
 12 C s       :     2.849233  s :     2.849233
      pz      :     0.869542  p :     2.837154
      px      :     0.948438
      py      :     1.019174
      dz2     :     0.013915  d :     0.243079
      dxz     :     0.038662
      dyz     :     0.018589
      dx2y2   :     0.104229
      dxy     :     0.067685
 13 C s       :     2.835776  s :     2.835776
      pz      :     0.869501  p :     2.850792
      px      :     0.966450
      py      :     1.014841
      dz2     :     0.014309  d :     0.253236
      dxz     :     0.044037
      dyz     :     0.016164
      dx2y2   :     0.097551
      dxy     :     0.081176
 14 N s       :     3.104391  s :     3.104391
      pz      :     1.481833  p :     3.845120
      px      :     1.177129
      py      :     1.186158
      dz2     :     0.005560  d :     0.061936
[...]
      dz2     :     0.006181  d :     0.034472
      dxz     :     0.005005
      dyz     :     0.007328
      dx2y2   :     0.011119
      dxy     :     0.004839
 23 H s       :     0.905049  s :     0.905049
      pz      :     0.005023  p :     0.023578
      px      :     0.014534
      py      :     0.004020
 24 H s       :     0.918354  s :     0.918354
      pz      :     0.010537  p :     0.021845
      px      :     0.007670
      py      :     0.003638
 25 H s       :     0.918347  s :     0.918347
      pz      :     0.010549  p :     0.021845
      px      :     0.007656
      py      :     0.003640
 26 C s       :     3.016159  s :     3.016159
      pz      :     1.052586  p :     2.876425
      px      :     1.043781
      py      :     0.780058
      dz2     :     0.006244  d :     0.034663
      dxz     :     0.004391
      dyz     :     0.007918
      dx2y2   :     0.011786
      dxy     :     0.004325
 27 H s       :     0.908212  s :     0.908212
      pz      :     0.005011  p :     0.023223
      px      :     0.014601
      py      :     0.003612
 28 H s       :     0.918089  s :     0.918089
      pz      :     0.010540  p :     0.021858
      px      :     0.007459
      py      :     0.003860
 29 H s       :     0.918093  s :     0.918093
      pz      :     0.010524  p :     0.021858
      px      :     0.007476
      py      :     0.003858
 30 H s       :     0.945429  s :     0.945429
      pz      :     0.004336  p :     0.021969
      px      :     0.011497
      py      :     0.006136
 31 H s       :     0.946576  s :     0.946576
      pz      :     0.004338  p :     0.021947
      px      :     0.011475
      py      :     0.006134


                     *******************************
                     * LOEWDIN POPULATION ANALYSIS *
                     *******************************

----------------------
LOEWDIN ATOMIC CHARGES
----------------------
   0 C :    0.030714
   1 C :    0.018092
   2 C :   -0.039510
   3 C :   -0.047253
   4 H :    0.047236
   5 C :   -0.001049
   6 C :   -0.000940
   7 C :   -0.047610
   8 C :   -0.040510
   9 C :    0.017655
  10 C :    0.029855
  11 H :    0.047240
  12 C :    0.070855
  13 C :    0.060454
  14 N :   -0.011240
  15 C :    0.063425
  16 C :    0.067780
  17 N :   -0.010295
  18 O :   -0.155515
  19 O :   -0.159856
  20 O :   -0.159453
  21 O :   -0.155729
  22 C :    0.020538
  23 H :    0.037136
  24 H :    0.039617
  25 H :    0.039618
  26 C :    0.020756
  27 H :    0.036990
  28 H :    0.039267
  29 H :    0.039266
  30 H :    0.051352
  31 H :    0.051113

-------------------------------
LOEWDIN REDUCED ORBITAL CHARGES
-------------------------------
  0 C s       :     2.888753  s :     2.888753
      pz      :     0.913042  p :     3.002165
      px      :     1.045244
      py      :     1.043879
      dz2     :     0.005311  d :     0.078369
      dxz     :     0.005531
      dyz     :     0.008881
      dx2y2   :     0.027350
      dxy     :     0.031297
  1 C s       :     2.871115  s :     2.871115
      pz      :     0.914641  p :     3.025581
      px      :     1.065835
      py      :     1.045105
      dz2     :     0.005758  d :     0.085211
      dxz     :     0.006681
      dyz     :     0.009839
      dx2y2   :     0.028668
      dxy     :     0.034266
  2 C s       :     2.880780  s :     2.880780
      pz      :     0.982068  p :     3.063994
      px      :     1.055051
      py      :     1.026876
      dz2     :     0.007629  d :     0.094735
      dxz     :     0.011400
      dyz     :     0.007348
      dx2y2   :     0.036672
      dxy     :     0.031686
  3 C s       :     2.860160  s :     2.860160
      pz      :     0.973326  p :     3.081587
      px      :     1.068687
      py      :     1.039573
      dz2     :     0.008245  d :     0.105506
      dxz     :     0.013587
      dyz     :     0.008060
      dx2y2   :     0.041833
      dxy     :     0.033782
  4 H s       :     0.881652  s :     0.881652
      pz      :     0.012218  p :     0.071112
      px      :     0.033641
      py      :     0.025253
  5 C s       :     2.846371  s :     2.846371
      pz      :     0.961734  p :     3.048750
      px      :     1.042969
      py      :     1.044046
      dz2     :     0.007371  d :     0.105928
      dxz     :     0.012653
      dyz     :     0.011124
      dx2y2   :     0.036996
      dxy     :     0.037784
  6 C s       :     2.846288  s :     2.846288
      pz      :     0.961520  p :     3.048578
      px      :     1.043021
      py      :     1.044037
      dz2     :     0.007376  d :     0.106073
      dxz     :     0.012697
      dyz     :     0.011129
      dx2y2   :     0.037046
      dxy     :     0.037825
  7 C s       :     2.859994  s :     2.859994
      pz      :     0.972144  p :     3.081843
      px      :     1.068351
      py      :     1.041348
      dz2     :     0.008282  d :     0.105773
      dxz     :     0.013597
      dyz     :     0.008206
      dx2y2   :     0.041909
      dxy     :     0.033779
  8 C s       :     2.880209  s :     2.880209
      pz      :     0.981505  p :     3.065157
      px      :     1.055023
      py      :     1.028629
      dz2     :     0.007679  d :     0.095143
      dxz     :     0.011441
      dyz     :     0.007479
      dx2y2   :     0.036736
      dxy     :     0.031808
  9 C s       :     2.870873  s :     2.870873
      pz      :     0.915591  p :     3.026124
      px      :     1.065239
      py      :     1.045295
      dz2     :     0.005761  d :     0.085348
      dxz     :     0.006651
      dyz     :     0.009871
      dx2y2   :     0.028731
      dxy     :     0.034334
 10 C s       :     2.887858  s :     2.887858
      pz      :     0.913898  p :     3.003541
      px      :     1.045211
      py      :     1.044432
      dz2     :     0.005326  d :     0.078746
      dxz     :     0.005530
      dyz     :     0.008988
      dx2y2   :     0.027421
      dxy     :     0.031480
 11 H s       :     0.881775  s :     0.881775
      pz      :     0.012240  p :     0.070985
      px      :     0.033572
      py      :     0.025173
 12 C s       :     2.849217  s :     2.849217
      pz      :     0.869101  p :     2.836796
      px      :     0.948360
      py      :     1.019335
      dz2     :     0.013905  d :     0.243132
      dxz     :     0.038797
      dyz     :     0.018546
      dx2y2   :     0.103626
      dxy     :     0.068258
 13 C s       :     2.835721  s :     2.835721
      pz      :     0.869732  p :     2.850615
      px      :     0.966245
      py      :     1.014638
      dz2     :     0.014299  d :     0.253209
      dxz     :     0.043928
      dyz     :     0.016227
      dx2y2   :     0.098105
      dxy     :     0.080650
 14 N s       :     3.104261  s :     3.104261
      pz      :     1.481928  p :     3.845055
      px      :     1.177016
      py      :     1.186111
      dz2     :     0.005558  d :     0.061925
      dxz     :     0.006510
      dyz     :     0.006429
      dx2y2   :     0.020266
      dxy     :     0.023161
 15 C s       :     2.836350  s :     2.836350
      pz      :     0.867830  p :     2.847937
      px      :     0.966737
      py      :     1.013370
      dz2     :     0.014328  d :     0.252288
      dxz     :     0.044923
      dyz     :     0.015952
      dx2y2   :     0.096891
      dxy     :     0.080194
 16 C s       :     2.848741  s :     2.848741
      pz      :     0.871644  p :     2.839800
      px      :     0.947368
      py      :     1.020788
      dz2     :     0.013878  d :     0.243678
      dxz     :     0.037611
      dyz     :     0.018908
      dx2y2   :     0.104822
      dxy     :     0.068460
 17 N s       :     3.103994  s :     3.103994
      pz      :     1.481044  p :     3.844089
      px      :     1.177286
      py      :     1.185758
      dz2     :     0.005586  d :     0.062212
      dxz     :     0.006522
      dyz     :     0.006456
      dx2y2   :     0.020395
      dxy     :     0.023253
 18 O s       :     3.557373  s :     3.557373
      pz      :     1.374053  p :     4.568381
      px      :     1.565036
      py      :     1.629291
      dz2     :     0.004211  d :     0.029761
      dxz     :     0.004365
      dyz     :     0.002482
      dx2y2   :     0.006364
      dxy     :     0.012338
 19 O s       :     3.557048  s :     3.557048
      pz      :     1.381310  p :     4.572957
      px      :     1.512927
      py      :     1.678720
      dz2     :     0.004222  d :     0.029850
      dxz     :     0.005182
      dyz     :     0.001664
      dx2y2   :     0.007749
      dxy     :     0.011034
 20 O s       :     3.556081  s :     3.556081
      pz      :     1.389840  p :     4.573489
      px      :     1.507925
      py      :     1.675724
      dz2     :     0.004191  d :     0.029883
      dxz     :     0.005257
      dyz     :     0.001544
      dx2y2   :     0.008020
      dxy     :     0.010872
 21 O s       :     3.558972  s :     3.558972
      pz      :     1.365356  p :     4.567027
      px      :     1.572912
      py      :     1.628758
      dz2     :     0.004238  d :     0.029731
      dxz     :     0.004229
      dyz     :     0.002670
      dx2y2   :     0.006160
      dxy     :     0.012434
 22 C s       :     2.846480  s :     2.846480
      pz      :     1.089326  p :     3.045463
      px      :     1.098699
      py      :     0.857439
      dz2     :     0.015793  d :     0.087519
      dxz     :     0.013306
      dyz     :     0.018365
      dx2y2   :     0.028532
      dxy     :     0.011523
 23 H s       :     0.889959  s :     0.889959
      pz      :     0.012722  p :     0.072906
      px      :     0.046319
      py      :     0.013865
 24 H s       :     0.895527  s :     0.895527
      pz      :     0.031700  p :     0.064856
      px      :     0.021037
      py      :     0.012119
 25 H s       :     0.895521  s :     0.895521
      pz      :     0.031749  p :     0.064861
      px      :     0.020986
      py      :     0.012126
 26 C s       :     2.846475  s :     2.846475
      pz      :     1.090389  p :     3.044766
      px      :     1.098907
      py      :     0.855470
      dz2     :     0.015863  d :     0.088002
      dxz     :     0.011505
      dyz     :     0.020205
      dx2y2   :     0.030509
      dxy     :     0.009921
 27 H s       :     0.891555  s :     0.891555
      pz      :     0.012643  p :     0.071455
      px      :     0.046563
      py      :     0.012249
 28 H s       :     0.895777  s :     0.895777
      pz      :     0.031788  p :     0.064956
      px      :     0.020229
      py      :     0.012939
 29 H s       :     0.895778  s :     0.895778
      pz      :     0.031725  p :     0.064956
      px      :     0.020298
      py      :     0.012933
 30 H s       :     0.879062  s :     0.879062
      pz      :     0.012487  p :     0.069586
      px      :     0.037047
      py      :     0.020051
 31 H s       :     0.879424  s :     0.879424
      pz      :     0.012504  p :     0.069463
      px      :     0.036934
      py      :     0.020026


                      *****************************
                      * MAYER POPULATION ANALYSIS *
                      *****************************

  NA   - Mulliken gross atomic population
  ZA   - Total nuclear charge
  QA   - Mulliken gross atomic charge
  VA   - Mayer's total valence
  BVA  - Mayer's bonded valence
  FA   - Mayer's free valence

  ATOM       NA         ZA         QA         VA         BVA        FA
  0 C      5.9971     6.0000     0.0029     3.7615     3.7615     0.0000
  1 C      6.0285     6.0000    -0.0285     3.8231     3.8231    -0.0000
  2 C      6.0364     6.0000    -0.0364     3.6522     3.6522    -0.0000
  3 C      6.0665     6.0000    -0.0665     3.7372     3.7372    -0.0000
  4 H      0.9664     1.0000     0.0336     1.0125     1.0125     0.0000
  5 C      5.8670     6.0000     0.1330     3.7882     3.7882     0.0000
  6 C      5.8710     6.0000     0.1290     3.7914     3.7914     0.0000
  7 C      6.0627     6.0000    -0.0627     3.7365     3.7365     0.0000
  8 C      6.0296     6.0000    -0.0296     3.6513     3.6513     0.0000
  9 C      6.0279     6.0000    -0.0279     3.8144     3.8144    -0.0000
 10 C      5.9992     6.0000     0.0008     3.7569     3.7569     0.0000
 11 H      0.9676     1.0000     0.0324     1.0129     1.0129    -0.0000
 12 C      5.8623     6.0000     0.1377     4.1763     4.1763     0.0000
 13 C      5.8678     6.0000     0.1322     4.1668     4.1668     0.0000
 14 N      7.2517     7.0000    -0.2517     3.2305     3.2305    -0.0000
 15 C      5.8540     6.0000     0.1460     4.1538     4.1538    -0.0000
 16 C      5.8728     6.0000     0.1272     4.1819     4.1819    -0.0000
 17 N      7.2523     7.0000    -0.2523     3.2352     3.2352    -0.0000
 18 O      8.1745     8.0000    -0.1745     2.3643     2.3643     0.0000
 19 O      8.1787     8.0000    -0.1787     2.3600     2.3600     0.0000
 20 O      8.1751     8.0000    -0.1751     2.3720     2.3720    -0.0000
 21 O      8.1786     8.0000    -0.1786     2.3507     2.3507    -0.0000
 22 C      5.9287     6.0000     0.0713     3.9100     3.9100    -0.0000
 23 H      0.9286     1.0000     0.0714     1.0302     1.0302     0.0000
 24 H      0.9402     1.0000     0.0598     0.9979     0.9979    -0.0000
 25 H      0.9402     1.0000     0.0598     0.9979     0.9979    -0.0000
 26 C      5.9272     6.0000     0.0728     3.9130     3.9130    -0.0000
 27 H      0.9314     1.0000     0.0686     1.0285     1.0285    -0.0000
 28 H      0.9399     1.0000     0.0601     0.9985     0.9985    -0.0000
 29 H      0.9400     1.0000     0.0600     0.9985     0.9985    -0.0000
 30 H      0.9674     1.0000     0.0326     1.0012     1.0012    -0.0000
 31 H      0.9685     1.0000     0.0315     1.0009     1.0009     0.0000

  Mayer bond orders larger than 0.100000
B(  0-C ,  1-C ) :   1.2274 B(  0-C ,  2-C ) :   1.3772 B(  0-C , 30-H ) :   0.9864 
B(  1-C ,  3-C ) :   1.4747 B(  1-C ,  4-H ) :   0.9534 B(  2-C ,  5-C ) :   1.2330 
B(  2-C , 12-C ) :   0.9512 B(  3-C ,  6-C ) :   1.2196 B(  3-C , 15-C ) :   0.9218 
B(  5-C ,  6-C ) :   1.2387 B(  5-C ,  7-C ) :   1.2198 B(  6-C ,  8-C ) :   1.2321 
B(  7-C ,  9-C ) :   1.4699 B(  7-C , 13-C ) :   0.9229 B(  8-C , 10-C ) :   1.3754 
B(  8-C , 16-C ) :   0.9519 B(  9-C , 10-C ) :   1.2270 B(  9-C , 11-H ) :   0.9547 
B( 10-C , 31-H ) :   0.9867 B( 12-C , 14-N ) :   1.0492 B( 12-C , 18-O ) :   2.1002 
B( 13-C , 14-N ) :   1.0884 B( 13-C , 19-O ) :   2.0882 B( 14-N , 22-C ) :   0.9477 
B( 15-C , 17-N ) :   1.0834 B( 15-C , 20-O ) :   2.0850 B( 16-C , 17-N ) :   1.0539 
B( 16-C , 21-O ) :   2.0996 B( 17-N , 26-C ) :   0.9502 B( 22-C , 23-H ) :   0.9435 
B( 22-C , 24-H ) :   0.9652 B( 22-C , 25-H ) :   0.9652 B( 26-C , 27-H ) :   0.9428 
B( 26-C , 28-H ) :   0.9653 B( 26-C , 29-H ) :   0.9653 

-------
TIMINGS
-------

Total SCF time: 0 days 0 hours 0 min 24 sec 

Total time                  ....      24.795 sec
Sum of individual times     ....      24.165 sec  ( 97.5%)

Fock matrix formation       ....      17.452 sec  ( 70.4%)
  Split-RI-J                ....       7.382 sec  ( 42.3% of F)
  XC integration            ....       9.715 sec  ( 55.7% of F)
    Basis function eval.    ....       3.468 sec  ( 35.7% of XC)
    Density eval.           ....       2.266 sec  ( 23.3% of XC)
    XC-Functional eval.     ....       0.677 sec  (  7.0% of XC)
    XC-Potential eval.      ....       2.472 sec  ( 25.4% of XC)
Diagonalization             ....       0.019 sec  (  0.1%)
Density matrix formation    ....       0.020 sec  (  0.1%)
Population analysis         ....       0.033 sec  (  0.1%)
Initial guess               ....       0.021 sec  (  0.1%)
Orbital Transformation      ....       0.000 sec  (  0.0%)
Orbital Orthonormalization  ....       0.013 sec  (  0.1%)
DIIS solution               ....       0.006 sec  (  0.0%)
SOSCF solution              ....       0.074 sec  (  0.3%)
Grid generation             ....       6.540 sec  ( 26.4%)


-------------------------------------------------------------------------------
                          DFT DISPERSION CORRECTION                            
                                                                               
                              DFTD3 V3.1  Rev 1                                
                          USING Becke-Johnson damping                          
-------------------------------------------------------------------------------
The BP86 functional is recognized
Active option DFTDOPT                   ...         4   

molecular C6(AA) [au] = 13933.016271 


            DFT-D V3
 parameters
 s6 scaling factor         :     1.0000 
 a1 scaling factor         :     0.3946 
 s8 scaling factor         :     3.2822 
 a2 scaling factor         :     4.8516 
 ad hoc parameters k1-k3   :    16.0000     1.3333    -4.0000 

 Edisp/kcal,au: -46.996680685697  -0.074893969916 
 E6   /kcal   : -17.319210077 
 E8   /kcal   : -29.677470609 
 % E8         :  63.148014234 

-------------------------   ----------------
Dispersion correction           -0.074893970
-------------------------   ----------------


-------------------------   --------------------
FINAL SINGLE POINT ENERGY     -1025.582816193117
-------------------------   --------------------

                                *** OPTIMIZATION RUN DONE ***

                            ***************************************
                            *     ORCA property calculations      *
                            ***************************************

                                    ---------------------
                                    Active property flags
                                    ---------------------
   (+) Dipole Moment


------------------------------------------------------------------------------
                       ORCA ELECTRIC PROPERTIES CALCULATION
------------------------------------------------------------------------------

Dipole Moment Calculation                       ... on
Quadrupole Moment Calculation                   ... off
Polarizability Calculation                      ... off
GBWName                                         ... PNDI_T_Input_Napthalenediimide_1_Optimize_Monomer.gbw
Electron density file                           ... PNDI_T_Input_Napthalenediimide_1_Optimize_Monomer.scfp
The origin for moment calculation is the CENTER OF MASS  = (-2.811158,  0.382158 -0.000646)

-------------
DIPOLE MOMENT
-------------
                                X             Y             Z
Electronic contribution:     -0.25660       0.01030       0.00136
Nuclear contribution   :      0.26337      -0.00293      -0.00065
                        -----------------------------------------
Total Dipole Moment    :      0.00677       0.00737       0.00071
                        -----------------------------------------
Magnitude (a.u.)       :      0.01003
Magnitude (Debye)      :      0.02550



--------------------
Rotational spectrum 
--------------------
 
Rotational constants in cm-1:     0.020388     0.006731     0.005070 
Rotational constants in MHz :   611.215233   201.798813   152.004318 

 Dipole components along the rotational axes: 
x,y,z [a.u.] :    -0.007555     0.006563     0.000698 
x,y,z [Debye]:    -0.019204     0.016683     0.001774 

 

Timings for individual modules:

Sum of individual times         ...      448.460 sec (=   7.474 min)
GTO integral calculation        ...        9.032 sec (=   0.151 min)   2.0 %
SCF iterations                  ...      289.074 sec (=   4.818 min)  64.5 %
SCF Gradient evaluation         ...      144.216 sec (=   2.404 min)  32.2 %
Geometry relaxation             ...        6.138 sec (=   0.102 min)   1.4 %
                             ****ORCA TERMINATED NORMALLY****
TOTAL RUN TIME: 0 days 0 hours 7 minutes 38 seconds 560 msec
