
                                 *****************
                                 * O   R   C   A *
                                 *****************

           --- An Ab Initio, DFT and Semiempirical electronic structure package ---

                  #######################################################
                  #                        -***-                        #
                  #          Department of theory and spectroscopy      #
                  #               Directorship: Frank Neese             #
                  #        Max Planck Institute fuer Kohlenforschung    #
                  #                Kaiser Wilhelm Platz 1               #
                  #                 D-45470 Muelheim/Ruhr               #
                  #                      Germany                        #
                  #                                                     #
                  #                  All rights reserved                #
                  #                        -***-                        #
                  #######################################################


                         Program Version 4.2.0 -  RELEASE  -


 With contributions from (in alphabetic order):
   Daniel Aravena         : Magnetic Suceptibility
   Michael Atanasov       : Ab Initio Ligand Field Theory (pilot matlab implementation)
   Alexander A. Auer      : GIAO ZORA, VPT2
   Ute Becker             : Parallelization
   Giovanni Bistoni       : ED, misc. LED, open-shell LED, HFLED
   Martin Brehm           : Molecular dynamics
   Dmytro Bykov           : SCF Hessian
   Vijay G. Chilkuri      : MRCI spin determinant printing, contributions to CSF-ICE
   Dipayan Datta          : RHF DLPNO-CCSD density
   Achintya Kumar Dutta   : EOM-CC, STEOM-CC
   Dmitry Ganyushin       : Spin-Orbit,Spin-Spin,Magnetic field MRCI
   Miquel Garcia          : C-PCM Hessian, Gaussian charge scheme
   Yang Guo               : DLPNO-NEVPT2, CIM, IAO-localization
   Andreas Hansen         : Spin unrestricted coupled pair/coupled cluster methods
   Benjamin Helmich-Paris : CASSCF linear response (MC-RPA)
   Lee Huntington         : MR-EOM, pCC
   Robert Izsak           : Overlap fitted RIJCOSX, COSX-SCS-MP3, EOM
   Christian Kollmar      : KDIIS, OOCD, Brueckner-CCSD(T), CCSD density
   Simone Kossmann        : Meta GGA functionals, TD-DFT gradient, OOMP2, MP2 Hessian
   Martin Krupicka        : AUTO-CI
   Lucas Lang             : DCDCAS
   Dagmar Lenk            : GEPOL surface, SMD
   Dimitrios Liakos       : Extrapolation schemes; Compound Job, initial MDCI parallelization
   Dimitrios Manganas     : Further ROCIS development; embedding schemes
   Dimitrios Pantazis     : SARC Basis sets
   Taras Petrenko         : DFT Hessian,TD-DFT gradient, ASA, ECA, R-Raman, ABS, FL, XAS/XES, NRVS
   Peter Pinski           : DLPNO-MP2, DLPNO-MP2 Gradient
   Christoph Reimann      : Effective Core Potentials
   Marius Retegan         : Local ZFS, SOC
   Christoph Riplinger    : Optimizer, TS searches, QM/MM, DLPNO-CCSD(T), (RO)-DLPNO pert. Triples
   Tobias Risthaus        : Range-separated hybrids, TD-DFT gradient, RPA, STAB
   Michael Roemelt        : Original ROCIS implementation
   Masaaki Saitow         : Open-shell DLPNO-CCSD energy and density
   Barbara Sandhoefer     : DKH picture change effects
   Avijit Sen             : IP-ROCIS
   Kantharuban Sivalingam : CASSCF convergence, NEVPT2, FIC-MRCI
   Bernardo de Souza      : ESD, SOC TD-DFT
   Georgi Stoychev        : AutoAux, RI-MP2 NMR
   Willem Van den Heuvel  : Paramagnetic NMR
   Boris Wezisla          : Elementary symmetry handling
   Frank Wennmohs         : Technical directorship


 We gratefully acknowledge several colleagues who have allowed us to
 interface, adapt or use parts of their codes:
   Stefan Grimme, W. Hujo, H. Kruse,             : VdW corrections, initial TS optimization,
                  C. Bannwarth                     DFT functionals, gCP, sTDA/sTD-DF
   Ed Valeev, F. Pavosevic, A. Kumar             : LibInt (2-el integral package), F12 methods
   Garnet Chan, S. Sharma, J. Yang, R. Olivares  : DMRG
   Ulf Ekstrom                                   : XCFun DFT Library
   Mihaly Kallay                                 : mrcc  (arbitrary order and MRCC methods)
   Andreas Klamt, Michael Diedenhofen            : otool_cosmo (COSMO solvation model)
   Jiri Pittner, Ondrej Demel                    : Mk-CCSD
   Frank Weinhold                                : gennbo (NPA and NBO analysis)
   Christopher J. Cramer and Donald G. Truhlar   : smd solvation model
   Lars Goerigk                                  : TD-DFT with DH, B97 family of functionals
   V. Asgeirsson, H. Jonsson                     : NEB implementation
   FAccTs GmbH                                   : IRC, NEB, NEB-TS, Multilevel, MM, QM/MM, CI optimization
   S Lehtola, MJT Oliveira, MAL Marques          : LibXC Library


 Your calculation uses the libint2 library for the computation of 2-el integrals
 For citations please refer to: http://libint.valeyev.net

 Your ORCA version has been built with support for libXC version: 4.2.3
 For citations please refer to: https://tddft.org/programs/libxc/

 This ORCA versions uses:
   CBLAS   interface :  Fast vector & matrix operations
   LAPACKE interface :  Fast linear algebra routines
   SCALAPACK package :  Parallel linear algebra routines


Your calculation utilizes the atom-pairwise dispersion correction
with the Becke-Johnson damping scheme (D3BJ)
Cite in your paper:
S.Grimme, S.Ehrlich, L.Goerigk, J Comput Chem, (2011), 32, 1456–1465 
S.Grimme, J.Antony, S.Ehrlich and H.Krieg, J.Chem.Phys., 132, (2010), 154104 
   

----- Orbital basis set information -----
Your calculation utilizes the basis: def2-SVP
   F. Weigend and R. Ahlrichs, Phys. Chem. Chem. Phys. 7, 3297 (2005).

----- AuxJ basis set information -----
Your calculation utilizes the auxiliary basis: def2/J
   F. Weigend, Phys. Chem. Chem. Phys. 8, 1057 (2006).

================================================================================
                                        WARNINGS
                       Please study these warnings very carefully!
================================================================================


WARNING: Geometry Optimization
  ===> : Switching off AutoStart
         For restart on a previous wavefunction, please use MOREAD

INFO   : the flag for use of LIBINT has been found!

================================================================================
                                       INPUT FILE
================================================================================
NAME = PNDI_T_Optimize_Monomer.inp
|  1> ! RI BP86 def2-SVP def2/J D3BJ TIGHTSCF  Opt Grid3 FinalGrid5
|  2> %maxcore 3000
|  3> %geom
|  4> Constraints
|  5> {D 1 0 68 74 0.0 C}
|  6> {D 2 0 68 69 0.0 C}
|  7> {D 8 10 30 33 0.0 C}
|  8> {D 9 10 30 31 0.0 C}
|  9> {D 34 32 37 41 0.0 C}
| 10> {D 31 32 37 38 0.0 C}
| 11> end
| 12> end
| 13> 
| 14> *xyz 0 1
| 15> C	-4.583317	1.596476	-0.000010
| 16> C	-4.436407	0.191476	-0.000000
| 17> C	-3.335617	2.293136	-0.000030
| 18> C	-3.206857	-0.503024	-0.000000
| 19> H	-5.317217	-0.449274	-0.000000
| 20> C	-2.066207	1.570676	-0.000010
| 21> C	-1.976827	0.148846	-0.000000
| 22> C	-0.841287	2.225336	-0.000010
| 23> C	-0.697657	-0.566244	0.000030
| 24> C	0.386393	1.539426	-0.000030
| 25> C	0.547393	0.139006	0.000020
| 26> H	1.258183	2.190576	-0.000080
| 27> C	-3.209897	3.795776	-0.000130
| 28> C	-0.755437	3.693566	0.000020
| 29> N	-1.946787	4.377306	0.000060
| 30> C	-3.284857	-1.974644	-0.000020
| 31> C	-0.816297	-2.067484	0.000090
| 32> N	-2.085657	-2.652794	-0.000030
| 33> O	-4.183257	4.528516	-0.000470
| 34> O	0.339753	4.248546	-0.000010
| 35> O	-4.382687	-2.523834	-0.000030
| 36> O	0.165983	-2.794184	0.000300
| 37> C	-1.838147	5.830066	0.000020
| 38> H	-2.806007	6.336056	0.000040
| 39> H	-1.277847	6.141356	-0.888060
| 40> H	-1.277787	6.141396	0.888040
| 41> C	-2.138937	-4.109464	-0.000010
| 42> H	-3.161487	-4.497244	-0.000040
| 43> H	-1.622707	-4.484974	0.889390
| 44> H	-1.622647	-4.484984	-0.889380
| 45> C	2.007093	-0.352224	0.000030
| 46> S	3.299303	0.819846	0.000410
| 47> C	4.656953	-0.263934	0.000030
| 48> C	2.645343	-1.575404	-0.000160
| 49> C	4.094013	-1.525754	-0.000180
| 50> H	2.175453	-2.542994	-0.000350
| 51> H	4.619153	-2.463164	-0.000390
| 52> C	6.086393	0.319846	0.000010
| 53> C	6.171503	1.743426	-0.000030
| 54> C	7.364743	2.483796	-0.000020
| 55> H	5.269843	2.354346	-0.000060
| 56> C	7.363823	-0.344604	0.000020
| 57> C	8.584973	1.835886	-0.000010
| 58> C	8.601883	0.414066	-0.000000
| 59> C	9.886163	-0.172224	-0.000010
| 60> C	9.778133	2.585466	-0.000010
| 61> C	11.075123	0.579606	-0.000010
| 62> C	11.021713	1.959536	-0.000010
| 63> H	12.047823	0.087436	-0.000010
| 64> H	11.944623	2.537776	-0.000000
| 65> C	7.290883	3.971256	-0.000020
| 66> C	9.746673	4.065976	-0.000010
| 67> N	8.494803	4.664166	-0.000010
| 68> C	7.561303	-1.839294	0.000110
| 69> C	10.030673	-1.630944	-0.000040
| 70> N	8.859303	-2.361754	-0.000060
| 71> O	6.190833	4.515176	-0.000020
| 72> O	10.802033	4.693976	-0.000010
| 73> O	6.613733	-2.608834	0.000400
| 74> O	11.151673	-2.132304	-0.000030
| 75> C	8.472143	6.116816	-0.000010
| 76> H	7.457533	6.521416	-0.000010
| 77> H	9.002513	6.479486	-0.887050
| 78> H	9.002513	6.479476	0.887030
| 79> C	9.034983	-3.807324	-0.000020
| 80> H	8.091523	-4.356684	-0.000040
| 81> H	9.610793	-4.092774	0.887230
| 82> H	9.610833	-4.092804	-0.887230
| 83> C	-6.028157	2.125926	-0.000000
| 84> C	-6.626147	3.383986	0.000090
| 85> C	-8.057667	3.403576	0.000020
| 86> H	-6.131377	4.335376	0.000190
| 87> C	-8.582927	2.144216	-0.000030
| 88> H	-8.653917	4.308396	0.000040
| 89> S	-7.364877	0.968626	-0.000070
| 90> H	-9.627467	1.863896	-0.000050
| 91> **                         ****END OF INPUT****
================================================================================

                       *****************************
                       * Geometry Optimization Run *
                       *****************************

Geometry optimization settings:
Update method            Update   .... BFGS
Choice of coordinates    CoordSys .... Z-matrix Internals
Initial Hessian          InHess   .... Almoef's Model

Convergence Tolerances:
Energy Change            TolE     ....  5.0000e-06 Eh
Max. Gradient            TolMAXG  ....  3.0000e-04 Eh/bohr
RMS Gradient             TolRMSG  ....  1.0000e-04 Eh/bohr
Max. Displacement        TolMAXD  ....  4.0000e-03 bohr
RMS Displacement         TolRMSD  ....  2.0000e-03 bohr
Strict Convergence                ....  False
------------------------------------------------------------------------------
                        ORCA OPTIMIZATION COORDINATE SETUP
------------------------------------------------------------------------------

The optimization will be done in new redundant internal coordinates
Making redundant internal coordinates   ...  (new redundants) done
Evaluating the initial hessian          ...  (Almloef) done
Evaluating the coordinates              ...  done
Calculating the B-matrix                .... done
Calculating the G-matrix                .... done
Diagonalizing the G-matrix              .... done
Imposing constraints:
 Iter   0:  RMS(Cart)=    0.0001478895 RMS(Int)=    0.0001078218
 Iter   1:  RMS(Cart)=    0.0000741042 RMS(Int)=    0.0000540920
 Iter   2:  RMS(Cart)=    0.0000371484 RMS(Int)=    0.0000271796
 Iter   3:  RMS(Cart)=    0.0000186327 RMS(Int)=    0.0000136885
 Iter   4:  RMS(Cart)=    0.0000093522 RMS(Int)=    0.0000069172
 Iter   5:  RMS(Cart)=    0.0000046983 RMS(Int)=    0.0000035125
 Iter   6:  RMS(Cart)=    0.0000023631 RMS(Int)=    0.0000017959
 Iter   7:  RMS(Cart)=    0.0000011904 RMS(Int)=    0.0000009271
 Iter   8:  RMS(Cart)=    0.0000006010 RMS(Int)=    0.0000004848
 Iter   9:  RMS(Cart)=    0.0000003043 RMS(Int)=    0.0000002577
 Iter  10:  RMS(Cart)=    0.0000001547 RMS(Int)=    0.0000001397
 Iter  11:  RMS(Cart)=    0.0000000791 RMS(Int)=    0.0000000774
CONVERGED
Small eigenvalue found = 3.697e-04
Small eigenvalue found = 2.283e-03
Small eigenvalue found = 2.988e-03
Small eigenvalue found = 3.286e-03
Small eigenvalue found = 5.280e-03
Small eigenvalue found = 7.320e-03
Small eigenvalue found = 1.626e-02
Small eigenvalue found = 2.050e-02
Small eigenvalue found = 2.620e-02
The first mode is                       ....  229
The number of degrees of freedom        ....  222
Storing new coordinates                 .... done

    -----------------------------------------------------------------
                    Redundant Internal Coordinates


    -----------------------------------------------------------------
         Definition                    Initial Value    Approx d2E/dq
    -----------------------------------------------------------------
      1. B(C   1,C   0)                  1.4127         0.574892   
      2. B(C   2,C   0)                  1.4290         0.541363   
      3. B(C   3,C   1)                  1.4121         0.576003   
      4. B(H   4,C   1)                  1.0892         0.361141   
      5. B(C   5,C   2)                  1.4606         0.482061   
      6. B(C   6,C   3)                  1.3921         0.620023   
      7. B(C   6,C   5)                  1.4246         0.550146   
      8. B(C   7,C   5)                  1.3889         0.627355   
      9. B(C   8,C   6)                  1.4655         0.473496   
     10. B(C   9,C   7)                  1.4063         0.588489   
     11. B(C  10,C   8)                  1.4309         0.537596   
     12. B(C  10,C   9)                  1.4096         0.581296   
     13. B(H  11,C   9)                  1.0881         0.362590   
     14. B(C  12,C   2)                  1.5079         0.405184   
     15. B(C  13,C   7)                  1.4707         0.464437   
     16. B(N  14,C  12)                  1.3905         0.558471   
     17. B(N  14,C  13)                  1.3736         0.594317   
     18. B(C  15,C   3)                  1.4737         0.459434   
     19. B(C  16,C   8)                  1.5059         0.408126   
     20. B(N  17,C  15)                  1.3777         0.585532   
     21. B(N  17,C  16)                  1.3978         0.543777   
     22. B(O  18,C  12)                  1.2183         1.051375   
     23. B(O  19,C  13)                  1.2278         1.015517   
     24. B(O  20,C  15)                  1.2275         1.016434   
     25. B(O  21,C  16)                  1.2219         1.037805   
     26. B(C  22,N  14)                  1.4568         0.437798   
     27. B(H  23,C  22)                  1.0921         0.357275   
     28. B(H  24,C  22)                  1.0952         0.353250   
     29. B(H  25,C  22)                  1.0952         0.353259   
     30. B(C  26,N  17)                  1.4576         0.436469   
     31. B(H  27,C  26)                  1.0936         0.355357   
     32. B(H  28,C  26)                  1.0948         0.353838   
     33. B(H  29,C  26)                  1.0948         0.353828   
     34. B(C  30,C  10)                  1.5401         0.359915   
     35. B(S  31,C  30)                  1.7446         0.457929   
     36. B(C  32,S  31)                  1.7372         0.470548   
     37. B(C  33,C  30)                  1.3797         0.648925   
     38. B(C  34,C  32)                  1.3817         0.644144   
     39. B(C  34,C  33)                  1.4495         0.502085   
     40. B(H  35,C  33)                  1.0757         0.379590   
     41. B(H  36,C  34)                  1.0745         0.381226   
     42. B(C  37,C  32)                  1.5441         0.354779   
     43. B(C  38,C  37)                  1.4261         0.547152   
     44. B(C  39,C  38)                  1.4043         0.592890   
     45. B(H  40,C  38)                  1.0891         0.361247   
     46. B(C  41,C  37)                  1.4399         0.520141   
     47. B(C  42,C  39)                  1.3816         0.644437   
     48. B(C  43,C  41)                  1.4520         0.497489   
     49. B(C  43,C  42)                  1.4219         0.555663   
     50. B(C  44,C  43)                  1.4118         0.576762   
     51. B(C  45,C  42)                  1.4091         0.582506   
     52. B(C  46,C  44)                  1.4067         0.587564   
     53. B(C  47,C  45)                  1.3922         0.619719   
     54. B(C  47,C  46)                  1.3810         0.645886   
     55. B(H  48,C  46)                  1.0901         0.359932   
     56. B(H  49,C  47)                  1.0891         0.361301   
     57. B(C  50,C  39)                  1.4893         0.433834   
     58. B(C  51,C  45)                  1.4808         0.447510   
     59. B(N  52,C  50)                  1.3891         0.561488   
     60. B(N  52,C  51)                  1.3874         0.564870   
     61. B(C  53,C  41)                  1.5077         0.405498   
     62. B(C  54,C  44)                  1.4659         0.472833   
     63. B(N  55,C  53)                  1.3992         0.540995   
     64. B(N  55,C  54)                  1.3806         0.579155   
     65. B(O  56,C  50)                  1.2272         1.017776   
     66. B(O  57,C  51)                  1.2281         1.014416   
     67. B(O  58,C  53)                  1.2207         1.042320   
     68. B(O  59,C  54)                  1.2280         1.014668   
     69. B(C  60,N  52)                  1.4528         0.444262   
     70. B(H  61,C  60)                  1.0923         0.357061   
     71. B(H  62,C  60)                  1.0953         0.353169   
     72. B(H  63,C  60)                  1.0953         0.353173   
     73. B(C  64,N  55)                  1.4562         0.438781   
     74. B(H  65,C  64)                  1.0917         0.357795   
     75. B(H  66,C  64)                  1.0956         0.352820   
     76. B(H  67,C  64)                  1.0956         0.352824   
     77. B(C  68,C   0)                  1.5388         0.361702   
     78. B(C  69,C  68)                  1.3929         0.618064   
     79. B(C  70,C  69)                  1.4317         0.536145   
     80. B(H  71,C  69)                  1.0724         0.384219   
     81. B(C  72,C  70)                  1.3645         0.686131   
     82. B(H  73,C  70)                  1.0836         0.368651   
     83. B(S  74,C  68)                  1.7681         0.420028   
     84. B(S  74,C  72)                  1.6928         0.553819   
     85. B(H  75,C  72)                  1.0815         0.371521   
     86. A(C   2,C   0,C  68)          130.6980         0.385209   
     87. A(C   1,C   0,C   2)          113.2078         0.417962   
     88. A(C   1,C   0,C  68)          116.0942         0.389265   
     89. A(C   0,C   1,H   4)          120.0649         0.348605   
     90. A(C   3,C   1,H   4)          114.5062         0.348718   
     91. A(C   0,C   1,C   3)          125.4288         0.422612   
     92. A(C   0,C   2,C  12)          123.9596         0.392918   
     93. A(C   5,C   2,C  12)          114.8630         0.385041   
     94. A(C   0,C   2,C   5)          121.1774         0.405107   
     95. A(C   1,C   3,C   6)          122.6185         0.428368   
     96. A(C   1,C   3,C  15)          116.4255         0.406106   
     97. A(C   6,C   3,C  15)          120.9559         0.411436   
     98. A(C   2,C   5,C   6)          123.2426         0.406260   
     99. A(C   2,C   5,C   7)          122.2321         0.415832   
    100. A(C   6,C   5,C   7)          114.5253         0.425753   
    101. A(C   3,C   6,C   5)          114.3249         0.424858   
    102. A(C   5,C   6,C   8)          122.8034         0.404976   
    103. A(C   3,C   6,C   8)          122.8717         0.413644   
    104. A(C   9,C   7,C  13)          115.8459         0.408431   
    105. A(C   5,C   7,C  13)          121.4687         0.413089   
    106. A(C   5,C   7,C   9)          122.6854         0.430928   
    107. A(C  10,C   8,C  16)          124.0477         0.392936   
    108. A(C   6,C   8,C  16)          114.6878         0.384326   
    109. A(C   6,C   8,C  10)          121.2646         0.403330   
    110. A(C   7,C   9,C  10)          125.7505         0.425077   
    111. A(C   7,C   9,H  11)          114.0512         0.350219   
    112. A(C  10,C   9,H  11)          120.1982         0.349493   
    113. A(C   8,C  10,C   9)          112.9708         0.418267   
    114. A(C   8,C  10,C  30)          131.8714         0.384410   
    115. A(C   9,C  10,C  30)          115.1578         0.389682   
    116. A(C   2,C  12,N  14)          119.5037         0.392548   
    117. A(C   2,C  12,O  18)          122.1897         0.439279   
    118. A(N  14,C  12,O  18)          118.3066         0.462565   
    119. A(C   7,C  13,O  19)          120.2197         0.447442   
    120. A(N  14,C  13,O  19)          123.2743         0.464898   
    121. A(C   7,C  13,N  14)          116.5060         0.406510   
    122. A(C  12,N  14,C  22)          118.9978         0.395371   
    123. A(C  13,N  14,C  22)          115.5757         0.399716   
    124. A(C  12,N  14,C  13)          125.4265         0.417317   
    125. A(C   3,C  15,O  20)          119.6105         0.446638   
    126. A(N  17,C  15,O  20)          123.9352         0.463710   
    127. A(C   3,C  15,N  17)          116.4542         0.404667   
    128. A(C   8,C  16,O  21)          121.9758         0.438823   
    129. A(N  17,C  16,O  21)          118.7509         0.459227   
    130. A(C   8,C  16,N  17)          119.2733         0.391216   
    131. A(C  15,N  17,C  16)          125.7570         0.414243   
    132. A(C  15,N  17,C  26)          117.3935         0.398457   
    133. A(C  16,N  17,C  26)          116.8495         0.393319   
    134. A(N  14,C  22,H  23)          113.3235         0.330484   
    135. A(N  14,C  22,H  24)          108.7600         0.329865   
    136. A(H  23,C  22,H  24)          108.7658         0.289606   
    137. A(N  14,C  22,H  25)          108.7599         0.329867   
    138. A(H  23,C  22,H  25)          108.7660         0.289607   
    139. A(H  24,C  22,H  25)          108.3559         0.289093   
    140. A(N  17,C  26,H  27)          112.8629         0.330024   
    141. A(N  17,C  26,H  28)          108.9988         0.329790   
    142. A(H  27,C  26,H  28)          108.6205         0.289437   
    143. A(N  17,C  26,H  29)          108.9977         0.329789   
    144. A(H  27,C  26,H  29)          108.6206         0.289436   
    145. A(H  28,C  26,H  29)          108.6597         0.289242   
    146. A(C  10,C  30,S  31)          119.1916         0.393877   
    147. A(C  10,C  30,C  33)          136.1549         0.397266   
    148. A(S  31,C  30,C  33)          104.6535         0.437390   
    149. A(C  30,S  31,C  32)           99.1916         0.435687   
    150. A(C  34,C  32,C  37)          136.2582         0.395751   
    151. A(S  31,C  32,C  37)          119.1855         0.394762   
    152. A(S  31,C  32,C  34)          104.5563         0.438954   
    153. A(C  30,C  33,C  34)          115.5924         0.421390   
    154. A(C  30,C  33,H  35)          126.5421         0.358847   
    155. A(C  34,C  33,H  35)          117.8655         0.343624   
    156. A(C  32,C  34,C  33)          116.0062         0.420835   
    157. A(C  32,C  34,H  36)          126.6991         0.358658   
    158. A(C  33,C  34,H  36)          117.2948         0.343872   
    159. A(C  32,C  37,C  38)          115.6364         0.384627   
    160. A(C  32,C  37,C  41)          130.3040         0.381259   
    161. A(C  38,C  37,C  41)          114.0596         0.411369   
    162. A(C  37,C  38,C  39)          125.2398         0.421063   
    163. A(C  37,C  38,H  40)          120.6982         0.345732   
    164. A(C  39,C  38,H  40)          114.0620         0.350440   
    165. A(C  38,C  39,C  42)          120.2145         0.433594   
    166. A(C  38,C  39,C  50)          118.9757         0.404072   
    167. A(C  42,C  39,C  50)          120.8098         0.410073   
    168. A(C  37,C  41,C  43)          121.0195         0.404500   
    169. A(C  37,C  41,C  53)          125.0074         0.390233   
    170. A(C  43,C  41,C  53)          113.9731         0.387212   
    171. A(C  39,C  42,C  43)          118.6485         0.428573   
    172. A(C  39,C  42,C  45)          119.8946         0.432218   
    173. A(C  43,C  42,C  45)          121.4569         0.420895   
    174. A(C  41,C  43,C  42)          120.8181         0.409253   
    175. A(C  41,C  43,C  44)          123.9632         0.411966   
    176. A(C  42,C  43,C  44)          115.2187         0.420152   
    177. A(C  43,C  44,C  46)          123.1558         0.424362   
    178. A(C  43,C  44,C  54)          120.1949         0.408271   
    179. A(C  46,C  44,C  54)          116.6493         0.409615   
    180. A(C  42,C  45,C  47)          121.1442         0.429193   
    181. A(C  42,C  45,C  51)          120.9210         0.405027   
    182. A(C  47,C  45,C  51)          117.9348         0.409487   
    183. A(C  44,C  46,C  47)          120.0904         0.433065   
    184. A(C  44,C  46,H  48)          120.8544         0.349691   
    185. A(C  47,C  46,H  48)          119.0552         0.355335   
    186. A(C  45,C  47,C  46)          118.9340         0.437240   
    187. A(C  45,C  47,H  49)          121.2138         0.353081   
    188. A(C  46,C  47,H  49)          119.8523         0.355564   
    189. A(C  39,C  50,N  52)          117.0797         0.397654   
    190. A(C  39,C  50,O  56)          119.1528         0.442132   
    191. A(N  52,C  50,O  56)          123.7675         0.460281   
    192. A(C  45,C  51,N  52)          116.7575         0.400253   
    193. A(C  45,C  51,O  57)          119.5378         0.444356   
    194. A(N  52,C  51,O  57)          123.7047         0.460508   
    195. A(C  50,N  52,C  51)          124.5374         0.413958   
    196. A(C  50,N  52,C  60)          119.0287         0.396764   
    197. A(C  51,N  52,C  60)          116.4339         0.397183   
    198. A(C  41,C  53,N  55)          119.4517         0.390424   
    199. A(C  41,C  53,O  58)          121.5543         0.438655   
    200. A(N  55,C  53,O  58)          118.9939         0.459161   
    201. A(C  44,C  54,N  55)          116.3021         0.405941   
    202. A(C  44,C  54,O  59)          119.7539         0.448831   
    203. A(N  55,C  54,O  59)          123.9440         0.462635   
    204. A(C  53,N  55,C  54)          126.1149         0.413062   
    205. A(C  53,N  55,C  64)          118.8545         0.393329   
    206. A(C  54,N  55,C  64)          115.0306         0.398060   
    207. A(N  52,C  60,H  61)          112.6345         0.331253   
    208. A(N  52,C  60,H  62)          108.8762         0.330653   
    209. A(H  61,C  60,H  62)          109.0950         0.289568   
    210. A(N  52,C  60,H  63)          108.8757         0.330654   
    211. A(H  61,C  60,H  63)          109.0952         0.289569   
    212. A(H  62,C  60,H  63)          108.1661         0.289072   
    213. A(H  65,C  64,H  66)          108.8507         0.289617   
    214. A(N  55,C  64,H  67)          108.7880         0.329922   
    215. A(H  65,C  64,H  67)          108.8501         0.289617   
    216. A(H  66,C  64,H  67)          108.1612         0.288982   
    217. A(N  55,C  64,H  65)          113.2823         0.330686   
    218. A(N  55,C  64,H  66)          108.7887         0.329921   
    219. A(C   0,C  68,C  69)          135.5480         0.394227   
    220. A(C   0,C  68,S  74)          118.9898         0.388309   
    221. A(C  69,C  68,S  74)          105.4622         0.426897   
    222. A(C  68,C  69,C  70)          116.2070         0.422665   
    223. A(C  68,C  69,H  71)          127.1003         0.356620   
    224. A(C  70,C  69,H  71)          116.6926         0.348145   
    225. A(C  69,C  70,C  72)          111.8562         0.430649   
    226. A(C  69,C  70,H  73)          124.1677         0.345730   
    227. A(C  72,C  70,H  73)          123.9760         0.360471   
    228. A(C  70,C  72,S  74)          111.3435         0.457328   
    229. A(C  70,C  72,H  75)          127.6626         0.360948   
    230. A(S  74,C  72,H  75)          120.9939         0.366264   
    231. A(C  68,S  74,C  72)           95.1310         0.441746   
    232. D(C   3,C   1,C   0,C   2)     -0.0000         0.022688   
    233. D(C   3,C   1,C   0,C  68)   -179.9993         0.022688   
    234. D(H   4,C   1,C   0,C   2)   -179.9994         0.022688   
    235. D(H   4,C   1,C   0,C  68)      0.0013         0.022688   
    236. D(C   5,C   2,C   0,C   1)     -0.0009         0.020028   
    237. D(C   5,C   2,C   0,C  68)    179.9982         0.020028   
    238. D(C  12,C   2,C   0,C   1)    179.9965         0.020028   
    239. D(C  12,C   2,C   0,C  68)     -0.0044         0.020028   
    240. D(C   6,C   3,C   1,C   0)      0.0006         0.022780   
    241. D(C   6,C   3,C   1,H   4)   -179.9999         0.022780   
    242. D(C  15,C   3,C   1,C   0)   -179.9986         0.022780   
    243. D(C  15,C   3,C   1,H   4)      0.0009         0.022780   
    244. D(C   6,C   5,C   2,C   0)      0.0013         0.015822   
    245. D(C   6,C   5,C   2,C  12)   -179.9963         0.015822   
    246. D(C   7,C   5,C   2,C   0)   -179.9991         0.015822   
    247. D(C   7,C   5,C   2,C  12)      0.0033         0.015822   
    248. D(C   5,C   6,C   3,C   1)     -0.0003         0.026601   
    249. D(C   3,C   6,C   5,C   7)    179.9997         0.020705   
    250. D(C   8,C   6,C   3,C   1)    179.9986         0.026601   
    251. D(C   8,C   6,C   3,C  15)     -0.0023         0.026601   
    252. D(C   8,C   6,C   5,C   7)      0.0008         0.020705   
    253. D(C   5,C   6,C   3,C  15)    179.9989         0.026601   
    254. D(C   8,C   6,C   5,C   2)   -179.9995         0.020705   
    255. D(C   3,C   6,C   5,C   2)     -0.0006         0.020705   
    256. D(C   9,C   7,C   5,C   2)   -179.9981         0.027274   
    257. D(C   9,C   7,C   5,C   6)      0.0016         0.027274   
    258. D(C  13,C   7,C   5,C   2)      0.0023         0.027274   
    259. D(C  13,C   7,C   5,C   6)   -179.9980         0.027274   
    260. D(C  10,C   8,C   6,C   3)    179.9995         0.015265   
    261. D(C  10,C   8,C   6,C   5)     -0.0017         0.015265   
    262. D(C  16,C   8,C   6,C   3)     -0.0013         0.015265   
    263. D(C  16,C   8,C   6,C   5)    179.9975         0.015265   
    264. D(C  10,C   9,C   7,C  13)    179.9962         0.023827   
    265. D(C  10,C   9,C   7,C   5)     -0.0034         0.023827   
    266. D(H  11,C   9,C   7,C  13)     -0.0033         0.023827   
    267. D(H  11,C   9,C   7,C   5)    179.9971         0.023827   
    268. D(C  30,C  10,C   8,C   6)    179.9998         0.019742   
    269. D(C  30,C  10,C   9,C   7)   -179.9974         0.023220   
    270. D(C   9,C  10,C   8,C  16)   -179.9990         0.019742   
    271. D(C  30,C  10,C   8,C  16)      0.0007         0.019742   
    272. D(C   8,C  10,C   9,H  11)   -179.9982         0.023220   
    273. D(C   9,C  10,C   8,C   6)      0.0002         0.019742   
    274. D(C  30,C  10,C   9,H  11)      0.0021         0.023220   
    275. D(C   8,C  10,C   9,C   7)      0.0023         0.023220   
    276. D(N  14,C  12,C   2,C   0)    179.9904         0.011273   
    277. D(N  14,C  12,C   2,C   5)     -0.0121         0.011273   
    278. D(O  18,C  12,C   2,C   0)     -0.0149         0.011273   
    279. D(O  18,C  12,C   2,C   5)    179.9826         0.011273   
    280. D(N  14,C  13,C   7,C   9)   -179.9991         0.014691   
    281. D(N  14,C  13,C   7,C   5)      0.0005         0.014691   
    282. D(O  19,C  13,C   7,C   9)      0.0020         0.014691   
    283. D(O  19,C  13,C   7,C   5)   -179.9984         0.014691   
    284. D(C  13,N  14,C  12,C   2)      0.0164         0.024901   
    285. D(C  22,N  14,C  13,C   7)   -179.9970         0.028423   
    286. D(C  22,N  14,C  12,C   2)   -179.9973         0.024901   
    287. D(C  22,N  14,C  12,O  18)      0.0078         0.024901   
    288. D(C  12,N  14,C  13,C   7)     -0.0103         0.028423   
    289. D(C  13,N  14,C  12,O  18)   -179.9784         0.024901   
    290. D(C  12,N  14,C  13,O  19)    179.9886         0.028423   
    291. D(C  22,N  14,C  13,O  19)      0.0020         0.028423   
    292. D(N  17,C  15,C   3,C   1)    179.9996         0.014379   
    293. D(N  17,C  15,C   3,C   6)      0.0004         0.014379   
    294. D(O  20,C  15,C   3,C   1)     -0.0003         0.014379   
    295. D(O  20,C  15,C   3,C   6)   -179.9995         0.014379   
    296. D(N  17,C  16,C   8,C   6)      0.0067         0.011429   
    297. D(N  17,C  16,C   8,C  10)   -179.9941         0.011429   
    298. D(O  21,C  16,C   8,C   6)   -179.9901         0.011429   
    299. D(O  21,C  16,C   8,C  10)      0.0092         0.011429   
    300. D(C  16,N  17,C  15,C   3)      0.0057         0.027533   
    301. D(C  16,N  17,C  15,O  20)   -179.9945         0.027533   
    302. D(C  26,N  17,C  15,C   3)    179.9982         0.027533   
    303. D(C  26,N  17,C  15,O  20)     -0.0019         0.027533   
    304. D(C  15,N  17,C  16,C   8)     -0.0094         0.023540   
    305. D(C  15,N  17,C  16,O  21)    179.9874         0.023540   
    306. D(C  26,N  17,C  16,C   8)    179.9980         0.023540   
    307. D(C  26,N  17,C  16,O  21)     -0.0051         0.023540   
    308. D(H  23,C  22,N  14,C  12)      0.0116         0.016343   
    309. D(H  23,C  22,N  14,C  13)    179.9992         0.016343   
    310. D(H  24,C  22,N  14,C  12)   -121.0811         0.016343   
    311. D(H  24,C  22,N  14,C  13)     58.9065         0.016343   
    312. D(H  25,C  22,N  14,C  12)    121.1046         0.016343   
    313. D(H  25,C  22,N  14,C  13)    -58.9079         0.016343   
    314. D(H  27,C  26,N  17,C  15)      0.0029         0.016243   
    315. D(H  27,C  26,N  17,C  16)    179.9961         0.016243   
    316. D(H  28,C  26,N  17,C  15)   -120.7718         0.016243   
    317. D(H  28,C  26,N  17,C  16)     59.2214         0.016243   
    318. D(H  29,C  26,N  17,C  15)    120.7770         0.016243   
    319. D(H  29,C  26,N  17,C  16)    -59.2298         0.016243   
    320. D(S  31,C  30,C  10,C   8)   -179.9996         0.009048   
    321. D(S  31,C  30,C  10,C   9)      0.0000         0.009048 C 
    322. D(C  33,C  30,C  10,C   8)     -0.0000         0.009048 C 
    323. D(C  33,C  30,C  10,C   9)    179.9996         0.009048   
    324. D(C  32,S  31,C  30,C  10)   -179.9911         0.004582   
    325. D(C  32,S  31,C  30,C  33)      0.0092         0.004582   
    326. D(C  34,C  32,S  31,C  30)     -0.0084         0.004763   
    327. D(C  37,C  32,S  31,C  30)    179.9916         0.004763   
    328. D(C  34,C  33,C  30,C  10)    179.9930         0.029313   
    329. D(C  34,C  33,C  30,S  31)     -0.0073         0.029313   
    330. D(H  35,C  33,C  30,C  10)     -0.0031         0.029313   
    331. D(H  35,C  33,C  30,S  31)    179.9966         0.029313   
    332. D(C  33,C  34,C  32,S  31)      0.0054         0.028853   
    333. D(C  33,C  34,C  32,C  37)   -179.9947         0.028853   
    334. D(H  36,C  34,C  32,S  31)   -179.9972         0.028853   
    335. D(H  36,C  34,C  32,C  37)      0.0028         0.028853   
    336. D(C  32,C  34,C  33,C  30)      0.0014         0.017172   
    337. D(C  32,C  34,C  33,H  35)    179.9979         0.017172   
    338. D(H  36,C  34,C  33,C  30)   -179.9963         0.017172   
    339. D(H  36,C  34,C  33,H  35)      0.0002         0.017172   
    340. D(C  38,C  37,C  32,S  31)     -0.0000         0.008816 C 
    341. D(C  38,C  37,C  32,C  34)   -180.0000         0.008816   
    342. D(C  41,C  37,C  32,S  31)    180.0000         0.008816   
    343. D(C  41,C  37,C  32,C  34)     -0.0000         0.008816 C 
    344. D(C  39,C  38,C  37,C  32)    179.9982         0.020473   
    345. D(C  39,C  38,C  37,C  41)     -0.0018         0.020473   
    346. D(H  40,C  38,C  37,C  32)     -0.0011         0.020473   
    347. D(H  40,C  38,C  37,C  41)    179.9989         0.020473   
    348. D(C  42,C  39,C  38,C  37)      0.0020         0.024203   
    349. D(C  42,C  39,C  38,H  40)   -179.9987         0.024203   
    350. D(C  50,C  39,C  38,C  37)   -179.9980         0.024203   
    351. D(C  50,C  39,C  38,H  40)      0.0013         0.024203   
    352. D(C  43,C  41,C  37,C  32)   -179.9997         0.018451   
    353. D(C  43,C  41,C  37,C  38)      0.0003         0.018451   
    354. D(C  53,C  41,C  37,C  32)     -0.0024         0.018451   
    355. D(C  53,C  41,C  37,C  38)    179.9976         0.018451   
    356. D(C  43,C  42,C  39,C  38)     -0.0005         0.028882   
    357. D(C  43,C  42,C  39,C  50)    179.9995         0.028882   
    358. D(C  45,C  42,C  39,C  38)    179.9995         0.028882   
    359. D(C  45,C  42,C  39,C  50)     -0.0005         0.028882   
    360. D(C  42,C  43,C  41,C  37)      0.0010         0.016856   
    361. D(C  42,C  43,C  41,C  53)   -179.9966         0.016856   
    362. D(C  44,C  43,C  41,C  37)   -179.9991         0.016856   
    363. D(C  44,C  43,C  41,C  53)      0.0034         0.016856   
    364. D(C  41,C  43,C  42,C  39)     -0.0009         0.021137   
    365. D(C  41,C  43,C  42,C  45)    179.9991         0.021137   
    366. D(C  44,C  43,C  42,C  39)    179.9991         0.021137   
    367. D(C  44,C  43,C  42,C  45)     -0.0009         0.021137   
    368. D(C  46,C  44,C  43,C  41)   -179.9991         0.022843   
    369. D(C  46,C  44,C  43,C  42)      0.0009         0.022843   
    370. D(C  54,C  44,C  43,C  41)      0.0018         0.022843   
    371. D(C  54,C  44,C  43,C  42)   -179.9983         0.022843   
    372. D(C  47,C  45,C  42,C  39)   -179.9995         0.023322   
    373. D(C  47,C  45,C  42,C  43)      0.0005         0.023322   
    374. D(C  51,C  45,C  42,C  39)      0.0005         0.023322   
    375. D(C  51,C  45,C  42,C  43)   -179.9995         0.023322   
    376. D(C  47,C  46,C  44,C  43)     -0.0005         0.023748   
    377. D(C  47,C  46,C  44,C  54)    179.9987         0.023748   
    378. D(H  48,C  46,C  44,C  43)    179.9995         0.023748   
    379. D(H  48,C  46,C  44,C  54)     -0.0013         0.023748   
    380. D(C  46,C  47,C  45,C  42)     -0.0000         0.026574   
    381. D(C  46,C  47,C  45,C  51)    180.0000         0.026574   
    382. D(H  49,C  47,C  45,C  42)   -179.9994         0.026574   
    383. D(H  49,C  47,C  45,C  51)      0.0006         0.026574   
    384. D(C  45,C  47,C  46,C  44)      0.0000         0.029021   
    385. D(C  45,C  47,C  46,H  48)   -180.0000         0.029021   
    386. D(H  49,C  47,C  46,C  44)    179.9994         0.029021   
    387. D(H  49,C  47,C  46,H  48)     -0.0006         0.029021   
    388. D(N  52,C  50,C  39,C  38)   -180.0000         0.012852   
    389. D(N  52,C  50,C  39,C  42)      0.0000         0.012852   
    390. D(O  56,C  50,C  39,C  38)      0.0005         0.012852   
    391. D(O  56,C  50,C  39,C  42)   -179.9995         0.012852   
    392. D(N  52,C  51,C  45,C  42)      0.0000         0.013654   
    393. D(N  52,C  51,C  45,C  47)   -180.0000         0.013654   
    394. D(O  57,C  51,C  45,C  42)   -180.0000         0.013654   
    395. D(O  57,C  51,C  45,C  47)      0.0000         0.013654   
    396. D(C  51,N  52,C  50,C  39)      0.0005         0.025186   
    397. D(C  51,N  52,C  50,O  56)   -180.0000         0.025186   
    398. D(C  60,N  52,C  50,C  39)    180.0000         0.025186   
    399. D(C  60,N  52,C  50,O  56)     -0.0005         0.025186   
    400. D(C  50,N  52,C  51,C  45)     -0.0005         0.025508   
    401. D(C  50,N  52,C  51,O  57)    179.9995         0.025508   
    402. D(C  60,N  52,C  51,C  45)    180.0000         0.025508   
    403. D(C  60,N  52,C  51,O  57)      0.0000         0.025508   
    404. D(N  55,C  53,C  41,C  37)    179.9920         0.011290   
    405. D(N  55,C  53,C  41,C  43)     -0.0106         0.011290   
    406. D(O  58,C  53,C  41,C  37)     -0.0120         0.011290   
    407. D(O  58,C  53,C  41,C  43)    179.9855         0.011290   
    408. D(N  55,C  54,C  44,C  43)      0.0001         0.015223   
    409. D(N  55,C  54,C  44,C  46)   -179.9991         0.015223   
    410. D(O  59,C  54,C  44,C  43)   -179.9990         0.015223   
    411. D(O  59,C  54,C  44,C  46)      0.0018         0.015223   
    412. D(C  54,N  55,C  53,C  41)      0.0140         0.023287   
    413. D(C  54,N  55,C  53,O  58)   -179.9822         0.023287   
    414. D(C  64,N  55,C  53,C  41)   -179.9978         0.023287   
    415. D(C  64,N  55,C  53,O  58)      0.0061         0.023287   
    416. D(C  53,N  55,C  54,C  44)     -0.0083         0.026898   
    417. D(C  53,N  55,C  54,O  59)    179.9908         0.026898   
    418. D(C  64,N  55,C  54,C  44)   -179.9970         0.026898   
    419. D(C  64,N  55,C  54,O  59)      0.0021         0.026898   
    420. D(H  61,C  60,N  52,C  50)      0.0005         0.016832   
    421. D(H  61,C  60,N  52,C  51)   -180.0000         0.016832   
    422. D(H  62,C  60,N  52,C  50)   -121.1405         0.016832   
    423. D(H  62,C  60,N  52,C  51)     58.8590         0.016832   
    424. D(H  63,C  60,N  52,C  50)    121.1414         0.016832   
    425. D(H  63,C  60,N  52,C  51)    -58.8590         0.016832   
    426. D(H  65,C  64,N  55,C  53)      0.0106         0.016417   
    427. D(H  65,C  64,N  55,C  54)   -179.9998         0.016417   
    428. D(H  66,C  64,N  55,C  53)   -121.1834         0.016417   
    429. D(H  66,C  64,N  55,C  54)     58.8061         0.016417   
    430. D(H  67,C  64,N  55,C  53)    121.2033         0.016417   
    431. D(H  67,C  64,N  55,C  54)    -58.8071         0.016417   
    432. D(C  69,C  68,C   0,C   1)    179.9991         0.009130   
    433. D(C  69,C  68,C   0,C   2)     -0.0000         0.009130 C 
    434. D(S  74,C  68,C   0,C   1)      0.0000         0.009130 C 
    435. D(S  74,C  68,C   0,C   2)   -179.9991         0.009130   
    436. D(C  70,C  69,C  68,C   0)    179.9976         0.026424   
    437. D(C  70,C  69,C  68,S  74)     -0.0032         0.026424   
    438. D(H  71,C  69,C  68,C   0)     -0.0014         0.026424   
    439. D(H  71,C  69,C  68,S  74)    179.9978         0.026424   
    440. D(C  72,C  70,C  69,C  68)      0.0041         0.019633   
    441. D(C  72,C  70,C  69,H  71)   -179.9968         0.019633   
    442. D(H  73,C  70,C  69,C  68)   -179.9978         0.019633   
    443. D(H  73,C  70,C  69,H  71)      0.0013         0.019633   
    444. D(S  74,C  72,C  70,C  69)     -0.0029         0.033048   
    445. D(S  74,C  72,C  70,H  73)    179.9990         0.033048   
    446. D(H  75,C  72,C  70,C  69)    179.9977         0.033048   
    447. D(H  75,C  72,C  70,H  73)     -0.0004         0.033048   
    448. D(C  72,S  74,C  68,C   0)   -179.9994         0.004074   
    449. D(C  72,S  74,C  68,C  69)      0.0013         0.004074   
    450. D(C  68,S  74,C  72,C  70)      0.0009         0.006095   
    451. D(C  68,S  74,C  72,H  75)   -179.9996         0.006095   
    -----------------------------------------------------------------

Number of atoms                         .... 76
Number of degrees of freedom            .... 451

Time needed for optimization step       :     1.36 sec

         *************************************************************
         *                GEOMETRY OPTIMIZATION CYCLE   1            *
         *************************************************************
---------------------------------
CARTESIAN COORDINATES (ANGSTROEM)
---------------------------------
  C     -4.583317    1.596476   -0.000136
  C     -4.436407    0.191476   -0.000137
  C     -3.335617    2.293136   -0.000044
  C     -3.206857   -0.503024   -0.000055
  H     -5.317217   -0.449274   -0.000213
  C     -2.066207    1.570676    0.000059
  C     -1.976827    0.148846    0.000048
  C     -0.841287    2.225336    0.000169
  C     -0.697657   -0.566244    0.000163
  C      0.386393    1.539426    0.000229
  C      0.547393    0.139006    0.000256
  H      1.258183    2.190576    0.000264
  C     -3.209897    3.795776   -0.000100
  C     -0.755437    3.693566    0.000239
  N     -1.946787    4.377306    0.000201
  C     -3.284857   -1.974644   -0.000105
  C     -0.816297   -2.067484    0.000190
  N     -2.085657   -2.652794   -0.000035
  O     -4.183257    4.528516   -0.000500
  O      0.339753    4.248546    0.000307
  O     -4.382687   -2.523834   -0.000207
  O      0.165983   -2.794184    0.000462
  C     -1.838147    5.830066    0.000202
  H     -2.806007    6.336056    0.000158
  H     -1.277778    6.141376   -0.887827
  H     -1.277856    6.141376    0.888273
  C     -2.138937   -4.109464   -0.000043
  H     -3.161487   -4.497244   -0.000156
  H     -1.622774   -4.484988    0.889390
  H     -1.622580   -4.484970   -0.889380
  C      2.007093   -0.352224    0.000385
  S      3.299303    0.819846    0.000485
  C      4.656953   -0.263934    0.000345
  C      2.645343   -1.575404    0.000457
  C      4.094013   -1.525754    0.000418
  H      2.175453   -2.542994    0.000479
  H      4.619153   -2.463164    0.000411
  C      6.086393    0.319846    0.000182
  C      6.171503    1.743426    0.000160
  C      7.364743    2.483796    0.000058
  H      5.269843    2.354346    0.000237
  C      7.363823   -0.344604    0.000047
  C      8.584973    1.835886   -0.000072
  C      8.601883    0.414066   -0.000089
  C      9.886163   -0.172224   -0.000244
  C      9.778133    2.585466   -0.000184
  C     11.075123    0.579606   -0.000356
  C     11.021713    1.959536   -0.000326
  H     12.047823    0.087436   -0.000466
  H     11.944623    2.537776   -0.000402
  C      7.290883    3.971256    0.000093
  C      9.746673    4.065976   -0.000154
  N      8.494803    4.664166   -0.000011
  C      7.561303   -1.839294    0.000090
  C     10.030673   -1.630944   -0.000315
  N      8.859303   -2.361754   -0.000225
  O      6.190833    4.515176    0.000219
  O     10.802033    4.693976   -0.000253
  O      6.613733   -2.608834    0.000466
  O     11.151673   -2.132304   -0.000431
  C      8.472143    6.116816    0.000018
  H      7.457533    6.521416    0.000132
  H      9.002420    6.479502   -0.887072
  H      9.002606    6.479460    0.887008
  C      9.034983   -3.807324   -0.000228
  H      8.091523   -4.356684   -0.000159
  H      9.610886   -4.092789    0.886956
  H      9.610740   -4.092789   -0.887504
  C     -6.028157    2.125926   -0.000216
  C     -6.626147    3.383986   -0.000227
  C     -8.057667    3.403576   -0.000370
  H     -6.131377    4.335376   -0.000156
  C     -8.582927    2.144216   -0.000380
  H     -8.653917    4.308396   -0.000429
  S     -7.364877    0.968626   -0.000300
  H     -9.627467    1.863896   -0.000440

----------------------------
CARTESIAN COORDINATES (A.U.)
----------------------------
  NO LB      ZA    FRAG     MASS         X           Y           Z
   0 C     6.0000    0    12.011   -8.661214    3.016902   -0.000258
   1 C     6.0000    0    12.011   -8.383594    0.361837   -0.000258
   2 C     6.0000    0    12.011   -6.303403    4.333399   -0.000083
   3 C     6.0000    0    12.011   -6.060081   -0.950578   -0.000105
   4 H     1.0000    0     1.008  -10.048084   -0.849005   -0.000402
   5 C     6.0000    0    12.011   -3.904565    2.968147    0.000111
   6 C     6.0000    0    12.011   -3.735662    0.281278    0.000091
   7 C     6.0000    0    12.011   -1.589802    4.205276    0.000319
   8 C     6.0000    0    12.011   -1.318381   -1.070046    0.000307
   9 C     6.0000    0    12.011    0.730177    2.909094    0.000434
  10 C     6.0000    0    12.011    1.034423    0.262683    0.000484
  11 H     1.0000    0     1.008    2.377621    4.139589    0.000499
  12 C     6.0000    0    12.011   -6.065826    7.172977   -0.000190
  13 C     6.0000    0    12.011   -1.427569    6.979828    0.000451
  14 N     7.0000    0    14.007   -3.678894    8.271910    0.000380
  15 C     6.0000    0    12.011   -6.207480   -3.731536   -0.000199
  16 C     6.0000    0    12.011   -1.542578   -3.906979    0.000359
  17 N     7.0000    0    14.007   -3.941321   -5.013054   -0.000067
  18 O     8.0000    0    15.999   -7.905210    8.557655   -0.000945
  19 O     8.0000    0    15.999    0.642040    8.028588    0.000580
  20 O     8.0000    0    15.999   -8.282078   -4.769355   -0.000391
  21 O     8.0000    0    15.999    0.313662   -5.280243    0.000873
  22 C     6.0000    0    12.011   -3.473594   11.017228    0.000382
  23 H     1.0000    0     1.008   -5.302585   11.973411    0.000299
  24 H     1.0000    0     1.008   -2.414650   11.605519   -1.677750
  25 H     1.0000    0     1.008   -2.414798   11.605519    1.678593
  26 C     6.0000    0    12.011   -4.042005   -7.765762   -0.000081
  27 H     1.0000    0     1.008   -5.974345   -8.498560   -0.000295
  28 H     1.0000    0     1.008   -3.066599   -8.475400    1.680704
  29 H     1.0000    0     1.008   -3.066231   -8.475365   -1.680684
  30 C     6.0000    0    12.011    3.792856   -0.665607    0.000728
  31 S    16.0000    0    32.060    6.234779    1.549285    0.000917
  32 C     6.0000    0    12.011    8.800366   -0.498763    0.000652
  33 C     6.0000    0    12.011    4.998974   -2.977082    0.000864
  34 C     6.0000    0    12.011    7.736563   -2.883257    0.000791
  35 H     1.0000    0     1.008    4.111010   -4.805562    0.000906
  36 H     1.0000    0     1.008    8.728934   -4.654706    0.000777
  37 C     6.0000    0    12.011   11.501616    0.604421    0.000344
  38 C     6.0000    0    12.011   11.662450    3.294598    0.000303
  39 C     6.0000    0    12.011   13.917347    4.693694    0.000110
  40 H     1.0000    0     1.008    9.958560    4.449069    0.000447
  41 C     6.0000    0    12.011   13.915609   -0.651207    0.000089
  42 C     6.0000    0    12.011   16.223248    3.469322   -0.000136
  43 C     6.0000    0    12.011   16.255203    0.782471   -0.000169
  44 C     6.0000    0    12.011   18.682141   -0.325456   -0.000462
  45 C     6.0000    0    12.011   18.477993    4.885823   -0.000347
  46 C     6.0000    0    12.011   20.928949    1.095297   -0.000672
  47 C     6.0000    0    12.011   20.828019    3.702986   -0.000615
  48 H     1.0000    0     1.008   22.767086    0.165230   -0.000881
  49 H     1.0000    0     1.008   22.572066    4.795702   -0.000760
  50 C     6.0000    0    12.011   13.777772    7.504586    0.000176
  51 C     6.0000    0    12.011   18.418543    7.683581   -0.000291
  52 N     7.0000    0    14.007   16.052851    8.813996   -0.000021
  53 C     6.0000    0    12.011   14.288792   -3.475762    0.000171
  54 C     6.0000    0    12.011   18.955225   -3.082037   -0.000595
  55 N     7.0000    0    14.007   16.741656   -4.463068   -0.000425
  56 O     8.0000    0    15.999   11.698979    8.532446    0.000413
  57 O     8.0000    0    15.999   20.412884    8.870329   -0.000479
  58 O     8.0000    0    15.999   12.498144   -4.929982    0.000881
  59 O     8.0000    0    15.999   21.073608   -4.029471   -0.000815
  60 C     6.0000    0    12.011   16.010030   11.559107    0.000033
  61 H     1.0000    0     1.008   14.092695   12.323690    0.000249
  62 H     1.0000    0     1.008   17.012108   12.244485   -1.676322
  63 H     1.0000    0     1.008   17.012460   12.244405    1.676203
  64 C     6.0000    0    12.011   17.073643   -7.194800   -0.000432
  65 H     1.0000    0     1.008   15.290762   -8.232940   -0.000300
  66 H     1.0000    0     1.008   18.161943   -7.734251    1.676104
  67 H     1.0000    0     1.008   18.161666   -7.734249   -1.677139
  68 C     6.0000    0    12.011  -11.391566    4.017418   -0.000408
  69 C     6.0000    0    12.011  -12.521603    6.394807   -0.000429
  70 C     6.0000    0    12.011  -15.226784    6.431827   -0.000699
  71 H     1.0000    0     1.008  -11.586623    8.192673   -0.000295
  72 C     6.0000    0    12.011  -16.219381    4.051981   -0.000719
  73 H     1.0000    0     1.008  -16.353533    8.141689   -0.000811
  74 S    16.0000    0    32.060  -13.917601    1.830438   -0.000566
  75 H     1.0000    0     1.008  -18.193276    3.522253   -0.000831

--------------------------------
INTERNAL COORDINATES (ANGSTROEM)
--------------------------------
 C      0   0   0     0.000000000000     0.00000000     0.00000000
 C      1   0   0     1.412659742542     0.00000000     0.00000000
 C      1   2   0     1.429017300805   113.20775612     0.00000000
 C      2   1   3     1.412134360640   125.42881899     0.00000000
 H      2   1   3     1.089213853474   120.06493309   180.00093337
 C      3   1   2     1.460599260612   121.17743216     0.00000000
 C      4   2   1     1.392087747881   122.61854617     0.00000000
 C      6   3   1     1.388887584364   122.23214368   180.00091731
 C      7   4   2     1.465479306541   122.87172983   179.99860349
 C      8   6   3     1.406296807541   122.68539301   180.00189564
 C     10   8   6     1.409644344826   125.75052272     0.00000000
 H     10   8   6     1.088124133130   114.05124579   179.99695775
 C      3   1   2     1.507890081538   123.95961648   179.99605641
 C      8   6   3     1.470737759188   121.46870542     0.00000000
 N     14   8   6     1.373613923816   116.50601572     0.00000000
 C      4   2   1     1.473685660105   116.42553483   180.00136607
 C      9   7   4     1.505920645585   114.68776982     0.00000000
 N     16   4   2     1.377667616880   116.45424772   179.99953596
 O     13   3   1     1.218333990661   122.18965562     0.00000000
 O     14   8   6     1.227780085113   120.21967383   180.00158560
 O     16   4   2     1.227534262292   119.61053033     0.00000000
 O     17   9   7     1.221870260093   121.97580491   180.00994202
 C     15  14   8     1.456816484256   115.57566997   180.00301650
 H     23  15  14     1.092144157197   113.32351252   179.99921826
 H     23  15  14     1.095227666059   108.76004264    58.90650062
 H     23  15  14     1.095221082202   108.75991633   301.09214385
 C     18  16   4     1.457644074423   117.39349662   179.99823747
 H     27  18  16     1.093609542661   112.86289955     0.00000000
 H     27  18  16     1.094775562844   108.99877677   239.22822195
 H     27  18  16     1.094782915194   108.99772515   120.77697116
 C     11  10   8     1.540139929682   115.15777630   180.00192361
 S     31  11  10     1.744578720895   119.19157608     0.00000000
 C     32  31  11     1.737179540318    99.19156146   180.00816934
 C     31  11  10     1.379685620350   136.15488642   180.01384839
 C     33  32  31     1.381698664724   104.55629926     0.00000000
 H     34  31  11     1.075651921534   126.54207841     0.00000000
 H     35  33  32     1.074481070936   126.69907151   180.00321186
 C     33  32  31     1.544052396261   119.18546587   179.99147992
 C     38  33  32     1.426121919788   115.63639796     0.00000000
 C     39  38  33     1.404268291531   125.23978026   179.99831316
 H     39  38  33     1.089134520112   120.69820844     0.00000000
 C     38  33  32     1.439903193795   130.30399654   179.98490757
 C     40  39  38     1.381574688933   120.21450120     0.00000000
 C     43  40  39     1.421920553547   118.64852369     0.00000000
 C     44  43  40     1.411775861318   115.21869353   179.99910920
 C     43  40  39     1.409078053906   119.89456636   179.99953094
 C     45  44  43     1.406724646297   123.15579571     0.00000000
 C     47  45  44     1.380963226520   120.09039037     0.00000000
 H     47  45  44     1.090126872846   120.85444017   179.99951523
 H     48  47  45     1.089093368725   119.85226930   179.99939343
 C     40  39  38     1.489292634508   118.97567975   180.00202992
 C     46  43  40     1.480844215878   120.92098871     0.00000000
 N     52  46  43     1.387447214491   116.75752386     0.00000000
 C     42  38  33     1.507679194855   125.00739881     0.00000000
 C     45  44  43     1.465860559330   120.19491621   180.00175706
 N     55  45  44     1.380648736428   116.30214546     0.00000000
 O     51  40  39     1.227175198943   119.15279902     0.00000000
 O     52  46  43     1.228075213332   119.53776359   180.00000000
 O     54  42  38     1.220688658340   121.55433506     0.00000000
 O     55  45  44     1.228007674935   119.75389303   180.00099495
 C     53  52  46     1.452826726798   116.43389298   180.00000000
 H     61  53  52     1.092307013664   112.63451272   180.00000000
 H     61  53  52     1.095290750166   108.87621809    58.85903482
 H     61  53  52     1.095287439031   108.87572454   301.14095780
 C     56  55  45     1.456206059904   115.03059547   180.00302232
 H     65  56  55     1.091747764642   113.28231202   180.00016896
 H     65  56  55     1.095559866507   108.78868166    58.80613873
 H     65  56  55     1.095556313934   108.78796400   301.19285462
 C      1   2   3     1.538791710466   116.09423927   179.99991466
 C     69   1   2     1.392949034172   135.54796061   179.99445941
 C     70  69   1     1.431654037608   116.20703654   179.99829719
 H     70  69   1     1.072352691515   127.10032397     0.00000000
 C     71  70  69     1.364509318290   111.85624888     0.00000000
 H     71  70  69     1.083611228855   124.16774710   180.00232534
 S     73  71  70     1.692825346041   111.34347689     0.00000000
 H     73  71  70     1.081500399630   127.66260788   179.99754170

---------------------------
INTERNAL COORDINATES (A.U.)
---------------------------
 C      0   0   0     0.000000000000     0.00000000     0.00000000
 C      1   0   0     2.669540033821     0.00000000     0.00000000
 C      1   2   0     2.700451339157   113.20775612     0.00000000
 C      2   1   3     2.668547205909   125.42881899     0.00000000
 H      2   1   3     2.058315884339   120.06493309   180.00093337
 C      3   1   2     2.760132593964   121.17743216     0.00000000
 C      4   2   1     2.630664597882   122.61854617     0.00000000
 C      6   3   1     2.624617165251   122.23214368   180.00091731
 C      7   4   2     2.769354544291   122.87172983   179.99860349
 C      8   6   3     2.657515829260   122.68539301   180.00189564
 C     10   8   6     2.663841757952   125.75052272     0.00000000
 H     10   8   6     2.056256611326   114.05124579   179.99695775
 C      3   1   2     2.849499294163   123.95961648   179.99605641
 C      8   6   3     2.779291579681   121.46870542     0.00000000
 N     14   8   6     2.595754129752   116.50601572     0.00000000
 C      4   2   1     2.784862305086   116.42553483   180.00136607
 C      9   7   4     2.845777599574   114.68776982     0.00000000
 N     16   4   2     2.603414499475   116.45424772   179.99953596
 O     13   3   1     2.302317581997   122.18965562     0.00000000
 O     14   8   6     2.320168113546   120.21967383   180.00158560
 O     16   4   2     2.319703575736   119.61053033     0.00000000
 O     17   9   7     2.309000162759   121.97580491   180.00994202
 C     15  14   8     2.752984182626   115.57566997   180.00301650
 H     23  15  14     2.063853355865   113.32351252   179.99921826
 H     23  15  14     2.069680343144   108.76004264    58.90650062
 H     23  15  14     2.069667901459   108.75991633   301.09214385
 C     18  16   4     2.754548101392   117.39349662   179.99823747
 H     27  18  16     2.066622533073   112.86289955     0.00000000
 H     27  18  16     2.068825991884   108.99877677   239.22822195
 H     27  18  16     2.068839885812   108.99772515   120.77697116
 C     11  10   8     2.910442675015   115.15777630   180.00192361
 S     31  11  10     3.296776001558   119.19157608     0.00000000
 C     32  31  11     3.282793576653    99.19156146   180.00816934
 C     31  11  10     2.607227973370   136.15488642   180.01384839
 C     33  32  31     2.611032075933   104.55629926     0.00000000
 H     34  31  11     2.032687547126   126.54207841     0.00000000
 H     35  33  32     2.030474960152   126.69907151   180.00321186
 C     33  32  31     2.917836165359   119.18546587   179.99147992
 C     38  33  32     2.694979861981   115.63639796     0.00000000
 C     39  38  33     2.653682489543   125.23978026   179.99831316
 H     39  38  33     2.058165966012   120.69820844     0.00000000
 C     38  33  32     2.721022695630   130.30399654   179.98490757
 C     40  39  38     2.610797795641   120.21450120     0.00000000
 C     43  40  39     2.687040430398   118.64852369     0.00000000
 C     44  43  40     2.667869740372   115.21869353   179.99910920
 C     43  40  39     2.662771623201   119.89456636   179.99953094
 C     45  44  43     2.658324327339   123.15579571     0.00000000
 C     47  45  44     2.609642299139   120.09039037     0.00000000
 H     47  45  44     2.060041240906   120.85444017   179.99951523
 H     48  47  45     2.058088201159   119.85226930   179.99939343
 C     40  39  38     2.814355212486   118.97567975   180.00202992
 C     46  43  40     2.798390015011   120.92098871     0.00000000
 N     52  46  43     2.621895260661   116.75752386     0.00000000
 C     42  38  33     2.849100776088   125.00739881     0.00000000
 C     45  44  43     2.770075007651   120.19491621   180.00175706
 N     55  45  44     2.609047998993   116.30214546     0.00000000
 O     51  40  39     2.319025044342   119.15279902     0.00000000
 O     52  46  43     2.320725825054   119.53776359   180.00000000
 O     54  42  38     2.306767259046   121.55433506     0.00000000
 O     55  45  44     2.320598195981   119.75389303   180.00099495
 C     53  52  46     2.745444633690   116.43389298   180.00000000
 H     61  53  52     2.064161109987   112.63451272   180.00000000
 H     61  53  52     2.069799554832   108.87621809    58.85903482
 H     61  53  52     2.069793297693   108.87572454   301.14095780
 C     56  55  45     2.751830647774   115.03059547   180.00302232
 H     65  56  55     2.063104282493   113.28231202   180.00016896
 H     65  56  55     2.070308111013   108.78868166    58.80613873
 H     65  56  55     2.070301397623   108.78796400   301.19285462
 C      1   2   3     2.907894909930   116.09423927   179.99991466
 C     69   1   2     2.632292193095   135.54796061   179.99445941
 C     70  69   1     2.705434049602   116.20703654   179.99829719
 H     70  69   1     2.026452905937   127.10032397     0.00000000
 C     71  70  69     2.578548918752   111.85624888     0.00000000
 H     71  70  69     2.047728458177   124.16774710   180.00232534
 S     73  71  70     3.198976296579   111.34347689     0.00000000
 H     73  71  70     2.043739569027   127.66260788   179.99754170

---------------------
BASIS SET INFORMATION
---------------------
There are 5 groups of distinct atoms

 Group   1 Type C   : 7s4p1d contracted to 3s2p1d pattern {511/31/1}
 Group   2 Type H   : 4s1p contracted to 2s1p pattern {31/1}
 Group   3 Type N   : 7s4p1d contracted to 3s2p1d pattern {511/31/1}
 Group   4 Type O   : 7s4p1d contracted to 3s2p1d pattern {511/31/1}
 Group   5 Type S   : 10s7p1d contracted to 4s3p1d pattern {5311/511/1}

Atom   0C    basis set group =>   1
Atom   1C    basis set group =>   1
Atom   2C    basis set group =>   1
Atom   3C    basis set group =>   1
Atom   4H    basis set group =>   2
Atom   5C    basis set group =>   1
Atom   6C    basis set group =>   1
Atom   7C    basis set group =>   1
Atom   8C    basis set group =>   1
Atom   9C    basis set group =>   1
Atom  10C    basis set group =>   1
Atom  11H    basis set group =>   2
Atom  12C    basis set group =>   1
Atom  13C    basis set group =>   1
Atom  14N    basis set group =>   3
Atom  15C    basis set group =>   1
Atom  16C    basis set group =>   1
Atom  17N    basis set group =>   3
Atom  18O    basis set group =>   4
Atom  19O    basis set group =>   4
Atom  20O    basis set group =>   4
Atom  21O    basis set group =>   4
Atom  22C    basis set group =>   1
Atom  23H    basis set group =>   2
Atom  24H    basis set group =>   2
Atom  25H    basis set group =>   2
Atom  26C    basis set group =>   1
Atom  27H    basis set group =>   2
Atom  28H    basis set group =>   2
Atom  29H    basis set group =>   2
Atom  30C    basis set group =>   1
Atom  31S    basis set group =>   5
Atom  32C    basis set group =>   1
Atom  33C    basis set group =>   1
Atom  34C    basis set group =>   1
Atom  35H    basis set group =>   2
Atom  36H    basis set group =>   2
Atom  37C    basis set group =>   1
Atom  38C    basis set group =>   1
Atom  39C    basis set group =>   1
Atom  40H    basis set group =>   2
Atom  41C    basis set group =>   1
Atom  42C    basis set group =>   1
Atom  43C    basis set group =>   1
Atom  44C    basis set group =>   1
Atom  45C    basis set group =>   1
Atom  46C    basis set group =>   1
Atom  47C    basis set group =>   1
Atom  48H    basis set group =>   2
Atom  49H    basis set group =>   2
Atom  50C    basis set group =>   1
Atom  51C    basis set group =>   1
Atom  52N    basis set group =>   3
Atom  53C    basis set group =>   1
Atom  54C    basis set group =>   1
Atom  55N    basis set group =>   3
Atom  56O    basis set group =>   4
Atom  57O    basis set group =>   4
Atom  58O    basis set group =>   4
Atom  59O    basis set group =>   4
Atom  60C    basis set group =>   1
Atom  61H    basis set group =>   2
Atom  62H    basis set group =>   2
Atom  63H    basis set group =>   2
Atom  64C    basis set group =>   1
Atom  65H    basis set group =>   2
Atom  66H    basis set group =>   2
Atom  67H    basis set group =>   2
Atom  68C    basis set group =>   1
Atom  69C    basis set group =>   1
Atom  70C    basis set group =>   1
Atom  71H    basis set group =>   2
Atom  72C    basis set group =>   1
Atom  73H    basis set group =>   2
Atom  74S    basis set group =>   5
Atom  75H    basis set group =>   2
---------------------------------
AUXILIARY/J BASIS SET INFORMATION
---------------------------------
There are 5 groups of distinct atoms

 Group   1 Type C   : 12s5p4d2f1g contracted to 6s4p3d1f1g pattern {711111/2111/211/2/1}
 Group   2 Type H   : 5s2p1d contracted to 3s1p1d pattern {311/2/1}
 Group   3 Type N   : 12s5p4d2f1g contracted to 6s4p3d1f1g pattern {711111/2111/211/2/1}
 Group   4 Type O   : 12s5p4d2f1g contracted to 6s4p3d1f1g pattern {711111/2111/211/2/1}
 Group   5 Type S   : 14s5p5d2f1g contracted to 8s4p3d1f1g pattern {71111111/2111/311/2/1}

Atom   0C    basis set group =>   1
Atom   1C    basis set group =>   1
Atom   2C    basis set group =>   1
Atom   3C    basis set group =>   1
Atom   4H    basis set group =>   2
Atom   5C    basis set group =>   1
Atom   6C    basis set group =>   1
Atom   7C    basis set group =>   1
Atom   8C    basis set group =>   1
Atom   9C    basis set group =>   1
Atom  10C    basis set group =>   1
Atom  11H    basis set group =>   2
Atom  12C    basis set group =>   1
Atom  13C    basis set group =>   1
Atom  14N    basis set group =>   3
Atom  15C    basis set group =>   1
Atom  16C    basis set group =>   1
Atom  17N    basis set group =>   3
Atom  18O    basis set group =>   4
Atom  19O    basis set group =>   4
Atom  20O    basis set group =>   4
Atom  21O    basis set group =>   4
Atom  22C    basis set group =>   1
Atom  23H    basis set group =>   2
Atom  24H    basis set group =>   2
Atom  25H    basis set group =>   2
Atom  26C    basis set group =>   1
Atom  27H    basis set group =>   2
Atom  28H    basis set group =>   2
Atom  29H    basis set group =>   2
Atom  30C    basis set group =>   1
Atom  31S    basis set group =>   5
Atom  32C    basis set group =>   1
Atom  33C    basis set group =>   1
Atom  34C    basis set group =>   1
Atom  35H    basis set group =>   2
Atom  36H    basis set group =>   2
Atom  37C    basis set group =>   1
Atom  38C    basis set group =>   1
Atom  39C    basis set group =>   1
Atom  40H    basis set group =>   2
Atom  41C    basis set group =>   1
Atom  42C    basis set group =>   1
Atom  43C    basis set group =>   1
Atom  44C    basis set group =>   1
Atom  45C    basis set group =>   1
Atom  46C    basis set group =>   1
Atom  47C    basis set group =>   1
Atom  48H    basis set group =>   2
Atom  49H    basis set group =>   2
Atom  50C    basis set group =>   1
Atom  51C    basis set group =>   1
Atom  52N    basis set group =>   3
Atom  53C    basis set group =>   1
Atom  54C    basis set group =>   1
Atom  55N    basis set group =>   3
Atom  56O    basis set group =>   4
Atom  57O    basis set group =>   4
Atom  58O    basis set group =>   4
Atom  59O    basis set group =>   4
Atom  60C    basis set group =>   1
Atom  61H    basis set group =>   2
Atom  62H    basis set group =>   2
Atom  63H    basis set group =>   2
Atom  64C    basis set group =>   1
Atom  65H    basis set group =>   2
Atom  66H    basis set group =>   2
Atom  67H    basis set group =>   2
Atom  68C    basis set group =>   1
Atom  69C    basis set group =>   1
Atom  70C    basis set group =>   1
Atom  71H    basis set group =>   2
Atom  72C    basis set group =>   1
Atom  73H    basis set group =>   2
Atom  74S    basis set group =>   5
Atom  75H    basis set group =>   2
------------------------------------------------------------------------------
                           ORCA GTO INTEGRAL CALCULATION
                           -- RI-GTO INTEGRALS CHOSEN --
------------------------------------------------------------------------------

                         BASIS SET STATISTICS AND STARTUP INFO

Gaussian basis set:
 # of primitive gaussian shells          ...  770
 # of primitive gaussian functions       ... 1474
 # of contracted shells                  ...  394
 # of contracted basis functions         ...  874
 Highest angular momentum                ...    2
 Maximum contraction depth               ...    5
Auxiliary gaussian basis set:
 # of primitive gaussian shells          ... 1478
 # of primitive gaussian functions       ... 4146
 # of contracted shells                  ...  924
 # of contracted aux-basis functions     ... 2892
 Highest angular momentum                ...    4
 Maximum contraction depth               ...    7
Ratio of auxiliary to basis functions    ...  3.31
Integral package used                  ... LIBINT
 One Electron integrals                  ... done
 Ordering auxiliary basis shells         ... done
 Integral threshhold             Thresh  ...  2.500e-11
 Primitive cut-off               TCut    ...  2.500e-12
 Pre-screening matrix                    ... done
 Shell pair data                         ... 
 Ordering of the shell pairs             ... done (   0.006 sec) 32082 of 77815 pairs
 Determination of significant pairs      ... done (   0.000 sec)
 Creation of shell pair data             ... done (   0.003 sec)
 Storage of shell pair data              ... done (   0.963 sec)
 Shell pair data done in (   0.973 sec)
 Computing two index integrals           ... done
 Cholesky decomposition of the V-matrix  ... done


Timings:
 Total evaluation time                   ...  14.555 sec (  0.243 min)
 One electron matrix time                ...   2.221 sec (  0.037 min) = 15.3%
 Schwartz matrix evaluation time         ...   0.423 sec (  0.007 min) =  2.9%
 Two index repulsion integral time       ...   4.971 sec (  0.083 min) = 34.2%
 Cholesky decomposition of V             ...   5.927 sec (  0.099 min) = 40.7%
 Three index repulsion integral time     ...   0.000 sec (  0.000 min) =  0.0%

-------------------------------------------------------------------------------
                                 ORCA SCF
-------------------------------------------------------------------------------

------------
SCF SETTINGS
------------
Hamiltonian:
 Density Functional     Method          .... DFT(GTOs)
 Exchange Functional    Exchange        .... B88
   X-Alpha parameter    XAlpha          ....  0.666667
   Becke's b parameter  XBeta           ....  0.004200
 Correlation Functional Correlation     .... P86
 LDA part of GGA corr.  LDAOpt          .... PW91-LDA
 Gradients option       PostSCFGGA      .... off
   Density functional embedding theory  .... OFF
 RI-approximation to the Coulomb term is turned on
   Number of auxiliary basis functions  .... 2892


General Settings:
 Integral files         IntName         .... PNDI_T_Optimize_Monomer
 Hartree-Fock type      HFTyp           .... RHF
 Total Charge           Charge          ....    0
 Multiplicity           Mult            ....    1
 Number of Electrons    NEL             ....  386
 Basis Dimension        Dim             ....  874
 Nuclear Repulsion      ENuc            ....   6948.5157693952 Eh

Convergence Acceleration:
 DIIS                   CNVDIIS         .... on
   Start iteration      DIISMaxIt       ....    12
   Startup error        DIISStart       ....  0.200000
   # of expansion vecs  DIISMaxEq       ....     5
   Bias factor          DIISBfac        ....   1.050
   Max. coefficient     DIISMaxC        ....  10.000
 Newton-Raphson         CNVNR           .... off
 SOSCF                  CNVSOSCF        .... on
   Start iteration      SOSCFMaxIt      ....   150
   Startup grad/error   SOSCFStart      ....  0.003300
 Level Shifting         CNVShift        .... on
   Level shift para.    LevelShift      ....    0.2500
   Turn off err/grad.   ShiftErr        ....    0.0010
 Zerner damping         CNVZerner       .... off
 Static damping         CNVDamp         .... on
   Fraction old density DampFac         ....    0.7000
   Max. Damping (<1)    DampMax         ....    0.9800
   Min. Damping (>=0)   DampMin         ....    0.0000
   Turn off err/grad.   DampErr         ....    0.1000
 Fernandez-Rico         CNVRico         .... off

SCF Procedure:
 Maximum # iterations   MaxIter         ....   125
 SCF integral mode      SCFMode         .... Direct
   Integral package                     .... LIBINT
 Reset frequency        DirectResetFreq ....    20
 Integral Threshold     Thresh          ....  2.500e-11 Eh
 Primitive CutOff       TCut            ....  2.500e-12 Eh

Convergence Tolerance:
 Convergence Check Mode ConvCheckMode   .... Total+1el-Energy
 Convergence forced     ConvForced      .... 0
 Energy Change          TolE            ....  1.000e-08 Eh
 1-El. energy change                    ....  1.000e-05 Eh
 Orbital Gradient       TolG            ....  1.000e-05
 Orbital Rotation angle TolX            ....  1.000e-05
 DIIS Error             TolErr          ....  5.000e-07


Diagonalization of the overlap matrix:
Smallest eigenvalue                        ... 1.711e-04
Time for diagonalization                   ...    1.228 sec
Threshold for overlap eigenvalues          ... 1.000e-08
Number of eigenvalues below threshold      ... 0
Time for construction of square roots      ...    0.813 sec
Total time needed                          ...    2.043 sec

-------------------
DFT GRID GENERATION
-------------------

General Integration Accuracy     IntAcc      ...  4.340
Radial Grid Type                 RadialGrid  ... Gauss-Chebyshev
Angular Grid (max. acc.)         AngularGrid ... Lebedev-194
Angular grid pruning method      GridPruning ... 3 (G Style)
Weight generation scheme         WeightScheme... Becke
Basis function cutoff            BFCut       ...    1.0000e-11
Integration weight cutoff        WCut        ...    1.0000e-14
Grids for H and He will be reduced by one unit

# of grid points (after initial pruning)     ... 212012 (   0.2 sec)
# of grid points (after weights+screening)   ... 184553 (   4.3 sec)
nearest neighbour list constructed           ...    0.0 sec
Grid point re-assignment to atoms done       ...    0.0 sec
Grid point division into batches done        ...    0.3 sec
Reduced shell lists constructed in    3.0 sec

Total number of grid points                  ...   184553
Total number of batches                      ...     2920
Average number of points per batch           ...       63
Average number of grid points per atom       ...     2428
Average number of shells per batch           ...    93.92 (23.84%)
Average number of basis functions per batch  ...   198.11 (22.67%)
Average number of large shells per batch     ...    58.66 (62.45%)
Average number of large basis fcns per batch ...   125.56 (63.38%)
Maximum spatial batch extension              ...  18.97, 21.26, 22.17 au
Average spatial batch extension              ...   2.39,  2.55,  3.07 au

Time for grid setup =    7.653 sec

------------------------------
INITIAL GUESS: MODEL POTENTIAL
------------------------------
Loading Hartree-Fock densities                     ... done
Calculating cut-offs                               ... done
Setting up the integral package                    ... done
Initializing the effective Hamiltonian             ... done
Starting the Coulomb interaction                   ... done (   3.9 sec)
Reading the grid                                   ... done
Mapping shells                                     ... done
Starting the XC term evaluation                    ... done (   2.7 sec)
  promolecular density results
     # of electrons  =    385.988421387
     EX              =   -354.285448095
     EC              =    -14.654218047
     EX+EC           =   -368.939666143
Transforming the Hamiltonian                       ... done (   0.3 sec)
Diagonalizing the Hamiltonian                      ... done (   0.3 sec)
Back transforming the eigenvectors                 ... done (   0.1 sec)
Now organizing SCF variables                       ... done
                      ------------------
                      INITIAL GUESS DONE (  15.1 sec)
                      ------------------
--------------
SCF ITERATIONS
--------------
ITER       Energy         Delta-E        Max-DP      RMS-DP      [F,P]     Damp
               ***  Starting incremental Fock matrix formation  ***
  0  -3151.8892614171   0.000000000000 0.14531645  0.00188128  0.2555062 0.7000
  1  -3152.4871851662  -0.597923749096 0.07289386  0.00095892  0.0667152 0.7000
                               ***Turning on DIIS***
  2  -3152.6280832656  -0.140898099337 0.10385824  0.00108629  0.0351919 0.0000
  3  -3152.9764348127  -0.348351547152 0.04986284  0.00070272  0.0433970 0.0000
  4  -3153.0178200762  -0.041385263529 0.02094629  0.00025606  0.0325058 0.0000
  5  -3153.0327215975  -0.014901521214 0.01434677  0.00010841  0.0064954 0.0000
  6  -3153.0336262054  -0.000904607952 0.00197072  0.00003416  0.0042021 0.0000
                      *** Initiating the SOSCF procedure ***
                           *** Shutting down DIIS ***
                      *** Re-Reading the Fockian *** 
                      *** Removing any level shift *** 
ITER      Energy       Delta-E        Grad      Rot      Max-DP    RMS-DP
  7  -3153.03380112  -0.0001749145  0.000333  0.000333  0.001876  0.000019
               *** Restarting incremental Fock matrix formation ***
  8  -3153.03380141  -0.0000002932  0.000334  0.002506  0.003820  0.000033
  9  -3153.03369164   0.0001097744  0.001032  0.001732  0.003039  0.000024
 10  -3153.03381281  -0.0001211753  0.000131  0.001228  0.002118  0.000013
 11  -3153.03380022   0.0000125961  0.000297  0.000917  0.001188  0.000009
 12  -3153.03381483  -0.0000146155  0.000058  0.000747  0.001068  0.000007
 13  -3153.03381073   0.0000041022  0.000142  0.000536  0.000749  0.000005
 14  -3153.03381545  -0.0000047184  0.000026  0.000201  0.000259  0.000002
 15  -3153.03381497   0.0000004816  0.000067  0.000154  0.000185  0.000002
 16  -3153.03381555  -0.0000005811  0.000007  0.000061  0.000055  0.000001
[...]
      dz2     :     0.014153  d :     0.248048
      dxz     :     0.043964
      dyz     :     0.015239
      dx2y2   :     0.093140
      dxy     :     0.081550
 51 C s       :     2.843379  s :     2.843379
      pz      :     0.867424  p :     2.839602
      px      :     0.953351
      py      :     1.018827
      dz2     :     0.014052  d :     0.247753
      dxz     :     0.040140
      dyz     :     0.017952
      dx2y2   :     0.106588
      dxy     :     0.069021
 52 N s       :     3.106086  s :     3.106086
      pz      :     1.483974  p :     3.846897
      px      :     1.177794
      py      :     1.185129
      dz2     :     0.005545  d :     0.061298
      dxz     :     0.006223
      dyz     :     0.006448
      dx2y2   :     0.019907
      dxy     :     0.023175
 53 C s       :     2.846121  s :     2.846121
      pz      :     0.869582  p :     2.827408
      px      :     0.938002
      py      :     1.019824
      dz2     :     0.013994  d :     0.244868
      dxz     :     0.038203
      dyz     :     0.020930
      dx2y2   :     0.107685
      dxy     :     0.064057
 54 C s       :     2.837071  s :     2.837071
      pz      :     0.871209  p :     2.851098
      px      :     0.966674
      py      :     1.013215
      dz2     :     0.014268  d :     0.252528
      dxz     :     0.043838
      dyz     :     0.016134
      dx2y2   :     0.092473
      dxy     :     0.085814
 55 N s       :     3.104778  s :     3.104778
      pz      :     1.483702  p :     3.844789
      px      :     1.175251
      py      :     1.185836
      dz2     :     0.005560  d :     0.061414
      dxz     :     0.006493
      dyz     :     0.006337
      dx2y2   :     0.020357
      dxy     :     0.022666
 56 O s       :     3.555723  s :     3.555723
      pz      :     1.382604  p :     4.565646
      px      :     1.502603
      py      :     1.680438
      dz2     :     0.004221  d :     0.030148
      dxz     :     0.005449
      dyz     :     0.001445
      dx2y2   :     0.008369
      dxy     :     0.010663
 57 O s       :     3.556938  s :     3.556938
      pz      :     1.371854  p :     4.567907
      px      :     1.545830
      py      :     1.650223
      dz2     :     0.004249  d :     0.029943
      dxz     :     0.004576
      dyz     :     0.002322
      dx2y2   :     0.006677
      dxy     :     0.012119
 58 O s       :     3.543183  s :     3.543183
      pz      :     1.405660  p :     4.576349
      px      :     1.552472
      py      :     1.618216
      dz2     :     0.004175  d :     0.029177
      dxz     :     0.003829
      dyz     :     0.002813
      dx2y2   :     0.006220
      dxy     :     0.012140
 59 O s       :     3.557197  s :     3.557197
      pz      :     1.383917  p :     4.576895
      px      :     1.502872
      py      :     1.690105
      dz2     :     0.004218  d :     0.029763
      dxz     :     0.005410
      dyz     :     0.001425
      dx2y2   :     0.008267
      dxy     :     0.010443
 60 C s       :     2.846171  s :     2.846171
      pz      :     1.089598  p :     3.045304
      px      :     1.098825
      py      :     0.856880
      dz2     :     0.015829  d :     0.087869
      dxz     :     0.011028
      dyz     :     0.020867
      dx2y2   :     0.030308
      dxy     :     0.009837
 61 H s       :     0.890210  s :     0.890210
      pz      :     0.012615  p :     0.071245
      px      :     0.046580
      py      :     0.012049
 62 H s       :     0.895550  s :     0.895550
      pz      :     0.031821  p :     0.064767
      px      :     0.019782
      py      :     0.013164
 63 H s       :     0.895548  s :     0.895548
      pz      :     0.031753  p :     0.064768
      px      :     0.019852
      py      :     0.013162
 64 C s       :     2.846375  s :     2.846375
      pz      :     1.089757  p :     3.045953
      px      :     1.094582
      py      :     0.861614
      dz2     :     0.015787  d :     0.087628
      dxz     :     0.014437
      dyz     :     0.017313
      dx2y2   :     0.027032
      dxy     :     0.013059
 65 H s       :     0.891731  s :     0.891731
      pz      :     0.012788  p :     0.072918
      px      :     0.045113
      py      :     0.015017
 66 H s       :     0.895814  s :     0.895814
      pz      :     0.031657  p :     0.064870
      px      :     0.021507
      py      :     0.011706
 67 H s       :     0.895811  s :     0.895811
      pz      :     0.031736  p :     0.064873
      px      :     0.021410
      py      :     0.011727
 68 C s       :     2.924063  s :     2.924063
      pz      :     1.099541  p :     3.142186
      px      :     1.003958
      py      :     1.038687
      dz2     :     0.006843  d :     0.094014
      dxz     :     0.009376
      dyz     :     0.012509
      dx2y2   :     0.024867
      dxy     :     0.040419
 69 C s       :     2.886904  s :     2.886904
      pz      :     0.942696  p :     3.062256
      px      :     1.051462
      py      :     1.068097
      dz2     :     0.006278  d :     0.086161
      dxz     :     0.011342
      dyz     :     0.007548
      dx2y2   :     0.031212
      dxy     :     0.029781
 70 C s       :     2.879913  s :     2.879913
      pz      :     0.999888  p :     3.099589
      px      :     1.049479
      py      :     1.050222
      dz2     :     0.006302  d :     0.088900
      dxz     :     0.009644
      dyz     :     0.008450
      dx2y2   :     0.032822
      dxy     :     0.031682
 71 H s       :     0.873120  s :     0.873120
      pz      :     0.014236  p :     0.091088
      px      :     0.037258
      py      :     0.039594
 72 C s       :     2.944939  s :     2.944939
      pz      :     1.053801  p :     3.147917
      px      :     1.032937
      py      :     1.061178
      dz2     :     0.005969  d :     0.082039
      dxz     :     0.004656
      dyz     :     0.014437
      dx2y2   :     0.022100
      dxy     :     0.034877
 73 H s       :     0.892606  s :     0.892606
      pz      :     0.014483  p :     0.067109
      px      :     0.021095
      py      :     0.031530
 74 S s       :     5.514226  s :     5.514226
      pz      :     3.586313  p :     9.900200
      px      :     2.978525
      py      :     3.335362
      dz2     :     0.015688  d :     0.134145
      dxz     :     0.026071
      dyz     :     0.010218
      dx2y2   :     0.017462
      dxy     :     0.064707
 75 H s       :     0.890177  s :     0.890177
      pz      :     0.015903  p :     0.071986
      px      :     0.042837
      py      :     0.013247


                      *****************************
                      * MAYER POPULATION ANALYSIS *
                      *****************************

  NA   - Mulliken gross atomic population
  ZA   - Total nuclear charge
  QA   - Mulliken gross atomic charge
  VA   - Mayer's total valence
  BVA  - Mayer's bonded valence
  FA   - Mayer's free valence

  ATOM       NA         ZA         QA         VA         BVA        FA
  0 C      5.8427     6.0000     0.1573     3.8069     3.8069     0.0000
  1 C      6.1371     6.0000    -0.1371     3.8496     3.8496     0.0000
  2 C      6.0554     6.0000    -0.0554     3.6543     3.6543    -0.0000
  3 C      6.0741     6.0000    -0.0741     3.7774     3.7774    -0.0000
  4 H      0.9562     1.0000     0.0438     1.0308     1.0308     0.0000
  5 C      5.8599     6.0000     0.1401     3.7511     3.7511     0.0000
  6 C      5.8687     6.0000     0.1313     3.7569     3.7569     0.0000
  7 C      6.0678     6.0000    -0.0678     3.7677     3.7677    -0.0000
  8 C      6.0422     6.0000    -0.0422     3.6493     3.6493    -0.0000
  9 C      6.1255     6.0000    -0.1255     3.8192     3.8192     0.0000
 10 C      5.8667     6.0000     0.1333     3.8128     3.8128    -0.0000
 11 H      0.9521     1.0000     0.0479     1.0312     1.0312    -0.0000
 12 C      5.8557     6.0000     0.1443     4.1063     4.1063    -0.0000
 13 C      5.8705     6.0000     0.1295     4.1524     4.1524     0.0000
 14 N      7.2506     7.0000    -0.2506     3.2569     3.2569    -0.0000
 15 C      5.8559     6.0000     0.1441     4.1381     4.1381    -0.0000
 16 C      5.8704     6.0000     0.1296     4.1087     4.1087    -0.0000
 17 N      7.2512     7.0000    -0.2512     3.2627     3.2627    -0.0000
 18 O      8.1882     8.0000    -0.1882     2.3463     2.3463    -0.0000
 19 O      8.1771     8.0000    -0.1771     2.3596     2.3596    -0.0000
 20 O      8.1770     8.0000    -0.1770     2.3686     2.3686    -0.0000
 21 O      8.1885     8.0000    -0.1885     2.3369     2.3369    -0.0000
 22 C      5.9256     6.0000     0.0744     3.9093     3.9093    -0.0000
 23 H      0.9324     1.0000     0.0676     1.0291     1.0291     0.0000
 24 H      0.9396     1.0000     0.0604     0.9980     0.9980    -0.0000
 25 H      0.9396     1.0000     0.0604     0.9980     0.9980    -0.0000
 26 C      5.9231     6.0000     0.0769     3.9092     3.9092     0.0000
 27 H      0.9308     1.0000     0.0692     1.0288     1.0288    -0.0000
 28 H      0.9415     1.0000     0.0585     0.9988     0.9988     0.0000
 29 H      0.9415     1.0000     0.0585     0.9988     0.9988    -0.0000
 30 C      6.0576     6.0000    -0.0576     3.8393     3.8393     0.0000
 31 S     15.9678    16.0000     0.0322     2.5793     2.5793     0.0000
 32 C      6.0598     6.0000    -0.0598     3.8443     3.8443    -0.0000
 33 C      6.0029     6.0000    -0.0029     3.7896     3.7896    -0.0000
 34 C      6.0015     6.0000    -0.0015     3.7909     3.7909     0.0000
 35 H      0.9652     1.0000     0.0348     1.0511     1.0511    -0.0000
 36 H      0.9641     1.0000     0.0359     1.0507     1.0507    -0.0000
 37 C      5.8621     6.0000     0.1379     3.8184     3.8184    -0.0000
 38 C      6.1303     6.0000    -0.1303     3.8251     3.8251    -0.0000
 39 C      6.0486     6.0000    -0.0486     3.7422     3.7422    -0.0000
 40 H      0.9511     1.0000     0.0489     1.0275     1.0275     0.0000
 41 C      6.0575     6.0000    -0.0575     3.6590     3.6590    -0.0000
 42 C      5.8594     6.0000     0.1406     3.7705     3.7705     0.0000
 43 C      5.8567     6.0000     0.1433     3.7563     3.7563     0.0000
 44 C      6.0777     6.0000    -0.0777     3.7147     3.7147     0.0000
 45 C      6.0369     6.0000    -0.0369     3.6663     3.6663     0.0000
 46 C      6.0046     6.0000    -0.0046     3.7801     3.7801    -0.0000
 47 C      6.0309     6.0000    -0.0309     3.7779     3.7779     0.0000
 48 H      0.9727     1.0000     0.0273     1.0112     1.0112     0.0000
 49 H      0.9742     1.0000     0.0258     1.0073     1.0073    -0.0000
 50 C      5.8515     6.0000     0.1485     4.1348     4.1348    -0.0000
 51 C      5.8698     6.0000     0.1302     4.1700     4.1700     0.0000
 52 N      7.2588     7.0000    -0.2588     3.2352     3.2352    -0.0000
 53 C      5.8537     6.0000     0.1463     4.1095     4.1095    -0.0000
 54 C      5.8730     6.0000     0.1270     4.1803     4.1803    -0.0000
 55 N      7.2536     7.0000    -0.2536     3.2457     3.2457    -0.0000
 56 O      8.1651     8.0000    -0.1651     2.3763     2.3763    -0.0000
 57 O      8.1733     8.0000    -0.1733     2.3620     2.3620     0.0000
 58 O      8.1874     8.0000    -0.1874     2.3465     2.3465     0.0000
 59 O      8.1821     8.0000    -0.1821     2.3573     2.3573     0.0000
 60 C      5.9285     6.0000     0.0715     3.9115     3.9115    -0.0000
 61 H      0.9292     1.0000     0.0708     1.0276     1.0276    -0.0000
 62 H      0.9394     1.0000     0.0606     0.9975     0.9975     0.0000
 63 H      0.9394     1.0000     0.0606     0.9975     0.9975     0.0000
 64 C      5.9265     6.0000     0.0735     3.9105     3.9105     0.0000
 65 H      0.9315     1.0000     0.0685     1.0291     1.0291    -0.0000
 66 H      0.9408     1.0000     0.0592     0.9982     0.9982    -0.0000
 67 H      0.9408     1.0000     0.0592     0.9982     0.9982    -0.0000
 68 C      6.1507     6.0000    -0.1507     3.8977     3.8977    -0.0000
 69 C      5.9808     6.0000     0.0192     3.8453     3.8453     0.0000
 70 C      5.9894     6.0000     0.0106     3.8590     3.8590     0.0000
 71 H      0.9586     1.0000     0.0414     1.0486     1.0486     0.0000
 72 C      6.0574     6.0000    -0.0574     3.7954     3.7954     0.0000
 73 H      0.9807     1.0000     0.0193     0.9869     0.9869    -0.0000
 74 S     15.9104    16.0000     0.0896     2.5837     2.5837    -0.0000
 75 H      0.9382     1.0000     0.0618     0.9902     0.9902    -0.0000

  Mayer bond orders larger than 0.100000
B(  0-C ,  1-C ) :   1.1629 B(  0-C ,  2-C ) :   1.3181 B(  0-C , 68-C ) :   1.1631 
B(  1-C ,  3-C ) :   1.5246 B(  1-C ,  4-H ) :   0.9200 B(  2-C ,  5-C ) :   1.2483 
B(  2-C , 12-C ) :   0.9651 B(  3-C ,  6-C ) :   1.1803 B(  3-C , 15-C ) :   0.9153 
B(  5-C ,  6-C ) :   1.2190 B(  5-C ,  7-C ) :   1.1836 B(  6-C ,  8-C ) :   1.2515 
B(  7-C ,  9-C ) :   1.5082 B(  7-C , 13-C ) :   0.9150 B(  8-C , 10-C ) :   1.3189 
B(  8-C , 16-C ) :   0.9609 B(  9-C , 10-C ) :   1.1741 B(  9-C , 11-H ) :   0.9210 
B( 10-C , 30-C ) :   1.1470 B( 12-C , 14-N ) :   1.0706 B( 12-C , 18-O ) :   1.9855 
B( 13-C , 14-N ) :   1.0882 B( 13-C , 19-O ) :   2.0745 B( 14-N , 22-C ) :   0.9477 
B( 15-C , 17-N ) :   1.0836 B( 15-C , 20-O ) :   2.0683 B( 16-C , 17-N ) :   1.0766 
B( 16-C , 21-O ) :   1.9868 B( 17-N , 26-C ) :   0.9494 B( 22-C , 23-H ) :   0.9437 
B( 22-C , 24-H ) :   0.9649 B( 22-C , 25-H ) :   0.9649 B( 26-C , 27-H ) :   0.9424 
B( 26-C , 28-H ) :   0.9653 B( 26-C , 29-H ) :   0.9653 B( 30-C , 31-S ) :   1.1012 
B( 30-C , 33-C ) :   1.4124 B( 31-S , 32-C ) :   1.0941 B( 32-C , 34-C ) :   1.4121 
B( 32-C , 37-C ) :   1.1558 B( 33-C , 34-C ) :   1.2445 B( 33-C , 35-H ) :   0.9568 
B( 34-C , 36-H ) :   0.9559 B( 37-C , 38-C ) :   1.1580 B( 37-C , 41-C ) :   1.3359 
B( 38-C , 39-C ) :   1.5147 B( 38-C , 40-H ) :   0.9249 B( 39-C , 42-C ) :   1.1902 
B( 39-C , 50-C ) :   0.9127 B( 41-C , 43-C ) :   1.2298 B( 41-C , 53-C ) :   0.9642 
B( 42-C , 43-C ) :   1.2306 B( 42-C , 45-C ) :   1.2495 B( 43-C , 44-C ) :   1.2201 
B( 44-C , 46-C ) :   1.4245 B( 44-C , 54-C ) :   0.9415 B( 45-C , 47-C ) :   1.3944 
B( 45-C , 51-C ) :   0.9360 B( 46-C , 47-C ) :   1.2324 B( 46-C , 48-H ) :   0.9705 
B( 47-C , 49-H ) :   0.9783 B( 50-C , 52-N ) :   1.0722 B( 50-C , 56-O ) :   2.0882 
B( 51-C , 52-N ) :   1.0613 B( 51-C , 57-O ) :   2.1066 B( 52-N , 60-C ) :   0.9462 
B( 53-C , 55-N ) :   1.0751 B( 53-C , 58-O ) :   1.9816 B( 54-C , 55-N ) :   1.0759 
B( 54-C , 59-O ) :   2.0899 B( 55-N , 64-C ) :   0.9489 B( 60-C , 61-H ) :   0.9445 
B( 60-C , 62-H ) :   0.9656 B( 60-C , 63-H ) :   0.9656 B( 64-C , 65-H ) :   0.9436 
B( 64-C , 66-H ) :   0.9650 B( 64-C , 67-H ) :   0.9649 B( 68-C , 69-C ) :   1.4537 
B( 68-C , 74-S ) :   1.1045 B( 69-C , 70-C ) :   1.2687 B( 69-C , 71-H ) :   0.9519 
B( 70-C , 72-C ) :   1.4779 B( 70-C , 73-H ) :   0.9813 B( 72-C , 74-S ) :   1.1926 
B( 72-C , 75-H ) :   0.9598 

-------
TIMINGS
-------

Total SCF time: 0 days 0 hours 2 min 29 sec 

Total time                  ....     149.695 sec
Sum of individual times     ....     139.584 sec  ( 93.2%)

Fock matrix formation       ....      97.941 sec  ( 65.4%)
  Split-RI-J                ....      58.412 sec  ( 59.6% of F)
  XC integration            ....      36.538 sec  ( 37.3% of F)
    Basis function eval.    ....       8.542 sec  ( 23.4% of XC)
    Density eval.           ....      13.131 sec  ( 35.9% of XC)
    XC-Functional eval.     ....       2.417 sec  (  6.6% of XC)
    XC-Potential eval.      ....       7.419 sec  ( 20.3% of XC)
Diagonalization             ....       0.720 sec  (  0.5%)
Density matrix formation    ....       0.273 sec  (  0.2%)
Population analysis         ....       2.640 sec  (  1.8%)
Initial guess               ....       0.602 sec  (  0.4%)
Orbital Transformation      ....       0.000 sec  (  0.0%)
Orbital Orthonormalization  ....       0.555 sec  (  0.4%)
DIIS solution               ....       0.280 sec  (  0.2%)
SOSCF solution              ....       4.945 sec  (  3.3%)
Grid generation             ....      32.183 sec  ( 21.5%)


-------------------------------------------------------------------------------
                          DFT DISPERSION CORRECTION                            
                                                                               
                              DFTD3 V3.1  Rev 1                                
                          USING Becke-Johnson damping                          
-------------------------------------------------------------------------------
The BP86 functional is recognized
Active option DFTDOPT                   ...         4   

molecular C6(AA) [au] = 90737.121308 


            DFT-D V3
 parameters
 s6 scaling factor         :     1.0000 
 a1 scaling factor         :     0.3946 
 s8 scaling factor         :     3.2822 
 a2 scaling factor         :     4.8516 
 ad hoc parameters k1-k3   :    16.0000     1.3333    -4.0000 

 Edisp/kcal,au: -131.963685755021  -0.210297496903 
 E6   /kcal   : -48.147294750 
 E8   /kcal   : -83.816391005 
 % E8         :  63.514739321 

-------------------------   ----------------
Dispersion correction           -0.210297497
-------------------------   ----------------


-------------------------   --------------------
FINAL SINGLE POINT ENERGY     -3153.287695943302
-------------------------   --------------------

                                *** OPTIMIZATION RUN DONE ***

                            ***************************************
                            *     ORCA property calculations      *
                            ***************************************

                                    ---------------------
                                    Active property flags
                                    ---------------------
   (+) Dipole Moment


------------------------------------------------------------------------------
                       ORCA ELECTRIC PROPERTIES CALCULATION
------------------------------------------------------------------------------

Dipole Moment Calculation                       ... on
Quadrupole Moment Calculation                   ... off
Polarizability Calculation                      ... off
GBWName                                         ... PNDI_T_Optimize_Monomer.gbw
Electron density file                           ... PNDI_T_Optimize_Monomer.scfp
The origin for moment calculation is the CENTER OF MASS  = ( 4.075264,  1.862355  0.000082)

-------------
DIPOLE MOMENT
-------------
                                X             Y             Z
Electronic contribution:     -2.50502      -2.23537       0.00203
Nuclear contribution   :      1.25476       2.36062      -0.00198
                        -----------------------------------------
Total Dipole Moment    :     -1.25026       0.12525       0.00005
                        -----------------------------------------
Magnitude (a.u.)       :      1.25651
Magnitude (Debye)      :      3.19381



--------------------
Rotational spectrum 
--------------------
 
Rotational constants in cm-1:     0.003131     0.000656     0.000543 
Rotational constants in MHz :    93.853000    19.671383    16.269503 

 Dipole components along the rotational axes: 
x,y,z [a.u.] :     1.253492     0.087095     0.000100 
x,y,z [Debye]:     3.186124     0.221377     0.000255 

 

Timings for individual modules:

Sum of individual times         ...     4902.349 sec (=  81.706 min)
GTO integral calculation        ...       77.357 sec (=   1.289 min)   1.6 %
SCF iterations                  ...     2954.101 sec (=  49.235 min)  60.3 %
SCF Gradient evaluation         ...     1819.941 sec (=  30.332 min)  37.1 %
Geometry relaxation             ...       50.950 sec (=   0.849 min)   1.0 %
                             ****ORCA TERMINATED NORMALLY****
TOTAL RUN TIME: 0 days 1 hours 22 minutes 17 seconds 791 msec
