
                                 *****************
                                 * O   R   C   A *
                                 *****************

           --- An Ab Initio, DFT and Semiempirical electronic structure package ---

                  #######################################################
                  #                        -***-                        #
                  #          Department of theory and spectroscopy      #
                  #               Directorship: Frank Neese             #
                  #        Max Planck Institute fuer Kohlenforschung    #
                  #                Kaiser Wilhelm Platz 1               #
                  #                 D-45470 Muelheim/Ruhr               #
                  #                      Germany                        #
                  #                                                     #
                  #                  All rights reserved                #
                  #                        -***-                        #
                  #######################################################


                         Program Version 4.2.0 -  RELEASE  -


 With contributions from (in alphabetic order):
   Daniel Aravena         : Magnetic Suceptibility
   Michael Atanasov       : Ab Initio Ligand Field Theory (pilot matlab implementation)
   Alexander A. Auer      : GIAO ZORA, VPT2
   Ute Becker             : Parallelization
   Giovanni Bistoni       : ED, misc. LED, open-shell LED, HFLED
   Martin Brehm           : Molecular dynamics
   Dmytro Bykov           : SCF Hessian
   Vijay G. Chilkuri      : MRCI spin determinant printing, contributions to CSF-ICE
   Dipayan Datta          : RHF DLPNO-CCSD density
   Achintya Kumar Dutta   : EOM-CC, STEOM-CC
   Dmitry Ganyushin       : Spin-Orbit,Spin-Spin,Magnetic field MRCI
   Miquel Garcia          : C-PCM Hessian, Gaussian charge scheme
   Yang Guo               : DLPNO-NEVPT2, CIM, IAO-localization
   Andreas Hansen         : Spin unrestricted coupled pair/coupled cluster methods
   Benjamin Helmich-Paris : CASSCF linear response (MC-RPA)
   Lee Huntington         : MR-EOM, pCC
   Robert Izsak           : Overlap fitted RIJCOSX, COSX-SCS-MP3, EOM
   Christian Kollmar      : KDIIS, OOCD, Brueckner-CCSD(T), CCSD density
   Simone Kossmann        : Meta GGA functionals, TD-DFT gradient, OOMP2, MP2 Hessian
   Martin Krupicka        : AUTO-CI
   Lucas Lang             : DCDCAS
   Dagmar Lenk            : GEPOL surface, SMD
   Dimitrios Liakos       : Extrapolation schemes; Compound Job, initial MDCI parallelization
   Dimitrios Manganas     : Further ROCIS development; embedding schemes
   Dimitrios Pantazis     : SARC Basis sets
   Taras Petrenko         : DFT Hessian,TD-DFT gradient, ASA, ECA, R-Raman, ABS, FL, XAS/XES, NRVS
   Peter Pinski           : DLPNO-MP2, DLPNO-MP2 Gradient
   Christoph Reimann      : Effective Core Potentials
   Marius Retegan         : Local ZFS, SOC
   Christoph Riplinger    : Optimizer, TS searches, QM/MM, DLPNO-CCSD(T), (RO)-DLPNO pert. Triples
   Tobias Risthaus        : Range-separated hybrids, TD-DFT gradient, RPA, STAB
   Michael Roemelt        : Original ROCIS implementation
   Masaaki Saitow         : Open-shell DLPNO-CCSD energy and density
   Barbara Sandhoefer     : DKH picture change effects
   Avijit Sen             : IP-ROCIS
   Kantharuban Sivalingam : CASSCF convergence, NEVPT2, FIC-MRCI
   Bernardo de Souza      : ESD, SOC TD-DFT
   Georgi Stoychev        : AutoAux, RI-MP2 NMR
   Willem Van den Heuvel  : Paramagnetic NMR
   Boris Wezisla          : Elementary symmetry handling
   Frank Wennmohs         : Technical directorship


 We gratefully acknowledge several colleagues who have allowed us to
 interface, adapt or use parts of their codes:
   Stefan Grimme, W. Hujo, H. Kruse,             : VdW corrections, initial TS optimization,
                  C. Bannwarth                     DFT functionals, gCP, sTDA/sTD-DF
   Ed Valeev, F. Pavosevic, A. Kumar             : LibInt (2-el integral package), F12 methods
   Garnet Chan, S. Sharma, J. Yang, R. Olivares  : DMRG
   Ulf Ekstrom                                   : XCFun DFT Library
   Mihaly Kallay                                 : mrcc  (arbitrary order and MRCC methods)
   Andreas Klamt, Michael Diedenhofen            : otool_cosmo (COSMO solvation model)
   Jiri Pittner, Ondrej Demel                    : Mk-CCSD
   Frank Weinhold                                : gennbo (NPA and NBO analysis)
   Christopher J. Cramer and Donald G. Truhlar   : smd solvation model
   Lars Goerigk                                  : TD-DFT with DH, B97 family of functionals
   V. Asgeirsson, H. Jonsson                     : NEB implementation
   FAccTs GmbH                                   : IRC, NEB, NEB-TS, Multilevel, MM, QM/MM, CI optimization
   S Lehtola, MJT Oliveira, MAL Marques          : LibXC Library


 Your calculation uses the libint2 library for the computation of 2-el integrals
 For citations please refer to: http://libint.valeyev.net

 Your ORCA version has been built with support for libXC version: 4.2.3
 For citations please refer to: https://tddft.org/programs/libxc/

 This ORCA versions uses:
   CBLAS   interface :  Fast vector & matrix operations
   LAPACKE interface :  Fast linear algebra routines
   SCALAPACK package :  Parallel linear algebra routines


Your calculation utilizes the atom-pairwise dispersion correction
with the Becke-Johnson damping scheme (D3BJ)
Cite in your paper:
S.Grimme, S.Ehrlich, L.Goerigk, J Comput Chem, (2011), 32, 1456–1465 
S.Grimme, J.Antony, S.Ehrlich and H.Krieg, J.Chem.Phys., 132, (2010), 154104 
   

----- Orbital basis set information -----
Your calculation utilizes the basis: def2-SVP
   F. Weigend and R. Ahlrichs, Phys. Chem. Chem. Phys. 7, 3297 (2005).

----- AuxJ basis set information -----
Your calculation utilizes the auxiliary basis: def2/J
   F. Weigend, Phys. Chem. Chem. Phys. 8, 1057 (2006).

================================================================================
                                        WARNINGS
                       Please study these warnings very carefully!
================================================================================


WARNING: Geometry Optimization
  ===> : Switching off AutoStart
         For restart on a previous wavefunction, please use MOREAD

INFO   : the flag for use of LIBINT has been found!

================================================================================
                                       INPUT FILE
================================================================================
NAME = PNDI-T_S_Optimize_Monomer.inp
|  1> ! RI BP86 def2-SVP def2/J D3BJ TIGHTSCF  Opt Grid3 FinalGrid5
|  2> %maxcore 3000
|  3> %geom
|  4> Constraints
|  5> {D 4 9 144 145 0.0 C}
|  6> {D 13 9 144 150 0.0 C}
|  7> {D 8 11 152 155 0.0 C}
|  8> {D 14 11 152 156 0.0 C}
|  9> {D 155 154 159 162 0.0 C}
| 10> {D 153 154 159 160 0.0 C}
| 11> end
| 12> end
| 13> 
| 14> *xyz 0 1
| 15> C	0.741665	1.657521	0.100458
| 16> C	0.441595	0.201371	0.207908
| 17> N	2.069025	2.090411	0.326028
| 18> C	2.875625	1.226821	1.008978
| 19> C	2.854445	-0.112629	0.410628
| 20> C	1.549505	-0.613849	0.165258
| 21> O	-0.192925	2.382691	-0.203932
| 22> O	3.456855	1.458481	2.060388
| 23> C	-0.874695	-0.338819	0.122888
| 24> C	4.008065	-0.815079	0.065708
| 25> C	1.341515	-1.935759	-0.180502
| 26> C	-1.156855	-1.742329	0.040038
| 27> H	-1.689905	0.386071	0.110698
| 28> C	3.794055	-2.026549	-0.576522
| 29> C	0.034325	-2.559819	-0.102342
| 30> C	2.497745	-2.570209	-0.637422
| 31> H	4.635965	-2.611559	-0.945332
| 32> C	0.205125	-4.087809	0.029878
| 33> C	2.332915	-3.938649	-1.088052
| 34> N	1.512765	-4.609289	-0.223572
| 35> O	-0.725625	-4.786109	0.410338
| 36> O	2.971505	-4.376179	-2.030092
| 37> C	2.269595	3.521591	0.480668
| 38> C	3.598665	4.297101	0.198978
| 39> H	1.879365	3.775611	1.472788
| 40> H	1.628025	3.916661	-0.302592
| 41> C	3.685905	5.593881	1.116468
| 42> C	4.086345	6.963231	0.458178
| 43> H	4.325655	5.393691	1.985328
| 44> H	2.687435	5.772741	1.536148
| 45> C	5.570685	7.304681	0.502988
| 46> H	3.539535	7.757971	0.979898
| 47> H	3.775495	6.979611	-0.586972
| 48> C	6.046725	8.738221	0.213738
| 49> H	6.048565	6.716361	-0.279242
| 50> H	5.975595	7.004331	1.476448
| 51> C	7.581375	8.632281	0.160878
| 52> H	5.721175	9.425011	1.001328
| 53> H	5.653055	9.097091	-0.743982
| 54> C	8.411155	9.904931	0.034378
| 55> H	7.847515	7.976581	-0.679792
| 56> H	7.911905	8.115031	1.071558
| 57> C	9.890075	9.478821	0.081728
| 58> H	8.186485	10.593571	0.856008
| 59> H	8.192715	10.418781	-0.908422
| 60> C	10.873335	10.630391	0.046538
| 61> H	10.102205	8.806971	-0.759792
| 62> H	10.072935	8.899981	0.996258
| 63> H	10.776285	11.207131	-0.876912
| 64> H	11.895755	10.237991	0.095178
| 65> H	10.729475	11.297721	0.900848
| 66> C	4.860825	3.427431	0.227208
| 67> H	3.512805	4.656931	-0.836372
| 68> C	6.048265	4.264041	-0.174462
| 69> H	4.757845	2.588101	-0.466572
| 70> H	5.038095	3.038721	1.233398
| 71> C	7.378185	3.570531	-0.258712
| 72> H	6.170115	4.981921	0.631528
| 73> H	5.845555	4.776271	-1.122422
| 74> C	8.455745	4.643651	-0.380402
| 75> H	7.411615	2.889351	-1.113392
| 76> H	7.538245	3.002461	0.660458
| 77> C	9.821595	4.023411	-0.198182
| 78> H	8.308985	5.414781	0.387658
| 79> H	8.382585	5.147441	-1.352252
| 80> C	10.894655	5.098861	-0.142222
| 81> H	10.018495	3.325011	-1.019482
| 82> H	9.841555	3.445301	0.734238
| 83> C	12.247595	4.426881	0.018068
| 84> H	10.706425	5.776861	0.700168
| 85> H	10.871865	5.703741	-1.056692
| 86> C	13.373575	5.446141	0.073828
| 87> H	12.409695	3.739431	-0.821192
| 88> H	12.251055	3.822961	0.934278
| 89> C	14.715085	4.725281	0.143888
| 90> H	13.244785	6.093781	0.949638
| 91> H	13.338475	6.088461	-0.814312
| 92> C	15.866075	5.710251	0.188018
| 93> H	14.829595	4.072451	-0.729762
| 94> H	14.746995	4.083901	1.032608
| 95> H	15.863835	6.350931	-0.699332
| 96> H	16.818295	5.173361	0.221428
| 97> H	15.798465	6.347601	1.074968
| 98> C	1.929775	-5.965999	0.176328
| 99> C	3.482845	-6.389329	0.066068
|100> H	1.332775	-6.664959	-0.421762
|101> H	1.613065	-6.086689	1.219698
|102> C	3.640345	-7.828259	0.679288
|103> C	4.493275	-8.890079	-0.080732
|104> H	2.637635	-8.269589	0.746998
|105> H	3.992665	-7.748259	1.715208
|106> C	5.998865	-8.774979	0.145728
|107> H	4.269725	-8.851399	-1.152892
|108> H	4.175335	-9.878239	0.273088
|109> C	6.897015	-9.978809	-0.153142
|110> H	6.175135	-8.509429	1.193908
|111> H	6.365065	-7.981389	-0.503812
|112> C	8.357095	-9.507349	0.005398
|113> H	6.727785	-10.345129	-1.171012
|114> H	6.679735	-10.793539	0.545578
|115> C	9.407545	-10.609369	-0.102882
|116> H	8.472855	-9.014279	0.979978
|117> H	8.565455	-8.742839	-0.754982
|118> C	10.811715	-10.000979	0.016988
|119> H	9.308935	-11.130659	-1.061522
|120> H	9.252895	-11.346399	0.693538
|121> C	11.904935	-11.054899	-0.016752
|122> H	10.895145	-9.434409	0.952608
|123> H	10.977005	-9.289319	-0.801212
|124> H	11.806235	-11.748959	0.823568
|125> H	12.888715	-10.578489	0.052678
|126> H	11.870885	-11.628419	-0.947832
|127> C	4.507355	-5.360729	0.705718
|128> H	3.710775	-6.462709	-1.004542
|129> C	5.972565	-5.692279	0.380608
|130> H	4.366195	-5.321699	1.791528
|131> H	4.323775	-4.360379	0.342378
|132> C	7.123265	-4.674869	0.527958
|133> H	6.007315	-6.026869	-0.661612
|134> H	6.238235	-6.502499	1.055768
|135> C	8.454135	-5.446729	0.295838
|136> H	7.118915	-4.225559	1.525868
|137> H	7.020395	-3.873399	-0.211432
|138> C	9.755315	-4.630999	0.331818
|139> H	8.401175	-5.956109	-0.675842
|140> H	8.527625	-6.237379	1.054278
|141> C	10.975415	-5.570939	0.194108
|142> H	9.824495	-4.077149	1.274348
|143> H	9.759065	-3.900819	-0.485432
|144> C	12.323055	-4.836209	0.202108
|145> H	10.889455	-6.145819	-0.736862
|146> H	10.962265	-6.297959	1.016118
|147> C	13.505385	-5.817799	0.127898
|148> H	12.408715	-4.235499	1.115038
|149> H	12.369515	-4.146229	-0.648672
|150> C	14.854445	-5.091529	0.140768
|151> H	13.427195	-6.421919	-0.784472
|152> H	13.460055	-6.511579	0.976518
|153> C	16.027495	-6.062019	0.092448
|154> H	14.938805	-4.479369	1.046068
|155> H	14.919415	-4.412819	-0.717462
|156> H	16.019285	-6.735309	0.955688
|157> H	16.975095	-5.512739	0.103748
|158> H	16.001525	-6.669479	-0.817872
|159> C	5.380575	-0.360879	0.327778
|160> C	5.966935	0.011431	1.524628
|161> C	7.341295	0.358311	1.385998
|162> H	5.436755	0.048001	2.469908
|163> C	7.774825	0.222761	0.087808
|164> H	7.971985	0.706951	2.195368
|165> S	6.521975	-0.285359	-0.956482
|166> H	8.760855	0.433441	-0.303752
|167> C	-2.667645	-2.153429	-0.021892
|168> C	-4.776255	-3.206039	-0.551812
|169> C	-5.347005	-2.031619	-0.071982
|170> S	-3.969855	-1.069559	0.515248
|171> C	-3.309105	-3.283439	-0.505432
|172> H	-5.352475	-4.016569	-0.977272
|173> H	-2.775715	-4.149209	-0.880172
|174> C	-6.833765	-1.482469	-0.032332
|175> C	-8.100715	-2.211179	-0.089782
|176> C	-9.346275	-1.461569	-0.079112
|177> C	-6.984975	-0.042119	0.072658
|178> C	-8.232275	0.659821	0.027878
|179> H	-6.102905	0.586401	0.206798
|180> C	-9.402985	-0.038739	-0.118692
|181> C	-10.617885	0.674901	-0.176492
|182> C	-10.591815	-2.073089	0.084348
|183> C	-11.815675	-1.380799	0.073438
|184> C	-11.829485	-0.006669	-0.097502
|185> H	-12.775665	0.532021	-0.098402
|186> H	-12.752055	-1.914149	0.231688
|187> C	-10.645795	2.169511	-0.278082
|188> C	-8.398365	2.099451	0.440758
|189> N	-9.440815	2.861851	-0.138892
|190> C	-10.608545	-3.476679	0.476738
|191> C	-8.338515	-3.761919	-0.147472
|192> N	-9.687705	-4.270379	-0.155932
|193> O	-7.692715	2.431731	1.388148
|194> O	-11.738155	2.719321	-0.404502
|195> O	-7.379635	-4.524939	-0.115382
|196> O	-11.369585	-3.811609	1.375408
|197> C	-9.634705	4.415011	0.011738
|198> C	-8.480075	5.463641	-0.416662
|199> H	-9.891005	4.577341	1.065438
|200> H	-10.514915	4.696171	-0.581282
|201> C	-9.932545	-5.761859	-0.053122
|202> C	-11.317615	-6.480259	-0.613992
|203> H	-9.845315	-6.011989	1.011788
|204> H	-9.099725	-6.254159	-0.570682
|205> C	-8.610865	6.916951	0.239028
|206> C	-7.742925	8.216311	-0.152882
|207> H	-8.537425	6.805971	1.328088
|208> H	-9.647775	7.228951	0.043978
|209> C	-6.214975	8.230771	0.079778
|210> H	-8.150055	9.042201	0.448458
|211> H	-7.946455	8.477721	-1.197672
|212> C	-5.358825	9.521971	0.057118
|213> H	-5.782965	7.630801	-0.717702
|214> H	-6.028645	7.800641	1.066958
|215> C	-3.850575	9.122751	0.074198
|216> H	-5.583035	10.136031	0.935708
|217> H	-5.566015	10.114691	-0.839292
|218> C	-2.853825	10.284951	0.236988
|219> H	-3.619395	8.589381	-0.858122
|220> H	-3.674065	8.405291	0.887298
|221> C	-1.407255	9.787131	0.103988
|222> H	-2.982805	10.746581	1.221878
|223> H	-3.040355	11.050401	-0.522702
|224> C	-0.351895	10.866191	0.295088
|225> H	-0.311645	11.195031	1.337368
|226> H	-0.541215	11.731011	-0.345562
|227> H	0.640945	10.479351	0.041468
|228> H	-1.271255	9.345081	-0.889212
|229> H	-1.231065	9.005291	0.848948
|230> C	-7.266025	4.708041	-0.000462
|231> H	-8.494745	5.581581	-1.507312
|232> C	-5.930985	5.280041	-0.145402
|233> H	-7.231545	3.801431	-0.605002
|234> H	-7.380375	4.513831	1.070998
|235> C	-4.909675	4.201141	0.085778
|236> H	-5.823595	5.985921	0.669888
|237> H	-5.789215	5.730391	-1.127822
|238> C	-3.655405	4.984341	0.299728
|239> H	-4.849725	3.518551	-0.768012
|240> H	-5.153855	3.605841	0.976238
|241> C	-2.523495	4.097871	0.691918
|242> H	-3.830265	5.704151	1.111178
|243> H	-3.409015	5.562741	-0.599222
|244> C	-1.424575	5.037461	1.145518
|245> H	-2.262165	3.465241	-0.162082
|246> H	-2.812775	3.427361	1.508838
|247> C	-0.427325	5.280071	0.040028
|248> H	-0.920135	4.560361	1.993318
|249> H	-1.809045	5.992101	1.522588
|250> C	-0.224205	6.692401	-0.448362
|251> H	-0.565115	4.624571	-0.825862
|252> H	0.495355	5.048201	0.543098
|253> C	1.025845	6.731981	-1.327442
|254> H	-0.068555	7.326901	0.426338
|255> H	-1.097435	7.038711	-1.006302
|256> C	1.513565	8.143181	-1.566942
|257> H	1.720895	8.636201	-0.612202
|258> H	0.772965	8.725911	-2.116562
|259> H	2.445255	8.133551	-2.140472
|260> H	0.859355	6.210631	-2.275742
|261> H	1.819985	6.184561	-0.823472
|262> C	-11.181605	-8.081049	-0.421962
|263> C	-12.139515	-9.295739	-0.023802
|264> H	-10.329235	-8.215589	0.260218
|265> H	-10.767475	-8.404559	-1.390992
|266> C	-13.666655	-9.267099	-0.093292
|267> H	-11.878195	-9.578729	1.005408
|268> H	-11.811985	-10.152279	-0.631382
|269> C	-14.527485	-10.556869	0.014858
|270> H	-13.954575	-8.810789	-1.041152
|271> H	-13.984275	-8.685899	0.775698
|272> C	-16.019095	-10.117919	0.012378
|273> H	-14.299735	-11.099529	0.938728
|274> H	-14.330485	-11.223379	-0.831452
|275> C	-17.100545	-11.208679	0.056128
|276> H	-16.194805	-9.513509	-0.886662
|277> H	-16.182535	-9.454219	0.871648
|278> C	-18.494625	-10.547329	0.005648
|279> H	-17.007885	-11.800109	0.973918
|280> H	-16.986595	-11.889839	-0.794262
|281> C	-19.653485	-11.532669	0.010998
|282> H	-18.574375	-9.930229	-0.897662
|283> H	-18.611935	-9.871949	0.862008
|284> H	-19.605735	-12.208719	-0.847692
|285> H	-20.604635	-10.988969	-0.046012
|286> H	-19.666005	-12.128659	0.928148
|287> C	-12.612955	-5.735069	-0.199552
|288> H	-11.264575	-6.333539	-1.704472
|289> C	-13.933095	-6.314779	-0.674002
|290> H	-12.567615	-4.721049	-0.607212
|291> H	-12.652545	-5.680979	0.892738
|292> C	-15.192045	-5.440609	-0.653532
|293> H	-14.160805	-7.046459	0.078478
|294> H	-13.828535	-6.784329	-1.656732
|295> C	-16.420825	-6.375839	-0.659972
|296> H	-15.207915	-4.778309	-1.524252
|297> H	-15.207025	-4.822049	0.249998
|298> C	-17.769965	-5.665829	-0.557892
|299> H	-16.341035	-7.065219	0.191158
|300> H	-16.403295	-6.996749	-1.565252
|301> C	-18.895535	-6.702269	-0.427302
|302> H	-17.931905	-5.045519	-1.446062
|303> H	-17.775365	-5.006239	0.316888
|304> C	-20.275605	-6.066089	-0.254332
|305> H	-18.693595	-7.353469	0.432268
|306> H	-18.902395	-7.343779	-1.317732
|307> C	-21.349985	-7.146279	-0.085112
|308> H	-20.503845	-5.445079	-1.128232
|309> H	-20.276315	-5.408939	0.623528
|310> C	-22.759665	-6.556079	-0.068562
|311> H	-21.172375	-7.695049	0.848528
|312> H	-21.271435	-7.873309	-0.902602
|313> C	-23.814365	-7.649349	0.021748
|314> H	-22.929545	-5.972449	-0.980652
|315> H	-22.871105	-5.872799	0.781168
|316> H	-23.731425	-8.344289	-0.820482
|317> H	-24.818035	-7.213269	0.002188
|318> H	-23.709385	-8.221369	0.949138
|319> **                         ****END OF INPUT****
================================================================================

                       *****************************
                       * Geometry Optimization Run *
                       *****************************

Geometry optimization settings:
Update method            Update   .... BFGS
Choice of coordinates    CoordSys .... Z-matrix Internals
Initial Hessian          InHess   .... Almoef's Model

Convergence Tolerances:
Energy Change            TolE     ....  5.0000e-06 Eh
Max. Gradient            TolMAXG  ....  3.0000e-04 Eh/bohr
RMS Gradient             TolRMSG  ....  1.0000e-04 Eh/bohr
Max. Displacement        TolMAXD  ....  4.0000e-03 bohr
RMS Displacement         TolRMSD  ....  2.0000e-03 bohr
Strict Convergence                ....  False
------------------------------------------------------------------------------
                        ORCA OPTIMIZATION COORDINATE SETUP
------------------------------------------------------------------------------

The optimization will be done in new redundant internal coordinates
Making redundant internal coordinates   ...  (new redundants) done
Evaluating the initial hessian          ...  (Almloef) done
Evaluating the coordinates              ...  done
Calculating the B-matrix                .... done
Calculating the G-matrix                .... done
Diagonalizing the G-matrix              .... done
Imposing constraints:
 Iter   0:  RMS(Cart)=    0.6285948377 RMS(Int)=    0.3392715975
 Iter   1:  RMS(Cart)=    0.3213679057 RMS(Int)=    0.2075149732
 Iter   2:  RMS(Cart)=    0.1981756174 RMS(Int)=    0.1371211299
 Iter   3:  RMS(Cart)=    0.1339499601 RMS(Int)=    0.0965281995
 Iter   4:  RMS(Cart)=    0.0960052132 RMS(Int)=    0.0709486056
 Iter   5:  RMS(Cart)=    0.0714373828 RMS(Int)=    0.0536957538
 Iter   6:  RMS(Cart)=    0.0544809440 RMS(Int)=    0.0414505585
 Iter   7:  RMS(Cart)=    0.0422447110 RMS(Int)=    0.0324324701
 Iter   8:  RMS(Cart)=    0.0331360431 RMS(Int)=    0.0256150582
 Iter   9:  RMS(Cart)=    0.0262057092 RMS(Int)=    0.0203656667
 Iter  10:  RMS(Cart)=    0.0208497932 RMS(Int)=    0.0162706522
 Iter  11:  RMS(Cart)=    0.0166633069 RMS(Int)=    0.0130460407
 Iter  12:  RMS(Cart)=    0.0133631793 RMS(Int)=    0.0104892458
 Iter  13:  RMS(Cart)=    0.0107450996 RMS(Int)=    0.0084514406
 Iter  14:  RMS(Cart)=    0.0086579036 RMS(Int)=    0.0068208423
 Iter  15:  RMS(Cart)=    0.0069875851 RMS(Int)=    0.0055120725
 Iter  16:  RMS(Cart)=    0.0056468692 RMS(Int)=    0.0044590815
 Iter  17:  RMS(Cart)=    0.0045681572 RMS(Int)=    0.0036102648
 Iter  18:  RMS(Cart)=    0.0036986030 RMS(Int)=    0.0029249922
 Iter  19:  RMS(Cart)=    0.0029965875 RMS(Int)=    0.0023710783
 Iter  20:  RMS(Cart)=    0.0024291387 RMS(Int)=    0.0019229036
 Iter  21:  RMS(Cart)=    0.0019700104 RMS(Int)=    0.0015599956
 Iter  22:  RMS(Cart)=    0.0015982299 RMS(Int)=    0.0012659435
 Iter  23:  RMS(Cart)=    0.0012969856 RMS(Int)=    0.0010275592
 Iter  24:  RMS(Cart)=    0.0010527677 RMS(Int)=    0.0008342224
 Iter  25:  RMS(Cart)=    0.0008546972 RMS(Int)=    0.0006773668
 Iter  26:  RMS(Cart)=    0.0006939990 RMS(Int)=    0.0005500732
 Iter  27:  RMS(Cart)=    0.0005635853 RMS(Int)=    0.0004467468
 Iter  28:  RMS(Cart)=    0.0004577248 RMS(Int)=    0.0003628595
 Iter  29:  RMS(Cart)=    0.0003717791 RMS(Int)=    0.0002947439
 Iter  30:  RMS(Cart)=    0.0003019913 RMS(Int)=    0.0002394281
 Iter  31:  RMS(Cart)=    0.0002453170 RMS(Int)=    0.0001945023
 Iter  32:  RMS(Cart)=    0.0001992874 RMS(Int)=    0.0001580120
 Iter  33:  RMS(Cart)=    0.0001619002 RMS(Int)=    0.0001283714
 Iter  34:  RMS(Cart)=    0.0001315309 RMS(Int)=    0.0001042935
 Iter  35:  RMS(Cart)=    0.0001068608 RMS(Int)=    0.0000847334
 Iter  36:  RMS(Cart)=    0.0000868195 RMS(Int)=    0.0000688428
 Iter  37:  RMS(Cart)=    0.0000705379 RMS(Int)=    0.0000559330
 Iter  38:  RMS(Cart)=    0.0000573104 RMS(Int)=    0.0000454446
 Iter  39:  RMS(Cart)=    0.0000465639 RMS(Int)=    0.0000369233
 Iter  40:  RMS(Cart)=    0.0000378328 RMS(Int)=    0.0000300000
 Iter  41:  RMS(Cart)=    0.0000307390 RMS(Int)=    0.0000243751
 Iter  42:  RMS(Cart)=    0.0000249755 RMS(Int)=    0.0000198048
 Iter  43:  RMS(Cart)=    0.0000202927 RMS(Int)=    0.0000160916
 Iter  44:  RMS(Cart)=    0.0000164880 RMS(Int)=    0.0000130746
 Iter  45:  RMS(Cart)=    0.0000133967 RMS(Int)=    0.0000106232
 Iter  46:  RMS(Cart)=    0.0000108850 RMS(Int)=    0.0000086315
 Iter  47:  RMS(Cart)=    0.0000088442 RMS(Int)=    0.0000070132
 Iter  48:  RMS(Cart)=    0.0000071860 RMS(Int)=    0.0000056984
 Iter  49:  RMS(Cart)=    0.0000058388 RMS(Int)=    0.0000046300
 Iter  50:  RMS(Cart)=    0.0000047441 RMS(Int)=    0.0000037620
 Iter  51:  RMS(Cart)=    0.0000038547 RMS(Int)=    0.0000030567
 Iter  52:  RMS(Cart)=    0.0000031320 RMS(Int)=    0.0000024836
 Iter  53:  RMS(Cart)=    0.0000025448 RMS(Int)=    0.0000020180
 Iter  54:  RMS(Cart)=    0.0000020677 RMS(Int)=    0.0000016396
 Iter  55:  RMS(Cart)=    0.0000016800 RMS(Int)=    0.0000013322
 Iter  56:  RMS(Cart)=    0.0000013651 RMS(Int)=    0.0000010825
 Iter  57:  RMS(Cart)=    0.0000011091 RMS(Int)=    0.0000008795
 Iter  58:  RMS(Cart)=    0.0000009012 RMS(Int)=    0.0000007146
 Iter  59:  RMS(Cart)=    0.0000007322 RMS(Int)=    0.0000005807
 Iter  60:  RMS(Cart)=    0.0000005950 RMS(Int)=    0.0000004718
 Iter  61:  RMS(Cart)=    0.0000004834 RMS(Int)=    0.0000003833
 Iter  62:  RMS(Cart)=    0.0000003928 RMS(Int)=    0.0000003115
 Iter  63:  RMS(Cart)=    0.0000003191 RMS(Int)=    0.0000002531
 Iter  64:  RMS(Cart)=    0.0000002593 RMS(Int)=    0.0000002056
 Iter  65:  RMS(Cart)=    0.0000002107 RMS(Int)=    0.0000001671
 Iter  66:  RMS(Cart)=    0.0000001712 RMS(Int)=    0.0000001358
 Iter  67:  RMS(Cart)=    0.0000001391 RMS(Int)=    0.0000001103
 Iter  68:  RMS(Cart)=    0.0000001130 RMS(Int)=    0.0000000896
 Iter  69:  RMS(Cart)=    0.0000000918 RMS(Int)=    0.0000000728
CONVERGED
Small eigenvalue found = 5.007e-05
Small eigenvalue found = 6.009e-05
Small eigenvalue found = 1.076e-04
Small eigenvalue found = 1.772e-04
Small eigenvalue found = 2.051e-04
Small eigenvalue found = 2.805e-04
Small eigenvalue found = 2.991e-04
Small eigenvalue found = 3.248e-04
Small eigenvalue found = 4.452e-04
Small eigenvalue found = 6.464e-04
Small eigenvalue found = 7.403e-04
Small eigenvalue found = 8.852e-04
Small eigenvalue found = 1.033e-03
Small eigenvalue found = 1.281e-03
Small eigenvalue found = 1.339e-03
Small eigenvalue found = 1.565e-03
Small eigenvalue found = 2.001e-03
Small eigenvalue found = 2.167e-03
Small eigenvalue found = 2.268e-03
Small eigenvalue found = 2.308e-03
Small eigenvalue found = 2.475e-03
Small eigenvalue found = 2.657e-03
Small eigenvalue found = 2.830e-03
Small eigenvalue found = 3.655e-03
Small eigenvalue found = 3.770e-03
Small eigenvalue found = 4.061e-03
Small eigenvalue found = 4.379e-03
Small eigenvalue found = 4.715e-03
Small eigenvalue found = 5.172e-03
Small eigenvalue found = 5.380e-03
Small eigenvalue found = 6.066e-03
Small eigenvalue found = 6.643e-03
Small eigenvalue found = 7.429e-03
Small eigenvalue found = 7.935e-03
Small eigenvalue found = 8.347e-03
Small eigenvalue found = 9.015e-03
Small eigenvalue found = 9.811e-03
Small eigenvalue found = 1.009e-02
Small eigenvalue found = 1.086e-02
Small eigenvalue found = 1.167e-02
Small eigenvalue found = 1.279e-02
Small eigenvalue found = 1.312e-02
Small eigenvalue found = 1.357e-02
Small eigenvalue found = 1.386e-02
Small eigenvalue found = 1.501e-02
Small eigenvalue found = 1.569e-02
Small eigenvalue found = 1.663e-02
Small eigenvalue found = 1.886e-02
Small eigenvalue found = 1.914e-02
Small eigenvalue found = 1.999e-02
Small eigenvalue found = 2.128e-02
Small eigenvalue found = 2.180e-02
Small eigenvalue found = 2.287e-02
Small eigenvalue found = 2.490e-02
Small eigenvalue found = 2.555e-02
Small eigenvalue found = 2.593e-02
Small eigenvalue found = 2.822e-02
Small eigenvalue found = 2.839e-02
Small eigenvalue found = 2.874e-02
Small eigenvalue found = 2.925e-02
The first mode is                       ....  416
The number of degrees of freedom        ....  906
Storing new coordinates                 .... done

    -----------------------------------------------------------------
                    Redundant Internal Coordinates


    -----------------------------------------------------------------
         Definition                    Initial Value    Approx d2E/dq
    -----------------------------------------------------------------
      1. B(C   1,C   0)                  1.4879         0.431717   
      2. B(N   2,C   0)                  1.4188         0.511863   
      3. B(C   3,N   2)                  1.3761         0.613766   
      4. B(C   4,C   3)                  1.4749         0.470558   
      5. B(C   5,C   1)                  1.3847         0.657340   
      6. B(C   5,C   4)                  1.4251         0.561122   
      7. B(O   6,C   0)                  1.2259         1.039341   
      8. B(O   7,C   3)                  1.2288         1.031602   
      9. B(C   8,C   1)                  1.4311         0.548685   
     10. B(C   9,C   4)                  1.3994         0.615675   
     11. B(C  10,C   5)                  1.3848         0.643147   
     12. B(C  11,C   8)                  1.4314         0.531570   
     13. B(H  12,C   8)                  1.0950         0.358840   
     14. B(C  13,C   9)                  1.3987         0.629925   
     15. B(C  14,C  11)                  1.4513         0.498057   
     16. B(C  14,C  10)                  1.4545         0.500057   
     17. B(C  15,C  10)                  1.4074         0.611695   
     18. B(C  15,C  13)                  1.4190         0.586935   
     19. B(H  16,C  13)                  1.0921         0.360726   
     20. B(C  17,C  14)                  1.5323         0.355916   
     21. B(C  18,C  15)                  1.4703         0.500970   
     22. B(N  19,C  17)                  1.4312         0.482379   
     23. B(N  19,C  18)                  1.3829         0.608084   
     24. B(O  20,C  17)                  1.2280         1.028957   
     25. B(O  21,C  18)                  1.2247         1.047687   
     26. B(C  22,N   2)                  1.4615         0.443302   
     27. B(C  23,C  22)                  1.5857         0.329286   
     28. B(H  24,C  22)                  1.1017         0.352314   
     29. B(H  25,C  22)                  1.0996         0.364325   
     30. B(C  26,C  23)                  1.5932         0.298661   
     31. B(C  27,C  26)                  1.5955         0.321048   
     32. B(H  28,C  26)                  1.1073         0.350450   
     33. B(H  29,C  26)                  1.1146         0.349987   
     34. B(C  30,C  27)                  1.5517         0.382230   
     35. B(H  31,C  27)                  1.1063         0.351313   
     36. B(H  32,C  27)                  1.0984         0.359412   
     37. B(C  33,C  30)                  1.5702         0.362811   
     38. B(H  34,C  30)                  1.0985         0.361150   
     39. B(H  35,C  30)                  1.1114         0.351913   
     40. B(C  36,C  33)                  1.5799         0.361146   
     41. B(H  37,C  33)                  1.1016         0.354178   
     42. B(H  38,C  33)                  1.1150         0.352382   
     43. B(C  39,C  36)                  1.5564         0.381165   
     44. B(H  40,C  36)                  1.1044         0.348565   
     45. B(H  41,C  36)                  1.1221         0.349360   
     46. B(C  42,C  39)                  1.5825         0.360351   
     47. B(H  43,C  39)                  1.1005         0.353100   
     48. B(H  44,C  39)                  1.1197         0.352596   
     49. B(C  45,C  42)                  1.5451         0.395252   
     50. B(H  46,C  42)                  1.1021         0.350296   
     51. B(H  47,C  42)                  1.1234         0.350107   
     52. B(H  48,C  45)                  1.1188         0.356058   
     53. B(H  49,C  45)                  1.1270         0.351972   
     54. B(H  50,C  45)                  1.0970         0.355423   
     55. B(C  51,C  23)                  1.5582         0.369444   
     56. B(H  52,C  23)                  1.1116         0.347808   
     57. B(C  53,C  51)                  1.5441         0.406402   
     58. B(H  54,C  51)                  1.0954         0.355101   
     59. B(H  55,C  51)                  1.1088         0.355980   
     60. B(C  56,C  53)                  1.5379         0.413674   
     61. B(H  57,C  53)                  1.0867         0.365169   
     62. B(H  58,C  53)                  1.1168         0.351729   
     63. B(C  59,C  56)                  1.5543         0.379628   
     64. B(H  60,C  56)                  1.0942         0.355584   
     65. B(H  61,C  56)                  1.1101         0.357024   
     66. B(C  62,C  59)                  1.5458         0.400422   
     67. B(H  63,C  59)                  1.1003         0.349383   
     68. B(H  63,H  40)                  2.8529         0.000123   
     69. B(H  64,C  59)                  1.1170         0.350817   
     70. B(C  65,C  62)                  1.5439         0.387188   
     71. B(H  66,C  62)                  1.0986         0.352338   
     72. B(H  67,C  62)                  1.1181         0.350601   
     73. B(C  68,C  65)                  1.5518         0.388822   
     74. B(H  69,C  65)                  1.1000         0.350180   
     75. B(H  70,C  65)                  1.1173         0.351402   
     76. B(C  71,C  68)                  1.5427         0.387820   
     77. B(H  72,C  68)                  1.0990         0.351068   
     78. B(H  73,C  68)                  1.1177         0.350510   
     79. B(C  74,C  71)                  1.5557         0.381155   
     80. B(H  75,C  71)                  1.0984         0.351159   
     81. B(H  76,H  46)                  4.2969         0.000001   
     82. B(H  76,C  71)                  1.1169         0.351434   
     83. B(C  77,C  74)                  1.5387         0.393942   
     84. B(H  78,C  74)                  1.0981         0.351455   
     85. B(H  79,C  74)                  1.1170         0.351664   
     86. B(H  80,C  77)                  1.1151         0.354234   
     87. B(H  81,C  77)                  1.1159         0.355292   
     88. B(H  82,C  77)                  1.0953         0.354472   
     89. B(C  83,N  19)                  1.4917         0.410094   
     90. B(C  84,C  83)                  1.6743         0.274887   
     91. B(H  85,C  83)                  1.1107         0.351395   
     92. B(H  86,C  83)                  1.0991         0.350909   
     93. B(C  87,C  84)                  1.6407         0.320094   
     94. B(C  88,C  87)                  1.6357         0.334993   
     95. B(H  89,C  87)                  1.1546         0.350151   
     96. B(H  90,C  87)                  1.0986         0.350811   
     97. B(C  91,C  88)                  1.6118         0.377894   
     98. B(H  92,C  88)                  1.0959         0.352378   
     99. B(H  93,C  88)                  1.1566         0.351355   
    100. B(C  94,C  91)                  1.6366         0.371651   
    101. B(H  95,C  91)                  1.1011         0.352809   
    102. B(H  96,C  91)                  1.1387         0.361505   
    103. B(C  97,C  94)                  1.6469         0.356835   
    104. B(H  98,C  94)                  1.1059         0.353627   
    105. B(H  99,C  94)                  1.1424         0.353439   
    106. B(C 100,C  97)                  1.6376         0.378675   
    107. B(H 101,C  97)                  1.1168         0.349250   
    108. B(H 102,C  97)                  1.1415         0.349400   
    109. B(C 103,C 100)                  1.6427         0.366786   
    110. B(H 104,C 100)                  1.1173         0.352698   
    111. B(H 105,C 100)                  1.1352         0.352132   
    112. B(C 106,C 103)                  1.6289         0.389142   
    113. B(H 107,C 103)                  1.1223         0.350994   
    114. B(H 108,C 103)                  1.1338         0.351062   
    115. B(H 109,C 106)                  1.1278         0.354393   
    116. B(H 110,C 106)                  1.1730         0.353199   
    117. B(H 111,C 106)                  1.1205         0.354753   
    118. B(C 112,C  84)                  1.6518         0.303621   
    119. B(H 113,C  84)                  1.1060         0.350880   
    120. B(C 114,C 112)                  1.6402         0.364050   
    121. B(H 115,C 112)                  1.1010         0.352712   
    122. B(H 116,C 112)                  1.1342         0.373563   
    123. B(C 117,C 114)                  1.6464         0.356112   
    124. B(H 118,C 114)                  1.1085         0.353335   
    125. B(H 119,C 114)                  1.1250         0.363286   
    126. B(C 120,C 117)                  1.6597         0.339654   
    127. B(H 121,C 117)                  1.1144         0.354319   
    128. B(H 122,C 117)                  1.1227         0.353185   
    129. B(C 123,C 120)                  1.6345         0.365219   
    130. B(H 124,C 120)                  1.1197         0.349185   
    131. B(H 125,C 120)                  1.1297         0.349580   
    132. B(H 125,H 101)                  2.9224         0.000140   
    133. B(C 126,C 123)                  1.6424         0.351840   
    134. B(H 127,C 123)                  1.1189         0.353028   
    135. B(H 128,C 123)                  1.1233         0.352333   
    136. B(C 129,C 126)                  1.6285         0.366863   
    137. B(H 130,C 126)                  1.1217         0.350270   
    138. B(H 131,C 126)                  1.1241         0.350358   
    139. B(C 132,C 129)                  1.6300         0.362112   
    140. B(H 133,C 129)                  1.1217         0.352005   
    141. B(H 134,C 129)                  1.1204         0.351753   
    142. B(C 135,C 132)                  1.6235         0.370586   
    143. B(H 136,C 132)                  1.1223         0.350908   
    144. B(H 136,H 108)                  3.9743         0.000004   
    145. B(H 137,C 132)                  1.1211         0.350880   
    146. B(C 138,C 135)                  1.6134         0.382981   
    147. B(H 139,C 135)                  1.1223         0.352126   
    148. B(H 140,C 135)                  1.1196         0.352125   
    149. B(H 141,C 138)                  1.1168         0.353816   
    150. B(H 142,C 138)                  1.1607         0.353097   
    151. B(H 143,C 138)                  1.1211         0.353938   
    152. B(C 144,C   9)                  1.4723         0.466943   
    153. B(C 145,C 144)                  2.0038         0.639207   
    154. B(C 146,H  61)                  2.7615         0.000812   
    155. B(C 146,C 145)                  1.5069         0.550984   
    156. B(H 147,C 145)                  1.7492         0.367548   
    157. B(C 148,C 146)                  2.2698         0.659316   
    158. B(H 149,C 146)                  1.4275         0.368535   
    159. B(S 150,H 122)                  3.6926         0.000067   
    160. B(S 150,C 144)                  2.5861         0.501512   
    161. B(S 150,C 148)                  2.0205         0.523173   
    162. B(H 151,C 148)                  1.3077         0.371321   
    163. B(C 152,C  11)                  1.5793         0.326159   
    164. B(C 154,C 153)                  1.4501         0.622198   
    165. B(S 155,C 152)                  1.8148         0.405959   
    166. B(S 155,C 154)                  1.8359         0.402662   
    167. B(C 156,C 152)                  1.4534         0.633031   
    168. B(C 156,C 153)                  1.4709         0.465831   
    169. B(H 157,C 153)                  1.1318         0.371293   
    170. B(H 158,C 156)                  1.1238         0.368477   
    171. B(C 159,C 154)                  1.5900         0.304747   
    172. B(C 160,C 159)                  1.4704         0.478361   
    173. B(C 161,C 160)                  1.4569         0.494307   
    174. B(C 162,C 159)                  1.4528         0.497412   
    175. B(C 163,C 162)                  1.4364         0.535561   
    176. B(H 164,C 162)                  1.0956         0.358298   
    177. B(C 165,C 161)                  1.4244         0.550403   
    178. B(C 165,C 163)                  1.3771         0.669615   
    179. B(C 166,C 165)                  1.4141         0.580155   
    180. B(C 167,C 161)                  1.4031         0.608585   
    181. B(C 168,C 167)                  1.4095         0.588837   
    182. B(C 169,C 166)                  1.3977         0.619333   
    183. B(C 169,C 168)                  1.3853         0.636869   
    184. B(H 170,C 169)                  1.0915         0.361716   
    185. B(H 171,C 168)                  1.0935         0.361187   
    186. B(C 172,C 166)                  1.4985         0.419685   
    187. B(C 173,C 163)                  1.5065         0.406739   
    188. B(N 174,C 172)                  1.4001         0.546053   
    189. B(N 174,C 173)                  1.4193         0.509351   
    190. B(C 175,C 167)                  1.4578         0.487576   
    191. B(C 176,C 160)                  1.5726         0.322609   
    192. B(N 177,C 175)                  1.3758         0.601230   
    193. B(N 177,C 176)                  1.4486         0.462552   
    194. B(O 178,C 173)                  1.2315         1.017866   
    195. B(O 179,C 172)                  1.2325         1.009342   
    196. B(O 180,C 176)                  1.2285         1.022786   
    197. B(O 181,C 175)                  1.2290         1.028494   
    198. B(C 182,N 174)                  1.5714         0.286282   
    199. B(C 183,C 182)                  1.6177         0.270875   
    200. B(H 184,C 182)                  1.0979         0.351596   
    201. B(H 185,C 182)                  1.0990         0.349736   
    202. B(C 186,N 177)                  1.5170         0.353630   
    203. B(C 187,C 186)                  1.6657         0.233399   
    204. B(H 188,C 186)                  1.1004         0.350489   
    205. B(H 189,C 186)                  1.1015         0.350718   
    206. B(C 190,C 183)                  1.5987         0.289150   
    207. B(C 191,C 190)                  1.6100         0.277449   
    208. B(H 192,C 190)                  1.0972         0.350751   
    209. B(H 193,C 190)                  1.1007         0.346781   
    210. B(C 194,C 191)                  1.5456         0.352729   
    211. B(H 195,C 191)                  1.1001         0.347425   
    212. B(H 196,C 191)                  1.0962         0.352173   
    213. B(C 197,C 194)                  1.5494         0.347851   
    214. B(H 198,C 194)                  1.0877         0.363475   
    215. B(H 199,C 194)                  1.0932         0.356389   
    216. B(C 200,C 197)                  1.5629         0.334242   
    217. B(H 201,C 197)                  1.0953         0.353407   
    218. B(H 202,C 197)                  1.0956         0.354276   
    219. B(C 203,C 200)                  1.5434         0.360478   
    220. B(H 204,C 200)                  1.0990         0.348769   
    221. B(H 205,C 200)                  1.1018         0.348834   
    222. B(C 206,C 203)                  1.5418         0.365963   
    223. B(H 207,C 203)                  1.0956         0.353118   
    224. B(H 208,C 203)                  1.0979         0.354252   
    225. B(C 209,C 206)                  1.5291         0.385558   
    226. B(H 210,C 209)                  1.0937         0.355284   
    227. B(H 211,C 209)                  1.0985         0.356429   
    228. B(H 212,H  31)                  4.0867         0.000001   
    229. B(H 212,C 209)                  1.0996         0.353146   
    230. B(H 213,C 206)                  1.0960         0.352761   
    231. B(H 214,C 206)                  1.0999         0.354582   
    232. B(C 215,C 183)                  1.4905         0.433792   
    233. B(H 216,C 183)                  1.0972         0.350821   
    234. B(C 217,C 215)                  1.4620         0.483778   
    235. B(H 218,C 215)                  1.0907         0.359797   
    236. B(H 219,C 215)                  1.0951         0.353668   
    237. B(C 220,C 217)                  1.5062         0.411756   
    238. B(H 221,C 217)                  1.0838         0.368474   
    239. B(H 222,C 217)                  1.0907         0.360123   
    240. B(C 223,C 220)                  1.4968         0.426221   
    241. B(H 224,C 220)                  1.0948         0.353869   
    242. B(H 225,C 220)                  1.1001         0.348899   
    243. B(C 226,C 223)                  1.4948         0.432302   
    244. B(H 227,H 205)                  2.7177         0.000176   
    245. B(H 227,C 223)                  1.0997         0.348766   
    246. B(H 228,C 223)                  1.0988         0.350983   
    247. B(C 229,C 226)                  1.5180         0.394268   
    248. B(H 230,H  12)                  3.1579         0.000036   
    249. B(H 230,C 226)                  1.0955         0.354256   
    250. B(H 231,H 164)                  4.5532         0.000000   
    251. B(H 231,C 226)                  1.0982         0.352599   
    252. B(C 232,C 229)                  1.5135         0.404325   
    253. B(H 233,C 229)                  1.0987         0.352466   
    254. B(H 234,C 229)                  1.0969         0.352178   
    255. B(C 235,C 232)                  1.5145         0.404826   
    256. B(H 236,C 232)                  1.0949         0.353898   
    257. B(H 237,H  25)                  1.8186         0.004883   
    258. B(H 237,C 232)                  1.0814         0.378842   
    259. B(C 238,C 235)                  1.5334         0.375341   
    260. B(H 239,H 214)                  2.0930         0.001783   
    261. B(H 239,C 235)                  1.0931         0.357793   
    262. B(H 240,C 235)                  1.0966         0.356687   
    263. B(C 241,C 238)                  1.5173         0.398835   
    264. B(H 242,C 241)                  1.0948         0.354403   
    265. B(H 243,C 241)                  1.0954         0.358862   
    266. B(H 244,H  32)                  2.3518         0.000678   
    267. B(H 244,C 241)                  1.0978         0.354704   
    268. B(H 245,C 238)                  1.0952         0.353681   
    269. B(H 246,C 238)                  1.0926         0.362407   
    270. B(C 247,C 187)                  1.6190         0.270389   
    271. B(C 248,C 247)                  1.6020         0.291670   
    272. B(H 249,C 247)                  1.1034         0.347108   
    273. B(H 250,C 247)                  1.1074         0.344124   
    274. B(C 251,C 248)                  1.5354         0.374966   
    275. B(H 252,C 248)                  1.1016         0.348480   
    276. B(H 253,C 248)                  1.1038         0.347059   
    277. B(C 254,C 251)                  1.5590         0.341517   
    278. B(H 255,C 251)                  1.0925         0.359218   
    279. B(H 256,C 251)                  1.0974         0.356650   
    280. B(C 257,C 254)                  1.5602         0.340971   
    281. B(H 258,C 254)                  1.0968         0.353036   
    282. B(H 259,C 254)                  1.0998         0.353392   
    283. B(C 260,C 257)                  1.5423         0.364597   
    284. B(H 261,C 257)                  1.0987         0.350342   
    285. B(H 262,C 257)                  1.1028         0.349700   
    286. B(C 263,C 260)                  1.5482         0.355077   
    287. B(H 264,C 260)                  1.0972         0.352546   
    288. B(H 265,C 260)                  1.1003         0.352893   
    289. B(C 266,C 263)                  1.5272         0.385928   
    290. B(H 267,C 263)                  1.0982         0.351115   
    291. B(H 268,C 263)                  1.1017         0.351050   
    292. B(H 269,C 266)                  1.0987         0.354945   
    293. B(H 270,C 266)                  1.0998         0.350877   
    294. B(H 271,C 266)                  1.0955         0.355033   
    295. B(C 272,C 187)                  1.5560         0.346095   
    296. B(H 273,C 187)                  1.1052         0.345098   
    297. B(C 274,C 272)                  1.5248         0.390595   
    298. B(H 275,C 272)                  1.0943         0.355060   
    299. B(H 276,C 272)                  1.0987         0.354398   
    300. B(C 277,C 274)                  1.5364         0.369720   
    301. B(H 278,C 274)                  1.0755         0.381928   
    302. B(H 279,C 274)                  1.0992         0.354649   
    303. B(C 280,C 277)                  1.5506         0.354568   
    304. B(H 281,C 277)                  1.0953         0.354722   
    305. B(H 282,C 277)                  1.1000         0.353438   
    306. B(C 283,C 280)                  1.5324         0.376362   
    307. B(H 284,C 280)                  1.0992         0.349420   
    308. B(H 284,H 262)                  2.4899         0.000404   
    309. B(H 285,C 280)                  1.1028         0.349809   
    310. B(C 286,C 283)                  1.5414         0.365923   
    311. B(H 287,C 283)                  1.0966         0.353054   
    312. B(H 288,C 283)                  1.1005         0.352774   
    313. B(C 289,C 286)                  1.5344         0.374322   
    314. B(H 290,C 286)                  1.0981         0.350786   
    315. B(H 291,C 286)                  1.1024         0.350348   
    316. B(C 292,C 289)                  1.5384         0.369636   
    317. B(H 293,C 289)                  1.0972         0.352113   
    318. B(H 294,C 289)                  1.1015         0.351502   
    319. B(C 295,C 292)                  1.5331         0.375867   
    320. B(H 296,C 292)                  1.0989         0.350389   
    321. B(H 297,C 292)                  1.1015         0.351179   
    322. B(H 297,H 270)                  3.2999         0.000021   
    323. B(C 298,C 295)                  1.5273         0.385040   
    324. B(H 299,C 295)                  1.0974         0.352146   
    325. B(H 300,C 295)                  1.1008         0.352181   
    326. B(H 301,C 298)                  1.0998         0.353459   
    327. B(H 302,C 298)                  1.0977         0.354213   
    328. B(H 303,C 298)                  1.0961         0.353988   
    329. A(C   1,C   0,O   6)          116.0528         0.443420   
    330. A(N   2,C   0,O   6)          125.2294         0.454316   
    331. A(C   1,C   0,N   2)          118.7022         0.390922   
    332. A(C   0,C   1,C   8)          122.8108         0.398252   
    333. A(C   5,C   1,C   8)          121.6694         0.429126   
    334. A(C   0,C   1,C   5)          114.6661         0.411160   
    335. A(C   0,N   2,C  22)          114.9749         0.390238   
    336. A(C   3,N   2,C  22)          120.6198         0.402875   
    337. A(C   0,N   2,C   3)          115.9606         0.413259   
    338. A(N   2,C   3,O   7)          126.2549         0.468997   
    339. A(N   2,C   3,C   4)          111.5711         0.409782   
    340. A(C   4,C   3,O   7)          121.8014         0.449787   
    341. A(C   3,C   4,C   9)          123.6801         0.412671   
    342. A(C   3,C   4,C   5)          113.6910         0.405945   
    343. A(C   5,C   4,C   9)          122.5950         0.425826   
    344. A(C   4,C   5,C  10)          121.3401         0.429171   
    345. A(C   1,C   5,C  10)          116.8215         0.441577   
    346. A(C   1,C   5,C   4)          121.7923         0.430856   
    347. A(C   1,C   8,H  12)          116.3591         0.345506   
    348. A(C   1,C   8,C  11)          123.3130         0.413164   
    349. A(C  11,C   8,H  12)          120.3238         0.343673   
    350. A(C   4,C   9,C  13)          115.5326         0.434760   
    351. A(C  13,C   9,C 144)          120.0550         0.413784   
    352. A(C   4,C   9,C 144)          124.3908         0.412107   
    353. A(C   5,C  10,C  15)          113.7526         0.435880   
    354. A(C   5,C  10,C  14)          121.3864         0.420415   
    355. A(C  14,C  10,C  15)          124.8446         0.416675   
    356. A(C   8,C  11,C  14)          113.1896         0.406138   
    357. A(C   8,C  11,C 152)          118.0461         0.377162   
    358. A(C  14,C  11,C 152)          128.6428         0.372946   
    359. A(C  15,C  13,H  16)          119.5075         0.349758   
    360. A(C   9,C  13,C  15)          120.0146         0.431039   
    361. A(C   9,C  13,H  16)          120.2048         0.353963   
    362. A(C  11,C  14,C  17)          128.4979         0.378612   
    363. A(C  10,C  14,C  17)          109.7220         0.378875   
    364. A(C  10,C  14,C  11)          121.1905         0.401781   
    365. A(C  10,C  15,C  13)          124.2013         0.428773   
    366. A(C  10,C  15,C  18)          115.2540         0.416810   
    367. A(C  13,C  15,C  18)          120.3107         0.413759   
    368. A(C  14,C  17,O  20)          119.8325         0.427495   
    369. A(C  14,C  17,N  19)          117.5306         0.374158   
    370. A(N  19,C  17,O  20)          122.4973         0.448625   
    371. A(N  19,C  18,O  21)          128.7777         0.469528   
    372. A(C  15,C  18,O  21)          121.1009         0.456222   
    373. A(C  15,C  18,N  19)          109.8251         0.413677   
    374. A(C  18,N  19,C  83)          122.1391         0.396743   
    375. A(C  17,N  19,C  83)          117.9227         0.381028   
    376. A(C  17,N  19,C  18)          118.3290         0.408261   
    377. A(H  24,C  22,H  25)          110.0011         0.290374   
    378. A(N   2,C  22,H  24)          104.2441         0.330402   
    379. A(N   2,C  22,C  23)          129.3653         0.363876   
    380. A(N   2,C  22,H  25)          101.4589         0.332241   
    381. A(C  23,C  22,H  24)          109.9882         0.316564   
    382. A(C  23,C  22,H  25)          100.5398         0.318297   
    383. A(C  22,C  23,C  26)          109.0844         0.342456   
    384. A(C  22,C  23,H  52)          105.5315         0.315902   
    385. A(C  22,C  23,C  51)          117.0055         0.354956   
    386. A(C  51,C  23,H  52)          105.5373         0.321889   
    387. A(C  26,C  23,C  51)          113.1856         0.349144   
    388. A(C  26,C  23,H  52)          105.5022         0.310944   
    389. A(C  27,C  26,H  28)          110.6782         0.314991   
    390. A(C  27,C  26,H  29)          104.3380         0.314924   
    391. A(C  23,C  26,H  28)          109.0350         0.311324   
    392. A(H  28,C  26,H  29)          104.9805         0.288313   
    393. A(C  23,C  26,C  27)          119.4009         0.341007   
    394. A(C  23,C  26,H  29)          107.3095         0.311258   
    395. A(C  26,C  27,H  31)          106.9707         0.315117   
    396. A(C  30,C  27,H  32)          106.9266         0.325440   
    397. A(C  26,C  27,H  32)          110.5737         0.316287   
    398. A(H  31,C  27,H  32)          106.7089         0.289627   
    399. A(C  30,C  27,H  31)          108.3655         0.324223   
    400. A(C  26,C  27,C  30)          116.8545         0.355480   
    401. A(C  33,C  30,H  35)          109.1264         0.321553   
    402. A(C  27,C  30,C  33)          119.1716         0.362958   
    403. A(H  34,C  30,H  35)          108.3986         0.289924   
    404. A(C  27,C  30,H  35)          108.7941         0.324314   
    405. A(C  27,C  30,H  34)          107.7480         0.325698   
    406. A(C  33,C  30,H  34)          103.0679         0.322921   
    407. A(C  30,C  33,C  36)          105.1400         0.359463   
    408. A(C  30,C  33,H  37)          110.0714         0.321891   
    409. A(C  30,C  33,H  38)          111.9806         0.321623   
    410. A(C  36,C  33,H  38)          110.3537         0.321381   
    411. A(C  36,C  33,H  37)          112.0776         0.321649   
    412. A(H  37,C  33,H  38)          107.2897         0.289100   
    413. A(C  33,C  36,C  39)          119.0908         0.362501   
    414. A(C  33,C  36,H  40)          108.8268         0.320809   
    415. A(C  39,C  36,H  40)          106.5809         0.323657   
    416. A(H  40,C  36,H  41)          105.4503         0.287989   
    417. A(C  33,C  36,H  41)          107.6745         0.320929   
    418. A(C  39,C  36,H  41)          108.4261         0.323778   
    419. A(C  42,C  39,H  43)          111.0795         0.321372   
    420. A(C  36,C  39,C  42)          106.8582         0.362364   
    421. A(C  36,C  39,H  43)          109.6258         0.324345   
    422. A(H  43,C  39,H  44)          107.1320         0.288989   
    423. A(C  42,C  39,H  44)          110.3622         0.321297   
    424. A(C  36,C  39,H  44)          111.8271         0.324269   
    425. A(C  39,C  42,C  45)          114.4612         0.364619   
    426. A(C  45,C  42,H  46)          107.7524         0.325858   
    427. A(C  39,C  42,H  47)          109.3738         0.320925   
    428. A(C  39,C  42,H  46)          109.9922         0.320953   
    429. A(C  45,C  42,H  47)          109.1585         0.325829   
    430. A(H  46,C  42,H  47)          105.7311         0.288309   
    431. A(C  42,C  45,H  48)          112.3000         0.326734   
    432. A(C  42,C  45,H  49)          109.5246         0.326114   
    433. A(H  48,C  45,H  49)          108.0656         0.289287   
    434. A(C  42,C  45,H  50)          110.1256         0.326638   
    435. A(H  48,C  45,H  50)          108.3438         0.289730   
    436. A(H  49,C  45,H  50)          108.3799         0.289206   
    437. A(C  53,C  51,H  55)          108.9731         0.328224   
    438. A(C  23,C  51,H  55)          111.2451         0.323117   
    439. A(C  23,C  51,C  53)          107.9899         0.367929   
    440. A(C  23,C  51,H  54)          110.6588         0.322986   
    441. A(C  53,C  51,H  54)          109.5388         0.328090   
    442. A(H  54,C  51,H  55)          108.4096         0.289678   
    443. A(C  51,C  53,H  58)          110.3872         0.327574   
    444. A(C  56,C  53,H  57)          104.0053         0.330576   
    445. A(C  51,C  53,C  56)          117.9298         0.375160   
    446. A(C  51,C  53,H  57)          104.6301         0.329608   
    447. A(H  57,C  53,H  58)          109.8488         0.290404   
    448. A(C  56,C  53,H  58)          109.5504         0.328534   
    449. A(C  59,C  56,H  60)          110.1295         0.324503   
    450. A(C  53,C  56,C  59)          108.5271         0.370780   
    451. A(C  53,C  56,H  60)          110.9919         0.329126   
    452. A(H  60,C  56,H  61)          109.0286         0.289873   
    453. A(C  59,C  56,H  61)          109.1422         0.324718   
    454. A(C  53,C  56,H  61)          108.9906         0.329345   
    455. A(H  63,C  59,H  64)          106.0757         0.288282   
    456. A(C  56,C  59,H  63)          109.4356         0.323567   
    457. A(C  62,C  59,H  64)          111.0543         0.326635   
    458. A(C  56,C  59,C  62)          109.6968         0.368711   
    459. A(C  62,C  59,H  63)          109.3402         0.326415   
    460. A(C  56,C  59,H  64)          111.1567         0.323784   
    461. A(C  59,C  62,H  66)          109.8055         0.326868   
    462. A(H  66,C  62,H  67)          106.7155         0.288635   
    463. A(C  59,C  62,H  67)          109.6026         0.326602   
    464. A(C  65,C  62,H  67)          109.8591         0.324802   
    465. A(C  65,C  62,H  66)          109.7403         0.325066   
    466. A(C  59,C  62,C  65)          111.0217         0.369962   
    467. A(C  68,C  65,H  69)          110.5158         0.324962   
    468. A(C  62,C  65,C  68)          108.6485         0.368099   
    469. A(C  62,C  65,H  69)          109.3728         0.324738   
    470. A(C  62,C  65,H  70)          110.8874         0.324924   
    471. A(H  69,C  65,H  70)          106.7632         0.288460   
    472. A(C  68,C  65,H  70)          110.6448         0.325149   
    473. A(C  71,C  68,H  72)          109.0046         0.324960   
    474. A(C  65,C  68,H  72)          109.4116         0.325098   
    475. A(C  65,C  68,H  73)          109.5959         0.325013   
    476. A(C  71,C  68,H  73)          110.2418         0.324875   
    477. A(H  72,C  68,H  73)          106.5891         0.288460   
    478. A(C  65,C  68,C  71)          111.8520         0.368202   
    479. A(C  68,C  71,C  74)          109.9009         0.366946   
    480. A(C  74,C  71,H  75)          110.3805         0.324050   
    481. A(C  68,C  71,H  75)          109.0226         0.324974   
    482. A(C  68,C  71,H  76)          110.4210         0.325016   
    483. A(C  74,C  71,H  76)          110.0971         0.324091   
    484. A(H  75,C  71,H  76)          106.9721         0.288591   
    485. A(C  71,C  74,C  77)          111.5077         0.367933   
    486. A(C  71,C  74,H  78)          109.8188         0.324095   
    487. A(C  77,C  74,H  78)          108.5689         0.325857   
    488. A(C  71,C  74,H  79)          109.9711         0.324126   
    489. A(C  77,C  74,H  79)          110.0825         0.325889   
    490. A(H  78,C  74,H  79)          106.7668         0.288658   
    491. A(C  74,C  77,H  80)          111.3603         0.326280   
    492. A(C  74,C  77,H  81)          110.3546         0.326440   
    493. A(H  80,C  77,H  81)          108.4368         0.289480   
    494. A(C  74,C  77,H  82)          110.0846         0.326316   
    495. A(H  80,C  77,H  82)          108.1004         0.289375   
    496. A(H  81,C  77,H  82)          108.4186         0.289510   
    497. A(N  19,C  83,C  84)          128.5266         0.348259   
    498. A(N  19,C  83,H  85)          103.9897         0.326045   
    499. A(C  84,C  83,H  85)          105.6326         0.307322   
    500. A(N  19,C  83,H  86)          104.5284         0.325971   
    501. A(C  84,C  83,H  86)          107.0668         0.307254   
    502. A(H  85,C  83,H  86)          105.0806         0.288553   
    503. A(C  83,C  84,C  87)          105.1676         0.336153   
    504. A(C  87,C  84,H 113)          105.9328         0.314902   
    505. A(C  83,C  84,C 112)          118.4081         0.333215   
    506. A(C  87,C  84,C 112)          112.9488         0.341778   
    507. A(C  83,C  84,H 113)          107.8299         0.307250   
    508. A(C 112,C  84,H 113)          105.8442         0.312216   
    509. A(C  84,C  87,H  89)          107.4198         0.314796   
    510. A(C  84,C  87,C  88)          121.4561         0.347467   
    511. A(C  88,C  87,H  89)          104.6504         0.317133   
    512. A(C  84,C  87,H  90)          108.4140         0.314892   
    513. A(C  88,C  87,H  90)          108.2746         0.317230   
    514. A(H  89,C  87,H  90)          105.5262         0.288381   
    515. A(C  87,C  88,C  91)          116.9778         0.357363   
    516. A(C  87,C  88,H  92)          108.5005         0.317460   
    517. A(C  91,C  88,H  92)          108.9341         0.323777   
    518. A(C  87,C  88,H  93)          107.8480         0.317310   
    519. A(C  91,C  88,H  93)          108.3453         0.323623   
    520. A(H  92,C  88,H  93)          105.6582         0.288737   
    521. A(C  88,C  91,C  94)          118.7897         0.363745   
    522. A(C  88,C  91,H  95)          107.8324         0.323842   
    523. A(C  94,C  91,H  95)          107.2001         0.322958   
    524. A(C  88,C  91,H  96)          109.2361         0.325140   
    525. A(C  94,C  91,H  96)          105.7301         0.324251   
    526. A(H  95,C  91,H  96)          107.5687         0.290084   
    527. A(C  91,C  94,C  97)          107.9768         0.360202   
    528. A(C  91,C  94,H  98)          111.3093         0.323081   
    529. A(C  97,C  94,H  98)          109.5026         0.320935   
    530. A(C  91,C  94,H  99)          110.9033         0.323053   
    531. A(C  97,C  94,H  99)          112.1937         0.320908   
    532. A(H  98,C  94,H  99)          104.9755         0.289165   
    533. A(C  94,C  97,C 100)          114.9082         0.361354   
    534. A(C  94,C  97,H 101)          108.6405         0.320283   
    535. A(C 100,C  97,H 101)          109.7709         0.323413   
    536. A(C  94,C  97,H 102)          110.8053         0.320305   
    537. A(C 100,C  97,H 102)          109.1786         0.323436   
    538. A(H 101,C  97,H 102)          102.8518         0.288083   
    539. A(C  97,C 100,C 103)          109.7380         0.363055   
    540. A(C  97,C 100,H 104)          111.6816         0.323935   
    541. A(C 103,C 100,H 104)          109.4965         0.322245   
    542. A(C  97,C 100,H 105)          110.0371         0.323850   
    543. A(C 103,C 100,H 105)          111.8343         0.322160   
    544. A(H 104,C 100,H 105)          103.9583         0.288878   
    545. A(C 100,C 103,C 106)          112.3337         0.364751   
    546. A(C 100,C 103,H 107)          109.5907         0.321990   
    547. A(C 106,C 103,H 107)          110.6356         0.325131   
    548. A(C 100,C 103,H 108)          111.7367         0.322000   
    549. A(C 106,C 103,H 108)          109.0066         0.325141   
    550. A(H 107,C 103,H 108)          103.1659         0.288522   
    551. A(C 103,C 106,H 109)          111.1555         0.325646   
    552. A(C 103,C 106,H 110)          109.9673         0.325466   
    553. A(H 109,C 106,H 110)          109.9490         0.289232   
    554. A(C 103,C 106,H 111)          113.0341         0.325701   
    555. A(H 109,C 106,H 111)          104.8327         0.289431   
    556. A(H 110,C 106,H 111)          107.7316         0.289278   
    557. A(C  84,C 112,C 114)          111.7564         0.349248   
    558. A(C  84,C 112,H 115)          108.9932         0.312480   
    559. A(C 114,C 112,H 115)          110.2881         0.321852   
    560. A(C  84,C 112,H 116)          112.9961         0.315404   
    561. A(C 114,C 112,H 116)          107.7339         0.324899   
    562. A(H 115,C 112,H 116)          104.8482         0.291571   
    563. A(C 112,C 114,C 117)          124.2548         0.358813   
    564. A(C 112,C 114,H 118)          107.8017         0.321945   
    565. A(C 117,C 114,H 118)          105.2303         0.320786   
    566. A(C 112,C 114,H 119)          105.7798         0.323414   
    567. A(C 117,C 114,H 119)          105.5051         0.322247   
    568. A(H 118,C 114,H 119)          107.3156         0.290376   
    569. A(C 114,C 117,C 120)          107.8580         0.354610   
    570. A(C 114,C 117,H 121)          110.8202         0.320932   
    571. A(C 120,C 117,H 121)          111.1633         0.318461   
    572. A(C 114,C 117,H 122)          111.8728         0.320763   
    573. A(C 120,C 117,H 122)          109.8027         0.318295   
    574. A(H 121,C 117,H 122)          105.3539         0.289221   
    575. A(C 117,C 120,C 123)          116.8323         0.356133   
    576. A(C 117,C 120,H 124)          109.9529         0.317704   
    577. A(C 123,C 120,H 124)          108.1044         0.321492   
    578. A(C 117,C 120,H 125)          108.5531         0.317763   
    579. A(C 123,C 120,H 125)          109.4312         0.321551   
    580. A(H 124,C 120,H 125)          103.0882         0.288098   
    581. A(C 120,C 123,H 128)          111.2738         0.321965   
    582. A(C 126,C 123,H 128)          109.8716         0.320005   
    583. A(H 127,C 123,H 128)          104.3545         0.288946   
    584. A(C 120,C 123,C 126)          110.3324         0.358272   
    585. A(C 120,C 123,H 127)          110.0599         0.322069   
    586. A(C 126,C 123,H 127)          110.8129         0.320108   
    587. A(C 123,C 126,H 130)          110.7678         0.319698   
    588. A(C 129,C 126,H 130)          109.0953         0.321892   
    589. A(C 123,C 126,H 131)          109.3201         0.319711   
    590. A(C 129,C 126,H 131)          110.3071         0.321905   
    591. A(H 130,C 126,H 131)          103.4583         0.288338   
    592. A(C 123,C 126,C 129)          113.4316         0.358546   
    593. A(C 126,C 129,C 132)          111.7319         0.360308   
    594. A(C 126,C 129,H 133)          109.6750         0.322152   
    595. A(C 132,C 129,H 133)          110.6868         0.321465   
    596. A(C 126,C 129,H 134)          110.9483         0.322115   
    597. A(C 132,C 129,H 134)          109.4098         0.321428   
    598. A(H 133,C 129,H 134)          104.1336         0.288740   
    599. A(C 129,C 132,H 137)          109.6174         0.321297   
    600. A(C 135,C 132,H 136)          109.3887         0.322521   
    601. A(C 129,C 132,C 135)          111.8781         0.360928   
    602. A(C 129,C 132,H 136)          111.1505         0.321301   
    603. A(C 135,C 132,H 137)          110.6853         0.322516   
    604. A(H 136,C 132,H 137)          103.8359         0.288487   
    605. A(C 132,C 135,C 138)          112.0023         0.364399   
    606. A(C 132,C 135,H 139)          109.9555         0.322704   
    607. A(C 138,C 135,H 139)          110.3440         0.324451   
    608. A(C 132,C 135,H 140)          111.2971         0.322704   
    609. A(C 138,C 135,H 140)          108.8661         0.324451   
    610. A(H 139,C 135,H 140)          104.0884         0.288804   
    611. A(C 135,C 138,H 141)          111.2288         0.324706   
    612. A(C 135,C 138,H 142)          110.1955         0.324598   
    613. A(H 141,C 138,H 142)          109.2643         0.289145   
    614. A(C 135,C 138,H 143)          112.8178         0.324724   
    615. A(H 141,C 138,H 143)          105.1893         0.289253   
    616. A(H 142,C 138,H 143)          107.9544         0.289161   
    617. A(C   9,C 144,C 145)          116.4310         0.414861   
    618. A(C   9,C 144,S 150)          108.8962         0.419105   
    619. A(C 145,C 144,S 150)          134.6403         0.443421   
    620. A(C 144,C 145,C 146)           90.9044         0.427299   
    621. A(C 144,C 145,H 147)          143.6688         0.355972   
    622. A(C 146,C 145,H 147)          125.4217         0.347146   
    623. A(C 145,C 146,C 148)          118.3703         0.429679   
    624. A(C 145,C 146,H 149)          101.1369         0.347303   
    625. A(C 148,C 146,H 149)          140.4708         0.358013   
    626. A(C 146,C 148,S 150)          128.0950         0.449347   
    627. A(C 146,C 148,H 151)          138.7227         0.358472   
    628. A(S 150,C 148,H 151)           93.1024         0.362681   
    629. A(C 144,S 150,C 148)           67.9621         0.451489   
    630. A(C  11,C 152,S 155)          120.0034         0.379137   
    631. A(C  11,C 152,C 156)          132.1577         0.388783   
    632. A(S 155,C 152,C 156)          107.7297         0.426122   
    633. A(C 154,C 153,C 156)          114.4063         0.412703   
    634. A(C 154,C 153,H 157)          125.9475         0.354957   
    635. A(C 156,C 153,H 157)          119.5676         0.338092   
    636. A(C 153,C 154,S 155)          107.6472         0.424189   
    637. A(C 153,C 154,C 159)          132.0258         0.383060   
    638. A(S 155,C 154,C 159)          120.3203         0.374185   
    639. A(C 152,S 155,C 154)           94.7573         0.414673   
    640. A(C 152,C 156,C 153)          115.0886         0.413970   
    641. A(C 152,C 156,H 158)          125.3252         0.355538   
    642. A(C 153,C 156,H 158)          119.5240         0.337663   
    643. A(C 154,C 159,C 160)          129.6292         0.366073   
    644. A(C 154,C 159,C 162)          116.3774         0.368533   
    645. A(C 160,C 159,C 162)          113.9859         0.398566   
    646. A(C 159,C 160,C 161)          119.2264         0.398128   
    647. A(C 161,C 160,C 176)          112.1245         0.371759   
    648. A(C 159,C 160,C 176)          128.6398         0.369668   
    649. A(C 160,C 161,C 165)          123.0881         0.408101   
    650. A(C 160,C 161,C 167)          122.7631         0.415441   
    651. A(C 165,C 161,C 167)          113.9468         0.423481   
    652. A(C 159,C 162,C 163)          124.8501         0.406582   
    653. A(C 159,C 162,H 164)          119.7398         0.339788   
    654. A(C 163,C 162,H 164)          115.4082         0.344017   
    655. A(C 162,C 163,C 165)          120.0609         0.428687   
    656. A(C 162,C 163,C 173)          123.5333         0.392441   
    657. A(C 165,C 163,C 173)          115.0433         0.408178   
    658. A(C 161,C 165,C 163)          118.2030         0.430795   
    659. A(C 161,C 165,C 166)          122.5339         0.419879   
    660. A(C 163,C 165,C 166)          118.9757         0.434892   
    661. A(C 165,C 166,C 169)          120.1775         0.428834   
    662. A(C 165,C 166,C 172)          121.4243         0.400183   
    663. A(C 169,C 166,C 172)          118.3792         0.404820   
    664. A(C 161,C 167,C 168)          124.1963         0.428630   
    665. A(C 161,C 167,C 175)          117.6388         0.414430   
    666. A(C 168,C 167,C 175)          117.5705         0.412009   
    667. A(C 167,C 168,C 169)          119.6845         0.432140   
    668. A(C 167,C 168,H 171)          120.5873         0.350024   
    669. A(C 169,C 168,H 171)          119.6959         0.354698   
    670. A(C 166,C 169,C 168)          118.9655         0.436084   
    671. A(C 166,C 169,H 170)          121.0788         0.353112   
    672. A(C 168,C 169,H 170)          119.8248         0.354787   
    673. A(C 166,C 172,N 174)          118.2101         0.393420   
    674. A(C 166,C 172,O 179)          117.8733         0.438833   
    675. A(N 174,C 172,O 179)          123.8239         0.457252   
    676. A(C 163,C 173,N 174)          118.9494         0.386545   
    677. A(C 163,C 173,O 178)          114.0426         0.437022   
    678. A(N 174,C 173,O 178)          126.3312         0.452189   
    679. A(C 172,N 174,C 173)          114.2111         0.404441   
    680. A(C 172,N 174,C 182)          113.7320         0.365874   
    681. A(C 173,N 174,C 182)          125.1013         0.361548   
    682. A(C 167,C 175,N 177)          115.0856         0.410865   
    683. A(C 167,C 175,O 181)          117.8437         0.452452   
    684. A(N 177,C 175,O 181)          126.9177         0.466968   
    685. A(C 160,C 176,N 177)          119.4453         0.365249   
    686. A(C 160,C 176,O 180)          119.4906         0.419600   
    687. A(N 177,C 176,O 180)          120.9453         0.444740   
    688. A(C 175,N 177,C 176)          114.8974         0.404432   
    689. A(C 175,N 177,C 186)          115.4037         0.385833   
    690. A(C 176,N 177,C 186)          119.9700         0.368729   
    691. A(N 174,C 182,C 183)          121.2830         0.327210   
    692. A(N 174,C 182,H 184)          105.4544         0.307554   
    693. A(C 183,C 182,H 184)          109.9169         0.306625   
    694. A(N 174,C 182,H 185)          107.2977         0.307291   
    695. A(C 183,C 182,H 185)          105.1894         0.306364   
    696. A(H 184,C 182,H 185)          106.9461         0.288428   
    697. A(C 182,C 183,C 190)          115.0995         0.329729   
    698. A(C 190,C 183,H 216)          107.4983         0.309754   
    699. A(C 182,C 183,C 215)          101.3469         0.352875   
    700. A(C 190,C 183,C 215)          114.5856         0.356804   
    701. A(C 182,C 183,H 216)          108.4512         0.306516   
    702. A(C 215,C 183,H 216)          109.6255         0.330981   
    703. A(N 177,C 186,C 187)          122.7039         0.330596   
    704. A(N 177,C 186,H 188)          105.9013         0.318095   
    705. A(C 187,C 186,H 188)          107.2600         0.299262   
    706. A(N 177,C 186,H 189)          106.5668         0.318129   
    707. A(C 187,C 186,H 189)          106.2747         0.299294   
    708. A(H 188,C 186,H 189)          107.3404         0.288412   
    709. A(C 186,C 187,C 272)          113.5597         0.331416   
    710. A(C 247,C 187,C 272)          120.8081         0.339624   
    711. A(C 186,C 187,H 273)          103.7258         0.298526   
    712. A(C 247,C 187,H 273)          104.0052         0.305620   
    713. A(C 272,C 187,H 273)          104.1145         0.318067   
    714. A(C 186,C 187,C 247)          108.6312         0.318243   
    715. A(C 183,C 190,C 191)          125.8503         0.331039   
    716. A(C 183,C 190,H 192)          107.9147         0.309744   
    717. A(C 191,C 190,H 192)          107.1746         0.307690   
    718. A(C 183,C 190,H 193)          105.1412         0.309176   
    719. A(C 191,C 190,H 193)          103.5955         0.307127   
    720. A(H 192,C 190,H 193)          105.4767         0.287937   
    721. A(C 190,C 191,C 194)          120.9104         0.342175   
    722. A(C 190,C 191,H 195)          105.6713         0.307219   
    723. A(C 194,C 191,H 195)          106.0663         0.319404   
    724. A(C 190,C 191,H 196)          108.7242         0.307891   
    725. A(C 194,C 191,H 196)          108.7461         0.320113   
    726. A(H 195,C 191,H 196)          105.6772         0.288203   
    727. A(C 191,C 194,C 197)          122.7729         0.355471   
    728. A(C 191,C 194,H 198)          106.0707         0.321771   
    729. A(C 197,C 194,H 198)          103.4505         0.321039   
    730. A(C 191,C 194,H 199)          107.7265         0.320736   
    731. A(C 197,C 194,H 199)          104.5433         0.320007   
    732. A(H 198,C 194,H 199)          112.3165         0.290792   
    733. A(C 194,C 197,C 200)          109.3990         0.352244   
    734. A(C 194,C 197,H 201)          109.8522         0.319568   
    735. A(C 200,C 197,H 201)          109.5202         0.317495   
    736. A(C 194,C 197,H 202)          110.8677         0.319697   
    737. A(C 200,C 197,H 202)          109.1114         0.317622   
    738. A(H 201,C 197,H 202)          108.0645         0.289244   
    739. A(C 197,C 200,C 203)          114.7710         0.354377   
    740. A(C 197,C 200,H 204)          108.6423         0.316813   
    741. A(C 203,C 200,H 204)          108.7903         0.320743   
    742. A(C 197,C 200,H 205)          109.5806         0.316822   
    743. A(C 203,C 200,H 205)          108.6149         0.320753   
    744. A(H 204,C 200,H 205)          106.0870         0.287948   
    745. A(C 200,C 203,C 206)          111.7349         0.359879   
    746. A(C 200,C 203,H 207)          109.4310         0.321394   
    747. A(C 206,C 203,H 207)          108.9939         0.322189   
    748. A(C 200,C 203,H 208)          110.0117         0.321562   
    749. A(C 206,C 203,H 208)          108.9095         0.322359   
    750. A(H 207,C 203,H 208)          107.6651         0.289204   
    751. A(C 203,C 206,C 209)          113.6527         0.364035   
    752. A(C 203,C 206,H 213)          109.2059         0.322136   
    753. A(C 209,C 206,H 213)          108.2761         0.324904   
    754. A(C 203,C 206,H 214)          109.3687         0.322408   
    755. A(C 209,C 206,H 214)          108.4241         0.325179   
    756. A(H 213,C 206,H 214)          107.7459         0.289200   
    757. A(C 206,C 209,H 210)          110.9747         0.325285   
    758. A(C 206,C 209,H 211)          111.5855         0.325457   
    759. A(H 210,C 209,H 211)          108.9742         0.289759   
    760. A(C 206,C 209,H 212)          110.6470         0.324963   
    761. A(H 210,C 209,H 212)          107.1330         0.289339   
    762. A(H 211,C 209,H 212)          107.3546         0.289485   
    763. A(C 183,C 215,C 217)          120.4239         0.389890   
    764. A(C 183,C 215,H 218)          107.0716         0.332368   
    765. A(C 217,C 215,H 218)          103.7952         0.338451   
    766. A(C 183,C 215,H 219)          106.5265         0.331424   
    767. A(C 217,C 215,H 219)          105.5763         0.337482   
    768. A(H 218,C 215,H 219)          113.7560         0.289979   
    769. A(C 215,C 217,C 220)          109.4471         0.386361   
    770. A(C 215,C 217,H 221)          106.0479         0.339800   
    771. A(C 220,C 217,H 221)          106.6308         0.330814   
    772. A(C 215,C 217,H 222)          111.4767         0.338502   
    773. A(C 220,C 217,H 222)          110.0244         0.329563   
    774. A(H 221,C 217,H 222)          113.0075         0.291895   
    775. A(C 217,C 220,C 223)          102.4364         0.377956   
    776. A(C 217,C 220,H 224)          111.2537         0.328611   
    777. A(C 223,C 220,H 224)          112.6577         0.330491   
    778. A(C 217,C 220,H 225)          111.4749         0.327845   
    779. A(C 223,C 220,H 225)          111.0042         0.329719   
    780. A(H 224,C 220,H 225)          108.0142         0.288611   
[...]
 C     57  54  52     2.929628965493   108.13513578   191.44846555
 H     57  54  52     2.084721191463   110.95287398    70.65500465
 H     57  54  52     2.108352497842   109.48286846   311.93880873
 C     60  57  54     2.912514872808   112.79148732   169.45287704
 H     60  57  54     2.093813753151   108.82331359    48.70785437
 H     60  57  54     2.105977717940   110.30808832   293.26190521
 C     63  60  57     2.914470582550   111.06629245   186.85231079
 H     63  60  57     2.089652276189   109.78060984    65.35603637
 H     63  60  57     2.106548381100   109.63189538   308.36520813
 C     66  63  60     2.919051031856   111.34608284   181.07387661
 H     66  63  60     2.091319917829   108.77254309    59.97188014
 H     66  63  60     2.105918892921   110.28544200   303.59109501
 C     69  66  63     2.912117441216   112.30876369   179.70415194
 H     69  66  63     2.090511010312   109.19303477    58.66761576
 H     69  66  63     2.106412555258   109.55522164   302.33379897
 C     72  69  66     2.924323608278   111.51420232   183.65501790
 H     72  69  66     2.090186598379   108.76547083    62.41051347
 H     72  69  66     2.106729007798   110.01992339   305.97013091
 C     75  72  69     2.906612612925   112.31850264   179.51109680
 H     75  72  69     2.089440928027   109.40234079    58.73402048
 H     75  72  69     2.105559486204   109.67054200   302.14527785
 H     78  75  72     2.101721500016   111.20473039   301.32385046
 H     78  75  72     2.102226944882   110.81355726   180.92921184
 H     78  75  72     2.084913138038   110.42670451    61.05362968
 C     20  19  16     2.797639985443   123.20252467   218.03160118
 C     84  20  19     3.057677928681   125.69119123    23.86623250
 H     84  20  19     2.099330811501   105.75346802   260.62776460
 H     84  20  19     2.086839344353   104.93070655   149.25197361
 C     85  84  20     3.036389519919   104.44686136   176.43321187
 C     88  85  84     3.022815555538   120.46525239   135.06025285
 H     88  85  84     2.139658572196   107.47000418    15.08060713
 H     88  85  84     2.089699594889   108.66217539   261.20119415
 C     89  88  85     2.979968917380   117.06548889    79.85870624
 H     89  88  85     2.086828603508   108.58434112   315.78086325
 H     89  88  85     2.142411988496   107.22624304   201.67623895
 C     92  89  88     3.010478772541   117.67816695   160.84417582
 H     92  89  88     2.090370721255   108.32910907    38.91307501
 H     92  89  88     2.118049104001   109.41100446   281.97612978
 C     95  92  89     3.023275168447   108.06344273   173.63034673
 H     95  92  89     2.095111722077   111.17676957    53.32521949
 H     95  92  89     2.128761922918   110.78627479   296.05840726
 C     98  95  92     3.008499086669   114.82314257   174.01610452
 H     98  95  92     2.106053364425   108.77255198    50.75613905
 H     98  95  92     2.128177230825   110.05742125   297.54776478
 C    101  98  95     3.017171343773   110.33067486   177.98992563
 H    101  98  95     2.105377731328   111.22319054    56.28912674
 H    101  98  95     2.121918004786   109.82908531   300.68603815
 C    104 101  98     2.999115902738   112.53310378   177.50588108
 H    104 101  98     2.109732390267   109.55402924    54.25745934
 H    104 101  98     2.120846355524   110.80861201   299.96580462
 H    107 104 101     2.112988600631   111.12678429   300.95503590
 H    107 104 101     2.156139042749   110.24543289   179.23726623
 H    107 104 101     2.106606812773   112.31925927    59.09005070
 C     85  84  20     3.031593776338   117.24784234    49.46865199
 H     85  84  20     2.094244480371   107.52886878   289.94488907
 C    113  85  84     3.012112507514   110.38745069   185.70317606
 H    113  85  84     2.090981212815   109.43613131    64.27747947
 H    113  85  84     2.120980149928   112.07521357   307.04225190
 C    115 113  85     3.019197616706   123.16027235   163.52953511
 H    115 113  85     2.095448898614   107.98573972    39.72242143
 H    115 113  85     2.104991036797   106.17109230   285.16004273
 C    118 115 113     3.038419951140   107.15955232   172.05747552
 H    118 115 113     2.101932694349   111.21390027    50.55936059
 H    118 115 113     2.105064763888   111.64444633   291.99503594
 C    121 118 115     3.003164480394   116.34350579   177.53236817
 H    121 118 115     2.108235833468   109.73759719    53.94055846
 H    121 118 115     2.118176823513   108.43019606   300.97522581
 C    124 121 118     3.016048089274   110.27356103   175.91760081
 H    124 121 118     2.106733991209   110.16572847    53.55559541
 H    124 121 118     2.110743460255   110.80741234   297.62535674
 C    127 124 121     2.997850996469   113.50167355   179.32376312
 H    127 124 121     2.109925819405   110.42746679    56.28736232
 H    127 124 121     2.112124497212   109.08396817   302.18822219
 C    130 127 124     3.001267841266   111.85175811   177.57643529
 H    130 127 124     2.109620419854   109.71399466    54.69457495
 H    130 127 124     2.108439883104   110.42808241   299.56925461
 C    133 130 127     2.993198779379   112.23804211   180.20977124
 H    133 130 127     2.110724947640   110.71564558    57.58976931
 H    133 130 127     2.109463504458   109.40465158   302.79275624
 C    136 133 130     2.981817274772   112.23416526   179.10518584
 H    136 133 130     2.109790840058   109.82498106    56.15747352
 H    136 133 130     2.107523703576   110.55397947   301.02676339
 H    139 136 133     2.103216551130   111.18518235   301.36029953
 H    139 136 133     2.143829821664   110.46108275   180.17049494
 H    139 136 133     2.107254504678   112.18546268    59.74540126
 C     10   5   4     2.739988279064   127.00856110     6.86772201
 C    145  10   5     3.553172381497   120.71760790     0.00000000
 C    146 145  10     2.680388466969    97.46088878   177.67444490
 H     56  52  24     2.475361571259   144.41133158   112.01505178
 C    147 146 145     4.156685660717   118.40837757   359.00436199
 H    147 146 145     2.521941710549   105.94037979   177.35616588
 S    149 147 146     3.608955898347   124.89055450     1.53869424
 H    149 147 146     2.335932957562   137.40955201   178.71263546
 C     12   9   2     2.886370007438   117.71271202   177.97756876
 C    153  12   9     4.538941106942   162.41590537   159.99875096
 C    154 153  12     2.670811257695    82.87339946   201.06627406
 S    153  12   9     3.403152557285   121.03345549     0.00000000
 C    153  12   9     2.670534953076   130.68452920   175.48503454
 H    154 153  12     2.093549215133   152.07261636    15.29633515
 H    157 153  12     2.089489932947   124.56186399     5.64141464
 C    155 154 153     2.908111152642   131.28218722   175.50765182
 C    160 155 154     2.750470315389   128.28142466     0.00000000
 C    161 160 155     2.733566132156   119.07019263   182.32300308
 C    160 155 154     2.730089849908   116.09193549   181.11036242
 C    163 160 155     2.664297326332   124.11197670   175.08722795
 H    163 160 155     2.081426277242   119.81366796   354.35515109
 C    164 163 160     2.645714966456   120.02167060     0.11822547
 C    166 164 163     2.680099452950   119.38409082   180.68309058
 C    162 161 160     2.673588464248   122.46052540   190.53760611
 C    168 162 161     2.650705417935   123.22580930   181.24404700
 C    167 166 164     2.642415213920   120.01840867   190.54755371
 H    170 167 166     2.070200081876   120.43462698   177.67018542
 H    169 168 162     2.071839418341   119.94448088   181.71678541
 C    167 166 164     2.831377693065   120.96800674     8.94172184
 C    164 163 160     2.841437539454   123.47989441   165.97857187
 N    173 167 166     2.667233185800   117.81760576   352.41035717
 C    168 162 161     2.777846795400   117.22080518    10.12119788
 C    161 160 155     2.928090339829   127.50851710     2.55986026
 N    176 168 162     2.633912931369   113.89805574   318.99892791
 O    174 164 163     2.317502923993   116.11293307   324.94095809
 O    173 167 166     2.323405441898   119.41012679   175.22608220
 O    177 161 160     2.311786971513   121.91790617     1.07437183
 O    176 168 162     2.318626775130   120.23939592   134.82713872
 C    175 173 167     2.910641445248   113.29358646   190.26298185
 C    183 175 173     3.020140521900   119.91740201   209.31849662
 H    183 175 173     2.087671762747   106.06580593    83.65613465
 H    183 175 173     2.081193003566   105.91179011   330.39204297
 C    178 176 168     2.828186615302   117.05175131   195.45050405
 C    187 178 176     3.069247193348   121.15978118    61.30175567
 H    187 178 176     2.090709448921   106.66069940   297.32970362
 H    187 178 176     2.084481947768   106.18193443   183.16936306
 C    184 183 175     2.991681015718   111.30591372   200.20247264
 C    191 184 183     3.008539074777   125.34706730   191.23010538
 H    191 184 183     2.090497868025   107.82726563    63.05780916
 H    191 184 183     2.092389203013   105.46398949   311.13119884
 C    192 191 184     2.914877721769   119.67634926   296.42984675
 H    192 191 184     2.091787608801   105.29644302   176.01280335
 H    192 191 184     2.088337901427   108.89462606    62.82497069
 C    195 192 191     2.926707108535   122.86436018   195.38891060
 H    195 192 191     2.070906303176   106.36065487    76.41063959
 H    195 192 191     2.082030587952   107.90419054   317.64070569
 C    198 195 192     2.939448770816   107.24866883   190.28934981
 H    198 195 192     2.087432864135   110.47295176    70.39460766
 H    198 195 192     2.087481435401   111.40646980   310.21668632
 C    201 198 195     2.910804110288   117.40138216   187.78441657
 H    201 198 195     2.091100371706   107.96446849    65.05419276
 H    201 198 195     2.089605370853   108.84355601   310.62720726
 C    204 201 198     2.918190600639   110.51323799   185.78340951
 H    204 201 198     2.087870698603   109.55680851    65.15464827
 H    204 201 198     2.089683849908   110.33204717   306.84855072
 C    207 204 201     2.895754181577   115.14896712   182.24885615
 H    210 207 204     2.083710827606   111.08371537    69.66613298
 H    210 207 204     2.087373539944   111.80231228   307.99118795
 H    210 207 204     2.094673312947   110.45287171   188.05214080
 H    207 204 201     2.085005727304   108.49926811    60.86308605
 H    207 204 201     2.092712257714   109.70116761   305.17792503
 C    184 183 175     2.857543863687   103.37099360   325.53716768
 H    184 183 175     2.090660416826   108.26552598    82.02995910
 C    216 184 183     2.817121240037   122.03755996   182.26339017
 H    216 184 183     2.081193400459   106.41875488    62.86565721
 H    216 184 183     2.076897738953   106.61646583   303.79962998
 C    218 216 184     2.874632925267   110.68450402   191.54035737
 H    218 216 184     2.064269406645   106.25227013    76.78436986
 H    218 216 184     2.080261062983   111.92734000   314.44136795
 C    221 218 216     2.857247198974   104.92902269   195.40018271
 H    221 218 216     2.087349340455   110.70723594    74.16717435
 H    221 218 216     2.090318503563   110.94047391   314.88401096
 C    224 221 218     2.856068535882   114.50536076   174.56296454
 H    224 221 218     2.086652949177   107.60452321    54.75209563
 H    224 221 218     2.090525473209   109.93596836   299.43534258
 C    227 224 221     2.897046018452   106.57682948   190.38195506
 H    227 224 221     2.079759776221   108.66395584    68.05437408
 H    227 224 221     2.090928144711   110.35726333   311.30022130
 C    230 227 224     2.891351897674   112.03040736   263.86059380
 H    230 227 224     2.088967537747   107.91282309   143.49898675
 H    230 227 224     2.086585248922   111.61552095    27.77331029
 C    233 230 227     2.883052818917   118.40847908   118.66251364
 H    233 230 227     2.081255439208   112.55429515   350.46218654
 H    233 230 227     2.066206650785   103.46301211   233.48820266
 C    236 233 230     2.898884429185   108.31750464   168.40535554
 H    236 233 230     2.087723105103   108.37279435    49.49249337
 H    236 233 230     2.086908229008   111.00810202   290.05328280
 C    239 236 233     2.879953626618   114.36136547   194.94779468
 H    242 239 236     2.083280849905   110.09837768    57.46391752
 H    242 239 236     2.083963688446   111.65116720   296.42475243
 H    242 239 236     2.088158610968   110.38578850   175.17575993
 H    239 236 233     2.087411475864   110.31512504    70.06844450
 H    239 236 233     2.078039279319   107.97155070   315.39923729
 C    188 187 178     3.037619884189   105.10185355   176.10796058
 C    248 188 187     3.009376241028   135.81799805   142.43207906
 H    248 188 187     2.093293401038   105.00844434    14.88200783
 H    248 188 187     2.094764777875   102.72655208   267.66580464
 C    249 248 188     2.897898263618   124.00929675    20.26700890
 H    249 248 188     2.092051437042   106.87820856   255.04733184
 H    249 248 188     2.093669602314   105.33680668   144.08858607
 C    252 249 248     2.929207077409   121.22326923   166.77437479
 H    252 249 248     2.077084292570   108.34591980    44.97481614
 H    252 249 248     2.084231909839   106.41418778   285.10406979
 C    255 252 249     2.930652394477   106.88441758   176.05432094
 H    255 252 249     2.088590837577   110.82535215    56.05149613
 H    255 252 249     2.091224729137   110.76771557   296.09048117
 C    258 255 252     2.907604413340   118.50572402   177.71624220
 H    258 255 252     2.089901778028   107.78066952    55.43448226
 H    258 255 252     2.094826772323   108.29356240   301.07098540
 C    261 258 255     2.918014784468   109.78045018   181.69252380
 H    261 258 255     2.089055432049   110.16811140    61.11949757
 H    261 258 255     2.091487052770   110.24017682   302.49879853
 C    264 261 258     2.892838016618   114.75275785   178.69472611
 H    264 261 258     2.089360030095   108.97307221    57.09543454
 H    264 261 258     2.092425136087   109.28170616   301.03191686
 H    267 264 261     2.087811230917   111.36199816   300.36664927
 H    267 264 261     2.089714357212   110.20011447   181.05882986
 H    267 264 261     2.085075845609   111.42938692    61.74097162
 C    188 187 178     2.930352484334   114.50902555   313.90997199
 H    188 187 178     2.096127007112   103.94992493    66.95343805
 C    273 188 187     2.889676496085   116.65628752   179.96436176
 H    273 188 187     2.084393129192   107.49377555    60.05375719
 H    273 188 187     2.085104273205   109.40936158   303.00353884
 C    275 273 188     2.908074010085   118.95939117   197.52322247
 H    275 273 188     2.054669394103   103.98792928    84.71629983
 H    275 273 188     2.088633894749   111.25527518   326.15094454
 C    278 275 273     2.921583569531   107.63948356   200.44628524
 H    278 275 273     2.087830476333   110.57474373    79.78132939
 H    278 275 273     2.091020510443   110.28504733   320.07492279
 C    281 278 275     2.898999059293   116.35699477   176.56690622
 H    281 278 275     2.092241110708   108.05591163    55.74107937
 H    281 278 275     2.094026062244   109.20174163   300.73093341
 C    284 281 278     2.911305228550   110.07893619   185.91775515
 H    284 281 278     2.088372912122   109.79058979    64.78711281
 H    284 281 278     2.091506675207   109.76557721   306.65068566
 C    287 284 281     2.901097976223   114.37613505   177.42343543
 H    287 284 281     2.089630955003   108.79760160    55.85769312
 H    287 284 281     2.093383511440   109.15137562   299.98013084
 C    290 287 284     2.909002800227   111.51882116   181.95349273
 H    290 287 284     2.089075288342   109.20479999    60.65946303
 H    290 287 284     2.092401776265   109.82659269   303.48791714
 C    293 290 287     2.901291589948   113.09254095   186.42708707
 H    293 290 287     2.090867452548   109.01591581    64.88614990
 H    293 290 287     2.093877616524   109.49226974   308.53953759
 C    296 293 290     2.895641562012   112.25142783   176.98871238
 H    296 293 290     2.089010555256   109.32052350    56.11678601
 H    296 293 290     2.091627806394   109.80192809   299.00839271
 H    299 296 293     2.088735389197   110.92375685   301.38908155
 H    299 296 293     2.086588480922   110.99091927   181.59462277
 H    299 296 293     2.085729123370   111.04415349    61.60818592

 One Electron integrals                  ... done
 Pre-screening matrix                    ... done

Diagonalization of the overlap matrix:
Smallest eigenvalue                        ... 2.120e-04
Time for diagonalization                   ...    3.958 sec
Threshold for overlap eigenvalues          ... 1.000e-08
Number of eigenvalues below threshold      ... 0
Time for construction of square roots      ...    2.591 sec
Total time needed                          ...    6.583 sec

-------------------
DFT GRID GENERATION
-------------------

General Integration Accuracy     IntAcc      ...  4.340
Radial Grid Type                 RadialGrid  ... Gauss-Chebyshev
Angular Grid (max. acc.)         AngularGrid ... Lebedev-194
Angular grid pruning method      GridPruning ... 3 (G Style)
Weight generation scheme         WeightScheme... Becke
Basis function cutoff            BFCut       ...    1.0000e-11
Integration weight cutoff        WCut        ...    1.0000e-14
Grids for H and He will be reduced by one unit

# of grid points (after initial pruning)     ... 693396 (   2.0 sec)
# of grid points (after weights+screening)   ... 586526 ( 194.6 sec)
nearest neighbour list constructed           ...    0.0 sec
Grid point re-assignment to atoms done       ...    0.1 sec
Grid point division into batches done        ...    0.9 sec
Reduced shell lists constructed in   13.9 sec

Total number of grid points                  ...   586526
Total number of batches                      ...     9311
Average number of points per batch           ...       62
Average number of grid points per atom       ...     1929
Average number of shells per batch           ...   126.88 ( 9.72%)
Average number of basis functions per batch  ...   233.41 ( 8.65%)
Average number of large shells per batch     ...    71.45 (56.31%)
Average number of large basis fcns per batch ...   134.01 (57.41%)
Maximum spatial batch extension              ...  18.87, 18.67, 24.08 au
Average spatial batch extension              ...   2.21,  2.23,  2.45 au

Time for grid setup =  210.649 sec

--------------
SCF ITERATIONS
--------------
ITER       Energy         Delta-E        Max-DP      RMS-DP      [F,P]     Damp
               ***  Starting incremental Fock matrix formation  ***
                      *** Initiating the SOSCF procedure ***
                      *** Re-Reading the Fockian *** 
                      *** Removing any level shift *** 
ITER      Energy       Delta-E        Grad      Rot      Max-DP    RMS-DP
  0  -6137.65955790 -6137.6595579041  0.002832  0.002832  0.023210  0.000107
               *** Restarting incremental Fock matrix formation ***
  1  -6137.67682411  -0.0172662098  0.002116  0.027754  0.030070  0.000087
  2  -6137.67089852   0.0059255978  0.012919  0.035803  0.035922  0.000070
  3  -6137.67752208  -0.0066235649  0.003979  0.022353  0.038962  0.000083
  4  -6137.67126891   0.0062531688  0.007514  0.036054  0.021784  0.000066
  5  -6137.67806876  -0.0067998507  0.004165  0.059076  0.047951  0.000097
  6  -6137.66573775   0.0123310153  0.014890  0.045275  0.040236  0.000078
  7  -6137.67828981  -0.0125520673  0.002209  0.022453  0.025161  0.000083
  8  -6137.67165191   0.0066379087  0.006587  0.021446  0.019899  0.000064
  9  -6137.67871297  -0.0070610666  0.002401  0.037904  0.022067  0.000062
 10  -6137.67403058   0.0046823951  0.010574  0.036377  0.019599  0.000051
 11  -6137.67885461  -0.0048240369  0.001824  0.021849  0.014301  0.000042
 12  -6137.67685620   0.0019984179  0.004350  0.016910  0.010572  0.000033
