
                                 *****************
                                 * O   R   C   A *
                                 *****************

           --- An Ab Initio, DFT and Semiempirical electronic structure package ---

                  #######################################################
                  #                        -***-                        #
                  #          Department of theory and spectroscopy      #
                  #               Directorship: Frank Neese             #
                  #        Max Planck Institute fuer Kohlenforschung    #
                  #                Kaiser Wilhelm Platz 1               #
                  #                 D-45470 Muelheim/Ruhr               #
                  #                      Germany                        #
                  #                                                     #
                  #                  All rights reserved                #
                  #                        -***-                        #
                  #######################################################


                         Program Version 4.2.0 -  RELEASE  -


 With contributions from (in alphabetic order):
   Daniel Aravena         : Magnetic Suceptibility
   Michael Atanasov       : Ab Initio Ligand Field Theory (pilot matlab implementation)
   Alexander A. Auer      : GIAO ZORA, VPT2
   Ute Becker             : Parallelization
   Giovanni Bistoni       : ED, misc. LED, open-shell LED, HFLED
   Martin Brehm           : Molecular dynamics
   Dmytro Bykov           : SCF Hessian
   Vijay G. Chilkuri      : MRCI spin determinant printing, contributions to CSF-ICE
   Dipayan Datta          : RHF DLPNO-CCSD density
   Achintya Kumar Dutta   : EOM-CC, STEOM-CC
   Dmitry Ganyushin       : Spin-Orbit,Spin-Spin,Magnetic field MRCI
   Miquel Garcia          : C-PCM Hessian, Gaussian charge scheme
   Yang Guo               : DLPNO-NEVPT2, CIM, IAO-localization
   Andreas Hansen         : Spin unrestricted coupled pair/coupled cluster methods
   Benjamin Helmich-Paris : CASSCF linear response (MC-RPA)
   Lee Huntington         : MR-EOM, pCC
   Robert Izsak           : Overlap fitted RIJCOSX, COSX-SCS-MP3, EOM
   Christian Kollmar      : KDIIS, OOCD, Brueckner-CCSD(T), CCSD density
   Simone Kossmann        : Meta GGA functionals, TD-DFT gradient, OOMP2, MP2 Hessian
   Martin Krupicka        : AUTO-CI
   Lucas Lang             : DCDCAS
   Dagmar Lenk            : GEPOL surface, SMD
   Dimitrios Liakos       : Extrapolation schemes; Compound Job, initial MDCI parallelization
   Dimitrios Manganas     : Further ROCIS development; embedding schemes
   Dimitrios Pantazis     : SARC Basis sets
   Taras Petrenko         : DFT Hessian,TD-DFT gradient, ASA, ECA, R-Raman, ABS, FL, XAS/XES, NRVS
   Peter Pinski           : DLPNO-MP2, DLPNO-MP2 Gradient
   Christoph Reimann      : Effective Core Potentials
   Marius Retegan         : Local ZFS, SOC
   Christoph Riplinger    : Optimizer, TS searches, QM/MM, DLPNO-CCSD(T), (RO)-DLPNO pert. Triples
   Tobias Risthaus        : Range-separated hybrids, TD-DFT gradient, RPA, STAB
   Michael Roemelt        : Original ROCIS implementation
   Masaaki Saitow         : Open-shell DLPNO-CCSD energy and density
   Barbara Sandhoefer     : DKH picture change effects
   Avijit Sen             : IP-ROCIS
   Kantharuban Sivalingam : CASSCF convergence, NEVPT2, FIC-MRCI
   Bernardo de Souza      : ESD, SOC TD-DFT
   Georgi Stoychev        : AutoAux, RI-MP2 NMR
   Willem Van den Heuvel  : Paramagnetic NMR
   Boris Wezisla          : Elementary symmetry handling
   Frank Wennmohs         : Technical directorship


 We gratefully acknowledge several colleagues who have allowed us to
 interface, adapt or use parts of their codes:
   Stefan Grimme, W. Hujo, H. Kruse,             : VdW corrections, initial TS optimization,
                  C. Bannwarth                     DFT functionals, gCP, sTDA/sTD-DF
   Ed Valeev, F. Pavosevic, A. Kumar             : LibInt (2-el integral package), F12 methods
   Garnet Chan, S. Sharma, J. Yang, R. Olivares  : DMRG
   Ulf Ekstrom                                   : XCFun DFT Library
   Mihaly Kallay                                 : mrcc  (arbitrary order and MRCC methods)
   Andreas Klamt, Michael Diedenhofen            : otool_cosmo (COSMO solvation model)
   Jiri Pittner, Ondrej Demel                    : Mk-CCSD
   Frank Weinhold                                : gennbo (NPA and NBO analysis)
   Christopher J. Cramer and Donald G. Truhlar   : smd solvation model
   Lars Goerigk                                  : TD-DFT with DH, B97 family of functionals
   V. Asgeirsson, H. Jonsson                     : NEB implementation
   FAccTs GmbH                                   : IRC, NEB, NEB-TS, Multilevel, MM, QM/MM, CI optimization
   S Lehtola, MJT Oliveira, MAL Marques          : LibXC Library


 Your calculation uses the libint2 library for the computation of 2-el integrals
 For citations please refer to: http://libint.valeyev.net

 Your ORCA version has been built with support for libXC version: 4.2.3
 For citations please refer to: https://tddft.org/programs/libxc/

 This ORCA versions uses:
   CBLAS   interface :  Fast vector & matrix operations
   LAPACKE interface :  Fast linear algebra routines
   SCALAPACK package :  Parallel linear algebra routines


Your calculation utilizes the atom-pairwise dispersion correction
with the Becke-Johnson damping scheme (D3BJ)
Cite in your paper:
S.Grimme, S.Ehrlich, L.Goerigk, J Comput Chem, (2011), 32, 1456–1465 
S.Grimme, J.Antony, S.Ehrlich and H.Krieg, J.Chem.Phys., 132, (2010), 154104 
   

----- Orbital basis set information -----
Your calculation utilizes the basis: def2-SVP
   F. Weigend and R. Ahlrichs, Phys. Chem. Chem. Phys. 7, 3297 (2005).

----- AuxJ basis set information -----
Your calculation utilizes the auxiliary basis: def2/J
   F. Weigend, Phys. Chem. Chem. Phys. 8, 1057 (2006).

================================================================================
                                        WARNINGS
                       Please study these warnings very carefully!
================================================================================


WARNING: Geometry Optimization
  ===> : Switching off AutoStart
         For restart on a previous wavefunction, please use MOREAD

INFO   : the flag for use of LIBINT has been found!

================================================================================
                                       INPUT FILE
================================================================================
NAME = PNDI_T_Input_Dimethyl_Naphthalene_Dicarboximide_With_Sidechain_1_Optimize_Monomer.inp
|  1> ! RI BP86 def2-SVP def2/J D3BJ TIGHTSCF  Opt Grid3 FinalGrid5
|  2> %maxcore 3000
|  3> %geom
|  4> optimizehydrogens true
|  5> end
|  6> 
|  7> 
|  8> *xyz 0 1
|  9> C	-1.636004	2.964241	0.485260
| 10> C	-1.898954	1.510974	0.637776
| 11> N	-0.291641	3.403962	0.545773
| 12> C	0.625253	2.518825	1.155646
| 13> C	0.552868	1.140382	0.578064
| 14> C	-0.787359	0.657793	0.479738
| 15> O	-2.583102	3.720280	0.280537
| 16> O	1.314055	2.812881	2.137116
| 17> C	-3.208551	1.000093	0.702924
| 18> C	1.656871	0.348686	0.096342
| 19> C	-1.066199	-0.690310	0.164312
| 20> C	-3.505831	-0.396329	0.654072
| 21> H	-4.018378	1.738403	0.774321
| 22> C	1.308200	-0.905221	-0.499251
| 23> C	-2.370690	-1.255027	0.395524
| 24> C	0.013215	-1.413783	-0.414577
| 25> H	2.087972	-1.528335	-0.948265
| 26> C	-2.315168	-2.771349	0.515054
| 27> C	-0.296539	-2.805368	-0.828566
| 28> N	-1.109071	-3.412337	0.135900
| 29> O	-3.233351	-3.421621	1.004660
| 30> O	0.194588	-3.342260	-1.812240
| 31> C	-0.167447	4.872684	0.634651
| 32> C	1.052340	5.735917	0.126888
| 33> H	-0.422921	5.135990	1.678457
| 34> H	-0.987331	5.213854	-0.013844
| 35> C	1.145045	7.058319	0.992227
| 36> C	1.345726	8.450766	0.266506
| 37> H	1.918973	6.927258	1.776889
| 38> H	0.185173	7.157521	1.545174
| 39> C	2.819141	8.897502	0.124172
| 40> H	0.788000	9.217268	0.847746
| 41> H	0.896487	8.441118	-0.743525
| 42> C	3.148473	10.369525	-0.250144
| 43> H	3.267625	8.320893	-0.699841
| 44> H	3.364995	8.639250	1.057427
| 45> C	4.693679	10.404030	-0.486271
| 46> H	2.847682	11.053978	0.566403
| 47> H	2.607177	10.690581	-1.168118
| 48> C	5.371236	11.770051	-0.746768
| 49> H	4.937675	9.745205	-1.345170
| 50> H	5.183493	9.933541	0.400671
| 51> C	6.913192	11.547164	-0.879864
| 52> H	5.153655	12.456027	0.093966
| 53> H	4.972708	12.251588	-1.670526
| 54> C	7.725779	12.842209	-1.069254
| 55> H	7.122630	10.877665	-1.737818
| 56> H	7.284314	11.008241	0.025930
| 57> H	7.429030	13.389336	-1.993008
| 58> H	8.814930	12.602977	-1.146098
| 59> H	7.581761	13.518745	-0.208796
| 60> C	2.386241	4.977321	-0.014164
| 61> H	0.783145	6.059322	-0.902496
| 62> C	3.475844	5.859659	-0.629042
| 63> H	2.243152	4.081350	-0.642649
| 64> H	2.744152	4.645306	0.988315
| 65> C	4.852058	5.216501	-0.872666
| 66> H	3.667048	6.640705	0.115432
| 67> H	3.106738	6.329018	-1.569138
| 68> C	5.858082	6.344953	-1.216061
| 69> H	4.805749	4.486566	-1.698542
| 70> H	5.175101	4.670069	0.044843
| 71> C	7.320369	5.858127	-1.227285
| 72> H	5.758092	7.153688	-0.465320
| 73> H	5.598253	6.810104	-2.194882
| 74> C	8.296491	7.039122	-1.403460
| 75> H	7.465777	5.129018	-2.045846
| 76> H	7.544016	5.322256	-0.275727
| 77> C	9.763003	6.555479	-1.442390
| 78> H	8.157108	7.744867	-0.562488
| 79> H	8.055151	7.604487	-2.332984
| 80> C	10.757745	7.718153	-1.625252
| 81> H	9.887918	5.839852	-2.276695
| 82> H	9.996372	5.996182	-0.506866
| 83> C	12.212350	7.205761	-1.752889
| 84> H	10.674509	8.397618	-0.756455
| 85> H	10.484232	8.316463	-2.525290
| 86> C	13.220093	8.351207	-1.948331
| 87> H	12.285336	6.518666	-2.616087
| 88> H	12.481349	6.611654	-0.849479
| 89> H	12.981817	8.945899	-2.857461
| 90> H	14.254006	7.954395	-2.053741
| 91> H	13.199724	9.034011	-1.081954
| 92> C	-0.972800	-4.831774	0.533838
| 93> C	0.366086	-5.728606	0.388322
| 94> H	-1.762358	-5.378658	-0.024420
| 95> H	-1.283347	-4.861360	1.593169
| 96> C	-0.021260	-7.138292	1.055043
| 97> C	0.367129	-8.511344	0.332121
| 98> H	-1.148690	-7.168672	1.154984
| 99> H	0.370579	-7.160324	2.088879
|100> C	1.852878	-9.013562	0.496559
|101> H	0.132081	-8.421707	-0.743147
|102> H	-0.325778	-9.311901	0.737461
|103> C	2.150520	-10.551491	0.206598
|104> H	2.178283	-8.803877	1.532788
|105> H	2.520719	-8.432564	-0.190954
|106> C	3.733525	-10.772184	0.276639
|107> H	1.777452	-10.849935	-0.793870
|108> H	1.608854	-11.209340	0.943359
|109> C	4.202833	-12.288798	0.157519
|110> H	4.114725	-10.335692	1.228593
|111> H	4.243903	-10.164923	-0.522758
|112> C	5.796539	-12.380320	0.187786
|113> H	3.821453	-12.756630	-0.778932
|114> H	3.748863	-12.894268	0.987070
|115> C	6.320858	-13.877367	0.135709
|116> H	6.183259	-11.863570	1.098728
|117> H	6.245236	-11.804151	-0.664426
|118> H	5.928640	-14.471968	0.997605
|119> H	7.461635	-13.896720	0.145060
|120> H	5.979780	-14.413776	-0.780064
|121> C	1.733671	-5.102649	0.946451
|122> H	0.528005	-5.913751	-0.692265
|123> C	2.964436	-6.050722	0.590045
|124> H	1.658064	-4.971109	2.042500
|125> H	1.932460	-4.081117	0.526119
|126> C	4.486044	-5.567299	0.650263
|127> H	2.809922	-6.441145	-0.436246
|128> H	2.897975	-6.919474	1.284058
|129> C	5.405898	-6.867036	0.427157
|130> H	4.714958	-5.078796	1.622971
|131> H	4.709105	-4.813194	-0.138697
|132> C	6.975482	-6.621515	0.385877
|133> H	5.104304	-7.385049	-0.513764
|134> H	5.170785	-7.610093	1.232753
|135> C	7.749734	-8.011912	0.264959
|136> H	7.302089	-6.068597	1.297178
|137> H	7.251254	-5.960335	-0.471085
|138> C	9.326945	-7.854185	0.200339
|139> H	7.399545	-8.576183	-0.632590
|140> H	7.468129	-8.663297	1.128454
|141> C	10.059950	-9.261943	0.142824
|142> H	9.682863	-7.265470	1.079545
|143> H	9.621583	-7.247913	-0.688758
|144> C	11.635951	-9.115193	0.083426
|145> H	9.708398	-9.854826	-0.736080
|146> H	9.763700	-9.870862	1.030256
|147> C	12.364997	-10.514161	0.049078
|148> H	11.993491	-8.515479	0.954618
|149> H	11.940755	-8.524988	-0.812422
|150> H	12.106068	-11.124699	0.942896
|151> H	13.490114	-10.374170	0.010003
|152> H	12.064606	-11.123932	-0.834900
|153> H	2.708021	0.584770	0.172157
|154> H	-4.540302	-0.693071	0.744706
|155> **                         ****END OF INPUT****
================================================================================

                       *****************************
                       * Geometry Optimization Run *
                       *****************************

Geometry optimization settings:
Update method            Update   .... BFGS
Choice of coordinates    CoordSys .... Z-matrix Internals
Initial Hessian          InHess   .... Almoef's Model

Convergence Tolerances:
Energy Change            TolE     ....  5.0000e-06 Eh
Max. Gradient            TolMAXG  ....  3.0000e-04 Eh/bohr
RMS Gradient             TolRMSG  ....  1.0000e-04 Eh/bohr
Max. Displacement        TolMAXD  ....  4.0000e-03 bohr
RMS Displacement         TolRMSD  ....  2.0000e-03 bohr
Strict Convergence                ....  False
------------------------------------------------------------------------------
                        ORCA OPTIMIZATION COORDINATE SETUP
------------------------------------------------------------------------------

The optimization will be done in new redundant internal coordinates
Making redundant internal coordinates   ...  (new redundants) done
Evaluating the initial hessian          ...  (Almloef) done
Evaluating the coordinates              ...  done
Calculating the B-matrix                .... done
Calculating the G-matrix                .... done
Diagonalizing the G-matrix              .... done
Imposing constraints:
 Iter   0:  RMS(Cart)=    0.0000000000 RMS(Int)=    0.0000000000
CONVERGED
Small eigenvalue found = 3.597e-05
Small eigenvalue found = 1.141e-04
Small eigenvalue found = 1.670e-04
Small eigenvalue found = 2.388e-04
Small eigenvalue found = 3.048e-04
Small eigenvalue found = 3.858e-04
Small eigenvalue found = 9.183e-04
Small eigenvalue found = 1.400e-03
Small eigenvalue found = 1.862e-03
Small eigenvalue found = 2.149e-03
Small eigenvalue found = 3.467e-03
Small eigenvalue found = 4.243e-03
Small eigenvalue found = 4.550e-03
Small eigenvalue found = 5.407e-03
Small eigenvalue found = 6.243e-03
Small eigenvalue found = 8.171e-03
Small eigenvalue found = 8.793e-03
Small eigenvalue found = 9.751e-03
Small eigenvalue found = 1.035e-02
Small eigenvalue found = 1.180e-02
Small eigenvalue found = 1.299e-02
Small eigenvalue found = 1.421e-02
Small eigenvalue found = 1.494e-02
Small eigenvalue found = 1.738e-02
Small eigenvalue found = 1.836e-02
Small eigenvalue found = 2.260e-02
Small eigenvalue found = 2.370e-02
Small eigenvalue found = 2.697e-02
The first mode is                       ....  435
The number of degrees of freedom        ....  432
Storing new coordinates                 .... done

    -----------------------------------------------------------------
                    Redundant Internal Coordinates


    -----------------------------------------------------------------
         Definition                    Initial Value    Approx d2E/dq
    -----------------------------------------------------------------
      1. B(C   1,C   0)                  1.4847         0.441186 C 
      2. B(N   2,C   0)                  1.4157         0.509101 C 
      3. B(C   3,N   2)                  1.4128         0.514566 C 
      4. B(C   4,C   3)                  1.4963         0.422792 C 
      5. B(C   5,C   1)                  1.4102         0.580206 C 
      6. B(C   5,C   4)                  1.4279         0.543681 C 
      7. B(O   6,C   0)                  1.2290         1.010885 C 
      8. B(O   7,C   3)                  1.2346         0.990444 C 
      9. B(C   8,C   1)                  1.4072         0.586481 C 
     10. B(C   9,C   4)                  1.4414         0.517271 C 
     11. B(C  10,C   5)                  1.4123         0.575626 C 
     12. B(C  11,C   8)                  1.4286         0.542293 C 
     13. B(H  12,C   8)                  1.0982         0.349428   
     14. B(C  13,C   9)                  1.4313         0.536866 C 
     15. B(C  14,C  10)                  1.4402         0.519650 C 
     16. B(C  14,C  11)                  1.4466         0.507435 C 
     17. B(C  15,C  10)                  1.4226         0.554371 C 
     18. B(C  15,C  13)                  1.3938         0.616044 C 
     19. B(H  16,C  13)                  1.0945         0.354197   
     20. B(C  17,C  14)                  1.5220         0.384662 C 
     21. B(C  18,C  15)                  1.4845         0.441484 C 
     22. B(N  19,C  17)                  1.4175         0.505834 C 
     23. B(N  19,C  18)                  1.3996         0.540253 C 
     24. B(O  20,C  17)                  1.2270         1.018280 C 
     25. B(O  21,C  18)                  1.2235         1.031423 C 
     26. B(C  22,N   2)                  1.4766         0.407048 C 
     27. B(C  23,C  22)                  1.5783         0.312894 C 
     28. B(H  24,C  22)                  1.1064         0.339042   
     29. B(H  25,C  22)                  1.0996         0.347603   
     30. B(C  26,C  23)                  1.5831         0.307388 C 
     31. B(C  27,C  26)                  1.5830         0.307495 C 
     32. B(H  28,C  26)                  1.1099         0.334737   
     33. B(H  29,C  26)                  1.1122         0.331922   
     34. B(C  30,C  27)                  1.5462         0.351970 C 
     35. B(H  31,C  27)                  1.1119         0.332208   
     36. B(H  32,C  27)                  1.1055         0.340202   
     37. B(C  33,C  30)                  1.5542         0.341843 C 
     38. B(H  34,C  30)                  1.1012         0.345601   
     39. B(H  35,C  30)                  1.1116         0.332652   
     40. B(C  36,C  33)                  1.5635         0.330287 C 
     41. B(H  37,C  33)                  1.1071         0.338158   
     42. B(H  38,C  33)                  1.1130         0.330932   
     43. B(C  39,C  36)                  1.5469         0.351064 C 
     44. B(H  40,C  36)                  1.1096         0.335039   
     45. B(H  41,C  36)                  1.1171         0.325960   
     46. B(C  42,C  39)                  1.5637         0.330127 C 
     47. B(H  43,C  39)                  1.1067         0.338698   
     48. B(H  44,C  39)                  1.1154         0.328065   
     49. B(C  45,C  42)                  1.5406         0.359367 C 
     50. B(H  46,C  42)                  1.1082         0.336771   
     51. B(H  47,C  42)                  1.1174         0.325591   
     52. B(H  48,C  45)                  1.1139         0.329855   
     53. B(H  49,C  45)                  1.1178         0.325188   
     54. B(H  50,C  45)                  1.1040         0.342040   
     55. B(C  51,C  23)                  1.5410         0.358790 C 
     56. B(H  52,C  23)                  1.1121         0.332063   
     57. B(C  53,C  51)                  1.5310         0.372263 C 
     58. B(H  54,C  51)                  1.1037         0.342381   
     59. B(H  55,C  51)                  1.1150         0.328462   
     60. B(C  56,C  53)                  1.5385         0.362095 C 
     61. B(H  57,C  53)                  1.0958         0.352476   
     62. B(H  58,C  53)                  1.1137         0.330079   
     63. B(C  59,C  56)                  1.5503         0.346738 C 
     64. B(H  60,C  56)                  1.1032         0.343072   
     65. B(H  61,C  56)                  1.1157         0.327668   
     66. B(C  62,C  59)                  1.5412         0.358468 C 
     67. B(H  63,C  59)                  1.1080         0.337059   
     68. B(H  64,C  59)                  1.1144         0.329183   
     69. B(C  65,C  62)                  1.5423         0.357108 C 
     70. B(H  66,C  62)                  1.1058         0.339798   
     71. B(H  67,C  62)                  1.1147         0.328819   
     72. B(C  68,C  65)                  1.5447         0.353942 C 
     73. B(H  69,C  65)                  1.1067         0.338699   
     74. B(H  70,C  65)                  1.1144         0.329221   
     75. B(C  71,C  68)                  1.5410         0.358745 C 
     76. B(H  72,C  68)                  1.1063         0.339232   
     77. B(H  73,C  68)                  1.1147         0.328905   
     78. B(C  74,C  71)                  1.5475         0.350332 C 
     79. B(H  75,C  71)                  1.1061         0.339446   
     80. B(H  76,C  71)                  1.1148         0.328703   
     81. B(C  77,C  74)                  1.5381         0.362606 C 
     82. B(H  78,C  74)                  1.1057         0.339938   
     83. B(H  79,C  74)                  1.1142         0.329451   
     84. B(H  80,C  77)                  1.1122         0.331918   
     85. B(H  81,C  77)                  1.1125         0.331592   
     86. B(H  82,C  77)                  1.1033         0.342943   
     87. B(C  83,N  19)                  1.4804         0.401395 C 
     88. B(C  84,C  83)                  1.6181         0.270329 C 
     89. B(H  85,C  83)                  1.1109         0.333466   
     90. B(H  86,C  83)                  1.1043         0.341661   
     91. B(C  87,C  84)                  1.6068         0.281752 C 
     92. B(C  88,C  87)                  1.5996         0.289287 C 
     93. B(H  89,C  87)                  1.1323         0.308320   
     94. B(H  90,C  87)                  1.1058         0.339767   
     95. B(C  91,C  88)                  1.5769         0.314414 C 
     96. B(H  92,C  88)                  1.1043         0.341668   
     97. B(H  93,C  88)                  1.1337         0.306674   
     98. B(C  94,C  91)                  1.5931         0.296307 C 
     99. B(H  95,C  91)                  1.1062         0.339324   
    100. B(H  96,C  91)                  1.1208         0.321549   
    101. B(C  97,C  94)                  1.5998         0.289027 C 
    102. B(H  98,C  94)                  1.1087         0.336210   
    103. B(H  99,C  94)                  1.1265         0.314922   
    104. B(C 100,C  97)                  1.5920         0.297450 C 
    105. B(H 101,C  97)                  1.1145         0.329135   
    106. B(H 102,C  97)                  1.1262         0.315280   
    107. B(C 103,C 100)                  1.5966         0.292477 C 
    108. B(H 104,C 100)                  1.1141         0.329568   
    109. B(H 105,C 100)                  1.1229         0.319140   
    110. B(C 106,C 103)                  1.5871         0.302925 C 
    111. B(H 107,C 103)                  1.1164         0.326790   
    112. B(H 108,C 103)                  1.1223         0.319805   
    113. B(H 109,C 106)                  1.1181         0.324727   
    114. B(H 110,C 106)                  1.1410         0.298599   
    115. B(H 111,C 106)                  1.1148         0.328781   
    116. B(C 112,C  84)                  1.6043         0.284391 C 
    117. B(H 113,C  84)                  1.1082         0.336779   
    118. B(C 114,C 112)                  1.5939         0.295367 C 
    119. B(H 115,C 112)                  1.1065         0.338921   
    120. B(H 116,C 112)                  1.1224         0.319722   
    121. B(C 117,C 114)                  1.5977         0.291328 C 
    122. B(H 118,C 114)                  1.1089         0.335991   
    123. B(H 119,C 114)                  1.1139         0.329816   
    124. B(C 120,C 117)                  1.6079         0.280641 C 
    125. B(H 121,C 117)                  1.1123         0.331783   
    126. B(H 122,C 117)                  1.1140         0.329769   
    127. B(C 123,C 120)                  1.5892         0.300550 C 
    128. B(H 124,C 120)                  1.1156         0.327743   
    129. B(H 125,C 120)                  1.1209         0.321469   
    130. B(C 126,C 123)                  1.5960         0.293117 C 
    131. B(H 127,C 123)                  1.1148         0.328699   
    132. B(H 128,C 123)                  1.1170         0.326148   
    133. B(C 129,C 126)                  1.5864         0.303671 C 
    134. B(H 130,C 126)                  1.1165         0.326666   
    135. B(H 131,C 126)                  1.1177         0.325273   
    136. B(C 132,C 129)                  1.5882         0.301661 C 
    137. B(H 133,C 129)                  1.1164         0.326861   
    138. B(H 134,C 129)                  1.1157         0.327612   
    139. B(C 135,C 132)                  1.5839         0.306430 C 
    140. B(H 136,C 132)                  1.1169         0.326160   
    141. B(H 137,C 132)                  1.1163         0.326960   
    142. B(C 138,C 135)                  1.5779         0.313286 C 
    143. B(H 139,C 135)                  1.1165         0.326753   
    144. B(H 140,C 135)                  1.1153         0.328195   
    145. B(H 141,C 138)                  1.1130         0.330955   
    146. B(H 142,C 138)                  1.1345         0.305831   
    147. B(H 143,C 138)                  1.1151         0.328367   
    148. B(H 144,C   9)                  1.0800         0.373575   
    149. B(H 145,C  11)                  1.0800         0.373574   
    150. A(N   2,C   0,O   6)          123.2171         0.451583 C 
    151. A(C   1,C   0,O   6)          118.8655         0.442933 C 
    152. A(C   1,C   0,N   2)          117.8915         0.392037 C 
    153. A(C   5,C   1,C   8)          121.2738         0.424674 C 
    154. A(C   0,C   1,C   5)          116.1734         0.403728 C 
    155. A(C   0,C   1,C   8)          121.6631         0.404495 C 
    156. A(C   0,N   2,C  22)          113.0395         0.384115 C 
    157. A(C   0,N   2,C   3)          116.1114         0.400194 C 
    158. A(C   3,N   2,C  22)          122.8589         0.384829 C 
    159. A(C   4,C   3,O   7)          123.5920         0.437921 C 
    160. A(N   2,C   3,O   7)          123.7811         0.450784 C 
    161. A(N   2,C   3,C   4)          112.2796         0.389857 C 
    162. A(C   5,C   4,C   9)          120.6814         0.410502 C 
    163. A(C   3,C   4,C   9)          126.7223         0.392713 C 
    164. A(C   3,C   4,C   5)          112.5411         0.396155 C 
    165. A(C   1,C   5,C  10)          116.5460         0.423258 C 
    166. A(C   4,C   5,C  10)          121.5548         0.418375 C 
    167. A(C   1,C   5,C   4)          121.8499         0.418966 C 
    168. A(C   1,C   8,H  12)          116.4360         0.347841   
    169. A(C   1,C   8,C  11)          123.1583         0.419579 C 
    170. A(C  11,C   8,H  12)          120.3941         0.343293   
    171. A(C   4,C   9,C  13)          115.7006         0.409585 C 
    172. A(C   4,C   9,H 144)          127.0085         0.344422   
    173. A(C  13,C   9,H 144)          117.2463         0.346581   
    174. A(C   5,C  10,C  14)          121.1495         0.415022 C 
    175. A(C  14,C  10,C  15)          123.5878         0.412257 C 
    176. A(C   5,C  10,C  15)          115.2473         0.419830 C 
    177. A(C  14,C  11,H 145)          127.1211         0.343314   
    178. A(C   8,C  11,H 145)          117.7127         0.347168   
    179. A(C   8,C  11,C  14)          115.0276         0.408923 C 
    180. A(C  15,C  13,H  16)          118.6278         0.351543   
    181. A(C   9,C  13,C  15)          121.3790         0.422519 C 
    182. A(C   9,C  13,H  16)          119.7301         0.343494   
    183. A(C  10,C  14,C  17)          111.7288         0.386594 C 
    184. A(C  10,C  14,C  11)          120.4439         0.405849 C 
    185. A(C  11,C  14,C  17)          127.2966         0.384996 C 
    186. A(C  13,C  15,C  18)          121.2608         0.408075 C 
    187. A(C  10,C  15,C  13)          122.9653         0.424950 C 
    188. A(C  10,C  15,C  18)          115.5875         0.400548 C 
    189. A(C  14,C  17,O  20)          122.1407         0.432686 C 
    190. A(C  14,C  17,N  19)          117.4214         0.382350 C 
    191. A(N  19,C  17,O  20)          120.2504         0.451653 C 
    192. A(N  19,C  18,O  21)          126.6373         0.458167 C 
    193. A(C  15,C  18,N  19)          109.6024         0.396185 C 
    194. A(C  15,C  18,O  21)          123.4884         0.444603 C 
    195. A(C  17,N  19,C  18)          118.8285         0.403186 C 
    196. A(C  17,N  19,C  83)          116.1028         0.382754 C 
    197. A(C  18,N  19,C  83)          123.2025         0.387164 C 
    198. A(N   2,C  22,H  24)          105.9067         0.323736   
    199. A(N   2,C  22,C  23)          126.1330         0.355520 C 
    200. A(C  23,C  22,H  25)          102.5226         0.313265   
    201. A(N   2,C  22,H  25)          102.1454         0.325065   
    202. A(C  23,C  22,H  24)          110.5985         0.312002   
    203. A(H  24,C  22,H  25)          108.0820         0.286520   
    204. A(C  26,C  23,C  51)          114.2400         0.349117 C 
    205. A(C  26,C  23,H  52)          106.0946         0.310065   
    206. A(C  51,C  23,H  52)          105.5435         0.317939   
    207. A(C  22,C  23,C  51)          115.4170         0.350165 C 
    208. A(C  22,C  23,C  26)          109.0437         0.341182 C 
    209. A(C  22,C  23,H  52)          105.6512         0.310955   
    210. A(C  27,C  26,H  28)          109.8517         0.310484   
    211. A(C  27,C  26,H  29)          105.0037         0.310061   
    212. A(H  28,C  26,H  29)          105.1208         0.283902   
    213. A(C  23,C  26,H  29)          107.2014         0.310044   
    214. A(C  23,C  26,C  27)          119.4467         0.340191 C 
    215. A(C  23,C  26,H  28)          109.1862         0.310467   
    216. A(C  26,C  27,C  30)          114.6549         0.348010 C 
    217. A(C  26,C  27,H  31)          107.6458         0.310104   
    218. A(C  30,C  27,H  31)          109.0816         0.316969   
    219. A(C  26,C  27,H  32)          111.0802         0.311298   
    220. A(C  30,C  27,H  32)          107.7978         0.318199   
    221. A(H  31,C  27,H  32)          106.2471         0.284656   
    222. A(C  33,C  30,H  34)          103.2631         0.317503   
    223. A(C  27,C  30,H  35)          108.8765         0.317038   
    224. A(C  33,C  30,H  35)          108.5542         0.315536   
    225. A(H  34,C  30,H  35)          107.8545         0.285414   
    226. A(C  27,C  30,C  33)          119.8512         0.354293 C 
    227. A(C  27,C  30,H  34)          107.7999         0.319018   
    228. A(C  30,C  33,C  36)          105.4678         0.350503 C 
    229. A(C  30,C  33,H  37)          110.5087         0.316379   
    230. A(C  36,C  33,H  37)          111.4844         0.314617   
    231. A(C  30,C  33,H  38)          111.6419         0.315271   
    232. A(C  36,C  33,H  38)          110.4701         0.313516   
    233. A(H  37,C  33,H  38)          107.3280         0.284219   
    234. A(C  33,C  36,C  39)          118.5413         0.352083 C 
    235. A(C  33,C  36,H  40)          108.7298         0.314144   
    236. A(C  39,C  36,H  40)          107.3160         0.317274   
    237. A(C  33,C  36,H  41)          107.7056         0.312748   
    238. A(C  39,C  36,H  41)          108.2742         0.315859   
    239. A(H  40,C  36,H  41)          105.5501         0.283144   
    240. A(C  36,C  39,C  42)          108.6863         0.352054 C 
    241. A(C  36,C  39,H  43)          109.4704         0.317836   
    242. A(C  42,C  39,H  43)          110.2977         0.314673   
    243. A(C  36,C  39,H  44)          111.3591         0.316190   
    244. A(C  42,C  39,H  44)          110.0838         0.313050   
    245. A(H  43,C  39,H  44)          106.9375         0.283906   
    246. A(C  39,C  42,C  45)          114.2540         0.353449 C 
    247. A(C  39,C  42,H  46)          109.7775         0.314382   
    248. A(C  45,C  42,H  46)          108.2392         0.318753   
    249. A(C  39,C  42,H  47)          109.1027         0.312666   
    250. A(C  45,C  42,H  47)          109.2628         0.317004   
    251. A(H  46,C  42,H  47)          105.8679         0.283321   
    252. A(C  42,C  45,H  48)          111.9837         0.317677   
    253. A(C  42,C  45,H  49)          110.0290         0.316940   
    254. A(H  48,C  45,H  49)          107.9211         0.282356   
    255. A(C  42,C  45,H  50)          110.5190         0.319562   
    256. A(H  48,C  45,H  50)          108.0958         0.284580   
    257. A(H  49,C  45,H  50)          108.1708         0.283950   
    258. A(C  23,C  51,C  53)          111.6611         0.360639 C 
    259. A(C  23,C  51,H  54)          109.8473         0.319530   
    260. A(C  53,C  51,H  54)          109.3548         0.321461   
    261. A(C  23,C  51,H  55)          110.0072         0.317375   
    262. A(C  53,C  51,H  55)          107.7129         0.319288   
    263. A(H  54,C  51,H  55)          108.1701         0.284437   
    264. A(C  56,C  53,H  57)          104.4456         0.321533   
    265. A(C  51,C  53,C  56)          117.3425         0.361203 C 
    266. A(C  51,C  53,H  57)          105.1950         0.322995   
    267. A(C  51,C  53,H  58)          110.2451         0.319544   
    268. A(C  56,C  53,H  58)          109.8146         0.318104   
    269. A(H  57,C  53,H  58)          109.3247         0.285945   
    270. A(C  53,C  56,C  59)          108.1351         0.356862 C 
    271. A(C  53,C  56,H  60)          110.9529         0.320114   
    272. A(C  59,C  56,H  60)          110.0620         0.317858   
    273. A(C  53,C  56,H  61)          109.4829         0.317724   
    274. A(C  59,C  56,H  61)          110.5342         0.315491   
    275. A(H  60,C  56,H  61)          107.6824         0.284419   
    276. A(H  63,C  59,H  64)          105.6297         0.283842   
    277. A(C  56,C  59,C  62)          112.7915         0.356253 C 
    278. A(C  56,C  59,H  63)          108.8233         0.316944   
    279. A(C  62,C  59,H  63)          108.7300         0.318667   
    280. A(C  56,C  59,H  64)          110.3080         0.315728   
    281. A(C  62,C  59,H  64)          110.2824         0.317442   
    282. A(C  59,C  62,H  66)          109.7806         0.319089   
    283. A(C  65,C  62,H  66)          109.7012         0.318891   
    284. A(C  59,C  62,H  67)          109.6319         0.317384   
    285. A(C  65,C  62,H  67)          109.7939         0.317188   
    286. A(H  66,C  62,H  67)          106.7708         0.284150   
    287. A(C  59,C  62,C  65)          111.0663         0.358041 C 
    288. A(C  62,C  65,C  68)          111.3461         0.357268 C 
    289. A(C  62,C  65,H  69)          108.7725         0.318722   
    290. A(C  68,C  65,H  69)          109.7789         0.318259   
    291. A(C  62,C  65,H  70)          110.2855         0.317251   
    292. A(C  68,C  65,H  70)          110.0857         0.316791   
    293. A(H  69,C  65,H  70)          106.4413         0.284061   
    294. A(C  65,C  68,C  71)          112.3088         0.357546 C 
    295. A(C  65,C  68,H  72)          109.1930         0.318341   
    296. A(C  71,C  68,H  72)          109.0073         0.319042   
    297. A(C  65,C  68,H  73)          109.5552         0.316742   
    298. A(C  71,C  68,H  73)          110.0608         0.317438   
    299. A(H  72,C  68,H  73)          106.5433         0.284088   
    300. A(C  68,C  71,C  74)          111.5142         0.356924 C 
    301. A(C  68,C  71,H  75)          108.7655         0.319075   
    302. A(C  74,C  71,H  75)          109.8114         0.317842   
    303. A(C  68,C  71,H  76)          110.0199         0.317406   
    304. A(C  74,C  71,H  76)          109.9822         0.316183   
    305. A(H  75,C  71,H  76)          106.6181         0.284089   
    306. A(C  71,C  74,C  77)          112.3185         0.357574 C 
    307. A(C  71,C  74,H  78)          109.4023         0.317917   
    308. A(C  77,C  74,H  78)          108.6829         0.319708   
    309. A(C  71,C  74,H  79)          109.6705         0.316299   
    310. A(C  77,C  74,H  79)          109.9947         0.318078   
    311. A(H  78,C  74,H  79)          106.6010         0.284253   
    312. A(C  74,C  77,H  80)          111.2047         0.318465   
    313. A(C  74,C  77,H  81)          110.8136         0.318414   
    314. A(H  80,C  77,H  81)          108.2034         0.283486   
    315. A(C  74,C  77,H  82)          110.4267         0.320168   
    316. A(H  80,C  77,H  82)          107.8800         0.284973   
    317. A(H  81,C  77,H  82)          108.1992         0.284930   
    318. A(N  19,C  83,C  84)          125.6912         0.346029 C 
    319. A(N  19,C  83,H  85)          105.7535         0.322118   
    320. A(C  84,C  83,H  85)          105.6675         0.303935   
    321. A(N  19,C  83,H  86)          104.9307         0.323402   
    322. A(C  84,C  83,H  86)          107.7050         0.305119   
    323. A(H  85,C  83,H  86)          105.6046         0.285013   
    324. A(C  83,C  84,C  87)          104.4469         0.328211 C 
    325. A(C  87,C  84,H 113)          107.0522         0.306443   
    326. A(C  83,C  84,C 112)          117.2478         0.328717 C 
    327. A(C  87,C  84,C 112)          113.7951         0.330973 C 
    328. A(C  83,C  84,H 113)          107.5289         0.304416   
    329. A(C 112,C  84,H 113)          106.2521         0.306903   
    330. A(C  84,C  87,C  88)          120.4652         0.331909 C 
    331. A(C  84,C  87,H  89)          107.4700         0.302141   
    332. A(C  88,C  87,H  89)          104.9887         0.303418   
    333. A(C  84,C  87,H  90)          108.6622         0.306879   
    334. A(C  88,C  87,H  90)          108.6255         0.308184   
    335. A(H  89,C  87,H  90)          105.6509         0.281324   
    336. A(C  87,C  88,C  91)          117.0655         0.338015 C 
    337. A(C  87,C  88,H  92)          108.5844         0.308461   
    338. A(C  91,C  88,H  92)          109.1430         0.312638   
    339. A(C  87,C  88,H  93)          107.2263         0.303159   
    340. A(C  91,C  88,H  93)          108.2806         0.307234   
    341. A(H  92,C  88,H  93)          105.9835         0.281334   
    342. A(C  88,C  91,C  94)          117.6782         0.339370 C 
    343. A(C  88,C  91,H  95)          108.3291         0.312289   
    344. A(C  94,C  91,H  95)          107.3699         0.309312   
    345. A(C  88,C  91,H  96)          109.4110         0.309586   
    346. A(C  94,C  91,H  96)          106.1081         0.306645   
    347. A(H  95,C  91,H  96)          107.5219         0.283104   
    348. A(C  91,C  94,C  97)          108.0634         0.334644 C 
    349. A(C  91,C  94,H  98)          111.1768         0.308853   
    350. A(C  97,C  94,H  98)          109.5924         0.307618   
    351. A(C  91,C  94,H  99)          110.7863         0.305622   
    352. A(C  97,C  94,H  99)          111.5054         0.304405   
    353. A(H  98,C  94,H  99)          105.7351         0.281788   
    354. A(C  94,C  97,C 100)          114.8231         0.334858 C 
    355. A(C  94,C  97,H 101)          108.7725         0.306568   
    356. A(C 100,C  97,H 101)          109.6446         0.307987   
    357. A(C  94,C  97,H 102)          110.0574         0.304461   
    358. A(C 100,C  97,H 102)          109.0850         0.305866   
    359. A(H 101,C  97,H 102)          103.8933         0.280912   
    360. A(C  97,C 100,C 103)          110.3306         0.335520 C 
    361. A(C  97,C 100,H 104)          111.2232         0.308053   
    362. A(C 103,C 100,H 104)          109.4847         0.307218   
    363. A(C  97,C 100,H 105)          109.8291         0.306464   
    364. A(C 103,C 100,H 105)          111.0169         0.305636   
    365. A(H 104,C 100,H 105)          104.8415         0.281498   
    366. A(C 100,C 103,C 106)          112.5331         0.336540 C 
    367. A(C 100,C 103,H 107)          109.5540         0.306801   
    368. A(C 106,C 103,H 107)          110.4228         0.308538   
    369. A(C 100,C 103,H 108)          110.8086         0.305738   
    370. A(C 106,C 103,H 108)          109.1028         0.307467   
    371. A(H 107,C 103,H 108)          104.0915         0.281221   
    372. A(C 103,C 106,H 109)          111.1268         0.308223   
    373. A(C 103,C 106,H 110)          110.2455         0.304100   
    374. A(H 109,C 106,H 110)          109.5954         0.277988   
    375. A(C 103,C 106,H 111)          112.3192         0.308840   
    376. A(H 109,C 106,H 111)          105.6656         0.282152   
    377. A(H 110,C 106,H 111)          107.7269         0.278519   
    378. A(C  84,C 112,C 114)          110.3875         0.333571 C 
    379. A(C  84,C 112,H 115)          109.4361         0.307216   
    380. A(C 114,C 112,H 115)          110.1793         0.309094   
    381. A(C  84,C 112,H 116)          112.0752         0.304354   
    382. A(C 114,C 112,H 116)          108.7149         0.306208   
    383. A(H 115,C 112,H 116)          105.9542         0.282802   
    384. A(C 112,C 114,C 117)          123.1602         0.334909 C 
    385. A(C 112,C 114,H 118)          107.9857         0.308662   
    386. A(C 117,C 114,H 118)          105.9100         0.307978   
    387. A(C 112,C 114,H 119)          106.1711         0.307742   
    388. A(C 117,C 114,H 119)          105.6240         0.307061   
    389. A(H 118,C 114,H 119)          107.0814         0.283787   
    390. A(C 114,C 117,C 120)          107.1595         0.332079 C 
    391. A(C 114,C 117,H 121)          111.2139         0.307355   
    392. A(C 120,C 117,H 121)          111.0159         0.305516   
    393. A(C 114,C 117,H 122)          111.6445         0.307054   
    394. A(C 120,C 117,H 122)          109.5359         0.305217   
    395. A(H 121,C 117,H 122)          106.3109         0.283226   
    396. A(C 117,C 120,C 123)          116.3435         0.333799 C 
    397. A(C 117,C 120,H 124)          109.7376         0.304916   
    398. A(C 123,C 120,H 124)          108.4710         0.308291   
    399. A(C 117,C 120,H 125)          108.4302         0.303973   
    400. A(C 123,C 120,H 125)          109.1626         0.307334   
    401. A(H 124,C 120,H 125)          103.9838         0.281573   
    402. A(C 120,C 123,H 128)          110.8074         0.308049   
    403. A(C 126,C 123,H 128)          109.7419         0.306811   
    404. A(H 127,C 123,H 128)          105.1437         0.282332   
    405. A(C 120,C 123,C 126)          110.2736         0.336221 C 
    406. A(C 120,C 123,H 127)          110.1657         0.308436   
    407. A(C 126,C 123,H 127)          110.6020         0.307196   
    408. A(C 123,C 126,H 130)          110.4275         0.306890   
    409. A(C 129,C 126,H 130)          109.2280         0.308641   
    410. A(C 123,C 126,H 131)          109.0840         0.306679   
    411. A(C 129,C 126,H 131)          109.8713         0.308429   
    412. A(H 130,C 126,H 131)          104.3294         0.281943   
    413. A(C 123,C 126,C 129)          113.5017         0.336800 C 
    414. A(C 126,C 129,C 132)          111.8517         0.338417 C 
    415. A(C 126,C 129,H 133)          109.7140         0.308671   
    416. A(C 132,C 129,H 133)          110.4146         0.308341   
    417. A(C 126,C 129,H 134)          110.4281         0.308785   
    418. A(C 132,C 129,H 134)          109.3240         0.308455   
    419. A(H 133,C 129,H 134)          104.8826         0.282282   
    420. A(C 129,C 132,C 135)          112.2380         0.338928 C 
    421. A(C 129,C 132,H 136)          110.7157         0.308234   
    422. A(C 135,C 132,H 136)          109.4411         0.309014   
    423. A(C 129,C 132,H 137)          109.4046         0.308356   
    424. A(C 135,C 132,H 137)          110.1460         0.309136   
    425. A(H 136,C 132,H 137)          104.6245         0.282101   
    426. A(C 132,C 135,C 138)          112.2342         0.341076 C 
    427. A(C 132,C 135,H 139)          109.8250         0.309104   
    428. A(C 138,C 135,H 139)          110.1980         0.310209   
    429. A(C 132,C 135,H 140)          110.5540         0.309324   
    430. A(C 138,C 135,H 140)          108.9919         0.310430   
    431. A(H 139,C 135,H 140)          104.7743         0.282346   
    432. A(C 135,C 138,H 141)          111.1852         0.310850   
    433. A(C 135,C 138,H 142)          110.4611         0.306921   
    434. A(H 141,C 138,H 142)          109.0311         0.279833   
    435. A(C 135,C 138,H 143)          112.1855         0.310456   
    436. A(H 141,C 138,H 143)          105.9019         0.282929   
    437. A(H 142,C 138,H 143)          107.8987         0.279494   
    438. D(C   5,C   1,C   0,N   2)    -16.0820         0.013280 C 
    439. D(C   5,C   1,C   0,O   6)    162.1284         0.013280 C 
    440. D(C   8,C   1,C   0,N   2)    174.5882         0.013280 C 
    441. D(C   8,C   1,C   0,O   6)     -7.2014         0.013280 C 
    442. D(C  22,N   2,C   0,C   1)   -169.3020         0.020515 C 
    443. D(C   3,N   2,C   0,O   6)    162.4620         0.020515 C 
    444. D(C  22,N   2,C   0,O   6)     12.5715         0.020515 C 
    445. D(C   3,N   2,C   0,C   1)    -19.4114         0.020515 C 
    446. D(C   4,C   3,N   2,C   0)     51.6607         0.020975 C 
    447. D(C   4,C   3,N   2,C  22)   -161.6764         0.020975 C 
    448. D(O   7,C   3,N   2,C   0)   -121.7771         0.020975 C 
    449. D(O   7,C   3,N   2,C  22)     24.8857         0.020975 C 
    450. D(C   5,C   4,C   3,O   7)    125.5056         0.012228 C 
    451. D(C   5,C   4,C   3,N   2)    -47.9467         0.012228 C 
    452. D(C   9,C   4,C   3,O   7)    -57.2050         0.012228 C 
    453. D(C   9,C   4,C   3,N   2)    129.3426         0.012228 C 
    454. D(C   4,C   5,C   1,C   8)   -172.0794         0.023129 C 
    455. D(C  10,C   5,C   1,C   0)   -158.9375         0.023129 C 
    456. D(C  10,C   5,C   4,C   9)     12.7697         0.020206 C 
    457. D(C   1,C   5,C   4,C   3)     12.8854         0.020206 C 
    458. D(C   1,C   5,C   4,C   9)   -164.5884         0.020206 C 
    459. D(C  10,C   5,C   1,C   8)     10.4371         0.023129 C 
    460. D(C   4,C   5,C   1,C   0)     18.5461         0.023129 C 
    461. D(C  10,C   5,C   4,C   3)   -169.7565         0.020206 C 
    462. D(C  11,C   8,C   1,C   5)      1.8373         0.023656 C 
    463. D(C  11,C   8,C   1,C   0)    170.6265         0.023656 C 
    464. D(H  12,C   8,C   1,C   5)   -176.9268         0.023656   
    465. D(H  12,C   8,C   1,C   0)     -8.1377         0.023656   
    466. D(C  13,C   9,C   4,C   5)      1.4442         0.018244 C 
    467. D(H 144,C   9,C   4,C   3)      6.8677         0.018244   
    468. D(C  13,C   9,C   4,C   3)   -175.6447         0.018244 C 
    469. D(H 144,C   9,C   4,C   5)   -176.0435         0.018244   
    470. D(C  14,C  10,C   5,C   4)    163.9878         0.022749 C 
    471. D(C  14,C  10,C   5,C   1)    -18.5206         0.022749 C 
    472. D(C  15,C  10,C   5,C   4)    -17.3891         0.022749 C 
    473. D(C  15,C  10,C   5,C   1)    160.1025         0.022749 C 
    474. D(C  14,C  11,C   8,C   1)     -5.9947         0.020099 C 
    475. D(C  14,C  11,C   8,H  12)    172.7223         0.020099   
    476. D(H 145,C  11,C   8,C   1)    177.9776         0.020099   
    477. D(H 145,C  11,C   8,H  12)     -3.3054         0.020099   
    478. D(C  15,C  13,C   9,C   4)    -10.1231         0.019687 C 
    479. D(C  15,C  13,C   9,H 144)    167.6205         0.019687   
    480. D(H  16,C  13,C   9,C   4)    175.8514         0.019687   
    481. D(H  16,C  13,C   9,H 144)     -6.4051         0.019687   
    482. D(C  10,C  14,C  11,H 145)    173.5185         0.017545   
    483. D(C  10,C  14,C  11,C   8)     -2.0703         0.017545 C 
    484. D(C  11,C  14,C  10,C  15)   -163.8093         0.018415 C 
    485. D(C  11,C  14,C  10,C   5)     14.6957         0.018415 C 
    486. D(C  17,C  14,C  11,H 145)    -15.5583         0.017545   
    487. D(C  17,C  14,C  11,C   8)    168.8528         0.017545 C 
    488. D(C  17,C  14,C  10,C  15)     23.9550         0.018415 C 
    489. D(C  17,C  14,C  10,C   5)   -157.5400         0.018415 C 
    490. D(C  13,C  15,C  10,C   5)      8.6485         0.021036 C 
    491. D(C  10,C  15,C  13,C   9)      5.1811         0.026241 C 
    492. D(C  18,C  15,C  10,C   5)   -176.2636         0.021036 C 
    493. D(C  18,C  15,C  10,C  14)      2.3218         0.021036 C 
    494. D(C  13,C  15,C  10,C  14)   -172.7661         0.021036 C 
    495. D(C  10,C  15,C  13,H  16)    179.2708         0.026241   
    496. D(C  18,C  15,C  13,H  16)      4.4543         0.026241   
    497. D(C  18,C  15,C  13,C   9)   -169.6353         0.026241 C 
    498. D(O  20,C  17,C  14,C  10)    163.1250         0.010224 C 
    499. D(N  19,C  17,C  14,C  10)    -11.9069         0.010224 C 
    500. D(N  19,C  17,C  14,C  11)    176.5122         0.010224 C 
    501. D(O  20,C  17,C  14,C  11)     -8.4560         0.010224 C 
    502. D(N  19,C  18,C  15,C  10)    -40.5834         0.013297 C 
    503. D(N  19,C  18,C  15,C  13)    134.5956         0.013297 C 
    504. D(O  21,C  18,C  15,C  10)    145.0557         0.013297 C 
    505. D(O  21,C  18,C  15,C  13)    -39.7653         0.013297 C 
    506. D(C  17,N  19,C  18,O  21)   -131.6573         0.023220 C 
    507. D(C  18,N  19,C  17,C  14)    -27.9302         0.020244 C 
    508. D(C  83,N  19,C  17,C  14)    167.1121         0.020244 C 
    509. D(C  83,N  19,C  17,O  20)     -8.0182         0.020244 C 
    510. D(C  17,N  19,C  18,C  15)     54.2043         0.023220 C 
    511. D(C  83,N  19,C  18,O  21)     32.1700         0.023220 C 
    512. D(C  18,N  19,C  17,O  20)    156.9395         0.020244 C 
    513. D(C  83,N  19,C  18,C  15)   -141.9684         0.023220 C 
    514. D(C  23,C  22,N   2,C   0)   -152.5017         0.014138 C 
    515. D(H  24,C  22,N   2,C   3)    -71.4501         0.014138   
    516. D(H  24,C  22,N   2,C   0)     76.1212         0.014138   
    517. D(H  25,C  22,N   2,C   0)    -36.9240         0.014138   
    518. D(C  23,C  22,N   2,C   3)     59.9270         0.014138 C 
    519. D(H  25,C  22,N   2,C   3)    175.5047         0.014138   
    520. D(C  51,C  23,C  22,H  24)    107.3683         0.008068   
    521. D(C  26,C  23,C  22,N   2)   -152.3529         0.008068 C 
    522. D(C  26,C  23,C  22,H  24)    -22.7902         0.008068   
    523. D(C  51,C  23,C  22,N   2)    -22.1944         0.008068 C 
    524. D(C  51,C  23,C  22,H  25)   -137.5990         0.008068   
    525. D(H  52,C  23,C  22,N   2)     93.9891         0.008068   
    526. D(H  52,C  23,C  22,H  25)    -21.4155         0.008068   
    527. D(H  52,C  23,C  22,H  24)   -136.4482         0.008068   
    528. D(C  26,C  23,C  22,H  25)     92.2425         0.008068   
    529. D(H  29,C  26,C  23,C  51)   -145.1782         0.007822   
    530. D(C  27,C  26,C  23,C  22)   -133.4582         0.007822 C 
    531. D(C  27,C  26,C  23,H  52)    -20.0900         0.007822   
    532. D(C  27,C  26,C  23,C  51)     95.7452         0.007822 C 
    533. D(H  28,C  26,C  23,C  22)     98.9999         0.007822   
    534. D(H  28,C  26,C  23,H  52)   -147.6318         0.007822   
    535. D(H  29,C  26,C  23,H  52)     98.9866         0.007822   
    536. D(H  29,C  26,C  23,C  22)    -14.3816         0.007822   
    537. D(H  28,C  26,C  23,C  51)    -31.7967         0.007822   
    538. D(H  31,C  27,C  26,H  28)    -87.3565         0.007826   
    539. D(C  30,C  27,C  26,C  23)    -93.0242         0.007826 C 
    540. D(C  30,C  27,C  26,H  28)     34.2090         0.007826   
    541. D(C  30,C  27,C  26,H  29)    146.7839         0.007826   
    542. D(H  31,C  27,C  26,H  29)     25.2184         0.007826   
    543. D(H  32,C  27,C  26,C  23)     29.4806         0.007826   
    544. D(H  32,C  27,C  26,H  28)    156.7138         0.007826   
    545. D(H  32,C  27,C  26,H  29)    -90.7114         0.007826   
    546. D(H  31,C  27,C  26,C  23)    145.4103         0.007826   
    547. D(C  33,C  30,C  27,C  26)   -165.3956         0.009972 C 
    548. D(H  35,C  30,C  27,H  31)     81.1111         0.009972   
    549. D(C  33,C  30,C  27,H  32)     70.3413         0.009972   
    550. D(H  34,C  30,C  27,C  26)     77.0834         0.009972   
    551. D(H  34,C  30,C  27,H  31)   -162.1391         0.009972   
    552. D(H  34,C  30,C  27,H  32)    -47.1797         0.009972   
    553. D(C  33,C  30,C  27,H  31)    -44.6181         0.009972   
    554. D(H  35,C  30,C  27,C  26)    -39.6664         0.009972   
    555. D(H  35,C  30,C  27,H  32)   -163.9295         0.009972   
    556. D(C  36,C  33,C  30,C  27)   -172.7819         0.009452 C 
    557. D(C  36,C  33,C  30,H  35)     61.3375         0.009452   
    558. D(H  37,C  33,C  30,C  27)     66.6051         0.009452   
    559. D(C  36,C  33,C  30,H  34)    -52.9545         0.009452   
    560. D(H  37,C  33,C  30,H  34)   -173.5675         0.009452   
    561. D(H  38,C  33,C  30,H  34)     67.0570         0.009452   
    562. D(H  37,C  33,C  30,H  35)    -59.2754         0.009452   
    563. D(H  38,C  33,C  30,C  27)    -52.7703         0.009452   
    564. D(H  38,C  33,C  30,H  35)   -178.6509         0.009452   
    565. D(C  39,C  36,C  33,C  30)   -174.2099         0.008882 C 
    566. D(C  39,C  36,C  33,H  37)    -54.2380         0.008882   
    567. D(C  39,C  36,C  33,H  38)     65.0095         0.008882   
    568. D(H  40,C  36,C  33,C  30)     62.9582         0.008882   
    569. D(H  40,C  36,C  33,H  37)   -177.0698         0.008882   
    570. D(H  40,C  36,C  33,H  38)    -57.8224         0.008882   
    571. D(H  41,C  36,C  33,C  30)    -50.9575         0.008882   
    572. D(H  41,C  36,C  33,H  37)     69.0144         0.008882   
    573. D(H  41,C  36,C  33,H  38)   -171.7381         0.008882   
    574. D(C  42,C  39,C  36,C  33)    177.2386         0.009925 C 
    575. D(C  42,C  39,C  36,H  40)    -59.2261         0.009925   
    576. D(H  44,C  39,C  36,C  33)    -61.3283         0.009925   
    577. D(H  43,C  39,C  36,C  33)     56.7089         0.009925   
    578. D(H  43,C  39,C  36,H  40)   -179.7558         0.009925   
    579. D(C  42,C  39,C  36,H  41)     54.2693         0.009925   
    580. D(H  43,C  39,C  36,H  41)    -66.2604         0.009925   
    581. D(H  44,C  39,C  36,H  40)     62.2069         0.009925   
    582. D(H  44,C  39,C  36,H  41)    175.7024         0.009925   
    583. D(C  45,C  42,C  39,C  36)   -176.9579         0.008874 C 
    584. D(C  45,C  42,C  39,H  43)    -56.9408         0.008874   
    585. D(C  45,C  42,C  39,H  44)     60.8315         0.008874   
    586. D(H  46,C  42,C  39,C  36)     61.2517         0.008874   
    587. D(H  46,C  42,C  39,H  43)   -178.7311         0.008874   
    588. D(H  46,C  42,C  39,H  44)    -60.9588         0.008874   
    589. D(H  47,C  42,C  39,C  36)    -54.3445         0.008874   
    590. D(H  47,C  42,C  39,H  43)     65.6726         0.008874   
    591. D(H  47,C  42,C  39,H  44)   -176.5551         0.008874   
    592. D(H  48,C  45,C  42,C  39)    -60.5314         0.010364   
    593. D(H  48,C  45,C  42,H  46)     62.1001         0.010364   
    594. D(H  48,C  45,C  42,H  47)    176.9423         0.010364   
    595. D(H  49,C  45,C  42,C  39)    179.4448         0.010364   
    596. D(H  49,C  45,C  42,H  46)    -57.9237         0.010364   
    597. D(H  49,C  45,C  42,H  47)     56.9186         0.010364   
    598. D(H  50,C  45,C  42,C  39)     60.0486         0.010364   
    599. D(H  50,C  45,C  42,H  46)   -177.3199         0.010364   
    600. D(H  50,C  45,C  42,H  47)    -62.4776         0.010364   
    601. D(C  53,C  51,C  23,C  22)    174.8824         0.010333 C 
    602. D(C  53,C  51,C  23,C  26)    -57.5175         0.010333 C 
    603. D(C  53,C  51,C  23,H  52)     58.6378         0.010333   
    604. D(H  54,C  51,C  23,C  22)     53.3840         0.010333   
    605. D(H  54,C  51,C  23,C  26)   -179.0159         0.010333   
    606. D(H  54,C  51,C  23,H  52)    -62.8606         0.010333   
    607. D(H  55,C  51,C  23,C  22)    -65.5796         0.010333   
    608. D(H  55,C  51,C  23,C  26)     62.0206         0.010333   
    609. D(H  55,C  51,C  23,H  52)    178.1759         0.010333   
    610. D(C  56,C  53,C  51,C  23)   -178.0193         0.011070 C 
    611. D(C  56,C  53,C  51,H  54)    -56.2363         0.011070   
    612. D(H  58,C  53,C  51,C  23)    -51.3318         0.011070   
    613. D(H  57,C  53,C  51,C  23)     66.4212         0.011070   
    614. D(H  57,C  53,C  51,H  54)   -171.7958         0.011070   
    615. D(C  56,C  53,C  51,H  55)     61.0965         0.011070   
    616. D(H  57,C  53,C  51,H  55)    -54.4630         0.011070   
    617. D(H  58,C  53,C  51,H  54)     70.4513         0.011070   
    618. D(H  58,C  53,C  51,H  55)   -172.2159         0.011070   
    619. D(C  59,C  56,C  53,C  51)   -168.5515         0.010510 C 
    620. D(C  59,C  56,C  53,H  57)    -52.5812         0.010510   
    621. D(C  59,C  56,C  53,H  58)     64.5511         0.010510   
    622. D(H  60,C  56,C  53,C  51)     70.6550         0.010510   
    623. D(H  60,C  56,C  53,H  57)   -173.3747         0.010510   
    624. D(H  60,C  56,C  53,H  58)    -56.2424         0.010510   
    625. D(H  61,C  56,C  53,C  51)    -48.0612         0.010510   
    626. D(H  61,C  56,C  53,H  57)     67.9091         0.010510   
    627. D(H  61,C  56,C  53,H  58)   -174.9586         0.010510   
    628. D(H  64,C  59,C  56,H  61)    173.4304         0.009701   
    629. D(C  62,C  59,C  56,H  61)     49.6214         0.009701   
    630. D(H  64,C  59,C  56,C  53)    -66.7381         0.009701   
    631. D(H  63,C  59,C  56,C  53)     48.7078         0.009701   
    632. D(C  62,C  59,C  56,H  60)    -69.2006         0.009701   
    633. D(H  63,C  59,C  56,H  60)    170.0543         0.009701   
    634. D(H  63,C  59,C  56,H  61)    -71.1237         0.009701   
    635. D(C  62,C  59,C  56,C  53)    169.4529         0.009701 C 
    636. D(H  64,C  59,C  56,H  60)     54.6084         0.009701   
    637. D(C  65,C  62,C  59,C  56)   -173.1477         0.010316 C 
    638. D(C  65,C  62,C  59,H  63)    -52.3494         0.010316   
    639. D(C  65,C  62,C  59,H  64)     63.0291         0.010316   
    640. D(H  66,C  62,C  59,C  56)     65.3561         0.010316   
    641. D(H  66,C  62,C  59,H  63)   -173.8456         0.010316   
    642. D(H  66,C  62,C  59,H  64)    -58.4671         0.010316   
    643. D(H  67,C  62,C  59,C  56)    -51.6348         0.010316   
    644. D(H  67,C  62,C  59,H  63)     69.1635         0.010316   
    645. D(H  67,C  62,C  59,H  64)   -175.4580         0.010316   
    646. D(C  68,C  65,C  62,C  59)   -178.9261         0.010243 C 
    647. D(C  68,C  65,C  62,H  66)    -57.3835         0.010243   
    648. D(C  68,C  65,C  62,H  67)     59.6558         0.010243   
    649. D(H  69,C  65,C  62,C  59)     59.9719         0.010243   
    650. D(H  69,C  65,C  62,H  66)   -178.4854         0.010243   
    651. D(H  69,C  65,C  62,H  67)    -61.4462         0.010243   
    652. D(H  70,C  65,C  62,C  59)    -56.4089         0.010243   
    653. D(H  70,C  65,C  62,H  66)     65.1338         0.010243   
    654. D(H  70,C  65,C  62,H  67)   -177.8270         0.010243   
    655. D(C  71,C  68,C  65,C  62)    179.7042         0.010076 C 
    656. D(C  71,C  68,C  65,H  69)    -59.7841         0.010076   
    657. D(C  71,C  68,C  65,H  70)     57.0720         0.010076   
    658. D(H  72,C  68,C  65,C  62)     58.6676         0.010076   
    659. D(H  72,C  68,C  65,H  69)    179.1793         0.010076   
    660. D(H  72,C  68,C  65,H  70)    -63.9646         0.010076   
    661. D(H  73,C  68,C  65,C  62)    -57.6662         0.010076   
    662. D(H  73,C  68,C  65,H  69)     62.8455         0.010076   
    663. D(H  73,C  68,C  65,H  70)    179.7016         0.010076   
    664. D(H  76,C  71,C  68,H  73)   -176.3735         0.010330   
    665. D(C  74,C  71,C  68,H  72)    -55.2017         0.010330   
    666. D(C  74,C  71,C  68,H  73)     61.3114         0.010330   
    667. D(H  75,C  71,C  68,C  65)     62.4105         0.010330   
    668. D(H  75,C  71,C  68,H  72)   -176.4462         0.010330   
    669. D(H  75,C  71,C  68,H  73)    -59.9331         0.010330   
    670. D(H  76,C  71,C  68,C  65)    -54.0299         0.010330   
    671. D(C  74,C  71,C  68,C  65)   -176.3450         0.010330 C 
    672. D(H  76,C  71,C  68,H  72)     67.1133         0.010330   
    673. D(C  77,C  74,C  71,C  68)    179.5111         0.009887 C 
    674. D(C  77,C  74,C  71,H  75)    -59.8551         0.009887   
    675. D(C  77,C  74,C  71,H  76)     57.1743         0.009887   
    676. D(H  78,C  74,C  71,C  68)     58.7340         0.009887   
    677. D(H  78,C  74,C  71,H  75)    179.3678         0.009887   
    678. D(H  78,C  74,C  71,H  76)    -63.6028         0.009887   
    679. D(H  79,C  74,C  71,C  68)    -57.8547         0.009887   
    680. D(H  79,C  74,C  71,H  75)     62.7791         0.009887   
    681. D(H  79,C  74,C  71,H  76)    179.8085         0.009887   
    682. D(H  80,C  77,C  74,C  71)    -58.6762         0.010538   
    683. D(H  80,C  77,C  74,H  78)     62.5145         0.010538   
    684. D(H  80,C  77,C  74,H  79)    178.8728         0.010538   
    685. D(H  81,C  77,C  74,C  71)   -179.0708         0.010538   
    686. D(H  81,C  77,C  74,H  78)    -57.8801         0.010538   
    687. D(H  81,C  77,C  74,H  79)     58.4783         0.010538   
    688. D(H  82,C  77,C  74,C  71)     61.0536         0.010538   
    689. D(H  82,C  77,C  74,H  78)   -177.7557         0.010538   
    690. D(H  82,C  77,C  74,H  79)    -61.3974         0.010538   
    691. D(C  84,C  83,N  19,C  17)   -171.9009         0.013754 C 
    692. D(C  84,C  83,N  19,C  18)     23.8662         0.013754 C 
    693. D(H  85,C  83,N  19,C  17)     64.8606         0.013754   
    694. D(H  85,C  83,N  19,C  18)    -99.3723         0.013754   
    695. D(H  86,C  83,N  19,C  17)    -46.5152         0.013754   
    696. D(H  86,C  83,N  19,C  18)    149.2520         0.013754   
    697. D(C  87,C  84,C  83,N  19)    176.4332         0.006298 C 
    698. D(C  87,C  84,C  83,H  85)    -60.2915         0.006298   
    699. D(C  87,C  84,C  83,H  86)     52.2162         0.006298   
    700. D(C 112,C  84,C  83,N  19)     49.4686         0.006298 C 
    701. D(C 112,C  84,C  83,H  85)    172.7440         0.006298   
    702. D(C 112,C  84,C  83,H  86)    -74.7484         0.006298   
    703. D(H 113,C  84,C  83,N  19)    -70.0551         0.006298   
    704. D(H 113,C  84,C  83,H  85)     53.2202         0.006298   
    705. D(H 113,C  84,C  83,H  86)    165.7279         0.006298   
    706. D(C  88,C  87,C  84,C  83)    135.0602         0.006743 C 
    707. D(C  88,C  87,C  84,C 112)    -95.8663         0.006743 C 
    708. D(C  88,C  87,C  84,H 113)     21.2102         0.006743   
    709. D(H  89,C  87,C  84,C  83)     15.0806         0.006743   
    710. D(H  89,C  87,C  84,C 112)    144.1540         0.006743   
    711. D(H  89,C  87,C  84,H 113)    -98.7694         0.006743   
    712. D(H  90,C  87,C  84,C  83)    -98.7988         0.006743   
    713. D(H  90,C  87,C  84,C 112)     30.2746         0.006743   
    714. D(H  90,C  87,C  84,H 113)    147.3512         0.006743   
    715. D(C  91,C  88,C  87,C  84)     79.8587         0.007048 C 
    716. D(C  91,C  88,C  87,H  89)   -158.9398         0.007048   
    717. D(C  91,C  88,C  87,H  90)    -46.2992         0.007048   
    718. D(H  92,C  88,C  87,C  84)    -44.2191         0.007048   
    719. D(H  92,C  88,C  87,H  89)     76.9824         0.007048   
    720. D(H  92,C  88,C  87,H  90)   -170.3771         0.007048   
    721. D(H  93,C  88,C  87,C  84)   -158.3237         0.007048   
    722. D(H  93,C  88,C  87,H  89)    -37.1222         0.007048   
    723. D(H  93,C  88,C  87,H  90)     75.5184         0.007048   
    724. D(H  96,C  91,C  88,H  93)    160.7085         0.008137   
    725. D(C  94,C  91,C  88,H  92)    -75.3617         0.008137   
    726. D(C  94,C  91,C  88,H  93)     39.5765         0.008137   
    727. D(H  95,C  91,C  88,C  87)     38.9131         0.008137   
    728. D(H  95,C  91,C  88,H  92)    162.7073         0.008137   
    729. D(H  95,C  91,C  88,H  93)    -82.3545         0.008137   
    730. D(H  96,C  91,C  88,C  87)    -78.0238         0.008137   
    731. D(C  94,C  91,C  88,C  87)    160.8441         0.008137 C 
    732. D(H  96,C  91,C  88,H  92)     45.7704         0.008137   
    733. D(C  97,C  94,C  91,C  88)    173.6303         0.007341 C 
    734. D(C  97,C  94,C  91,H  95)    -63.9477         0.007341   
    735. D(C  97,C  94,C  91,H  96)     50.8036         0.007341   
    736. D(H  98,C  94,C  91,C  88)     53.3253         0.007341   
    737. D(H  98,C  94,C  91,H  95)    175.7472         0.007341   
    738. D(H  98,C  94,C  91,H  96)    -69.5014         0.007341   
    739. D(H  99,C  94,C  91,C  88)    -63.9415         0.007341   
    740. D(H  99,C  94,C  91,H  95)     58.4804         0.007341   
    741. D(H  99,C  94,C  91,H  96)    173.2318         0.007341   
    742. D(C 100,C  97,C  94,C  91)    174.0161         0.007038 C 
    743. D(C 100,C  97,C  94,H  98)    -64.6911         0.007038   
    744. D(C 100,C  97,C  94,H  99)     52.0296         0.007038   
    745. D(H 101,C  97,C  94,C  91)     50.7562         0.007038   
    746. D(H 101,C  97,C  94,H  98)    172.0490         0.007038   
    747. D(H 101,C  97,C  94,H  99)    -71.2304         0.007038   
    748. D(H 102,C  97,C  94,C  91)    -62.4522         0.007038   
    749. D(H 102,C  97,C  94,H  98)     58.8406         0.007038   
    750. D(H 102,C  97,C  94,H  99)    175.5612         0.007038   
    751. D(C 103,C 100,C  97,C  94)    177.9900         0.007390 C 
    752. D(C 103,C 100,C  97,H 101)    -59.2176         0.007390   
    753. D(C 103,C 100,C  97,H 102)     53.9417         0.007390   
    754. D(H 104,C 100,C  97,C  94)     56.2892         0.007390   
    755. D(H 104,C 100,C  97,H 101)    179.0817         0.007390   
    756. D(H 104,C 100,C  97,H 102)    -67.7591         0.007390   
    757. D(H 105,C 100,C  97,C  94)    -59.3139         0.007390   
    758. D(H 105,C 100,C  97,H 101)     63.4786         0.007390   
    759. D(H 105,C 100,C  97,H 102)    176.6378         0.007390   
    760. D(H 108,C 103,C 100,H 105)    177.9680         0.007180   
    761. D(C 106,C 103,C 100,H 104)    -59.7696         0.007180   
    762. D(C 106,C 103,C 100,H 105)     55.5081         0.007180   
    763. D(H 107,C 103,C 100,C  97)     54.2575         0.007180   
    764. D(H 107,C 103,C 100,H 104)    176.9820         0.007180   
    765. D(H 107,C 103,C 100,H 105)    -67.7402         0.007180   
    766. D(H 108,C 103,C 100,C  97)    -60.0342         0.007180   
    767. D(C 106,C 103,C 100,C  97)    177.5059         0.007180 C 
    768. D(H 108,C 103,C 100,H 104)     62.6903         0.007180   
    769. D(H 109,C 106,C 103,C 100)    -59.0449         0.007626   
    770. D(H 109,C 106,C 103,H 107)     63.7169         0.007626   
    771. D(H 109,C 106,C 103,H 108)    177.5391         0.007626   
    772. D(H 110,C 106,C 103,C 100)    179.2373         0.007626   
    773. D(H 110,C 106,C 103,H 107)    -58.0009         0.007626   
    774. D(H 110,C 106,C 103,H 108)     55.8213         0.007626   
    775. D(H 111,C 106,C 103,C 100)     59.0900         0.007626   
    776. D(H 111,C 106,C 103,H 107)   -178.1482         0.007626   
    777. D(H 111,C 106,C 103,H 108)    -64.3260         0.007626   
    778. D(C 114,C 112,C  84,C  83)   -174.2968         0.006849 C 
    779. D(C 114,C 112,C  84,C  87)     63.4422         0.006849 C 
    780. D(C 114,C 112,C  84,H 113)    -54.0978         0.006849   
    781. D(H 115,C 112,C  84,C  83)     64.2775         0.006849   
    782. D(H 115,C 112,C  84,C  87)    -57.9834         0.006849   
    783. D(H 115,C 112,C  84,H 113)   -175.5235         0.006849   
    784. D(H 116,C 112,C  84,C  83)    -52.9577         0.006849   
    785. D(H 116,C 112,C  84,C  87)   -175.2186         0.006849   
    786. D(H 116,C 112,C  84,H 113)     67.2413         0.006849   
    787. D(C 117,C 114,C 112,C  84)    163.5295         0.007302 C 
    788. D(C 117,C 114,C 112,H 115)    -75.4867         0.007302   
    789. D(C 117,C 114,C 112,H 116)     40.2157         0.007302   
    790. D(H 118,C 114,C 112,C  84)     39.7224         0.007302   
    791. D(H 118,C 114,C 112,H 115)    160.7062         0.007302   
    792. D(H 118,C 114,C 112,H 116)    -83.5914         0.007302   
    793. D(H 119,C 114,C 112,C  84)    -74.8399         0.007302   
    794. D(H 119,C 114,C 112,H 115)     46.1439         0.007302   
    795. D(H 119,C 114,C 112,H 116)    161.8462         0.007302   
    796. D(H 122,C 117,C 114,H 119)    170.1127         0.007133   
    797. D(C 120,C 117,C 114,H 118)    -63.2071         0.007133   
    798. D(C 120,C 117,C 114,H 119)     50.1752         0.007133   
    799. D(H 121,C 117,C 114,C 112)     50.5594         0.007133   
    800. D(H 121,C 117,C 114,H 118)    175.2948         0.007133   
    801. D(H 121,C 117,C 114,H 119)    -71.3229         0.007133   
    802. D(H 122,C 117,C 114,C 112)    -68.0050         0.007133   
    803. D(C 120,C 117,C 114,C 112)    172.0575         0.007133 C 
    804. D(H 122,C 117,C 114,H 118)     56.7304         0.007133   
    805. D(C 123,C 120,C 117,C 114)    177.5324         0.006699 C 
    806. D(C 123,C 120,C 117,H 121)    -60.8451         0.006699   
    807. D(C 123,C 120,C 117,H 122)     56.2557         0.006699   
    808. D(H 124,C 120,C 117,C 114)     53.9406         0.006699   
    809. D(H 124,C 120,C 117,H 121)    175.5631         0.006699   
    810. D(H 124,C 120,C 117,H 122)    -67.3361         0.006699   
    811. D(H 125,C 120,C 117,C 114)    -59.0248         0.006699   
    812. D(H 125,C 120,C 117,H 121)     62.5977         0.006699   
    813. D(H 125,C 120,C 117,H 122)    179.6985         0.006699   
    814. D(C 126,C 123,C 120,C 117)    175.9176         0.007523 C 
    815. D(C 126,C 123,C 120,H 124)    -59.8382         0.007523   
    816. D(C 126,C 123,C 120,H 125)     52.8549         0.007523   
    817. D(H 127,C 123,C 120,C 117)     53.5556         0.007523   
    818. D(H 127,C 123,C 120,H 124)    177.7998         0.007523   
    819. D(H 127,C 123,C 120,H 125)    -69.5070         0.007523   
    820. D(H 128,C 123,C 120,C 117)    -62.3747         0.007523   
    821. D(H 128,C 123,C 120,H 124)     61.8696         0.007523   
    822. D(H 128,C 123,C 120,H 125)    174.5627         0.007523   
    823. D(C 129,C 126,C 123,C 120)    179.3238         0.007207 C 
    824. D(C 129,C 126,C 123,H 127)    -58.5714         0.007207   
    825. D(C 129,C 126,C 123,H 128)     56.9866         0.007207   
    826. D(H 130,C 126,C 123,C 120)     56.2873         0.007207   
    827. D(H 130,C 126,C 123,H 127)    178.3922         0.007207   
    828. D(H 130,C 126,C 123,H 128)    -66.0498         0.007207   
    829. D(H 131,C 126,C 123,C 120)    -57.8117         0.007207   
    830. D(H 131,C 126,C 123,H 127)     64.2931         0.007207   
    831. D(H 131,C 126,C 123,H 128)    179.8511         0.007207   
    832. D(C 132,C 129,C 126,C 123)    177.5765         0.007658 C 
    833. D(C 132,C 129,C 126,H 130)    -58.7303         0.007658   
    834. D(C 132,C 129,C 126,H 131)     55.1466         0.007658   
    835. D(H 133,C 129,C 126,C 123)     54.6946         0.007658   
    836. D(H 133,C 129,C 126,H 130)    178.3878         0.007658   
    837. D(H 133,C 129,C 126,H 131)    -67.7352         0.007658   
    838. D(H 134,C 129,C 126,C 123)    -60.4307         0.007658   
    839. D(H 134,C 129,C 126,H 130)     63.2625         0.007658   
    840. D(H 134,C 129,C 126,H 131)    177.1394         0.007658   
    841. D(C 135,C 132,C 129,C 126)   -179.7902         0.007571 C 
    842. D(C 135,C 132,C 129,H 133)    -57.3073         0.007571   
    843. D(C 135,C 132,C 129,H 134)     57.5858         0.007571   
    844. D(H 136,C 132,C 129,C 126)     57.5898         0.007571   
    845. D(H 136,C 132,C 129,H 133)   -179.9273         0.007571   
    846. D(H 136,C 132,C 129,H 134)    -65.0342         0.007571   
    847. D(H 137,C 132,C 129,C 126)    -57.2073         0.007571   
    848. D(H 137,C 132,C 129,H 133)     65.2757         0.007571   
    849. D(H 137,C 132,C 129,H 134)   -179.8313         0.007571   
    850. D(C 138,C 135,C 132,C 129)    179.1052         0.007779 C 
    851. D(C 138,C 135,C 132,H 136)    -57.5568         0.007779   
    852. D(C 138,C 135,C 132,H 137)     56.9426         0.007779   
    853. D(H 139,C 135,C 132,C 129)     56.1575         0.007779   
    854. D(H 139,C 135,C 132,H 136)    179.4955         0.007779   
    855. D(H 139,C 135,C 132,H 137)    -66.0051         0.007779   
    856. D(H 140,C 135,C 132,C 129)    -58.9732         0.007779   
    857. D(H 140,C 135,C 132,H 136)     64.3647         0.007779   
    858. D(H 140,C 135,C 132,H 137)    178.8642         0.007779   
    859. D(H 141,C 138,C 135,C 132)    -58.6397         0.008086   
    860. D(H 141,C 138,C 135,H 139)     64.0975         0.008086   
    861. D(H 141,C 138,C 135,H 140)    178.5526         0.008086   
    862. D(H 142,C 138,C 135,C 132)   -179.8295         0.008086   
    863. D(H 142,C 138,C 135,H 139)    -57.0923         0.008086   
    864. D(H 142,C 138,C 135,H 140)     57.3628         0.008086   
    865. D(H 143,C 138,C 135,C 132)     59.7454         0.008086   
    866. D(H 143,C 138,C 135,H 139)   -177.5173         0.008086   
    867. D(H 143,C 138,C 135,H 140)    -63.0622         0.008086   
    -----------------------------------------------------------------

Number of atoms                         .... 146
Number of degrees of freedom            .... 867

Time needed for optimization step       :     1.17 sec

         *************************************************************
         *                GEOMETRY OPTIMIZATION CYCLE   1            *
         *************************************************************
---------------------------------
CARTESIAN COORDINATES (ANGSTROEM)
---------------------------------
  C     -1.636004    2.964241    0.485260
  C     -1.898954    1.510974    0.637776
  N     -0.291641    3.403962    0.545773
  C      0.625253    2.518825    1.155646
  C      0.552868    1.140382    0.578064
  C     -0.787359    0.657793    0.479738
  O     -2.583102    3.720280    0.280537
  O      1.314055    2.812881    2.137116
  C     -3.208551    1.000093    0.702924
  C      1.656871    0.348686    0.096342
  C     -1.066199   -0.690310    0.164312
  C     -3.505831   -0.396329    0.654072
  H     -4.018378    1.738403    0.774321
  C      1.308200   -0.905221   -0.499251
  C     -2.370690   -1.255027    0.395524
  C      0.013215   -1.413783   -0.414577
  H      2.087972   -1.528335   -0.948265
  C     -2.315168   -2.771349    0.515054
  C     -0.296539   -2.805368   -0.828566
  N     -1.109071   -3.412337    0.135900
  O     -3.233351   -3.421621    1.004660
  O      0.194588   -3.342260   -1.812240
  C     -0.167447    4.872684    0.634651
  C      1.052340    5.735917    0.126888
  H     -0.422921    5.135990    1.678457
  H     -0.987331    5.213854   -0.013844
  C      1.145045    7.058319    0.992227
  C      1.345726    8.450766    0.266506
  H      1.918973    6.927258    1.776889
  H      0.185173    7.157521    1.545174
  C      2.819141    8.897502    0.124172
  H      0.788000    9.217268    0.847746
  H      0.896487    8.441118   -0.743525
  C      3.148473   10.369525   -0.250144
  H      3.267625    8.320893   -0.699841
  H      3.364995    8.639250    1.057427
  C      4.693679   10.404030   -0.486271
  H      2.847682   11.053978    0.566403
  H      2.607177   10.690581   -1.168118
  C      5.371236   11.770051   -0.746768
  H      4.937675    9.745205   -1.345170
  H      5.183493    9.933541    0.400671
  C      6.913192   11.547164   -0.879864
  H      5.153655   12.456027    0.093966
  H      4.972708   12.251588   -1.670526
  C      7.725779   12.842209   -1.069254
  H      7.122630   10.877665   -1.737818
  H      7.284314   11.008241    0.025930
  H      7.429030   13.389336   -1.993008
  H      8.814930   12.602977   -1.146098
  H      7.581761   13.518745   -0.208796
  C      2.386241    4.977321   -0.014164
  H      0.783145    6.059322   -0.902496
  C      3.475844    5.859659   -0.629042
  H      2.243152    4.081350   -0.642649
  H      2.744152    4.645306    0.988315
  C      4.852058    5.216501   -0.872666
  H      3.667048    6.640705    0.115432
  H      3.106738    6.329018   -1.569138
  C      5.858082    6.344953   -1.216061
  H      4.805749    4.486566   -1.698542
  H      5.175101    4.670069    0.044843
  C      7.320369    5.858127   -1.227285
  H      5.758092    7.153688   -0.465320
  H      5.598253    6.810104   -2.194882
  C      8.296491    7.039122   -1.403460
  H      7.465777    5.129018   -2.045846
  H      7.544016    5.322256   -0.275727
  C      9.763003    6.555479   -1.442390
  H      8.157108    7.744867   -0.562488
  H      8.055151    7.604487   -2.332984
  C     10.757745    7.718153   -1.625252
  H      9.887918    5.839852   -2.276695
  H      9.996372    5.996182   -0.506866
  C     12.212350    7.205761   -1.752889
  H     10.674509    8.397618   -0.756455
  H     10.484232    8.316463   -2.525290
  C     13.220093    8.351207   -1.948331
  H     12.285336    6.518666   -2.616087
  H     12.481349    6.611654   -0.849479
  H     12.981817    8.945899   -2.857461
  H     14.254006    7.954395   -2.053741
  H     13.199724    9.034011   -1.081954
  C     -0.972800   -4.831774    0.533838
  C      0.366086   -5.728606    0.388322
  H     -1.762358   -5.378658   -0.024420
  H     -1.283347   -4.861360    1.593169
  C     -0.021260   -7.138292    1.055043
  C      0.367129   -8.511344    0.332121
  H     -1.148690   -7.168672    1.154984
  H      0.370579   -7.160324    2.088879
  C      1.852878   -9.013562    0.496559
  H      0.132081   -8.421707   -0.743147
  H     -0.325778   -9.311901    0.737461
  C      2.150520  -10.551491    0.206598
  H      2.178283   -8.803877    1.532788
  H      2.520719   -8.432564   -0.190954
  C      3.733525  -10.772184    0.276639
  H      1.777452  -10.849935   -0.793870
  H      1.608854  -11.209340    0.943359
  C      4.202833  -12.288798    0.157519
  H      4.114725  -10.335692    1.228593
  H      4.243903  -10.164923   -0.522758
  C      5.796539  -12.380320    0.187786
  H      3.821453  -12.756630   -0.778932
  H      3.748863  -12.894268    0.987070
  C      6.320858  -13.877367    0.135709
  H      6.183259  -11.863570    1.098728
  H      6.245236  -11.804151   -0.664426
  H      5.928640  -14.471968    0.997605
  H      7.461635  -13.896720    0.145060
  H      5.979780  -14.413776   -0.780064
  C      1.733671   -5.102649    0.946451
  H      0.528005   -5.913751   -0.692265
  C      2.964436   -6.050722    0.590045
  H      1.658064   -4.971109    2.042500
  H      1.932460   -4.081117    0.526119
  C      4.486044   -5.567299    0.650263
  H      2.809922   -6.441145   -0.436246
  H      2.897975   -6.919474    1.284058
  C      5.405898   -6.867036    0.427157
  H      4.714958   -5.078796    1.622971
  H      4.709105   -4.813194   -0.138697
  C      6.975482   -6.621515    0.385877
[...]
  1 C      5.9760     6.0000     0.0240     3.7080     3.7080    -0.0000
  2 N      7.2465     7.0000    -0.2465     3.1494     3.1494    -0.0000
  3 C      5.8991     6.0000     0.1009     4.1814     4.1814     0.0000
  4 C      5.9802     6.0000     0.0198     3.6904     3.6904    -0.0000
  5 C      5.9576     6.0000     0.0424     3.9519     3.9519     0.0000
  6 O      8.1843     8.0000    -0.1843     2.3705     2.3705     0.0000
  7 O      8.1624     8.0000    -0.1624     2.3445     2.3445    -0.0000
  8 C      6.0212     6.0000    -0.0212     3.8172     3.8172    -0.0000
  9 C      6.0037     6.0000    -0.0037     3.8050     3.8050    -0.0000
 10 C      5.9448     6.0000     0.0552     3.9093     3.9093     0.0000
 11 C      5.9927     6.0000     0.0073     3.7734     3.7734    -0.0000
 12 H      0.9696     1.0000     0.0304     1.0069     1.0069     0.0000
 13 C      6.0156     6.0000    -0.0156     3.8363     3.8363     0.0000
 14 C      5.9953     6.0000     0.0047     3.6570     3.6570     0.0000
 15 C      5.9976     6.0000     0.0024     3.7515     3.7515     0.0000
 16 H      0.9725     1.0000     0.0275     0.9980     0.9980     0.0000
 17 C      5.8689     6.0000     0.1311     4.1845     4.1845    -0.0000
 18 C      5.8890     6.0000     0.1110     4.1940     4.1940    -0.0000
 19 N      7.2544     7.0000    -0.2544     3.1400     3.1400    -0.0000
 20 O      8.1781     8.0000    -0.1781     2.3617     2.3617    -0.0000
 21 O      8.1552     8.0000    -0.1552     2.3712     2.3712     0.0000
 22 C      5.8677     6.0000     0.1323     3.9021     3.9021     0.0000
 23 C      6.1081     6.0000    -0.1081     4.1763     4.1763     0.0000
 24 H      0.9657     1.0000     0.0343     1.0069     1.0069     0.0000
 25 H      0.9417     1.0000     0.0583     1.0287     1.0287     0.0000
 26 C      6.0293     6.0000    -0.0293     4.0273     4.0273    -0.0000
 27 C      5.9715     6.0000     0.0285     4.0464     4.0464     0.0000
 28 H      0.9763     1.0000     0.0237     0.9943     0.9943    -0.0000
 29 H      0.9798     1.0000     0.0202     0.9856     0.9856     0.0000
 30 C      6.1104     6.0000    -0.1104     4.1164     4.1164     0.0000
 31 H      0.9867     1.0000     0.0133     0.9792     0.9792    -0.0000
 32 H      0.9838     1.0000     0.0162     0.9856     0.9856    -0.0000
 33 C      5.9530     6.0000     0.0470     3.9900     3.9900     0.0000
 34 H      0.9787     1.0000     0.0213     1.0112     1.0112     0.0000
 35 H      0.9784     1.0000     0.0216     0.9822     0.9822     0.0000
 36 C      6.1094     6.0000    -0.1094     4.1214     4.1214     0.0000
 37 H      0.9879     1.0000     0.0121     0.9832     0.9832    -0.0000
 38 H      0.9859     1.0000     0.0141     0.9811     0.9811    -0.0000
 39 C      5.9888     6.0000     0.0112     4.0115     4.0115    -0.0000
 40 H      0.9789     1.0000     0.0211     0.9894     0.9894     0.0000
 41 H      0.9834     1.0000     0.0166     0.9869     0.9869     0.0000
 42 C      6.0944     6.0000    -0.0944     4.1347     4.1347     0.0000
 43 H      0.9874     1.0000     0.0126     0.9836     0.9836    -0.0000
 44 H      0.9860     1.0000     0.0140     0.9811     0.9811    -0.0000
 45 C      6.0324     6.0000    -0.0324     4.0012     4.0012    -0.0000
 46 H      0.9764     1.0000     0.0236     0.9795     0.9795     0.0000
 47 H      0.9793     1.0000     0.0207     0.9796     0.9796    -0.0000
 48 H      0.9741     1.0000     0.0259     0.9876     0.9876    -0.0000
 49 H      0.9708     1.0000     0.0292     0.9828     0.9828     0.0000
 50 H      0.9737     1.0000     0.0263     0.9881     0.9881    -0.0000
 51 C      5.9685     6.0000     0.0315     4.0150     4.0150     0.0000
 52 H      0.9893     1.0000     0.0107     0.9812     0.9812    -0.0000
 53 C      6.0678     6.0000    -0.0678     4.0776     4.0776    -0.0000
 54 H      0.9948     1.0000     0.0052     0.9812     0.9812    -0.0000
 55 H      0.9685     1.0000     0.0315     1.0098     1.0098    -0.0000
 56 C      5.9741     6.0000     0.0259     4.0315     4.0315     0.0000
 57 H      0.9812     1.0000     0.0188     1.0196     1.0196     0.0000
 58 H      0.9790     1.0000     0.0210     0.9809     0.9809    -0.0000
 59 C      6.0651     6.0000    -0.0651     4.0892     4.0892    -0.0000
 60 H      0.9884     1.0000     0.0116     0.9807     0.9807    -0.0000
 61 H      0.9935     1.0000     0.0065     0.9887     0.9887    -0.0000
 62 C      6.0032     6.0000    -0.0032     4.0474     4.0474     0.0000
 63 H      0.9822     1.0000     0.0178     0.9966     0.9966    -0.0000
 64 H      0.9824     1.0000     0.0176     0.9810     0.9810     0.0000
 65 C      6.0348     6.0000    -0.0348     4.0722     4.0722    -0.0000
 66 H      0.9896     1.0000     0.0104     0.9827     0.9827     0.0000
 67 H      0.9911     1.0000     0.0089     0.9861     0.9861    -0.0000
 68 C      6.0218     6.0000    -0.0218     4.0654     4.0654    -0.0000
 69 H      0.9835     1.0000     0.0165     0.9867     0.9867     0.0000
 70 H      0.9876     1.0000     0.0124     0.9839     0.9839     0.0000
 71 C      6.0369     6.0000    -0.0369     4.0674     4.0674    -0.0000
 72 H      0.9909     1.0000     0.0091     0.9855     0.9855    -0.0000
 73 H      0.9898     1.0000     0.0102     0.9836     0.9836    -0.0000
 74 C      6.0557     6.0000    -0.0557     4.1112     4.1112    -0.0000
 75 H      0.9865     1.0000     0.0135     0.9828     0.9828    -0.0000
 76 H      0.9892     1.0000     0.0108     0.9837     0.9837     0.0000
 77 C      6.0398     6.0000    -0.0398     4.0113     4.0113    -0.0000
 78 H      0.9822     1.0000     0.0178     0.9783     0.9783     0.0000
 79 H      0.9824     1.0000     0.0176     0.9771     0.9771     0.0000
 80 H      0.9749     1.0000     0.0251     0.9880     0.9880    -0.0000
 81 H      0.9727     1.0000     0.0273     0.9818     0.9818     0.0000
 82 H      0.9745     1.0000     0.0255     0.9882     0.9882    -0.0000
 83 C      5.8925     6.0000     0.1075     3.9571     3.9571    -0.0000
 84 C      6.1121     6.0000    -0.1121     4.0598     4.0598    -0.0000
 85 H      0.9489     1.0000     0.0511     0.9909     0.9909    -0.0000
 86 H      0.9553     1.0000     0.0447     1.0002     1.0002    -0.0000
 87 C      6.0271     6.0000    -0.0271     4.0133     4.0133    -0.0000
 88 C      6.0009     6.0000    -0.0009     4.0574     4.0574    -0.0000
 89 H      0.9742     1.0000     0.0258     0.9899     0.9899     0.0000
 90 H      0.9796     1.0000     0.0204     0.9905     0.9905     0.0000
 91 C      6.0905     6.0000    -0.0905     4.0822     4.0822     0.0000
 92 H      0.9777     1.0000     0.0223     0.9821     0.9821     0.0000
 93 H      0.9822     1.0000     0.0178     0.9800     0.9800    -0.0000
 94 C      6.0009     6.0000    -0.0009     4.0110     4.0110     0.0000
 95 H      0.9694     1.0000     0.0306     0.9798     0.9798     0.0000
 96 H      0.9762     1.0000     0.0238     1.0010     1.0010     0.0000
 97 C      6.0778     6.0000    -0.0778     4.0718     4.0718    -0.0000
 98 H      0.9801     1.0000     0.0199     0.9800     0.9800     0.0000
 99 H      0.9827     1.0000     0.0173     0.9818     0.9818    -0.0000
100 C      6.0292     6.0000    -0.0292     4.0289     4.0289     0.0000
101 H      0.9792     1.0000     0.0208     0.9860     0.9860    -0.0000
102 H      0.9750     1.0000     0.0250     0.9861     0.9861     0.0000
103 C      6.0837     6.0000    -0.0837     4.0980     4.0980     0.0000
104 H      0.9803     1.0000     0.0197     0.9806     0.9806    -0.0000
105 H      0.9808     1.0000     0.0192     0.9815     0.9815    -0.0000
106 C      6.0560     6.0000    -0.0560     4.0043     4.0043    -0.0000
107 H      0.9740     1.0000     0.0260     0.9782     0.9782    -0.0000
108 H      0.9721     1.0000     0.0279     0.9778     0.9778    -0.0000
109 H      0.9695     1.0000     0.0305     0.9872     0.9872     0.0000
110 H      0.9674     1.0000     0.0326     0.9825     0.9825     0.0000
111 H      0.9694     1.0000     0.0306     0.9871     0.9871    -0.0000
112 C      5.9571     6.0000     0.0429     3.9808     3.9808    -0.0000
113 H      0.9648     1.0000     0.0352     1.0026     1.0026    -0.0000
114 C      6.1028     6.0000    -0.1028     4.0779     4.0779    -0.0000
115 H      0.9824     1.0000     0.0176     0.9821     0.9821     0.0000
116 H      0.9840     1.0000     0.0160     0.9931     0.9931     0.0000
117 C      5.9790     6.0000     0.0210     3.9972     3.9972    -0.0000
118 H      0.9633     1.0000     0.0367     0.9815     0.9815    -0.0000
119 H      0.9735     1.0000     0.0265     1.0049     1.0049     0.0000
120 C      6.0991     6.0000    -0.0991     4.0802     4.0802    -0.0000
121 H      0.9824     1.0000     0.0176     0.9802     0.9802     0.0000
122 H      0.9802     1.0000     0.0198     0.9800     0.9800     0.0000
123 C      5.9983     6.0000     0.0017     4.0133     4.0133    -0.0000
124 H      0.9739     1.0000     0.0261     0.9829     0.9829    -0.0000
125 H      0.9753     1.0000     0.0247     0.9874     0.9874     0.0000
126 C      6.0594     6.0000    -0.0594     4.0636     4.0636    -0.0000
127 H      0.9837     1.0000     0.0163     0.9826     0.9826     0.0000
128 H      0.9827     1.0000     0.0173     0.9814     0.9814    -0.0000
129 C      6.0211     6.0000    -0.0211     4.0376     4.0376    -0.0000
130 H      0.9800     1.0000     0.0200     0.9832     0.9832     0.0000
131 H      0.9806     1.0000     0.0194     0.9844     0.9844     0.0000
132 C      6.0537     6.0000    -0.0537     4.0564     4.0564     0.0000
133 H      0.9846     1.0000     0.0154     0.9830     0.9830    -0.0000
134 H      0.9837     1.0000     0.0163     0.9820     0.9820    -0.0000
135 C      6.0617     6.0000    -0.0617     4.0903     4.0903     0.0000
136 H      0.9816     1.0000     0.0184     0.9816     0.9816    -0.0000
137 H      0.9823     1.0000     0.0177     0.9821     0.9821     0.0000
138 C      6.0552     6.0000    -0.0552     4.0094     4.0094     0.0000
139 H      0.9780     1.0000     0.0220     0.9770     0.9770    -0.0000
140 H      0.9776     1.0000     0.0224     0.9766     0.9766     0.0000
141 H      0.9708     1.0000     0.0292     0.9875     0.9875    -0.0000
142 H      0.9684     1.0000     0.0316     0.9820     0.9820     0.0000
143 H      0.9706     1.0000     0.0294     0.9874     0.9874    -0.0000
144 H      0.9736     1.0000     0.0264     0.9910     0.9910     0.0000
145 H      0.9687     1.0000     0.0313     0.9976     0.9976    -0.0000

  Mayer bond orders larger than 0.100000
B(  0-C ,  1-C ) :   0.9407 B(  0-C ,  2-N ) :   1.0756 B(  0-C ,  6-O ) :   2.0635 
B(  1-C ,  5-C ) :   1.2274 B(  1-C ,  8-C ) :   1.4409 B(  2-N ,  3-C ) :   0.9987 
B(  2-N , 22-C ) :   0.9204 B(  3-C ,  4-C ) :   0.8941 B(  3-C ,  7-O ) :   2.1271 
B(  4-C ,  5-C ) :   1.2638 B(  4-C ,  9-C ) :   1.4207 B(  5-C , 10-C ) :   1.2794 
B(  8-C , 11-C ) :   1.2460 B(  8-C , 12-H ) :   0.9605 B(  9-C , 13-C ) :   1.2329 
B(  9-C ,144-H ) :   0.9842 B( 10-C , 14-C ) :   1.2234 B( 10-C , 15-C ) :   1.2515 
B( 11-C , 14-C ) :   1.3891 B( 11-C ,145-H ) :   0.9823 B( 13-C , 15-C ) :   1.4686 
B( 13-C , 16-H ) :   0.9660 B( 14-C , 17-C ) :   0.9275 B( 15-C , 18-C ) :   0.9053 
B( 17-C , 19-N ) :   1.0563 B( 17-C , 20-O ) :   2.0920 B( 18-C , 19-N ) :   1.0130 
B( 18-C , 21-O ) :   2.1490 B( 19-N , 83-C ) :   0.9225 B( 22-C , 23-C ) :   1.0248 
B( 22-C , 24-H ) :   0.9273 B( 22-C , 25-H ) :   0.9142 B( 23-C , 26-C ) :   1.0195 
B( 23-C , 51-C ) :   1.0923 B( 23-C , 52-H ) :   0.9187 B( 26-C , 27-C ) :   1.0720 
B( 26-C , 28-H ) :   0.9280 B( 26-C , 29-H ) :   0.9299 B( 27-C , 30-C ) :   1.0830 
B( 27-C , 31-H ) :   0.9289 B( 27-C , 32-H ) :   0.9323 B( 30-C , 33-C ) :   1.0691 
B( 30-C , 34-H ) :   0.9189 B( 30-C , 35-H ) :   0.9291 B( 33-C , 36-C ) :   1.0701 
B( 33-C , 37-H ) :   0.9302 B( 33-C , 38-H ) :   0.9313 B( 36-C , 39-C ) :   1.0700 
B( 36-C , 40-H ) :   0.9364 B( 36-C , 41-H ) :   0.9383 B( 39-C , 42-C ) :   1.0771 
B( 39-C , 43-H ) :   0.9363 B( 39-C , 44-H ) :   0.9340 B( 42-C , 45-C ) :   1.1058 
B( 42-C , 46-H ) :   0.9443 B( 42-C , 47-H ) :   0.9435 B( 45-C , 48-H ) :   0.9657 
B( 45-C , 49-H ) :   0.9621 B( 45-C , 50-H ) :   0.9660 B( 51-C , 53-C ) :   1.0769 
B( 51-C , 54-H ) :   0.9076 B( 51-C , 55-H ) :   0.9128 B( 53-C , 56-C ) :   1.0866 
B( 53-C , 57-H ) :   0.9069 B( 53-C , 58-H ) :   0.9232 B( 56-C , 59-C ) :   1.0808 
B( 56-C , 60-H ) :   0.9289 B( 56-C , 61-H ) :   0.9276 B( 59-C , 62-C ) :   1.0785 
B( 59-C , 63-H ) :   0.9326 B( 59-C , 64-H ) :   0.9338 B( 62-C , 65-C ) :   1.0845 
B( 62-C , 66-H ) :   0.9306 B( 62-C , 67-H ) :   0.9325 B( 65-C , 68-C ) :   1.0810 
B( 65-C , 69-H ) :   0.9342 B( 65-C , 70-H ) :   0.9348 B( 68-C , 71-C ) :   1.0832 
B( 68-C , 72-H ) :   0.9341 B( 68-C , 73-H ) :   0.9336 B( 71-C , 74-C ) :   1.0826 
B( 71-C , 75-H ) :   0.9374 B( 71-C , 76-H ) :   0.9379 B( 74-C , 77-C ) :   1.1080 
B( 74-C , 78-H ) :   0.9410 B( 74-C , 79-H ) :   0.9410 B( 77-C , 80-H ) :   0.9666 
B( 77-C , 81-H ) :   0.9618 B( 77-C , 82-H ) :   0.9664 B( 83-C , 84-C ) :   1.0151 
B( 83-C , 85-H ) :   0.9374 B( 83-C , 86-H ) :   0.9341 B( 84-C , 87-C ) :   1.0018 
B( 84-C ,112-C ) :   1.0418 B( 84-C ,113-H ) :   0.9144 B( 87-C , 88-C ) :   1.0767 
B( 87-C , 89-H ) :   0.9304 B( 87-C , 90-H ) :   0.9302 B( 88-C , 91-C ) :   1.0743 
B( 88-C , 92-H ) :   0.9373 B( 88-C , 93-H ) :   0.9327 B( 91-C , 94-C ) :   1.0592 
B( 91-C , 95-H ) :   0.9288 B( 91-C , 96-H ) :   0.9330 B( 94-C , 97-C ) :   1.0648 
B( 94-C , 98-H ) :   0.9400 B( 94-C , 99-H ) :   0.9384 B( 97-C ,100-C ) :   1.0627 
B( 97-C ,101-H ) :   0.9427 B( 97-C ,102-H ) :   0.9422 B(100-C ,103-C ) :   1.0687 
B(100-C ,104-H ) :   0.9428 B(100-C ,105-H ) :   0.9440 B(103-C ,106-C ) :   1.0922 
B(103-C ,107-H ) :   0.9484 B(103-C ,108-H ) :   0.9488 B(106-C ,109-H ) :   0.9703 
B(106-C ,110-H ) :   0.9660 B(106-C ,111-H ) :   0.9701 B(112-C ,114-C ) :   1.0599 
B(112-C ,115-H ) :   0.9315 B(112-C ,116-H ) :   0.9295 B(114-C ,117-C ) :   1.0619 
B(114-C ,118-H ) :   0.9328 B(114-C ,119-H ) :   0.9250 B(117-C ,120-C ) :   1.0594 
B(117-C ,121-H ) :   0.9382 B(117-C ,122-H ) :   0.9391 B(120-C ,123-C ) :   1.0615 
B(120-C ,124-H ) :   0.9432 B(120-C ,125-H ) :   0.9420 B(123-C ,126-C ) :   1.0660 
B(123-C ,127-H ) :   0.9391 B(123-C ,128-H ) :   0.9397 B(126-C ,129-C ) :   1.0676 
B(126-C ,130-H ) :   0.9432 B(126-C ,131-H ) :   0.9430 B(129-C ,132-C ) :   1.0687 
B(129-C ,133-H ) :   0.9405 B(129-C ,134-H ) :   0.9409 B(132-C ,135-C ) :   1.0714 
B(132-C ,136-H ) :   0.9444 B(132-C ,137-H ) :   0.9446 B(135-C ,138-C ) :   1.0957 
B(135-C ,139-H ) :   0.9464 B(135-C ,140-H ) :   0.9465 B(138-C ,141-H ) :   0.9701 
B(138-C ,142-H ) :   0.9654 B(138-C ,143-H ) :   0.9701 

-------
TIMINGS
-------

Total SCF time: 0 days 0 hours 5 min 10 sec 

Total time                  ....     310.987 sec
Sum of individual times     ....     306.124 sec  ( 98.4%)

Fock matrix formation       ....     166.746 sec  ( 53.6%)
  Split-RI-J                ....     105.886 sec  ( 63.5% of F)
  XC integration            ....      58.433 sec  ( 35.0% of F)
    Basis function eval.    ....      20.919 sec  ( 35.8% of XC)
    Density eval.           ....      11.885 sec  ( 20.3% of XC)
    XC-Functional eval.     ....       3.055 sec  (  5.2% of XC)
    XC-Potential eval.      ....      12.047 sec  ( 20.6% of XC)
Diagonalization             ....       0.833 sec  (  0.3%)
Density matrix formation    ....       0.766 sec  (  0.2%)
Population analysis         ....       0.958 sec  (  0.3%)
Initial guess               ....       0.962 sec  (  0.3%)
Orbital Transformation      ....       0.000 sec  (  0.0%)
Orbital Orthonormalization  ....       0.815 sec  (  0.3%)
DIIS solution               ....       0.261 sec  (  0.1%)
SOSCF solution              ....       2.889 sec  (  0.9%)
Grid generation             ....     132.710 sec  ( 42.7%)


-------------------------------------------------------------------------------
                          DFT DISPERSION CORRECTION                            
                                                                               
                              DFTD3 V3.1  Rev 1                                
                          USING Becke-Johnson damping                          
-------------------------------------------------------------------------------
The BP86 functional is recognized
Active option DFTDOPT                   ...         4   

molecular C6(AA) [au] = 171005.687535 


            DFT-D V3
 parameters
 s6 scaling factor         :     1.0000 
 a1 scaling factor         :     0.3946 
 s8 scaling factor         :     3.2822 
 a2 scaling factor         :     4.8516 
 ad hoc parameters k1-k3   :    16.0000     1.3333    -4.0000 

 Edisp/kcal,au: -163.004657104762  -0.259764428195 
 E6   /kcal   : -65.861974682 
 E8   /kcal   : -97.142682422 
 % E8         :  59.595034981 

-------------------------   ----------------
Dispersion correction           -0.259764428
-------------------------   ----------------


-------------------------   --------------------
FINAL SINGLE POINT ENERGY     -2518.372661926830
-------------------------   --------------------

                                *** OPTIMIZATION RUN DONE ***

                            ***************************************
                            *     ORCA property calculations      *
                            ***************************************

                                    ---------------------
                                    Active property flags
                                    ---------------------
   (+) Dipole Moment


------------------------------------------------------------------------------
                       ORCA ELECTRIC PROPERTIES CALCULATION
------------------------------------------------------------------------------

Dipole Moment Calculation                       ... on
Quadrupole Moment Calculation                   ... off
Polarizability Calculation                      ... off
GBWName                                         ... PNDI_T_Input_Dimethyl_Naphthalene_Dicarboximide_With_Sidechain_1_Optimize_Monomer.gbw
Electron density file                           ... PNDI_T_Input_Dimethyl_Naphthalene_Dicarboximide_With_Sidechain_1_Optimize_Monomer.scfp
The origin for moment calculation is the CENTER OF MASS  = ( 6.210871, -0.437004 -0.006372)

-------------
DIPOLE MOMENT
-------------
                                X             Y             Z
Electronic contribution:   -157.18821       9.05464      12.45497
Nuclear contribution   :    158.15804      -9.06526     -12.48237
                        -----------------------------------------
Total Dipole Moment    :      0.96983      -0.01062      -0.02741
                        -----------------------------------------
Magnitude (a.u.)       :      0.97028
Magnitude (Debye)      :      2.46625



--------------------
Rotational spectrum 
--------------------
 
Rotational constants in cm-1:     0.001021     0.000387     0.000284 
Rotational constants in MHz :    30.609356    11.603937     8.519934 

 Dipole components along the rotational axes: 
x,y,z [a.u.] :     0.032760     0.966916     0.073746 
x,y,z [Debye]:     0.083269     2.457705     0.187447 

 

Timings for individual modules:

Sum of individual times         ...     5610.843 sec (=  93.514 min)
GTO integral calculation        ...       25.120 sec (=   0.419 min)   0.4 %
SCF iterations                  ...     3179.658 sec (=  52.994 min)  56.7 %
SCF Gradient evaluation         ...     2381.702 sec (=  39.695 min)  42.4 %
Geometry relaxation             ...       24.363 sec (=   0.406 min)   0.4 %
                             ****ORCA TERMINATED NORMALLY****
TOTAL RUN TIME: 0 days 1 hours 33 minutes 58 seconds 548 msec
