
                                 *****************
                                 * O   R   C   A *
                                 *****************

           --- An Ab Initio, DFT and Semiempirical electronic structure package ---

                  #######################################################
                  #                        -***-                        #
                  #          Department of theory and spectroscopy      #
                  #               Directorship: Frank Neese             #
                  #        Max Planck Institute fuer Kohlenforschung    #
                  #                Kaiser Wilhelm Platz 1               #
                  #                 D-45470 Muelheim/Ruhr               #
                  #                      Germany                        #
                  #                                                     #
                  #                  All rights reserved                #
                  #                        -***-                        #
                  #######################################################


                         Program Version 4.2.0 -  RELEASE  -


 With contributions from (in alphabetic order):
   Daniel Aravena         : Magnetic Suceptibility
   Michael Atanasov       : Ab Initio Ligand Field Theory (pilot matlab implementation)
   Alexander A. Auer      : GIAO ZORA, VPT2
   Ute Becker             : Parallelization
   Giovanni Bistoni       : ED, misc. LED, open-shell LED, HFLED
   Martin Brehm           : Molecular dynamics
   Dmytro Bykov           : SCF Hessian
   Vijay G. Chilkuri      : MRCI spin determinant printing, contributions to CSF-ICE
   Dipayan Datta          : RHF DLPNO-CCSD density
   Achintya Kumar Dutta   : EOM-CC, STEOM-CC
   Dmitry Ganyushin       : Spin-Orbit,Spin-Spin,Magnetic field MRCI
   Miquel Garcia          : C-PCM Hessian, Gaussian charge scheme
   Yang Guo               : DLPNO-NEVPT2, CIM, IAO-localization
   Andreas Hansen         : Spin unrestricted coupled pair/coupled cluster methods
   Benjamin Helmich-Paris : CASSCF linear response (MC-RPA)
   Lee Huntington         : MR-EOM, pCC
   Robert Izsak           : Overlap fitted RIJCOSX, COSX-SCS-MP3, EOM
   Christian Kollmar      : KDIIS, OOCD, Brueckner-CCSD(T), CCSD density
   Simone Kossmann        : Meta GGA functionals, TD-DFT gradient, OOMP2, MP2 Hessian
   Martin Krupicka        : AUTO-CI
   Lucas Lang             : DCDCAS
   Dagmar Lenk            : GEPOL surface, SMD
   Dimitrios Liakos       : Extrapolation schemes; Compound Job, initial MDCI parallelization
   Dimitrios Manganas     : Further ROCIS development; embedding schemes
   Dimitrios Pantazis     : SARC Basis sets
   Taras Petrenko         : DFT Hessian,TD-DFT gradient, ASA, ECA, R-Raman, ABS, FL, XAS/XES, NRVS
   Peter Pinski           : DLPNO-MP2, DLPNO-MP2 Gradient
   Christoph Reimann      : Effective Core Potentials
   Marius Retegan         : Local ZFS, SOC
   Christoph Riplinger    : Optimizer, TS searches, QM/MM, DLPNO-CCSD(T), (RO)-DLPNO pert. Triples
   Tobias Risthaus        : Range-separated hybrids, TD-DFT gradient, RPA, STAB
   Michael Roemelt        : Original ROCIS implementation
   Masaaki Saitow         : Open-shell DLPNO-CCSD energy and density
   Barbara Sandhoefer     : DKH picture change effects
   Avijit Sen             : IP-ROCIS
   Kantharuban Sivalingam : CASSCF convergence, NEVPT2, FIC-MRCI
   Bernardo de Souza      : ESD, SOC TD-DFT
   Georgi Stoychev        : AutoAux, RI-MP2 NMR
   Willem Van den Heuvel  : Paramagnetic NMR
   Boris Wezisla          : Elementary symmetry handling
   Frank Wennmohs         : Technical directorship


 We gratefully acknowledge several colleagues who have allowed us to
 interface, adapt or use parts of their codes:
   Stefan Grimme, W. Hujo, H. Kruse,             : VdW corrections, initial TS optimization,
                  C. Bannwarth                     DFT functionals, gCP, sTDA/sTD-DF
   Ed Valeev, F. Pavosevic, A. Kumar             : LibInt (2-el integral package), F12 methods
   Garnet Chan, S. Sharma, J. Yang, R. Olivares  : DMRG
   Ulf Ekstrom                                   : XCFun DFT Library
   Mihaly Kallay                                 : mrcc  (arbitrary order and MRCC methods)
   Andreas Klamt, Michael Diedenhofen            : otool_cosmo (COSMO solvation model)
   Jiri Pittner, Ondrej Demel                    : Mk-CCSD
   Frank Weinhold                                : gennbo (NPA and NBO analysis)
   Christopher J. Cramer and Donald G. Truhlar   : smd solvation model
   Lars Goerigk                                  : TD-DFT with DH, B97 family of functionals
   V. Asgeirsson, H. Jonsson                     : NEB implementation
   FAccTs GmbH                                   : IRC, NEB, NEB-TS, Multilevel, MM, QM/MM, CI optimization
   S Lehtola, MJT Oliveira, MAL Marques          : LibXC Library


 Your calculation uses the libint2 library for the computation of 2-el integrals
 For citations please refer to: http://libint.valeyev.net

 Your ORCA version has been built with support for libXC version: 4.2.3
 For citations please refer to: https://tddft.org/programs/libxc/

 This ORCA versions uses:
   CBLAS   interface :  Fast vector & matrix operations
   LAPACKE interface :  Fast linear algebra routines
   SCALAPACK package :  Parallel linear algebra routines


Your calculation utilizes the atom-pairwise dispersion correction
with the Becke-Johnson damping scheme (D3BJ)
Cite in your paper:
S.Grimme, S.Ehrlich, L.Goerigk, J Comput Chem, (2011), 32, 1456–1465 
S.Grimme, J.Antony, S.Ehrlich and H.Krieg, J.Chem.Phys., 132, (2010), 154104 
   

----- Orbital basis set information -----
Your calculation utilizes the basis: def2-SVP
   F. Weigend and R. Ahlrichs, Phys. Chem. Chem. Phys. 7, 3297 (2005).

----- AuxJ basis set information -----
Your calculation utilizes the auxiliary basis: def2/J
   F. Weigend, Phys. Chem. Chem. Phys. 8, 1057 (2006).

================================================================================
                                        WARNINGS
                       Please study these warnings very carefully!
================================================================================


WARNING: Geometry Optimization
  ===> : Switching off AutoStart
         For restart on a previous wavefunction, please use MOREAD

INFO   : the flag for use of LIBINT has been found!

================================================================================
                                       INPUT FILE
================================================================================
NAME = PTB7_Input_Methylcarbonyl_3_Fluoro_Thienothiophene_2_Optimize_Monomer_Hydrogenated.inp
|  1> ! RI BP86 def2-SVP def2/J D3BJ TIGHTSCF  Opt Grid3 FinalGrid5
|  2> %maxcore 3000
|  3> %geom
|  4> optimizehydrogens true
|  5> end
|  6> 
|  7> 
|  8> *xyz 0 1
|  9> C	-0.618349	-1.430593	0.072094
| 10> S	0.634631	-2.663168	0.117680
| 11> C	1.959986	-1.507590	0.063336
| 12> C	-0.009679	-0.171756	0.015288
| 13> C	1.431686	-0.193652	0.011649
| 14> S	-0.680037	1.448346	-0.052766
| 15> C	0.953726	2.126773	-0.083671
| 16> C	1.937598	1.150558	-0.044695
| 17> F	3.242658	1.442399	-0.058436
| 18> C	1.037033	3.594429	-0.147925
| 19> O	0.053954	4.321366	-0.181914
| 20> O	2.316378	4.041347	-0.165429
| 21> C	2.458881	5.467817	-0.231563
| 22> H	3.545743	5.662542	-0.237977
| 23> H	1.982543	5.953203	0.644126
| 24> H	1.986790	5.869488	-1.150883
| 25> H	-1.654989	0.067029	0.022024
| 26> H	-0.797818	-3.242585	0.139001
| 27> H	-15.526691	-57.088578	12.950999
| 28> H	20.641799	53.686034	-12.812053
| 29> **                         ****END OF INPUT****
================================================================================

                       *****************************
                       * Geometry Optimization Run *
                       *****************************

Geometry optimization settings:
Update method            Update   .... BFGS
Choice of coordinates    CoordSys .... Z-matrix Internals
Initial Hessian          InHess   .... Almoef's Model

Convergence Tolerances:
Energy Change            TolE     ....  5.0000e-06 Eh
Max. Gradient            TolMAXG  ....  3.0000e-04 Eh/bohr
RMS Gradient             TolRMSG  ....  1.0000e-04 Eh/bohr
Max. Displacement        TolMAXD  ....  4.0000e-03 bohr
RMS Displacement         TolRMSD  ....  2.0000e-03 bohr
Strict Convergence                ....  False
------------------------------------------------------------------------------
                        ORCA OPTIMIZATION COORDINATE SETUP
------------------------------------------------------------------------------

The optimization will be done in new redundant internal coordinates
Making redundant internal coordinates   ...  (new redundants) done
Evaluating the initial hessian          ...  (Almloef) done
Evaluating the coordinates              ...  done
Calculating the B-matrix                .... done
Calculating the G-matrix                .... done
Diagonalizing the G-matrix              .... done
Imposing constraints:
 Iter   0:  RMS(Cart)=    0.0000000000 RMS(Int)=    0.0000000000
CONVERGED
Small eigenvalue found = 6.932e-05
Small eigenvalue found = 2.500e-04
Small eigenvalue found = 8.220e-03
Small eigenvalue found = 1.820e-02
The first mode is                       ....   63
The number of degrees of freedom        ....   54
Storing new coordinates                 .... done

    -----------------------------------------------------------------
                    Redundant Internal Coordinates


    -----------------------------------------------------------------
         Definition                    Initial Value    Approx d2E/dq
    -----------------------------------------------------------------
      1. B(S   1,C   0)                  1.7582         0.435574 C 
      2. B(C   2,S   1)                  1.7592         0.433939 C 
      3. B(C   3,C   0)                  1.3994         0.603545 C 
      4. B(C   4,C   2)                  1.4171         0.565566 C 
      5. B(C   4,C   3)                  1.4415         0.517031 C 
      6. B(S   5,C   3)                  1.7546         0.441322 C 
      7. B(C   6,S   5)                  1.7693         0.418184 C 
      8. B(C   7,C   4)                  1.4374         0.525011 C 
      9. B(C   7,C   6)                  1.3865         0.632767 C 
     10. B(F   8,C   7)                  1.3374         0.630877 C 
     11. B(C   9,C   6)                  1.4714         0.463271 C 
     12. B(O  10,C   9)                  1.2231         1.033029 C 
     13. B(O  11,C   9)                  1.3553         0.635740 C 
     14. B(C  12,O  11)                  1.4351         0.474165 C 
     15. B(H  13,C  12)                  1.1042         0.341814   
     16. B(H  14,C  12)                  1.1088         0.336130   
     17. B(H  15,C  12)                  1.1088         0.336113   
     18. B(H  16,S   5)                  1.6924         0.106201   
     19. B(H  17,S   1)                  1.5453         0.182271   
     20. B(H  18,S   1)                 58.2066         0.000000   
     21. B(H  18,H  17)                 57.2755         0.000000   
     22. B(H  19,C  12)                 53.0461         0.000000   
     23. B(H  19,H  13)                 52.5037         0.000000   
     24. B(H  19,H  14)                 52.9874         0.000000   
     25. B(H  19,H  15)                 52.6347         0.000000   
     26. A(S   1,C   0,C   3)          108.7662         0.427860 C 
     27. A(C   2,S   1,H  17)          160.9177         0.334067   
     28. A(C   0,S   1,H  18)          117.6034         0.089000   
     29. A(C   2,S   1,H  18)          146.1177         0.089000   
     30. A(H  17,S   1,H  18)           52.3382         0.089000   
     31. A(C   0,S   1,H  17)           66.5857         0.334276   
     32. A(C   0,S   1,C   2)           94.3356         0.425555 C 
     33. A(S   1,C   2,C   4)          109.2270         0.422627 C 
     34. A(C   0,C   3,S   5)          131.7572         0.428867 C 
     35. A(C   0,C   3,C   4)          114.9187         0.418159 C 
     36. A(C   4,C   3,S   5)          113.3241         0.417171 C 
     37. A(C   2,C   4,C   7)          137.5034         0.414479 C 
     38. A(C   2,C   4,C   3)          112.7523         0.413352 C 
     39. A(C   3,C   4,C   7)          109.7443         0.407936 C 
     40. A(C   6,S   5,H  16)          147.7461         0.304056   
     41. A(C   3,S   5,C   6)           90.1111         0.423742 C 
     42. A(C   3,S   5,H  16)           57.6399         0.306694   
     43. A(C   7,C   6,C   9)          131.5530         0.413535 C 
     44. A(S   5,C   6,C   7)          112.6294         0.428362 C 
     45. A(S   5,C   6,C   9)          115.8175         0.405239 C 
     46. A(C   4,C   7,C   6)          114.1910         0.422856 C 
     47. A(C   4,C   7,F   8)          123.2265         0.418037 C 
     48. A(C   6,C   7,F   8)          122.5825         0.432238 C 
     49. A(C   6,C   9,O  10)          123.2651         0.448628 C 
     50. A(C   6,C   9,O  11)          112.5151         0.411206 C 
     51. A(O  10,C   9,O  11)          124.2197         0.472154 C 
     52. A(C   9,O  11,C  12)          114.9679         0.410240 C 
     53. A(O  11,C  12,H  15)          110.8561         0.331510   
     54. A(H  13,C  12,H  15)          110.5116         0.285384   
     55. A(H  14,C  12,H  15)          108.2604         0.284641   
     56. A(O  11,C  12,H  19)          161.5303         0.089000   
     57. A(H  13,C  12,H  19)           60.0610         0.089000   
     58. A(H  14,C  12,H  19)           86.3672         0.089000   
     59. A(H  15,C  12,H  19)           67.6669         0.089000   
     60. A(O  11,C  12,H  13)          105.8607         0.332435   
     61. A(O  11,C  12,H  14)          110.8602         0.331513   
     62. A(H  13,C  12,H  14)          110.5033         0.285387   
     63. A(C  12,H  13,H  19)          118.8947         0.089000   
     64. A(C  12,H  14,H  19)           92.4362         0.089000   
     65. A(C  12,H  15,H  19)          111.2166         0.089000   
     66. A(S   1,H  17,H  18)          126.4379         0.089000   
     67. D(C   2,S   1,C   0,C   3)      0.0641         0.004581 C 
     68. D(H  17,S   1,C   0,C   3)   -179.5528         0.004581   
     69. D(H  18,S   1,C   0,C   3)    168.3421         0.004581   
     70. D(C   4,C   2,S   1,C   0)      0.0281         0.004557 C 
     71. D(C   4,C   2,S   1,H  17)      1.1037         0.004557   
     72. D(C   4,C   2,S   1,H  18)   -161.1309         0.004557   
     73. D(C   4,C   3,C   0,S   1)     -0.1424         0.022796 C 
     74. D(S   5,C   3,C   0,S   1)    179.8760         0.022796 C 
     75. D(C   7,C   4,C   3,C   0)   -179.8369         0.018226 C 
     76. D(C   3,C   4,C   2,S   1)     -0.1125         0.019911 C 
     77. D(C   7,C   4,C   3,S   5)      0.1481         0.018226 C 
     78. D(C   2,C   4,C   3,C   0)      0.1707         0.018226 C 
     79. D(C   7,C   4,C   2,S   1)    179.8981         0.019911 C 
     80. D(C   2,C   4,C   3,S   5)   -179.8443         0.018226 C 
     81. D(C   6,S   5,C   3,C   0)    179.8625         0.004666 C 
     82. D(C   6,S   5,C   3,C   4)     -0.1193         0.004666 C 
     83. D(H  16,S   5,C   3,C   0)      0.4561         0.004666   
     84. D(H  16,S   5,C   3,C   4)   -179.5257         0.004666   
     85. D(C   7,C   6,S   5,C   3)      0.0582         0.004330 C 
     86. D(C   7,C   6,S   5,H  16)      0.9977         0.004330   
     87. D(C   9,C   6,S   5,C   3)    179.9250         0.004330 C 
     88. D(C   9,C   6,S   5,H  16)   -179.1355         0.004330   
     89. D(C   6,C   7,C   4,C   2)    179.8853         0.018806 C 
     90. D(C   6,C   7,C   4,C   3)     -0.1043         0.018806 C 
     91. D(F   8,C   7,C   4,C   2)     -0.1254         0.018806 C 
     92. D(F   8,C   7,C   4,C   3)    179.8849         0.018806 C 
     93. D(C   4,C   7,C   6,S   5)      0.0170         0.027777 C 
     94. D(C   4,C   7,C   6,C   9)   -179.8227         0.027777 C 
     95. D(F   8,C   7,C   6,S   5)   -179.9723         0.027777 C 
     96. D(F   8,C   7,C   6,C   9)      0.1880         0.027777 C 
     97. D(O  10,C   9,C   6,S   5)     -0.1644         0.014618 C 
     98. D(O  10,C   9,C   6,C   7)    179.6713         0.014618 C 
     99. D(O  11,C   9,C   6,S   5)    179.8625         0.014618 C 
    100. D(O  11,C   9,C   6,C   7)     -0.3019         0.014618 C 
    101. D(C  12,O  11,C   9,C   6)    179.8335         0.029764 C 
    102. D(C  12,O  11,C   9,O  10)     -0.1394         0.029764 C 
    103. D(H  13,C  12,O  11,C   9)   -179.9910         0.019218   
    104. D(H  14,C  12,O  11,C   9)     60.1456         0.019218   
    105. D(H  15,C  12,O  11,C   9)    -60.1199         0.019218   
    106. D(H  19,C  12,O  11,C   9)   -141.9038         0.019218   
    107. D(H  19,H  13,C  12,O  11)    166.9667         0.116735   
    108. D(H  19,H  13,C  12,H  14)    -72.9363         0.116735   
    109. D(H  19,H  13,C  12,H  15)     46.8702         0.116735   
    110. D(H  19,H  14,C  12,O  11)    173.1558         0.112097   
    111. D(H  19,H  14,C  12,H  13)     56.1069         0.112097   
    112. D(H  19,H  14,C  12,H  15)    -65.0457         0.112097   
    113. D(H  19,H  15,C  12,O  11)   -160.1854         0.112083   
    114. D(H  19,H  15,C  12,H  13)    -43.1338         0.112083   
    115. D(H  19,H  15,C  12,H  14)     78.0137         0.112083   
    116. D(H  18,H  17,S   1,C   0)   -166.4231         0.006016   
    117. D(H  18,H  17,S   1,C   2)   -167.5919         0.006016   
    -----------------------------------------------------------------

Number of atoms                         .... 20
Number of degrees of freedom            .... 117

         *************************************************************
         *                GEOMETRY OPTIMIZATION CYCLE   1            *
         *************************************************************
---------------------------------
CARTESIAN COORDINATES (ANGSTROEM)
---------------------------------
  C     -0.618349   -1.430593    0.072094
  S      0.634631   -2.663168    0.117680
  C      1.959986   -1.507590    0.063336
  C     -0.009679   -0.171756    0.015288
  C      1.431686   -0.193652    0.011649
  S     -0.680037    1.448346   -0.052766
  C      0.953726    2.126773   -0.083671
  C      1.937598    1.150558   -0.044695
  F      3.242658    1.442399   -0.058436
  C      1.037033    3.594429   -0.147925
  O      0.053954    4.321366   -0.181914
  O      2.316378    4.041347   -0.165429
  C      2.458881    5.467817   -0.231563
  H      3.545743    5.662542   -0.237977
  H      1.982543    5.953203    0.644126
  H      1.986790    5.869488   -1.150883
  H     -1.654989    0.067029    0.022024
  H     -0.797818   -3.242585    0.139001
  H    -15.526691  -57.088578   12.950999
  H     20.641799   53.686034  -12.812053

----------------------------
CARTESIAN COORDINATES (A.U.)
----------------------------
  NO LB      ZA    FRAG     MASS         X           Y           Z
   0 C     6.0000    0    12.011   -1.168510   -2.703429    0.136238
   1 S    16.0000    0    32.060    1.199279   -5.032658    0.222383
   2 C     6.0000    0    12.011    3.703837   -2.848932    0.119688
   3 C     6.0000    0    12.011   -0.018291   -0.324572    0.028890
   4 C     6.0000    0    12.011    2.705494   -0.365949    0.022013
   5 S    16.0000    0    32.060   -1.285084    2.736977   -0.099713
   6 C     6.0000    0    12.011    1.802281    4.019019   -0.158115
   7 C     6.0000    0    12.011    3.661530    2.174240   -0.084461
   8 F     9.0000    0    18.998    6.127736    2.725739   -0.110428
   9 C     6.0000    0    12.011    1.959708    6.792486   -0.279538
  10 O     8.0000    0    15.999    0.101958    8.166198   -0.343768
  11 O     8.0000    0    15.999    4.377320    7.637039   -0.312616
  12 C     6.0000    0    12.011    4.646612   10.332677   -0.437591
  13 H     1.0000    0     1.008    6.700483   10.700654   -0.449711
  14 H     1.0000    0     1.008    3.746463   11.249923    1.217222
  15 H     1.0000    0     1.008    3.754489   11.091725   -2.174854
  16 H     1.0000    0     1.008   -3.127476    0.126666    0.041619
  17 H     1.0000    0     1.008   -1.507658   -6.127598    0.262674
  18 H     1.0000    0     1.008  -29.341194  -107.881778   24.473841
  19 H     1.0000    0     1.008   39.007347  101.451901  -24.211271

--------------------------------
INTERNAL COORDINATES (ANGSTROEM)
--------------------------------
 C      0   0   0     0.000000000000     0.00000000     0.00000000
 S      1   0   0     1.758203086797     0.00000000     0.00000000
 C      2   1   0     1.759227006513    94.33556214     0.00000000
 C      1   2   3     1.399420123875   108.76620060     0.06405813
 C      3   2   1     1.417111676550   109.22701965     0.02807319
 S      4   1   2     1.754634345237   131.75721118   179.87599769
 C      6   4   1     1.769293602974    90.11106884   179.86251932
 C      7   6   4     1.386549302111   112.62935631     0.05822571
 F      8   7   6     1.337363670795   122.58250908   180.02772640
 C      7   6   4     1.471422022093   115.81750972   179.92500019
 O     10   7   6     1.223125902894   123.26514611   359.83564618
 O     10   7   6     1.355273300027   112.51510623   179.86246866
 C     12  10   7     1.435094934792   114.96794191   179.83349687
 H     13  12  10     1.104186565787   105.86073237   180.00896824
 H     13  12  10     1.108750956690   110.86022293    60.14560481
 H     13  12  10     1.108764522756   110.85607929   299.88009769
 H      4   1   2     1.662560869869    72.45832951   180.28725823
 H      2   1   3     1.545344227844    66.58573558   180.38318631
 H     18   2   1    57.275456827145   126.43791032   193.57693823
 H     14  13  12    52.503697982932   118.89472179   166.96671951

---------------------------
INTERNAL COORDINATES (A.U.)
---------------------------
 C      0   0   0     0.000000000000     0.00000000     0.00000000
 S      1   0   0     3.322522321861     0.00000000     0.00000000
 C      2   1   0     3.324457249708    94.33556214     0.00000000
 C      1   2   3     2.644520780421   108.76620060     0.06405813
 C      3   2   1     2.677952969861   109.22701965     0.02807319
 S      4   1   2     3.315778377669   131.75721118   179.87599769
 C      6   4   1     3.343480360119    90.11106884   179.86251932
 C      7   6   4     2.620198452170   112.62935631     0.05822571
 F      8   7   6     2.527251079258   122.58250908   180.02772640
 C      7   6   4     2.780584649177   115.81750972   179.92500019
 O     10   7   6     2.311372983775   123.26514611   359.83564618
 O     10   7   6     2.561095373666   112.51510623   179.86246866
 C     12  10   7     2.711936402934   114.96794191   179.83349687
 H     13  12  10     2.086610210093   105.86073237   180.00896824
 H     13  12  10     2.095235658867   110.86022293    60.14560481
 H     13  12  10     2.095261295016   110.85607929   299.88009769
 H      4   1   2     3.141784725027    72.45832951   180.28725823
 H      2   1   3     2.920277373261    66.58573558   180.38318631
 H     18   2   1   108.234927598535   126.43791032   193.57693823
 H     14  13  12    99.217610205856   118.89472179   166.96671951

---------------------
BASIS SET INFORMATION
---------------------
There are 5 groups of distinct atoms

 Group   1 Type C   : 7s4p1d contracted to 3s2p1d pattern {511/31/1}
 Group   2 Type S   : 10s7p1d contracted to 4s3p1d pattern {5311/511/1}
 Group   3 Type F   : 7s4p1d contracted to 3s2p1d pattern {511/31/1}
 Group   4 Type O   : 7s4p1d contracted to 3s2p1d pattern {511/31/1}
 Group   5 Type H   : 4s1p contracted to 2s1p pattern {31/1}

Atom   0C    basis set group =>   1
Atom   1S    basis set group =>   2
Atom   2C    basis set group =>   1
Atom   3C    basis set group =>   1
Atom   4C    basis set group =>   1
Atom   5S    basis set group =>   2
Atom   6C    basis set group =>   1
Atom   7C    basis set group =>   1
Atom   8F    basis set group =>   3
Atom   9C    basis set group =>   1
Atom  10O    basis set group =>   4
Atom  11O    basis set group =>   4
Atom  12C    basis set group =>   1
Atom  13H    basis set group =>   5
Atom  14H    basis set group =>   5
Atom  15H    basis set group =>   5
Atom  16H    basis set group =>   5
Atom  17H    basis set group =>   5
Atom  18H    basis set group =>   5
Atom  19H    basis set group =>   5
---------------------------------
AUXILIARY/J BASIS SET INFORMATION
---------------------------------
There are 5 groups of distinct atoms

 Group   1 Type C   : 12s5p4d2f1g contracted to 6s4p3d1f1g pattern {711111/2111/211/2/1}
 Group   2 Type S   : 14s5p5d2f1g contracted to 8s4p3d1f1g pattern {71111111/2111/311/2/1}
 Group   3 Type F   : 12s5p4d2f1g contracted to 6s4p3d1f1g pattern {711111/2111/211/2/1}
 Group   4 Type O   : 12s5p4d2f1g contracted to 6s4p3d1f1g pattern {711111/2111/211/2/1}
 Group   5 Type H   : 5s2p1d contracted to 3s1p1d pattern {311/2/1}

Atom   0C    basis set group =>   1
Atom   1S    basis set group =>   2
Atom   2C    basis set group =>   1
Atom   3C    basis set group =>   1
Atom   4C    basis set group =>   1
Atom   5S    basis set group =>   2
Atom   6C    basis set group =>   1
Atom   7C    basis set group =>   1
Atom   8F    basis set group =>   3
Atom   9C    basis set group =>   1
Atom  10O    basis set group =>   4
Atom  11O    basis set group =>   4
Atom  12C    basis set group =>   1
Atom  13H    basis set group =>   5
Atom  14H    basis set group =>   5
Atom  15H    basis set group =>   5
Atom  16H    basis set group =>   5
Atom  17H    basis set group =>   5
Atom  18H    basis set group =>   5
Atom  19H    basis set group =>   5
------------------------------------------------------------------------------
                           ORCA GTO INTEGRAL CALCULATION
                           -- RI-GTO INTEGRALS CHOSEN --
------------------------------------------------------------------------------

                         BASIS SET STATISTICS AND STARTUP INFO

Gaussian basis set:
 # of primitive gaussian shells          ...  203
 # of primitive gaussian functions       ...  385
 # of contracted shells                  ...  103
 # of contracted basis functions         ...  225
 Highest angular momentum                ...    2
 Maximum contraction depth               ...    5
Auxiliary gaussian basis set:
 # of primitive gaussian shells          ...  374
 # of primitive gaussian functions       ... 1036
 # of contracted shells                  ...  234
 # of contracted aux-basis functions     ...  718
 Highest angular momentum                ...    4
 Maximum contraction depth               ...    7
Ratio of auxiliary to basis functions    ...  3.19
Integral package used                  ... LIBINT
 One Electron integrals                  ... done
 Ordering auxiliary basis shells         ... done
 Integral threshhold             Thresh  ...  2.500e-11
 Primitive cut-off               TCut    ...  2.500e-12
 Pre-screening matrix                    ... done
 Shell pair data                         ... 
 Ordering of the shell pairs             ... done (   0.001 sec) 3869 of 5356 pairs
 Determination of significant pairs      ... done (   0.000 sec)
 Creation of shell pair data             ... done (   0.001 sec)
 Storage of shell pair data              ... done (   0.036 sec)
 Shell pair data done in (   0.037 sec)
 Computing two index integrals           ... done
 Cholesky decomposition of the V-matrix  ... done


Timings:
 Total evaluation time                   ...   0.295 sec (  0.005 min)
 One electron matrix time                ...   0.083 sec (  0.001 min) = 28.1%
 Schwartz matrix evaluation time         ...   0.092 sec (  0.002 min) = 31.2%
 Two index repulsion integral time       ...   0.019 sec (  0.000 min) =  6.4%
 Cholesky decomposition of V             ...   0.043 sec (  0.001 min) = 14.7%
 Three index repulsion integral time     ...   0.000 sec (  0.000 min) =  0.0%

-------------------------------------------------------------------------------
                                 ORCA SCF
-------------------------------------------------------------------------------

------------
SCF SETTINGS
------------
Hamiltonian:
 Density Functional     Method          .... DFT(GTOs)
 Exchange Functional    Exchange        .... B88
   X-Alpha parameter    XAlpha          ....  0.666667
   Becke's b parameter  XBeta           ....  0.004200
 Correlation Functional Correlation     .... P86
 LDA part of GGA corr.  LDAOpt          .... PW91-LDA
 Gradients option       PostSCFGGA      .... off
   Density functional embedding theory  .... OFF
 RI-approximation to the Coulomb term is turned on
   Number of auxiliary basis functions  .... 718


General Settings:
 Integral files         IntName         .... PTB7_Input_Methylcarbonyl_3_Fluoro_Thienothiophene_2_Optimize_Monomer_Hydrogenated
 Hartree-Fock type      HFTyp           .... RHF
 Total Charge           Charge          ....    0
 Multiplicity           Mult            ....    1
 Number of Electrons    NEL             ....  112
 Basis Dimension        Dim             ....  225
 Nuclear Repulsion      ENuc            ....    963.3156846394 Eh

Convergence Acceleration:
 DIIS                   CNVDIIS         .... on
   Start iteration      DIISMaxIt       ....    12
   Startup error        DIISStart       ....  0.200000
   # of expansion vecs  DIISMaxEq       ....     5
   Bias factor          DIISBfac        ....   1.050
   Max. coefficient     DIISMaxC        ....  10.000
 Newton-Raphson         CNVNR           .... off
 SOSCF                  CNVSOSCF        .... on
   Start iteration      SOSCFMaxIt      ....   150
   Startup grad/error   SOSCFStart      ....  0.003300
 Level Shifting         CNVShift        .... on
   Level shift para.    LevelShift      ....    0.2500
   Turn off err/grad.   ShiftErr        ....    0.0010
 Zerner damping         CNVZerner       .... off
 Static damping         CNVDamp         .... on
   Fraction old density DampFac         ....    0.7000
   Max. Damping (<1)    DampMax         ....    0.9800
   Min. Damping (>=0)   DampMin         ....    0.0000
   Turn off err/grad.   DampErr         ....    0.1000
 Fernandez-Rico         CNVRico         .... off

SCF Procedure:
 Maximum # iterations   MaxIter         ....   125
 SCF integral mode      SCFMode         .... Direct
   Integral package                     .... LIBINT
 Reset frequency        DirectResetFreq ....    20
 Integral Threshold     Thresh          ....  2.500e-11 Eh
 Primitive CutOff       TCut            ....  2.500e-12 Eh

Convergence Tolerance:
 Convergence Check Mode ConvCheckMode   .... Total+1el-Energy
 Convergence forced     ConvForced      .... 0
 Energy Change          TolE            ....  1.000e-08 Eh
 1-El. energy change                    ....  1.000e-05 Eh
 Orbital Gradient       TolG            ....  1.000e-05
 Orbital Rotation angle TolX            ....  1.000e-05
 DIIS Error             TolErr          ....  5.000e-07


Diagonalization of the overlap matrix:
Smallest eigenvalue                        ... 5.676e-04
Time for diagonalization                   ...    0.018 sec
Threshold for overlap eigenvalues          ... 1.000e-08
Number of eigenvalues below threshold      ... 0
Time for construction of square roots      ...    0.048 sec
Total time needed                          ...    0.067 sec

-------------------
DFT GRID GENERATION
-------------------

General Integration Accuracy     IntAcc      ...  4.340
Radial Grid Type                 RadialGrid  ... Gauss-Chebyshev
Angular Grid (max. acc.)         AngularGrid ... Lebedev-194
Angular grid pruning method      GridPruning ... 3 (G Style)
Weight generation scheme         WeightScheme... Becke
Basis function cutoff            BFCut       ...    1.0000e-11
Integration weight cutoff        WCut        ...    1.0000e-14
Grids for H and He will be reduced by one unit

# of grid points (after initial pruning)     ...  54228 (   0.0 sec)
# of grid points (after weights+screening)   ...  50323 (   0.1 sec)
nearest neighbour list constructed           ...    0.0 sec
Grid point re-assignment to atoms done       ...    0.0 sec
Grid point division into batches done        ...    0.1 sec
Reduced shell lists constructed in    0.4 sec

Total number of grid points                  ...    50323
Total number of batches                      ...      797
Average number of points per batch           ...       63
Average number of grid points per atom       ...     2516
Average number of shells per batch           ...    49.13 (47.70%)
Average number of basis functions per batch  ...   108.21 (48.10%)
Average number of large shells per batch     ...    35.51 (72.27%)
Average number of large basis fcns per batch ...    78.01 (72.08%)
Maximum spatial batch extension              ...  26.09, 21.59, 22.18 au
Average spatial batch extension              ...   3.19,  3.18,  3.72 au

Time for grid setup =    0.540 sec

------------------------------
INITIAL GUESS: MODEL POTENTIAL
------------------------------
Loading Hartree-Fock densities                     ... done
Calculating cut-offs                               ... done
Setting up the integral package                    ... done
Initializing the effective Hamiltonian             ... done
Starting the Coulomb interaction                   ... done (   0.2 sec)
Reading the grid                                   ... done
Mapping shells                                     ... done
Starting the XC term evaluation                    ... done (   0.5 sec)
  promolecular density results
     # of electrons  =    111.995674492
     EX              =   -119.575552096
     EC              =     -4.359678848
     EX+EC           =   -123.935230944
Transforming the Hamiltonian                       ... done (   0.0 sec)
Diagonalizing the Hamiltonian                      ... done (   0.0 sec)
Back transforming the eigenvectors                 ... done (   0.0 sec)
Now organizing SCF variables                       ... done
                      ------------------
                      INITIAL GUESS DONE (   1.3 sec)
                      ------------------
--------------
SCF ITERATIONS
--------------
ITER       Energy         Delta-E        Max-DP      RMS-DP      [F,P]     Damp
               ***  Starting incremental Fock matrix formation  ***
  0  -1353.6881468652   0.000000000000 0.20729222  0.00369882  0.2536655 0.7000
  1  -1354.2836308064  -0.595483941257 0.16571313  0.00241017  0.0736959 0.7000
                               ***Turning on DIIS***
  2  -1354.3926536411  -0.109022834644 0.35458138  0.00427730  0.0336930 0.0000
  3  -1353.9882183125   0.404435328542 0.04807642  0.00059171  0.2232241 0.7000
  4  -1354.0079340343  -0.019715721742 0.19244020  0.00199670  0.2012521 0.7000
  5  -1354.4145635723  -0.406629538027 0.50495217  0.00473627  0.0517085 0.0000
  6  -1353.9954398503   0.419123721988 0.02109526  0.00015158  0.2669123 0.7000
  7  -1354.0012541160  -0.005814265635 0.05490408  0.00044005  0.2575599 0.7000
  8  -1354.0133637760  -0.012109660032 0.03317919  0.00026304  0.2318758 0.7000
  9  -1354.0201689891  -0.006805213073 0.03596494  0.00025479  0.2162628 0.7000
 10  -1354.0273412955  -0.007172306438 0.20729215  0.00196548  0.1995871 0.7000
 11  -1354.4289408581  -0.401599562612 0.57342549  0.00464403  0.0507443 0.0000
 12  -1353.9733649565   0.455575901560 0.00233270  0.00006247  0.3038802 0.7000
 13  -1353.9743187315  -0.000953774904 0.00333524  0.00008162  0.3029697 0.7000
 14  -1353.9752438663  -0.000925134809 0.00322072  0.00007688  0.3019904 0.7000
 15  -1353.9759806388  -0.000736772507 0.01412147  0.00009455  0.3010155 0.7000
 16  -1353.9796732416  -0.003692602883 0.22780948  0.00197355  0.2952948 0.7000
 17  -1354.4141916382  -0.434518396545 0.17757852  0.00141121  0.1110484 0.7000
 18  -1354.5001343022  -0.085942664053 0.37208882  0.00320428  0.0378027 0.0000
 19  -1353.9978545496   0.502279752632 0.01734334  0.00011088  0.2670373 0.7000
               *** Restarting incremental Fock matrix formation ***
                                   *** Resetting DIIS ***
 20  -1354.0020189769  -0.004164427271 0.20729218  0.00195118  0.2593957 0.7000
 21  -1354.4222831765  -0.420264199566 0.58434506  0.00464719  0.0881160 0.0000
 22  -1353.9715313903   0.450751786136 0.00199986  0.00001992  0.3081613 0.7000
 23  -1353.9721040638  -0.000572673524 0.00220646  0.00002316  0.3073790 0.7000
 24  -1353.9727261919  -0.000622128074 0.00188296  0.00002127  0.3065145 0.7000
 25  -1353.9732468793  -0.000520687393 0.02108651  0.00012171  0.3057760 0.7000
 26  -1353.9789230028  -0.005676123455 0.22933844  0.00197018  0.2972414 0.7000
 27  -1354.4139199995  -0.434996996709 0.17753111  0.00141111  0.1123138 0.7000
 28  -1354.5001399566  -0.086219957109 0.37458612  0.00320422  0.0377865 0.0000
 29  -1353.9985642612   0.501575695385 0.01707498  0.00010318  0.2657078 0.7000
 30  -1354.0027346874  -0.004170426190 0.01844757  0.00011271  0.2581652 0.7000
 31  -1354.0071462327  -0.004411545327 0.02159600  0.00013338  0.2499035 0.7000
 32  -1354.0121932796  -0.005047046905 0.00796975  0.00004960  0.2400356 0.7000
 33  -1354.0140518752  -0.001858595585 0.20729215  0.00195224  0.2364930 0.7000
 34  -1354.4260531262  -0.412001250960 0.57630074  0.00462584  0.0736705 0.0000
 35  -1353.9737633395   0.452289786676 0.00348946  0.00007235  0.3050117 0.7000
 36  -1353.9746279558  -0.000864616276 0.00440564  0.00009266  0.3036332 0.7000
 37  -1353.9754862797  -0.000858323916 0.00441064  0.00008374  0.3018861 0.7000
 38  -1353.9762120777  -0.000725798001 0.01505325  0.00009750  0.3001316 0.7000
 39  -1353.9801282957  -0.003916217972 0.22687017  0.00197369  0.2940151 0.7000
               *** Restarting incremental Fock matrix formation ***
                                   *** Resetting DIIS ***
 40  -1354.4144985391  -0.434370243500 0.16571311  0.00140056  0.1102266 0.7000
 41  -1354.5010203427  -0.086521803567 0.37055461  0.00323097  0.0336930 0.0000
 42  -1354.0221867094   0.478833633361 0.00275242  0.00006117  0.2207973 0.7000
 43  -1354.0221290000   0.000057709309 0.00350584  0.00007924  0.2210332 0.7000
 44  -1354.0219308207   0.000198179380 0.00315646  0.00007210  0.2211860 0.7000
 45  -1354.0218227124   0.000108108281 0.00437687  0.00005111  0.2208310 0.7000
 46  -1354.0206958705   0.001126841888 0.20729217  0.00194373  0.2228887 0.7000
 47  -1354.4277609081  -0.407065037587 0.57689726  0.00463754  0.0651055 0.0000
 48  -1353.9730087260   0.454752182063 0.01331585  0.00011636  0.3052461 0.7000
 49  -1353.9759199063  -0.002911180291 0.01457933  0.00014650  0.2999116 0.7000
 50  -1353.9785192278  -0.002599321530 0.01048174  0.00011903  0.2940064 0.7000
 51  -1353.9800898894  -0.001570661589 0.01677714  0.00012090  0.2897535 0.7000
 52  -1353.9839385339  -0.003848644492 0.21871061  0.00197765  0.2827876 0.7000
 53  -1354.4158985532  -0.431960019285 0.17782632  0.00141893  0.1030313 0.7000
 54  -1354.5005143339  -0.084615780710 0.35722733  0.00321369  0.0378875 0.0000
 55  -1354.0007554829   0.499758851022 0.01512517  0.00009369  0.2582936 0.7000
 56  -1354.0044343045  -0.003678821581 0.01596624  0.00010039  0.2515219 0.7000
 57  -1354.0082272677  -0.003792963178 0.01949000  0.00012288  0.2442914 0.7000
 58  -1354.0126977326  -0.004470464918 0.01077554  0.00007549  0.2352951 0.7000
 59  -1354.0147910927  -0.002093360133 0.20729215  0.00198077  0.2303636 0.7000
               *** Restarting incremental Fock matrix formation ***
                                   *** Resetting DIIS ***
 60  -1354.4263137346  -0.411522641904 0.55237707  0.00463227  0.0698170 0.0000
 61  -1353.9757510499   0.450562684708 0.00627188  0.00008386  0.2955018 0.7000
 62  -1353.9785100714  -0.002759021507 0.00706109  0.00009548  0.2929568 0.7000
 63  -1353.9814869910  -0.002976919565 0.00693742  0.00008500  0.2900758 0.7000
 64  -1353.9841235215  -0.002636530575 0.00665932  0.00006863  0.2872315 0.7000
 65  -1353.9863750109  -0.002251489367 0.21982185  0.00196265  0.2844879 0.7000
 66  -1354.4164817201  -0.430106709224 0.17748978  0.00140848  0.1041018 0.7000
 67  -1354.5008685836  -0.084386863426 0.35904236  0.00320801  0.0377723 0.0000
 68  -1354.0007177313   0.500150852238 0.01844920  0.00012321  0.2601629 0.7000
 69  -1354.0046603132  -0.003942581901 0.02169973  0.00015346  0.2518938 0.7000
 70  -1354.0088947978  -0.004234484539 0.02562358  0.00017716  0.2419890 0.7000
 71  -1354.0137956893  -0.004900891514 0.01221124  0.00009519  0.2300091 0.7000
 72  -1354.0159888527  -0.002193163410 0.20729217  0.00197685  0.2244084 0.7000
 73  -1354.4268046190  -0.410815766318 0.57770614  0.00466603  0.0661017 0.0000
 74  -1353.9699473963   0.456857222684 0.00272046  0.00005778  0.3055637 0.7000
 75  -1353.9706300326  -0.000682636316 0.00333110  0.00006898  0.3054464 0.7000
 76  -1353.9714177854  -0.000787752783 0.00309402  0.00006160  0.3052881 0.7000
 77  -1353.9723642113  -0.000946425862 0.01957818  0.00011501  0.3047016 0.7000
 78  -1353.9775612917  -0.005197080425 0.22896849  0.00197636  0.2967741 0.7000
 79  -1354.4133651507  -0.435803858982 0.17778220  0.00141766  0.1120096 0.7000
               *** Restarting incremental Fock matrix formation ***
                                   *** Resetting DIIS ***
 80  -1354.4999175109  -0.086552360223 0.37398187  0.00324677  0.0378724 0.0000
 81  -1354.0180947954   0.481822715481 0.00306204  0.00003832  0.2269659 0.7000
 82  -1354.0184633818  -0.000368586315 0.00294915  0.00005117  0.2255275 0.7000
 83  -1354.0186296540  -0.000166272283 0.00228279  0.00005206  0.2241398 0.7000
 84  -1354.0185873144   0.000042339621 0.00194682  0.00004526  0.2230777 0.7000
 85  -1354.0183988972   0.000188417240 0.20729217  0.00195687  0.2224718 0.7000
 86  -1354.4274912376  -0.409092340400 0.58371577  0.00467436  0.0648443 0.0000
 87  -1353.9687109919   0.458780245706 0.00664686  0.00005376  0.3079158 0.7000
 88  -1353.9704760809  -0.001765089030 0.00678351  0.00006284  0.3052963 0.7000
 89  -1353.9721905747  -0.001714493827 0.00617730  0.00006094  0.3026106 0.7000
 90  -1353.9736884502  -0.001497875501 0.02472051  0.00015648  0.3001556 0.7000
 91  -1353.9794374260  -0.005748975815 0.22400393  0.00201825  0.2899672 0.7000
 92  -1354.4143862292  -0.434948803126 0.17338363  0.00140918  0.1076436 0.7000
 93  -1354.4999562826  -0.085570053445 0.36587308  0.00320563  0.0363610 0.0000
 94  -1354.0105848825   0.489371400159 0.01795470  0.00012542  0.2440527 0.7000
 95  -1354.0146715179  -0.004086635486 0.01821282  0.00013951  0.2357219 0.7000
 96  -1354.0185437871  -0.003872269180 0.01049734  0.00010427  0.2271667 0.7000
 97  -1354.0204906753  -0.001946888196 0.00222207  0.00005514  0.2222682 0.7000
 98  -1354.0205994419  -0.000108766559 0.20729217  0.00195130  0.2217135 0.7000
 99  -1354.4281753430  -0.407575901100 0.57961864  0.00463547  0.0643862 0.0000
               *** Restarting incremental Fock matrix formation ***
                                   *** Resetting DIIS ***
100  -1353.9719729974   0.456202345584 0.23607324  0.00198734  0.3063137 0.7000
101  -1354.4114291042  -0.439456106827 0.17620519  0.00141442  0.1181533 0.7000
102  -1354.4994107942  -0.087981689973 0.38558630  0.00321407  0.0378117 0.0000
103  -1354.0068955577   0.492515236469 0.01349000  0.00008490  0.2510952 0.7000
104  -1354.0100594972  -0.003163939460 0.01316820  0.00008626  0.2449752 0.7000
105  -1354.0130668996  -0.003007402455 0.01538849  0.00010008  0.2389524 0.7000
106  -1354.0165210836  -0.003454183975 0.00294967  0.00002790  0.2318104 0.7000
107  -1354.0172127763  -0.000691692705 0.20729216  0.00195280  0.2305077 0.7000
108  -1354.4269948744  -0.409782098122 0.57442253  0.00462223  0.0698950 0.0000
109  -1353.9742670247   0.452727849690 0.00463201  0.00008613  0.3042729 0.7000
110  -1353.9753967506  -0.001129725834 0.00572417  0.00011041  0.3024367 0.7000
111  -1353.9764686349  -0.001071884345 0.00507722  0.00009675  0.3001564 0.7000
112  -1353.9772159090  -0.000747274046 0.01368427  0.00009571  0.2981282 0.7000
113  -1353.9806747514  -0.003458842469 0.22577911  0.00197235  0.2925557 0.7000
114  -1354.4146643416  -0.433989590116 0.17776801  0.00141395  0.1092865 0.7000
115  -1354.5002934812  -0.085629139622 0.36877254  0.00320698  0.0378675 0.0000
116  -1353.9980609811   0.502232500090 0.01570279  0.00009569  0.2655107 0.7000
117  -1354.0019891501  -0.003928168986 0.01702907  0.00010477  0.2585860 0.7000
118  -1354.0061847034  -0.004195553356 0.02065818  0.00012782  0.2509804 0.7000
119  -1354.0111333844  -0.004948680955 0.00899093  0.00005616  0.2415684 0.7000
               *** Restarting incremental Fock matrix formation ***
                                   *** Resetting DIIS ***
120  -1354.0131921533  -0.002058768890 0.20729218  0.00195140  0.2375476 0.7000
121  -1354.4259141099  -0.412721956588 0.57897231  0.00463259  0.0743313 0.0000
122  -1353.9728352397   0.453078870175 0.00178153  0.00003895  0.3060604 0.7000
123  -1353.9733279699  -0.000492730196 0.00213993  0.00004753  0.3054926 0.7000
124  -1353.9738826842  -0.000554714295 0.00190954  0.00004443  0.3047728 0.7000

               *****************************************************
               *                      ERROR                        *
               *        SCF NOT CONVERGED AFTER 125 CYCLES         *
               *****************************************************

Setting up the final grid:

General Integration Accuracy     IntAcc      ...  5.010
Radial Grid Type                 RadialGrid  ... Gauss-Chebyshev
Angular Grid (max. acc.)         AngularGrid ... Lebedev-434
Angular grid pruning method      GridPruning ... 3 (G Style)
Weight generation scheme         WeightScheme... Becke
Basis function cutoff            BFCut       ...    1.0000e-11
Integration weight cutoff        WCut        ...    1.0000e-14
Grids for H and He will be reduced by one unit

# of grid points (after initial pruning)     ... 188410 (   0.1 sec)
# of grid points (after weights+screening)   ... 173705 (   0.5 sec)
nearest neighbour list constructed           ...    0.0 sec
Grid point re-assignment to atoms done       ...    0.0 sec
Grid point division into batches done        ...    1.2 sec
Reduced shell lists constructed in    2.1 sec

Total number of grid points                  ...   173705
Total number of batches                      ...     2725
Average number of points per batch           ...       63
Average number of grid points per atom       ...     8685
Average number of shells per batch           ...    44.26 (42.97%)
Average number of basis functions per batch  ...    96.87 (43.05%)
Average number of large shells per batch     ...    31.69 (71.58%)
Average number of large basis fcns per batch ...    69.22 (71.46%)
Maximum spatial batch extension              ...  22.26, 20.71, 22.83 au
Average spatial batch extension              ...   2.17,  2.13,  2.29 au

Final grid set up in    2.6 sec
Final integration                            ... done (   2.0 sec)
Change in XC energy                          ...    -0.000365881
Integrated number of electrons               ...   112.000003901
Previous integrated no of electrons          ...   111.998878853

---------------
SCF CONVERGENCE
---------------

  Last Energy change         ...   -5.5471e-04  Tolerance :   1.0000e-08
  Last MAX-Density change    ...    9.2576e-04  Tolerance :   1.0000e-07
  Last RMS-Density change    ...    2.0237e-05  Tolerance :   5.0000e-09
  Last DIIS Error            ...    3.0477e-01  Tolerance :   5.0000e-07

             **** DENSITY FILE WAS UPDATED (PTB7_Input_Methylcarbonyl_3_Fluoro_Thienothiophene_2_Optimize_Monomer_Hydrogenated.scfp) ****
             **** ENERGY FILE WAS UPDATED (PTB7_Input_Methylcarbonyl_3_Fluoro_Thienothiophene_2_Optimize_Monomer_Hydrogenated.en.tmp) ****

     --------------------------------------------------------------------
                                      WARNING
     The wavefunction IS NOT YET CONVERGED! It shows however signs of
     convergence. Therefore the wavefunction will be stored and can be
     used as input for another calculation. 
     DO NOT USE THIS WAVEFUNCTION  FOR ANYHTING ELSE. It is NOT RELIABLE
     --------------------------------------------------------------------

-------
TIMINGS
-------

Total SCF time: 0 days 0 hours 2 min 16 sec 

Total time                  ....     136.470 sec
Sum of individual times     ....     134.954 sec  ( 98.9%)

Fock matrix formation       ....     128.212 sec  ( 93.9%)
  Split-RI-J                ....      55.548 sec  ( 43.3% of F)
  XC integration            ....      69.849 sec  ( 54.5% of F)
    Basis function eval.    ....      25.614 sec  ( 36.7% of XC)
    Density eval.           ....      14.026 sec  ( 20.1% of XC)
    XC-Functional eval.     ....       8.585 sec  ( 12.3% of XC)
    XC-Potential eval.      ....      15.702 sec  ( 22.5% of XC)
Diagonalization             ....       0.909 sec  (  0.7%)
Density matrix formation    ....       0.121 sec  (  0.1%)
Population analysis         ....       0.000 sec  (  0.0%)
Initial guess               ....       0.728 sec  (  0.5%)
Orbital Transformation      ....       0.000 sec  (  0.0%)
Orbital Orthonormalization  ....       0.000 sec  (  0.0%)
DIIS solution               ....       1.809 sec  (  1.3%)
SOSCF solution              ....       0.000 sec  (  0.0%)
Grid generation             ....       3.175 sec  (  2.3%)


-------------------------------------------------------------------------------
                          DFT DISPERSION CORRECTION                            
                                                                               
                              DFTD3 V3.1  Rev 1                                
                          USING Becke-Johnson damping                          
-------------------------------------------------------------------------------
The BP86 functional is recognized
Active option DFTDOPT                   ...         4   

molecular C6(AA) [au] = 7227.831282 


            DFT-D V3
 parameters
 s6 scaling factor         :     1.0000 
 a1 scaling factor         :     0.3946 
 s8 scaling factor         :     3.2822 
 a2 scaling factor         :     4.8516 
 ad hoc parameters k1-k3   :    16.0000     1.3333    -4.0000 

 Edisp/kcal,au: -24.607640963458  -0.039214767833 
 E6   /kcal   :  -8.405787195 
 E8   /kcal   : -16.201853769 
 % E8         :  65.840743502 

-------------------------   ----------------
Dispersion correction           -0.039214768
-------------------------   ----------------


-------------------------   --------------------
FINAL SINGLE POINT ENERGY     -1354.013463333189   (Wavefunction not fully converged!)
-------------------------   --------------------

------------------------------------------------------------------------------
                         ORCA SCF GRADIENT CALCULATION
------------------------------------------------------------------------------

Gradient of the Kohn-Sham DFT energy:
Kohn-Sham wavefunction type      ... RKS
Hartree-Fock exchange scaling    ...    0.000
Number of operators              ...    1
Number of atoms                  ...   20
Basis set dimensions             ...  225
Integral neglect threshold       ... 2.5e-11
Integral primitive cutoff        ... 2.5e-12

Nuclear repulsion gradient       ... done
One Electron Gradient            ... done
Pre-screening matrix             ... done
RI-J gradient                    ... done
Exchange-correlation gradient    ... done
Dispersion correction            ... done

------------------
CARTESIAN GRADIENT
------------------

   1   C   :    0.026605114   -0.032529766    0.000063544
   2   S   :    0.008309281   -0.008624707   -0.000774316
   3   C   :   -0.029422133   -0.038173256    0.002088760
   4   C   :   -0.004209621    0.032584012   -0.000287706
   5   C   :   -0.028115762    0.045605341   -0.001395772
   6   S   :    0.016841099   -0.006769126    0.001039392
   7   C   :   -0.019466125   -0.005164758   -0.000161293
   8   C   :   -0.005511750   -0.009642015    0.000022111
   9   F   :    0.005680234    0.005517451   -0.000135009
  10   C   :    0.001258200   -0.001973450    0.000031047
  11   O   :   -0.000526639    0.001386430   -0.000077262
  12   O   :    0.000826353    0.001426798   -0.000002114
  13   C   :    0.000021035   -0.001429092    0.000057953
  14   H   :    0.000436006    0.000261590   -0.000008078
  15   H   :   -0.000211711    0.000353731    0.000299262
  16   H   :   -0.000226612    0.000322297   -0.000350561
  17   H   :    0.020226759    0.038678005   -0.002226249
  18   H   :    0.007486263   -0.021828786    0.001816028
  19   H   :   -0.000006126   -0.000019128    0.000004546
  20   H   :    0.000006135    0.000018426   -0.000004284

Difference to translation invariance:
           :    0.0000000000   -0.0000000001   -0.0000000000

Norm of the cartesian gradient     ...    0.1075660946
RMS gradient                       ...    0.0138867231
MAX gradient                       ...    0.0456053412

-------
TIMINGS
-------

Total SCF gradient time            ...        9.755 sec

One electron gradient       ....       0.173 sec  (  1.8%)
Prescreening matrices       ....       0.127 sec  (  1.3%)
RI-J Coulomb gradient       ....       1.869 sec  ( 19.2%)
XC gradient                 ....       7.441 sec  ( 76.3%)
------------------------------------------------------------------------------
                         ORCA GEOMETRY RELAXATION STEP
------------------------------------------------------------------------------

Reading the OPT-File                    .... done
Getting information on internals        .... done
Copying old internal coords+grads       .... done
Making the new internal coordinates     .... (new redundants).... done
Validating the new internal coordinates .... (new redundants).... done
Calculating the B-matrix                .... done
Calculating the G,G- and P matrices     .... done
Transforming gradient to internals      .... done
Projecting the internal gradient        .... done
Number of atoms                         ....  20
Number of internal coordinates          .... 117
Current Energy                          .... -1354.013463333 Eh
Current gradient norm                   ....     0.107566095 Eh/bohr
Maximum allowed component of the step   ....  0.300
Current trust radius                    ....  0.300
Evaluating the initial hessian          ....  (Almloef) done
Projecting the Hessian                  .... done
Forming the augmented Hessian           .... done
Diagonalizing the augmented Hessian     .... done
Last element of RFO vector              ....  0.935877334
Lowest eigenvalues of augmented Hessian:
 -0.020870767  0.000000002  0.000000014  0.004432508  0.005308116
Length of the computed step             ....  0.376466013
Warning: the length of the step is outside the trust region - taking restricted step instead
The input lambda is                     ....    -0.020871
   iter:   1  x=   -0.045735  g=    2.080361 f(x)=     0.051727
   iter:   2  x=   -0.055334  g=    1.232823 f(x)=     0.011834
   iter:   3  x=   -0.056296  g=    1.033754 f(x)=     0.000994
   iter:   4  x=   -0.056304  g=    1.016314 f(x)=     0.000008
   iter:   5  x=   -0.056304  g=    1.016166 f(x)=     0.000000
   iter:   6  x=   -0.056304  g=    1.016166 f(x)=    -0.000000
The output lambda is                    ....    -0.056304 (6 iterations)
The final length of the internal step   ....  0.300000000
Converting the step to cartesian space:
 Initial RMS(Int)=    0.0277350098
Transforming coordinates:
 Iter   0:  RMS(Cart)=    0.3929424790 RMS(Int)=    0.0232413577
 Iter   1:  RMS(Cart)=    0.0155068391 RMS(Int)=    0.0077404390
 Iter   2:  RMS(Cart)=    0.0015599070 RMS(Int)=    0.0002114211
 Iter   3:  RMS(Cart)=    0.0001961004 RMS(Int)=    0.0000376001
 Iter   4:  RMS(Cart)=    0.0000330638 RMS(Int)=    0.0000059307
 Iter   5:  RMS(Cart)=    0.0000064045 RMS(Int)=    0.0000010867
 Iter   6:  RMS(Cart)=    0.0000013231 RMS(Int)=    0.0000002091
 Iter   7:  RMS(Cart)=    0.0000002765 RMS(Int)=    0.0000000412
 Iter   8:  RMS(Cart)=    0.0000000571 RMS(Int)=    0.0000000082
Imposing constraints:
 Iter   0:  RMS(Cart)=    0.0002143523 RMS(Int)=    0.0000124752
 Iter   1:  RMS(Cart)=    0.0000849163 RMS(Int)=    0.0000051361
 Iter   2:  RMS(Cart)=    0.0000310491 RMS(Int)=    0.0000021280
 Iter   3:  RMS(Cart)=    0.0000118705 RMS(Int)=    0.0000008845
 Iter   4:  RMS(Cart)=    0.0000047053 RMS(Int)=    0.0000003681
 Iter   5:  RMS(Cart)=    0.0000019030 RMS(Int)=    0.0000001533
 Iter   6:  RMS(Cart)=    0.0000007781 RMS(Int)=    0.0000000639
 Iter   7:  RMS(Cart)=    0.0000003201 RMS(Int)=    0.0000000267
 Iter   8:  RMS(Cart)=    0.0000001322 RMS(Int)=    0.0000000112
 Iter   9:  RMS(Cart)=    0.0000000547 RMS(Int)=    0.0000000050
CONVERGED
done
Storing new coordinates                 .... done

                                .--------------------.
          ----------------------|Geometry convergence|-------------------------
          Item                value                   Tolerance       Converged
          ---------------------------------------------------------------------
          RMS gradient        0.0053995054            0.0001000000      NO
          MAX gradient        0.0433186346            0.0003000000      NO
          RMS step            0.0277350098            0.0020000000      NO
          MAX step            0.2665682957            0.0040000000      NO
          ........................................................
          Max(Bonds)      0.1411      Max(Angles)    4.09
          Max(Dihed)        0.69      Max(Improp)    0.00
          ---------------------------------------------------------------------

The optimization has not yet converged - more geometry cycles are needed


    ---------------------------------------------------------------------------
                         Redundant Internal Coordinates
                            (Angstroem and degrees)

        Definition                    Value    dE/dq     Step     New-Value
    ----------------------------------------------------------------------------
     1. B(S   1,C   0)                1.7582  0.014356  0.0000    1.7582 C 
     2. B(C   2,S   1)                1.7592 -0.025555 -0.0000    1.7592 C 
     3. B(C   3,C   0)                1.3994  0.055344  0.0000    1.3994 C 
     4. B(C   4,C   2)                1.4171  0.031582 -0.0000    1.4171 C 
     5. B(C   4,C   3)                1.4415 -0.019790 -0.0000    1.4415 C 
     6. B(S   5,C   3)                1.7546  0.023921  0.0000    1.7546 C 
     7. B(C   6,S   5)                1.7693 -0.024026  0.0000    1.7693 C 
     8. B(C   7,C   4)                1.4374 -0.004415 -0.0000    1.4374 C 
     9. B(C   7,C   6)                1.3865 -0.007871 -0.0000    1.3865 C 
    10. B(F   8,C   7)                1.3374  0.006749  0.0000    1.3374 C 
    11. B(C   9,C   6)                1.4714  0.000462 -0.0000    1.4714 C 
    12. B(O  10,C   9)                1.2231  0.001250 -0.0000    1.2231 C 
    13. B(O  11,C   9)                1.3553  0.001107  0.0000    1.3553 C 
    14. B(C  12,O  11)                1.4351 -0.000464  0.0000    1.4351 C 
    15. B(H  13,C  12)                1.1042  0.000443 -0.0006    1.1036   
    16. B(H  14,C  12)                1.1088  0.000483 -0.0007    1.1081   
    17. B(H  15,C  12)                1.1088  0.000488 -0.0007    1.1081   
    18. B(H  16,S   5)                1.6924 -0.043319  0.1411    1.8334   
    19. B(H  17,S   1)                1.5453 -0.002425 -0.0006    1.5448   
    20. B(H  18,S   1)               58.2066  0.006312 -0.0165   58.1901   
    21. B(H  18,H  17)               57.2755 -0.006295  0.0163   57.2918   
    22. B(H  19,C  12)               53.0461  0.000162 -0.0004   53.0457   
    23. B(H  19,H  13)               52.5037 -0.000063 -0.0000   52.5037   
    24. B(H  19,H  14)               52.9874 -0.000031  0.0003   52.9876   
    25. B(H  19,H  15)               52.6347 -0.000048 -0.0000   52.6347   
    26. A(S   1,C   0,C   3)          108.77  0.027856    0.00    108.77 C 
    27. A(C   2,S   1,H  17)          160.92  0.006761   -4.09    156.83   
    28. A(C   0,S   1,H  18)          117.60  0.027085   -2.42    115.18   
    29. A(C   2,S   1,H  18)          146.12 -0.000586    2.46    148.58   
    30. A(H  17,S   1,H  18)           52.34 -0.005979    1.49     53.83   
    31. A(C   0,S   1,H  17)           66.59  0.033995   -4.09     62.49   
    32. A(C   0,S   1,C   2)           94.34 -0.027229   -0.00     94.34 C 
    33. A(S   1,C   2,C   4)          109.23  0.034557    0.00    109.23 C 
    34. A(C   0,C   3,S   5)          131.76  0.049761    0.00    131.76 C 
    35. A(C   0,C   3,C   4)          114.92 -0.029410   -0.00    114.92 C 
    36. A(C   4,C   3,S   5)          113.32 -0.020351    0.00    113.32 C 
    37. A(C   2,C   4,C   7)          137.50 -0.008145    0.00    137.50 C 
    38. A(C   2,C   4,C   3)          112.75 -0.005774    0.00    112.75 C 
    39. A(C   3,C   4,C   7)          109.74  0.013919   -0.00    109.74 C 
    40. A(C   6,S   5,H  16)          147.75  0.013731   -1.47    146.28   
    41. A(C   3,S   5,C   6)           90.11  0.008966    0.00     90.11 C 
    42. A(C   3,S   5,H  16)           57.64  0.004763   -1.46     56.18   
    43. A(C   7,C   6,C   9)          131.55 -0.000728    0.00    131.55 C 
    44. A(S   5,C   6,C   7)          112.63 -0.002707    0.00    112.63 C 
    45. A(S   5,C   6,C   9)          115.82  0.003435    0.00    115.82 C 
    46. A(C   4,C   7,C   6)          114.19  0.000173   -0.00    114.19 C 
    47. A(C   4,C   7,F   8)          123.23  0.005152   -0.00    123.23 C 
    48. A(C   6,C   7,F   8)          122.58 -0.005325   -0.00    122.58 C 
    49. A(C   6,C   9,O  10)          123.27  0.000576   -0.00    123.27 C 
    50. A(C   6,C   9,O  11)          112.52  0.000700   -0.00    112.52 C 
    51. A(O  10,C   9,O  11)          124.22 -0.001276   -0.00    124.22 C 
    52. A(C   9,O  11,C  12)          114.97 -0.000364    0.00    114.97 C 
    53. A(O  11,C  12,H  15)          110.86  0.000073   -0.02    110.83   
    54. A(H  13,C  12,H  15)          110.51  0.000010   -0.00    110.51   
    55. A(H  14,C  12,H  15)          108.26 -0.000092    0.03    108.29   
    56. A(O  11,C  12,H  19)          161.53  0.000208   -0.06    161.47   
    57. A(H  13,C  12,H  19)           60.06 -0.000006    0.00     60.06   
    58. A(H  14,C  12,H  19)           86.37 -0.000082    0.03     86.40   
    59. A(H  15,C  12,H  19)           67.67 -0.000017    0.00     67.67   
    60. A(O  11,C  12,H  13)          105.86  0.000162   -0.04    105.82   
    61. A(O  11,C  12,H  14)          110.86 -0.000114    0.03    110.89   
    62. A(H  13,C  12,H  14)          110.50 -0.000034    0.01    110.51   
    63. A(C  12,H  13,H  19)          118.89  0.000003   -0.00    118.89   
    64. A(C  12,H  14,H  19)           92.44  0.000078   -0.03     92.41   
    65. A(C  12,H  15,H  19)          111.22  0.000013   -0.00    111.21   
    66. A(S   1,H  17,H  18)          126.44  0.006094   -1.52    124.92   
    67. D(C   2,S   1,C   0,C   3)      0.06  0.000391   -0.00      0.06 C 
    68. D(H  17,S   1,C   0,C   3)   -179.55  0.000593    0.02   -179.54   
    69. D(H  18,S   1,C   0,C   3)    168.34 -0.003094    0.65    168.99   
    70. D(C   4,C   2,S   1,C   0)      0.03 -0.000430    0.00      0.03 C 
    71. D(C   4,C   2,S   1,H  17)      1.10  0.000780   -0.21      0.89   
    72. D(C   4,C   2,S   1,H  18)   -161.13  0.000173    0.61   -160.52   
    73. D(C   4,C   3,C   0,S   1)     -0.14 -0.000244   -0.00     -0.14 C 
    74. D(S   5,C   3,C   0,S   1)    179.88 -0.000266   -0.00    179.88 C 
    75. D(C   7,C   4,C   3,C   0)   -179.84 -0.000136    0.00   -179.84 C 
    76. D(C   3,C   4,C   2,S   1)     -0.11  0.000323   -0.00     -0.11 C 
    77. D(C   7,C   4,C   3,S   5)      0.15 -0.000105    0.00      0.15 C 
    78. D(C   2,C   4,C   3,C   0)      0.17 -0.000143   -0.00      0.17 C 
    79. D(C   7,C   4,C   2,S   1)    179.90  0.000310   -0.00    179.90 C 
    80. D(C   2,C   4,C   3,S   5)   -179.84 -0.000112   -0.00   -179.84 C 
    81. D(C   6,S   5,C   3,C   0)    179.86  0.000124   -0.00    179.86 C 
    82. D(C   6,S   5,C   3,C   4)     -0.12  0.000104    0.00     -0.12 C 
    83. D(H  16,S   5,C   3,C   0)      0.46 -0.000142    0.08      0.54   
    84. D(H  16,S   5,C   3,C   4)   -179.53 -0.000162    0.08   -179.44   
    85. D(C   7,C   6,S   5,C   3)      0.06 -0.000068    0.00      0.06 C 
    86. D(C   7,C   6,S   5,H  16)      1.00 -0.000083    0.08      1.07   
    87. D(C   9,C   6,S   5,C   3)    179.93  0.000066    0.00    179.93 C 
    88. D(C   9,C   6,S   5,H  16)   -179.14  0.000050    0.08   -179.06   
    89. D(C   6,C   7,C   4,C   2)    179.89  0.000026   -0.00    179.89 C 
    90. D(C   6,C   7,C   4,C   3)     -0.10  0.000015    0.00     -0.10 C 
    91. D(F   8,C   7,C   4,C   2)     -0.13 -0.000071   -0.00     -0.13 C 
    92. D(F   8,C   7,C   4,C   3)    179.88 -0.000082    0.00    179.88 C 
    93. D(C   4,C   7,C   6,S   5)      0.02  0.000023   -0.00      0.02 C 
    94. D(C   4,C   7,C   6,C   9)   -179.82 -0.000144    0.00   -179.82 C 
    95. D(F   8,C   7,C   6,S   5)   -179.97  0.000118   -0.00   -179.97 C 
    96. D(F   8,C   7,C   6,C   9)      0.19 -0.000048    0.00      0.19 C 
    97. D(O  10,C   9,C   6,S   5)     -0.16 -0.000029   -0.00     -0.16 C 
    98. D(O  10,C   9,C   6,C   7)    179.67  0.000134    0.00    179.67 C 
    99. D(O  11,C   9,C   6,S   5)    179.86 -0.000277   -0.00    179.86 C 
   100. D(O  11,C   9,C   6,C   7)     -0.30 -0.000114   -0.00     -0.30 C 
   101. D(C  12,O  11,C   9,C   6)    179.83  0.000394   -0.00    179.83 C 
   102. D(C  12,O  11,C   9,O  10)     -0.14  0.000143    0.00     -0.14 C 
   103. D(H  13,C  12,O  11,C   9)   -179.99 -0.000070    0.03   -179.96   
   104. D(H  14,C  12,O  11,C   9)     60.15 -0.000064    0.03     60.18   
   105. D(H  15,C  12,O  11,C   9)    -60.12  0.000079   -0.01    -60.13   
   106. D(H  19,C  12,O  11,C   9)   -141.90 -0.000073    0.04   -141.86   
   107. D(H  19,H  13,C  12,O  11)    166.97  0.000144   -0.04    166.92   
   108. D(H  19,H  13,C  12,H  14)    -72.94  0.000085   -0.03    -72.97   
   109. D(H  19,H  13,C  12,H  15)     46.87 -0.000045    0.01     46.88   
   110. D(H  19,H  14,C  12,O  11)    173.16  0.000072   -0.02    173.14   
   111. D(H  19,H  14,C  12,H  13)     56.11 -0.000037    0.01     56.12   
   112. D(H  19,H  14,C  12,H  15)    -65.05  0.000030   -0.01    -65.06   
   113. D(H  19,H  15,C  12,O  11)   -160.19 -0.000214    0.06   -160.13   
   114. D(H  19,H  15,C  12,H  13)    -43.13  0.000036   -0.01    -43.14   
   115. D(H  19,H  15,C  12,H  14)     78.01 -0.000058    0.02     78.04   
   116. D(H  18,H  17,S   1,C   0)   -166.42  0.001846   -0.69   -167.11   
   117. D(H  18,H  17,S   1,C   2)   -167.59  0.000790   -0.50   -168.09   
    ----------------------------------------------------------------------------

         *************************************************************
         *                GEOMETRY OPTIMIZATION CYCLE   2            *
         *************************************************************
---------------------------------
CARTESIAN COORDINATES (ANGSTROEM)
---------------------------------
  C     -0.416772   -1.509232    0.082035
  S      0.868894   -2.704630    0.178791
  C      2.161922   -1.512191    0.146416
  C      0.157286   -0.234213    0.025798
  C      1.598215   -0.214715    0.062769
  S     -0.556591    1.364993   -0.082191
  C      1.057476    2.089667   -0.076263
  C      2.067162    1.142687    0.003001
  F      3.363277    1.471727    0.021953
  C      1.100878    3.558210   -0.157375
  O      0.098919    4.256118   -0.228368
  O      2.367004    4.041466   -0.144935
  C      2.470776    5.470522   -0.225731
  H      3.550977    5.695365   -0.204833
  H      1.957111    5.952876    0.629463
  H      2.014011    5.846477   -1.162672
  H     -1.532470   -0.185321   -0.006677
  H     -0.586512   -3.222201    0.161361
  H    -16.504377  -56.785569   12.808148
  H     19.658657   54.011375  -12.961804

----------------------------
CARTESIAN COORDINATES (A.U.)
----------------------------
  NO LB      ZA    FRAG     MASS         X           Y           Z
   0 C     6.0000    0    12.011   -0.787586   -2.852034    0.155024
   1 S    16.0000    0    32.060    1.641972   -5.111011    0.337867
   2 C     6.0000    0    12.011    4.085440   -2.857627    0.276686
   3 C     6.0000    0    12.011    0.297227   -0.442599    0.048752
   4 C     6.0000    0    12.011    3.020190   -0.405753    0.118616
   5 S    16.0000    0    32.060   -1.051804    2.579463   -0.155319
   6 C     6.0000    0    12.011    1.998341    3.948898   -0.144116
   7 C     6.0000    0    12.011    3.906370    2.159365    0.005671
   8 F     9.0000    0    18.998    6.355673    2.781160    0.041485
   9 C     6.0000    0    12.011    2.080358    6.724043   -0.297396
  10 O     8.0000    0    15.999    0.186930    8.042897   -0.431553
  11 O     8.0000    0    15.999    4.472989    7.637264   -0.273887
  12 C     6.0000    0    12.011    4.669090   10.337788   -0.426570
  13 H     1.0000    0     1.008    6.710375   10.762680   -0.387079
  14 H     1.0000    0     1.008    3.698404   11.249306    1.189512
  15 H     1.0000    0     1.008    3.805930   11.048241   -2.197131
  16 H     1.0000    0     1.008   -2.895949   -0.350205   -0.012617
  17 H     1.0000    0     1.008   -1.108348   -6.089078    0.304927
  18 H     1.0000    0     1.008  -31.188752  -107.309175   24.203892
  19 H     1.0000    0     1.008   37.149477  102.066708  -24.494260

--------------------------------
INTERNAL COORDINATES (ANGSTROEM)
--------------------------------
 C      0   0   0     0.000000000000     0.00000000     0.00000000
 S      1   0   0     1.758203085409     0.00000000     0.00000000
 C      2   1   0     1.759227005937    94.33556209     0.00000000
 C      1   2   3     1.399420123781   108.76620069     0.06405939
 C      3   2   1     1.417111675760   109.22701974     0.02807209
 S      4   1   2     1.754634345544   131.75721135   179.87599714
 C      6   4   1     1.769293603081    90.11106890   179.86251873
 C      7   6   4     1.386549300586   112.62935625     0.05822574
 F      8   7   6     1.337363670504   122.58250912   180.02772636
 C      7   6   4     1.471422022288   115.81750981   179.92500027
 O     10   7   6     1.223125900076   123.26514605   359.83564601
 O     10   7   6     1.355273297527   112.51510624   179.86246854
 C     12  10   7     1.435094933030   114.96794191   179.83349691
 H     13  12  10     1.103551636327   105.81913975   180.04055726
 H     13  12  10     1.108094691313   110.88528673    60.17519009
 H     13  12  10     1.108077043066   110.83367734   299.87285713
 H      4   1   2     1.690774752739    67.48994598   180.40300640
 H      2   1   3     1.544795095751    62.49973036   180.38460277
 H     18   2   1    57.291832147277   124.92533906   192.86886698
 H     14  13  12    52.503662076436   118.89416509   166.92365682

---------------------------
INTERNAL COORDINATES (A.U.)
---------------------------
 C      0   0   0     0.000000000000     0.00000000     0.00000000
 S      1   0   0     3.322522319239     0.00000000     0.00000000
 C      2   1   0     3.324457248619    94.33556209     0.00000000
 C      1   2   3     2.644520780245   108.76620069     0.06405939
 C      3   2   1     2.677952968369   109.22701974     0.02807209
 S      4   1   2     3.315778378251   131.75721135   179.87599714
 C      6   4   1     3.343480360323    90.11106890   179.86251873
 C      7   6   4     2.620198449288   112.62935625     0.05822574
 F      8   7   6     2.527251078709   122.58250912   180.02772636
 C      7   6   4     2.780584649545   115.81750981   179.92500027
 O     10   7   6     2.311372978450   123.26514605   359.83564601
 O     10   7   6     2.561095368943   112.51510624   179.86246854
 C     12  10   7     2.711936399605   114.96794191   179.83349691
 H     13  12  10     2.085410367298   105.81913975   180.04055726
 H     13  12  10     2.093995497033   110.88528673    60.17519009
 H     13  12  10     2.093962146681   110.83367734   299.87285713
 H      4   1   2     3.195101236826    67.48994598   180.40300640
 H      2   1   3     2.919239663993    62.49973036   180.38460277
 H     18   2   1   108.265872468939   124.92533906   192.86886698
 H     14  13  12    99.217542352411   118.89416509   166.92365682

 One Electron integrals                  ... done
 Pre-screening matrix                    ... done

Diagonalization of the overlap matrix:
Smallest eigenvalue                        ... 5.679e-04
Time for diagonalization                   ...    0.007 sec
Threshold for overlap eigenvalues          ... 1.000e-08
Number of eigenvalues below threshold      ... 0
Time for construction of square roots      ...    0.009 sec
Total time needed                          ...    0.017 sec

-------------------
DFT GRID GENERATION
-------------------

General Integration Accuracy     IntAcc      ...  4.340
Radial Grid Type                 RadialGrid  ... Gauss-Chebyshev
Angular Grid (max. acc.)         AngularGrid ... Lebedev-194
Angular grid pruning method      GridPruning ... 3 (G Style)
Weight generation scheme         WeightScheme... Becke
Basis function cutoff            BFCut       ...    1.0000e-11
Integration weight cutoff        WCut        ...    1.0000e-14
Grids for H and He will be reduced by one unit

# of grid points (after initial pruning)     ...  54228 (   0.0 sec)
# of grid points (after weights+screening)   ...  50318 (   0.1 sec)
nearest neighbour list constructed           ...    0.0 sec
Grid point re-assignment to atoms done       ...    0.0 sec
Grid point division into batches done        ...    0.1 sec
Reduced shell lists constructed in    0.4 sec

Total number of grid points                  ...    50318
Total number of batches                      ...      797
Average number of points per batch           ...       63
Average number of grid points per atom       ...     2516
Average number of shells per batch           ...    49.01 (47.59%)
Average number of basis functions per batch  ...   107.89 (47.95%)
Average number of large shells per batch     ...    35.54 (72.50%)
Average number of large basis fcns per batch ...    78.17 (72.45%)
Maximum spatial batch extension              ...  24.16, 21.59, 22.17 au
Average spatial batch extension              ...   3.21,  3.20,  3.67 au

Time for grid setup =    0.537 sec

--------------
SCF ITERATIONS
--------------
ITER       Energy         Delta-E        Max-DP      RMS-DP      [F,P]     Damp
               ***  Starting incremental Fock matrix formation  ***
  0  -1353.9815048952   0.000000000000 0.23361631  0.00199859  0.3030925 0.7000
  1  -1354.4221692526  -0.440664357470 0.16571312  0.00142306  0.1160695 0.7000
                               ***Turning on DIIS***
  2  -1354.5125619631  -0.090392710515 0.38157331  0.00329922  0.0364336 0.0000
  3  -1354.0386905422   0.473871420901 0.02648966  0.00016400  0.2232241 0.7000
  4  -1354.0440403833  -0.005349841106 0.02847405  0.00017468  0.2109566 0.7000
  5  -1354.0494094495  -0.005369066155 0.02627893  0.00015915  0.1978754 0.7000
  6  -1354.0541063672  -0.004696917683 0.02517624  0.00015093  0.1858785 0.7000
  7  -1354.0583673236  -0.004260956420 0.20994294  0.00195688  0.1744730 0.7000
  8  -1354.4506063940  -0.392239070361 0.56390952  0.00463246  0.0351011 0.0000
  9  -1353.9948131924   0.455793201513 0.00207464  0.00004359  0.3001129 0.7000
 10  -1353.9951888702  -0.000375677783 0.00248950  0.00005357  0.2995073 0.7000
 11  -1353.9955754157  -0.000386545476 0.00211221  0.00004795  0.2987477 0.7000
 12  -1353.9958970893  -0.000321673548 0.00602905  0.00004427  0.2980032 0.7000
 13  -1353.9974181707  -0.001521081488 0.22796628  0.00197091  0.2955729 0.7000
 14  -1354.4319802824  -0.434562111631 0.17791512  0.00141160  0.1112197 0.7000
 15  -1354.5178816843  -0.085901401954 0.37234493  0.00320351  0.0379178 0.0000
 16  -1354.0142724652   0.503609219112 0.01654838  0.00010060  0.2691887 0.7000
 17  -1354.0184093404  -0.004136875230 0.01826783  0.00011280  0.2619416 0.7000
 18  -1354.0228864118  -0.004477071369 0.02232949  0.00013905  0.2538287 0.7000
 19  -1354.0281954575  -0.005309045672 0.00905877  0.00005631  0.2436954 0.7000
               *** Restarting incremental Fock matrix formation ***
                                   *** Resetting DIIS ***
 20  -1354.0303499270  -0.002154469531 0.20729220  0.00194492  0.2396784 0.7000
 21  -1354.4433832793  -0.413033352270 0.58141578  0.00463189  0.0756761 0.0000
 22  -1353.9900473555   0.453335923831 0.00155212  0.00000993  0.3070172 0.7000
 23  -1353.9904754722  -0.000428116771 0.00173040  0.00001115  0.3064088 0.7000
 24  -1353.9909515568  -0.000476084611 0.00146930  0.00000968  0.3057295 0.7000
 25  -1353.9913549831  -0.000403426283 0.01693985  0.00009735  0.3051523 0.7000
 26  -1353.9959228732  -0.004567890108 0.23010489  0.00197067  0.2983282 0.7000
 27  -1354.4313774871  -0.435454613887 0.17776617  0.00141160  0.1130070 0.7000
 28  -1354.5177335369  -0.086356049740 0.37583799  0.00320558  0.0378669 0.0000
 29  -1354.0145316164   0.503201920473 0.01698642  0.00010181  0.2689086 0.7000
 30  -1354.0187399571  -0.004208340719 0.01876701  0.00011346  0.2614599 0.7000
 31  -1354.0233035582  -0.004563601105 0.02290539  0.00014039  0.2531109 0.7000
 32  -1354.0287293916  -0.005425833402 0.00881114  0.00005311  0.2426926 0.7000
 33  -1354.0308307631  -0.002101371492 0.20729217  0.00194468  0.2387891 0.7000
 34  -1354.4435327156  -0.412701952531 0.58162935  0.00463152  0.0751176 0.0000
 35  -1353.9900013809   0.453531334744 0.00082553  0.00001144  0.3071007 0.7000
 36  -1353.9902227627  -0.000221381832 0.00116805  0.00001544  0.3067775 0.7000
 37  -1353.9905306378  -0.000307875077 0.00180831  0.00001738  0.3063197 0.7000
 38  -1353.9910080516  -0.000477413761 0.01702028  0.00009794  0.3056096 0.7000
 39  -1353.9955997834  -0.004591731873 0.23042981  0.00197222  0.2987597 0.7000
               *** Restarting incremental Fock matrix formation ***
                                   *** Resetting DIIS ***
 40  -1354.4312282823  -0.435628498818 0.16571313  0.00139713  0.1132854 0.7000
 41  -1354.5185464071  -0.087318124847 0.38093040  0.00325568  0.0346018 0.0000
 42  -1354.0444248062   0.474121600865 0.00160196  0.00003402  0.2108738 0.7000
 43  -1354.0443021820   0.000122624239 0.00228581  0.00004849  0.2109568 0.7000
 44  -1354.0439901288   0.000312053174 0.00236355  0.00005026  0.2112331 0.7000
 45  -1354.0436177702   0.000372358582 0.00831185  0.00006196  0.2114712 0.7000
 46  -1354.0416592149   0.001958555353 0.20729219  0.00194369  0.2153705 0.7000
 47  -1354.4463468669  -0.404687652039 0.57593426  0.00464752  0.0604080 0.0000
 48  -1353.9900539259   0.456292941054 0.01551340  0.00011603  0.3048677 0.7000
 49  -1353.9934563702  -0.003402444297 0.01613903  0.00013687  0.2986266 0.7000
 50  -1353.9965019699  -0.003045599710 0.01206623  0.00011413  0.2920599 0.7000
 51  -1353.9985417751  -0.002039805216 0.01726835  0.00012084  0.2871354 0.7000
 52  -1354.0024808288  -0.003939053656 0.21667183  0.00198847  0.2799279 0.7000
[...]
   116. D(H  18,H  17,S   1,C   0)   -150.39  0.003953    4.71   -145.68   
   117. D(H  18,H  17,S   1,C   2)   -167.85  0.003664    4.76   -163.09   
    ----------------------------------------------------------------------------

         *************************************************************
         *                GEOMETRY OPTIMIZATION CYCLE  10            *
         *************************************************************
---------------------------------
CARTESIAN COORDINATES (ANGSTROEM)
---------------------------------
  C      1.400785   -2.075104    0.293078
  S      2.309633   -2.633849    1.690603
  C      2.880959   -1.028549    2.128187
  C      1.548884   -0.687741    0.185054
  C      2.371275   -0.083607    1.203248
  S      0.913181    0.468784   -0.971265
  C      1.731780    1.781824   -0.113231
  C      2.444486    1.335869    0.989354
  F      3.137634    2.161437    1.780887
  C      1.548594    3.128308   -0.677595
  O      0.880206    3.351499   -1.677336
  O      2.200436    4.081478    0.031866
  C      2.060149    5.416486   -0.475648
  H      2.635728    6.054255    0.198870
  H      1.007852    5.724141   -0.489102
  H      2.452967    5.489412   -1.497659
  H      0.883716   -1.416706   -0.885682
  H      1.605868   -3.482049    0.511941
  H    -22.552572  -54.371511   10.979898
  H     13.434282   55.319034  -14.336583

----------------------------
CARTESIAN COORDINATES (A.U.)
----------------------------
  NO LB      ZA    FRAG     MASS         X           Y           Z
   0 C     6.0000    0    12.011    2.647101   -3.921378    0.553836
   1 S    16.0000    0    32.060    4.364574   -4.977253    3.194777
   2 C     6.0000    0    12.011    5.444223   -1.943677    4.021691
   3 C     6.0000    0    12.011    2.926966   -1.299643    0.349701
   4 C     6.0000    0    12.011    4.481060   -0.157994    2.273810
   5 S    16.0000    0    32.060    1.725662    0.885874   -1.835425
   6 C     6.0000    0    12.011    3.272589    3.367159   -0.213975
   7 C     6.0000    0    12.011    4.619409    2.524426    1.869608
   8 F     9.0000    0    18.998    5.929269    4.084523    3.365389
   9 C     6.0000    0    12.011    2.926419    5.911645   -1.280469
  10 O     8.0000    0    15.999    1.663349    6.333414   -3.169705
  11 O     8.0000    0    15.999    4.158221    7.712875    0.060218
  12 C     6.0000    0    12.011    3.893118   10.235674   -0.898845
  13 H     1.0000    0     1.008    4.980804   11.440885    0.375810
  14 H     1.0000    0     1.008    1.904565   10.817059   -0.924269
  15 H     1.0000    0     1.008    4.635435   10.373486   -2.830165
  16 H     1.0000    0     1.008    1.669982   -2.677187   -1.673696
  17 H     1.0000    0     1.008    3.034650   -6.580119    0.967428
  18 H     1.0000    0     1.008  -42.618185  -102.747265   20.748999
  19 H     1.0000    0     1.008   25.387114  104.537824  -27.092216

--------------------------------
INTERNAL COORDINATES (ANGSTROEM)
--------------------------------
 C      0   0   0     0.000000000000     0.00000000     0.00000000
 S      1   0   0     1.758203081371     0.00000000     0.00000000
 C      2   1   0     1.759227008042    94.33556141     0.00000000
 C      1   2   3     1.399420121660   108.76620134     0.06405747
 C      3   2   1     1.417111674797   109.22702013     0.02807387
 S      4   1   2     1.754634343989   131.75721162   179.87599787
 C      6   4   1     1.769293599297    90.11106904   179.86251945
 C      7   6   4     1.386549298650   112.62935608     0.05822583
 F      8   7   6     1.337363667881   122.58250903   180.02772620
 C      7   6   4     1.471422022063   115.81750990   179.92500025
 O     10   7   6     1.223125897698   123.26514610   359.83564607
 O     10   7   6     1.355273294756   112.51510630   179.86246859
 C     12  10   7     1.435094932829   114.96794196   179.83349691
 H     13  12  10     1.092252943541   105.85921272   179.96617979
 H     13  12  10     1.096431512260   111.05021598    60.05647411
 H     13  12  10     1.097328302575   110.86711288   299.64539671
 H      1   2   3     1.445794366429   167.86079195    35.59389393
 H      1   2   3     1.438559996406    59.63995384   169.69468824
 H     18   1   2    57.296994990454   146.75538783   116.78769562
 H     14  13  12    52.487203863959   119.04203706   166.66400883

---------------------------
INTERNAL COORDINATES (A.U.)
---------------------------
 C      0   0   0     0.000000000000     0.00000000     0.00000000
 S      1   0   0     3.322522311609     0.00000000     0.00000000
 C      2   1   0     3.324457252597    94.33556141     0.00000000
 C      1   2   3     2.644520776236   108.76620134     0.06405747
 C      3   2   1     2.677952966548   109.22702013     0.02807387
 S      4   1   2     3.315778375311   131.75721162   179.87599787
 C      6   4   1     3.343480353172    90.11106904   179.86251945
 C      7   6   4     2.620198445630   112.62935608     0.05822583
 F      8   7   6     2.527251073751   122.58250903   180.02772620
 C      7   6   4     2.780584649120   115.81750990   179.92500025
 O     10   7   6     2.311372973955   123.26514610   359.83564607
 O     10   7   6     2.561095363706   112.51510630   179.86246859
 C     12  10   7     2.711936399225   114.96794196   179.83349691
 H     13  12  10     2.064058932262   105.85921272   179.96617979
 H     13  12  10     2.071955282772   111.05021598    60.05647411
 H     13  12  10     2.073649970867   110.86711288   299.64539671
 H      1   2   3     2.732155398518   167.86079195    35.59389393
 H      1   2   3     2.718484420422    59.63995384   169.69468824
 H     18   1   2   108.275628828616   146.75538783   116.78769562
 H     14  13  12    99.186440838177   119.04203706   166.66400883

 One Electron integrals                  ... done
 Pre-screening matrix                    ... done

Diagonalization of the overlap matrix:
Smallest eigenvalue                        ... 5.647e-04
Time for diagonalization                   ...    0.006 sec
Threshold for overlap eigenvalues          ... 1.000e-08
Number of eigenvalues below threshold      ... 0
Time for construction of square roots      ...    0.008 sec
Total time needed                          ...    0.014 sec

-------------------
DFT GRID GENERATION
-------------------

General Integration Accuracy     IntAcc      ...  4.340
Radial Grid Type                 RadialGrid  ... Gauss-Chebyshev
Angular Grid (max. acc.)         AngularGrid ... Lebedev-194
Angular grid pruning method      GridPruning ... 3 (G Style)
Weight generation scheme         WeightScheme... Becke
Basis function cutoff            BFCut       ...    1.0000e-11
Integration weight cutoff        WCut        ...    1.0000e-14
Grids for H and He will be reduced by one unit

# of grid points (after initial pruning)     ...  54228 (   0.0 sec)
# of grid points (after weights+screening)   ...  50363 (   0.1 sec)
nearest neighbour list constructed           ...    0.0 sec
Grid point re-assignment to atoms done       ...    0.0 sec
Grid point division into batches done        ...    0.1 sec
Reduced shell lists constructed in    0.4 sec

Total number of grid points                  ...    50363
Total number of batches                      ...      796
Average number of points per batch           ...       63
Average number of grid points per atom       ...     2518
Average number of shells per batch           ...    49.31 (47.87%)
Average number of basis functions per batch  ...   108.66 (48.29%)
Average number of large shells per batch     ...    35.79 (72.59%)
Average number of large basis fcns per batch ...    78.68 (72.41%)
Maximum spatial batch extension              ...  21.21, 21.59, 21.59 au
Average spatial batch extension              ...   3.58,  3.13,  3.55 au

Time for grid setup =    0.531 sec

--------------
SCF ITERATIONS
--------------
ITER       Energy         Delta-E        Max-DP      RMS-DP      [F,P]     Damp
               ***  Starting incremental Fock matrix formation  ***
  0  -1353.8917277114   0.000000000000 0.23437725  0.00211105  0.3040928 0.7000
  1  -1354.3693862355  -0.477658524092 0.16571316  0.00158224  0.1167163 0.7000
                               ***Turning on DIIS***
  2  -1354.4886359095  -0.119249673995 0.38281617  0.00379305  0.0676530 0.0000
  3  -1354.0825197613   0.406116148245 0.19750823  0.00193918  0.2232241 0.7000
  4  -1354.4894726249  -0.406952863616 0.58249106  0.00463511  0.0653145 0.0000
  5  -1354.0364114920   0.453061132942 0.00368360  0.00002617  0.3035969 0.7000
  6  -1354.0374231627  -0.001011670766 0.00391689  0.00003069  0.3021364 0.7000
  7  -1354.0384966933  -0.001073530553 0.00386866  0.00003098  0.3005789 0.7000
  8  -1354.0395536760  -0.001056982735 0.01549022  0.00009168  0.2990364 0.7000
  9  -1354.0436907186  -0.004137042603 0.22591197  0.00196674  0.2927208 0.7000
 10  -1354.4768492800  -0.433158561386 0.17750388  0.00140863  0.1093943 0.7000
 11  -1354.5622861698  -0.085436889772 0.36898956  0.00320025  0.0377771 0.0000
 12  -1354.0581756528   0.504110516936 0.01727456  0.00010342  0.2699865 0.7000
 13  -1354.0624660600  -0.004290407127 0.01904846  0.00011503  0.2624264 0.7000
 14  -1354.0671092058  -0.004643145880 0.02279765  0.00013952  0.2539675 0.7000
 15  -1354.0725246933  -0.005415487454 0.00886019  0.00005339  0.2436225 0.7000
 16  -1354.0746428200  -0.002118126681 0.20729216  0.00194472  0.2397049 0.7000
 17  -1354.4875600121  -0.412917192080 0.58189689  0.00463214  0.0756943 0.0000
 18  -1354.0339709981   0.453589013951 0.00074178  0.00000508  0.3072053 0.7000
 19  -1354.0341754214  -0.000204423281 0.00107236  0.00000696  0.3069150 0.7000
               *** Restarting incremental Fock matrix formation ***
                                   *** Resetting DIIS ***
 20  -1354.0344704270  -0.000295005585 0.23621247  0.00197686  0.3064949 0.7000
 21  -1354.4733861841  -0.438915757130 0.17737556  0.00141537  0.1182706 0.7000
 22  -1354.5612676261  -0.087881441988 0.38581371  0.00321210  0.0378894 0.0000
 23  -1354.0645982268   0.496669399275 0.01398908  0.00008471  0.2588961 0.7000
 24  -1354.0679870176  -0.003388790736 0.01364395  0.00008305  0.2526526 0.7000
 25  -1354.0712480776  -0.003261060069 0.01911028  0.00011792  0.2465115 0.7000
 26  -1354.0757076700  -0.004459592409 0.00618090  0.00003743  0.2377252 0.7000
 27  -1354.0771649379  -0.001457267821 0.20729217  0.00194402  0.2349626 0.7000
 28  -1354.4883873392  -0.411222401304 0.58137284  0.00462985  0.0726988 0.0000
 29  -1354.0341164286   0.454270910573 0.00072907  0.00000455  0.3070004 0.7000
 30  -1354.0343169708  -0.000200542204 0.00106184  0.00000638  0.3067149 0.7000
 31  -1354.0346086558  -0.000291684986 0.00168072  0.00000970  0.3062987 0.7000
 32  -1354.0350695465  -0.000460890712 0.01633298  0.00009359  0.3056388 0.7000
 33  -1354.0394853584  -0.004415811917 0.23065812  0.00197106  0.2990727 0.7000
 34  -1354.4752759380  -0.435790579640 0.17782177  0.00141200  0.1134863 0.7000
 35  -1354.5617996586  -0.086523720531 0.37674160  0.00320633  0.0378859 0.0000
 36  -1354.0588412660   0.502958392620 0.01695061  0.00010159  0.2688661 0.7000
 37  -1354.0630406549  -0.004199388922 0.01873379  0.00011323  0.2614328 0.7000
 38  -1354.0675964403  -0.004555785463 0.02296902  0.00014078  0.2530984 0.7000
 39  -1354.0730369228  -0.005440482492 0.00884793  0.00005330  0.2426492 0.7000
               *** Restarting incremental Fock matrix formation ***
                                   *** Resetting DIIS ***
 40  -1354.0751467775  -0.002109854665 0.20729219  0.00194455  0.2387285 0.7000
 41  -1354.4877193932  -0.412572615690 0.58125354  0.00463095  0.0750796 0.0000
 42  -1354.0341486461   0.453570747078 0.00150035  0.00000886  0.3069538 0.7000
 43  -1354.0345609881  -0.000412341984 0.00167727  0.00000995  0.3063655 0.7000
 44  -1354.0350213030  -0.000460314893 0.00142543  0.00000853  0.3057071 0.7000
 45  -1354.0354120472  -0.000390744239 0.01666802  0.00009559  0.3051472 0.7000
 46  -1354.0399123317  -0.004500284434 0.23018240  0.00197059  0.2984352 0.7000
 47  -1354.4754361646  -0.435523832934 0.17778590  0.00141163  0.1130756 0.7000
 48  -1354.5618501225  -0.086413957922 0.37596459  0.00320565  0.0378736 0.0000
 49  -1354.0587601962   0.503089926299 0.01698532  0.00010178  0.2690034 0.7000
 50  -1354.0629694751  -0.004209278913 0.01876999  0.00011343  0.2615568 0.7000
 51  -1354.0675353936  -0.004565918483 0.02295756  0.00014067  0.2532082 0.7000
 52  -1354.0729750513  -0.005439657726 0.00884657  0.00005328  0.2427673 0.7000
 53  -1354.0750852705  -0.002110219194 0.20729216  0.00194459  0.2388483 0.7000
 54  -1354.4877000052  -0.412614734639 0.58171834  0.00463158  0.0751550 0.0000
 55  -1354.0340208780   0.453679127171 0.00073806  0.00000610  0.3071355 0.7000
 56  -1354.0342236785  -0.000202800510 0.00106580  0.00000828  0.3068466 0.7000
 57  -1354.0345155729  -0.000291894403 0.00171492  0.00001117  0.3064290 0.7000
 58  -1354.0349844231  -0.000468850212 0.01704980  0.00009777  0.3057558 0.7000
 59  -1354.0395920360  -0.004607612867 0.23053258  0.00197106  0.2988961 0.7000
               *** Restarting incremental Fock matrix formation ***
                                   *** Resetting DIIS ***
 60  -1354.4753108691  -0.435718833148 0.16571316  0.00139710  0.1133735 0.7000
 61  -1354.5626944991  -0.087383629921 0.38142808  0.00325528  0.0346599 0.0000
 62  -1354.0888520818   0.473842417250 0.00145011  0.00001343  0.2106417 0.7000
 63  -1354.0885440904   0.000307991363 0.00221851  0.00001994  0.2113184 0.7000
 64  -1354.0880653857   0.000478704776 0.00209877  0.00002090  0.2123546 0.7000
 65  -1354.0876013819   0.000464003798 0.00945594  0.00006039  0.2133354 0.7000
 66  -1354.0855202020   0.002081179839 0.20729218  0.00194349  0.2177814 0.7000
 67  -1354.4908453308  -0.405325128785 0.57894734  0.00463098  0.0619152 0.0000
 68  -1354.0344161946   0.456429136194 0.00412778  0.00004326  0.3060506 0.7000
 69  -1354.0353758200  -0.000959625356 0.00450756  0.00005403  0.3044225 0.7000
 70  -1354.0363488467  -0.000973026755 0.00427386  0.00005170  0.3026387 0.7000
 71  -1354.0372436671  -0.000894820371 0.01449374  0.00008996  0.3009425 0.7000
 72  -1354.0409707665  -0.003727099372 0.22765097  0.00198335  0.2950702 0.7000
 73  -1354.4758973528  -0.434926586339 0.17655549  0.00140994  0.1109051 0.7000
 74  -1354.5619276941  -0.086030341326 0.37182992  0.00320049  0.0374522 0.0000
 75  -1354.0632442877   0.498683406402 0.01780876  0.00011224  0.2611730 0.7000
 76  -1354.0675152763  -0.004270988582 0.01885619  0.00012284  0.2532169 0.7000
 77  -1354.0718964317  -0.004381155341 0.01846140  0.00012138  0.2446773 0.7000
 78  -1354.0760646700  -0.004168238381 0.00573078  0.00004281  0.2362056 0.7000
 79  -1354.0773840655  -0.001319395431 0.20729217  0.00195846  0.2336671 0.7000
               *** Restarting incremental Fock matrix formation ***
                                   *** Resetting DIIS ***
 80  -1354.4881048699  -0.410720804377 0.55237710  0.00459721  0.0718895 0.0000
 81  -1354.0416871550   0.446417714880 0.00980086  0.00009640  0.2955018 0.7000
 82  -1354.0444880543  -0.002800899301 0.01073779  0.00011260  0.2915038 0.7000
 83  -1354.0473306071  -0.002842552785 0.00964738  0.00009738  0.2870881 0.7000
 84  -1354.0497068420  -0.002376234951 0.00803395  0.00007285  0.2830987 0.7000
 85  -1354.0516433712  -0.001936529179 0.21643478  0.00196247  0.2797627 0.7000
 86  -1354.4797789684  -0.428135597230 0.17685733  0.00140319  0.1010816 0.7000
 87  -1354.5630822754  -0.083303307010 0.35351015  0.00319044  0.0375557 0.0000
 88  -1354.0562011255   0.506881149904 0.01753029  0.00010937  0.2732368 0.7000
 89  -1354.0606024246  -0.004401299029 0.01978184  0.00012738  0.2656180 0.7000
 90  -1354.0654266386  -0.004824214054 0.02238389  0.00014424  0.2568854 0.7000
 91  -1354.0706997496  -0.005273110967 0.01042571  0.00006993  0.2468067 0.7000
 92  -1354.0731305257  -0.002430776164 0.20729218  0.00195748  0.2421932 0.7000
 93  -1354.4866527312  -0.413522205427 0.57418636  0.00462609  0.0772630 0.0000
 94  -1354.0360332598   0.450619471317 0.00666301  0.00011066  0.3041799 0.7000
 95  -1354.0376813679  -0.001648108077 0.00867144  0.00014075  0.3015300 0.7000
 96  -1354.0393802949  -0.001698926973 0.00744358  0.00011435  0.2980545 0.7000
 97  -1354.0406288981  -0.001248603241 0.01568215  0.00010759  0.2950600 0.7000
 98  -1354.0445948590  -0.003965960912 0.22290551  0.00197141  0.2886157 0.7000
 99  -1354.4771910936  -0.432596234544 0.17762652  0.00141320  0.1067597 0.7000
               *** Restarting incremental Fock matrix formation ***
                                   *** Resetting DIIS ***
100  -1354.5622675193  -0.085076425692 0.36407900  0.00322922  0.0378191 0.0000
101  -1354.0805897509   0.481677768420 0.00123370  0.00001882  0.2269181 0.7000
102  -1354.0802023125   0.000387438344 0.00157881  0.00002672  0.2274937 0.7000
103  -1354.0796815125   0.000520800048 0.00133106  0.00002827  0.2282293 0.7000
104  -1354.0791944058   0.000487106688 0.00110052  0.00002647  0.2288490 0.7000
105  -1354.0787862963   0.000408109490 0.20729218  0.00194783  0.2293140 0.7000
106  -1354.4888168549  -0.410030558580 0.58419530  0.00466066  0.0691308 0.0000
107  -1354.0315950326   0.457221822292 0.00698390  0.00005203  0.3081029 0.7000
108  -1354.0333542113  -0.001759178763 0.00725896  0.00006097  0.3053504 0.7000
109  -1354.0351012694  -0.001747058072 0.00659648  0.00005841  0.3024751 0.7000
110  -1354.0366473664  -0.001546097018 0.02226259  0.00013768  0.2998516 0.7000
111  -1354.0421060478  -0.005458681383 0.22451566  0.00200580  0.2907065 0.7000
112  -1354.4763049494  -0.434198901610 0.17439521  0.00140788  0.1081135 0.7000
113  -1354.5619078752  -0.085602925757 0.36670892  0.00320033  0.0367097 0.0000
114  -1354.0699085513   0.491999323916 0.01796696  0.00011972  0.2490501 0.7000
115  -1354.0740422235  -0.004133672266 0.01829320  0.00012970  0.2408037 0.7000
116  -1354.0780579342  -0.004015710637 0.01248972  0.00010068  0.2323027 0.7000
117  -1354.0806208722  -0.002562938043 0.00185349  0.00004230  0.2265016 0.7000
118  -1354.0809476271  -0.000326754886 0.20729218  0.00195584  0.2257168 0.7000
119  -1354.4894458800  -0.408498252928 0.57658769  0.00462644  0.0668942 0.0000
               *** Restarting incremental Fock matrix formation ***
                                   *** Resetting DIIS ***
120  -1354.0350011689   0.454444711158 0.23516396  0.00198087  0.3051245 0.7000
121  -1354.4736216013  -0.438620432466 0.17687582  0.00141460  0.1173836 0.7000
122  -1354.5613367078  -0.087715106411 0.38410113  0.00321106  0.0375620 0.0000
123  -1354.0661710316   0.495165676140 0.01385794  0.00008471  0.2560497 0.7000
124  -1354.0694980781  -0.003327046495 0.01350658  0.00008347  0.2498270 0.7000

               *****************************************************
               *                      ERROR                        *
               *        SCF NOT CONVERGED AFTER 125 CYCLES         *
               *****************************************************

  Last Energy change         ...   -3.3270e-03  Tolerance :   1.0000e-08
  Last MAX-Density change    ...    5.6486e-03  Tolerance :   1.0000e-07
     --------------------------------------------------------------------
                                      ERROR
     This wavefunction IS NOT CONVERGED! 
     And it is 'too far' from meeting the convergence thresholds.
     Aborting ...
     Please restart calculation (with larger maxiter?)
     --------------------------------------------------------------------



ORCA finished by error termination in SCF
Calling Command: /home/andrewk/orca_4_2_0_linux_x86-64_openmpi314/orca_scf PTB7_Input_Methylcarbonyl_3_Fluoro_Thienothiophene_2_Optimize_Monomer_Hydrogenated.gbw b 
[file orca_tools/qcmsg.cpp, line 458]: 
  .... aborting the run

