
                                 *****************
                                 * O   R   C   A *
                                 *****************

           --- An Ab Initio, DFT and Semiempirical electronic structure package ---

                  #######################################################
                  #                        -***-                        #
                  #          Department of theory and spectroscopy      #
                  #               Directorship: Frank Neese             #
                  #        Max Planck Institute fuer Kohlenforschung    #
                  #                Kaiser Wilhelm Platz 1               #
                  #                 D-45470 Muelheim/Ruhr               #
                  #                      Germany                        #
                  #                                                     #
                  #                  All rights reserved                #
                  #                        -***-                        #
                  #######################################################


                         Program Version 4.2.0 -  RELEASE  -


 With contributions from (in alphabetic order):
   Daniel Aravena         : Magnetic Suceptibility
   Michael Atanasov       : Ab Initio Ligand Field Theory (pilot matlab implementation)
   Alexander A. Auer      : GIAO ZORA, VPT2
   Ute Becker             : Parallelization
   Giovanni Bistoni       : ED, misc. LED, open-shell LED, HFLED
   Martin Brehm           : Molecular dynamics
   Dmytro Bykov           : SCF Hessian
   Vijay G. Chilkuri      : MRCI spin determinant printing, contributions to CSF-ICE
   Dipayan Datta          : RHF DLPNO-CCSD density
   Achintya Kumar Dutta   : EOM-CC, STEOM-CC
   Dmitry Ganyushin       : Spin-Orbit,Spin-Spin,Magnetic field MRCI
   Miquel Garcia          : C-PCM Hessian, Gaussian charge scheme
   Yang Guo               : DLPNO-NEVPT2, CIM, IAO-localization
   Andreas Hansen         : Spin unrestricted coupled pair/coupled cluster methods
   Benjamin Helmich-Paris : CASSCF linear response (MC-RPA)
   Lee Huntington         : MR-EOM, pCC
   Robert Izsak           : Overlap fitted RIJCOSX, COSX-SCS-MP3, EOM
   Christian Kollmar      : KDIIS, OOCD, Brueckner-CCSD(T), CCSD density
   Simone Kossmann        : Meta GGA functionals, TD-DFT gradient, OOMP2, MP2 Hessian
   Martin Krupicka        : AUTO-CI
   Lucas Lang             : DCDCAS
   Dagmar Lenk            : GEPOL surface, SMD
   Dimitrios Liakos       : Extrapolation schemes; Compound Job, initial MDCI parallelization
   Dimitrios Manganas     : Further ROCIS development; embedding schemes
   Dimitrios Pantazis     : SARC Basis sets
   Taras Petrenko         : DFT Hessian,TD-DFT gradient, ASA, ECA, R-Raman, ABS, FL, XAS/XES, NRVS
   Peter Pinski           : DLPNO-MP2, DLPNO-MP2 Gradient
   Christoph Reimann      : Effective Core Potentials
   Marius Retegan         : Local ZFS, SOC
   Christoph Riplinger    : Optimizer, TS searches, QM/MM, DLPNO-CCSD(T), (RO)-DLPNO pert. Triples
   Tobias Risthaus        : Range-separated hybrids, TD-DFT gradient, RPA, STAB
   Michael Roemelt        : Original ROCIS implementation
   Masaaki Saitow         : Open-shell DLPNO-CCSD energy and density
   Barbara Sandhoefer     : DKH picture change effects
   Avijit Sen             : IP-ROCIS
   Kantharuban Sivalingam : CASSCF convergence, NEVPT2, FIC-MRCI
   Bernardo de Souza      : ESD, SOC TD-DFT
   Georgi Stoychev        : AutoAux, RI-MP2 NMR
   Willem Van den Heuvel  : Paramagnetic NMR
   Boris Wezisla          : Elementary symmetry handling
   Frank Wennmohs         : Technical directorship


 We gratefully acknowledge several colleagues who have allowed us to
 interface, adapt or use parts of their codes:
   Stefan Grimme, W. Hujo, H. Kruse,             : VdW corrections, initial TS optimization,
                  C. Bannwarth                     DFT functionals, gCP, sTDA/sTD-DF
   Ed Valeev, F. Pavosevic, A. Kumar             : LibInt (2-el integral package), F12 methods
   Garnet Chan, S. Sharma, J. Yang, R. Olivares  : DMRG
   Ulf Ekstrom                                   : XCFun DFT Library
   Mihaly Kallay                                 : mrcc  (arbitrary order and MRCC methods)
   Andreas Klamt, Michael Diedenhofen            : otool_cosmo (COSMO solvation model)
   Jiri Pittner, Ondrej Demel                    : Mk-CCSD
   Frank Weinhold                                : gennbo (NPA and NBO analysis)
   Christopher J. Cramer and Donald G. Truhlar   : smd solvation model
   Lars Goerigk                                  : TD-DFT with DH, B97 family of functionals
   V. Asgeirsson, H. Jonsson                     : NEB implementation
   FAccTs GmbH                                   : IRC, NEB, NEB-TS, Multilevel, MM, QM/MM, CI optimization
   S Lehtola, MJT Oliveira, MAL Marques          : LibXC Library


 Your calculation uses the libint2 library for the computation of 2-el integrals
 For citations please refer to: http://libint.valeyev.net

 Your ORCA version has been built with support for libXC version: 4.2.3
 For citations please refer to: https://tddft.org/programs/libxc/

 This ORCA versions uses:
   CBLAS   interface :  Fast vector & matrix operations
   LAPACKE interface :  Fast linear algebra routines
   SCALAPACK package :  Parallel linear algebra routines


Your calculation utilizes the atom-pairwise dispersion correction
with the Becke-Johnson damping scheme (D3BJ)
Cite in your paper:
S.Grimme, S.Ehrlich, L.Goerigk, J Comput Chem, (2011), 32, 1456–1465 
S.Grimme, J.Antony, S.Ehrlich and H.Krieg, J.Chem.Phys., 132, (2010), 154104 
   

----- Orbital basis set information -----
Your calculation utilizes the basis: def2-SVP
   F. Weigend and R. Ahlrichs, Phys. Chem. Chem. Phys. 7, 3297 (2005).

----- AuxJ basis set information -----
Your calculation utilizes the auxiliary basis: def2/J
   F. Weigend, Phys. Chem. Chem. Phys. 8, 1057 (2006).

================================================================================
                                        WARNINGS
                       Please study these warnings very carefully!
================================================================================


WARNING: Geometry Optimization
  ===> : Switching off AutoStart
         For restart on a previous wavefunction, please use MOREAD

INFO   : the flag for use of LIBINT has been found!

================================================================================
                                       INPUT FILE
================================================================================
NAME = PTB7_Input_Noninteracting_Benzodithiophene_With_Sidechain_1_Optimize_Monomer.inp
|  1> ! RI BP86 def2-SVP def2/J D3BJ TIGHTSCF  Opt Grid3 FinalGrid5
|  2> %maxcore 3000
|  3> %geom
|  4> optimizehydrogens true
|  5> end
|  6> 
|  7> 
|  8> *xyz 0 1
|  9> C	-1.991911	1.464439	0.018867
| 10> C	-0.698245	0.947392	-0.075057
| 11> C	-0.366065	-0.450410	0.064164
| 12> C	-1.438365	-1.370985	0.269644
| 13> C	-2.733367	-0.841793	0.375229
| 14> C	-3.045765	0.551856	0.267610
| 15> S	0.722059	1.950989	-0.325913
| 16> C	1.773161	0.528674	-0.212600
| 17> C	1.053761	-0.643536	-0.010820
| 18> H	1.559329	-1.609290	0.098097
| 19> S	-4.171845	-1.806895	0.643944
| 20> C	-5.193593	-0.351880	0.622751
| 21> C	-4.447610	0.801891	0.410734
| 22> H	-4.885049	1.804361	0.340193
| 23> O	-2.213656	2.810274	-0.124053
| 24> C	-2.116630	3.552839	1.111702
| 25> C	-2.257475	5.049511	0.830590
| 26> H	-1.132492	3.325154	1.576875
| 27> H	-2.908097	3.207779	1.818502
| 28> C	-1.634517	5.866530	1.984823
| 29> C	-0.109465	5.755816	2.099566
| 30> H	-2.112663	5.568997	2.945660
| 31> H	-1.912644	6.931784	1.835220
| 32> H	0.224396	4.734841	2.376207
| 33> H	0.282762	6.445032	2.874431
| 34> H	0.387312	6.014053	1.141100
| 35> C	-3.718429	5.471759	0.572321
| 36> H	-1.662228	5.251476	-0.090103
| 37> C	-4.386766	4.906054	-0.685716
| 38> H	-3.760293	6.582259	0.535986
| 39> H	-4.327087	5.186002	1.459615
| 40> C	-5.828058	5.393600	-0.869224
| 41> H	-4.370558	3.796912	-0.655431
| 42> H	-3.779695	5.173458	-1.580075
| 43> C	-6.534189	4.764103	-2.073157
| 44> H	-5.833561	6.503391	-0.964463
| 45> H	-6.407507	5.170278	0.051930
| 46> H	-6.001149	4.992022	-3.020040
| 47> H	-7.577149	5.127044	-2.177845
| 48> H	-6.577229	3.658622	-1.977710
| 49> O	-1.337833	-2.720843	0.421176
| 50> C	-0.263138	-3.448751	-0.184124
| 51> C	-0.712252	-4.866174	-0.545807
| 52> H	0.589661	-3.506162	0.533685
| 53> H	0.081557	-2.908522	-1.088828
| 54> C	-1.424029	-5.585360	0.626217
| 55> C	-2.941589	-5.376161	0.679223
| 56> H	-0.963258	-5.264810	1.587238
| 57> H	-1.214799	-6.674464	0.543940
| 58> H	-3.204221	-4.305710	0.779025
| 59> H	-3.392673	-5.917197	1.536079
| 60> H	-3.426224	-5.751765	-0.246451
| 61> C	0.510758	-5.676094	-1.031284
| 62> H	-1.430801	-4.785233	-1.393735
| 63> C	1.330649	-5.050600	-2.168116
| 64> H	0.148686	-6.676604	-1.354516
| 65> H	1.178709	-5.869208	-0.159847
| 66> C	2.418452	-5.982464	-2.719335
| 67> H	1.816217	-4.110682	-1.822588
| 68> H	0.647978	-4.749835	-2.996118
| 69> C	3.287219	-5.328801	-3.798043
| 70> H	1.940099	-6.902899	-3.122944
| 71> H	3.061468	-6.327331	-1.878699
| 72> H	2.676518	-5.003389	-4.666474
| 73> H	4.064169	-6.023334	-4.177253
| 74> H	3.807156	-4.430597	-3.404504
| 75> H	-6.260025	-0.459480	0.755210
| 76> H	2.843348	0.639994	-0.305912
| 77> **                         ****END OF INPUT****
================================================================================

                       *****************************
                       * Geometry Optimization Run *
                       *****************************

Geometry optimization settings:
Update method            Update   .... BFGS
Choice of coordinates    CoordSys .... Z-matrix Internals
Initial Hessian          InHess   .... Almoef's Model

Convergence Tolerances:
Energy Change            TolE     ....  5.0000e-06 Eh
Max. Gradient            TolMAXG  ....  3.0000e-04 Eh/bohr
RMS Gradient             TolRMSG  ....  1.0000e-04 Eh/bohr
Max. Displacement        TolMAXD  ....  4.0000e-03 bohr
RMS Displacement         TolRMSD  ....  2.0000e-03 bohr
Strict Convergence                ....  False
------------------------------------------------------------------------------
                        ORCA OPTIMIZATION COORDINATE SETUP
------------------------------------------------------------------------------

The optimization will be done in new redundant internal coordinates
Making redundant internal coordinates   ...  (new redundants) done
Evaluating the initial hessian          ...  (Almloef) done
Evaluating the coordinates              ...  done
Calculating the B-matrix                .... done
Calculating the G-matrix                .... done
Diagonalizing the G-matrix              .... done
Imposing constraints:
 Iter   0:  RMS(Cart)=    0.0000000000 RMS(Int)=    0.0000000000
CONVERGED
Small eigenvalue found = 6.180e-04
Small eigenvalue found = 8.400e-04
Small eigenvalue found = 1.326e-03
Small eigenvalue found = 3.733e-03
Small eigenvalue found = 4.470e-03
Small eigenvalue found = 6.066e-03
Small eigenvalue found = 6.501e-03
Small eigenvalue found = 1.144e-02
Small eigenvalue found = 1.382e-02
Small eigenvalue found = 1.820e-02
Small eigenvalue found = 2.166e-02
Small eigenvalue found = 2.704e-02
The first mode is                       ....  186
The number of degrees of freedom        ....  198
Storing new coordinates                 .... done

    -----------------------------------------------------------------
                    Redundant Internal Coordinates


    -----------------------------------------------------------------
         Definition                    Initial Value    Approx d2E/dq
    -----------------------------------------------------------------
      1. B(C   1,C   0)                  1.3963         0.610440 C 
      2. B(C   2,C   1)                  1.4435         0.513389 C 
      3. B(C   3,C   2)                  1.4281         0.543164 C 
      4. B(C   4,C   3)                  1.4029         0.595805 C 
      5. B(C   5,C   0)                  1.4161         0.567709 C 
      6. B(C   5,C   4)                  1.4323         0.534909 C 
      7. B(S   6,C   1)                  1.7571         0.437343 C 
      8. B(C   7,S   6)                  1.7722         0.413768 C 
      9. B(C   8,C   2)                  1.4349         0.529866 C 
     10. B(C   8,C   7)                  1.3901         0.624608 C 
     11. B(H   9,C   8)                  1.0955         0.352884   
     12. B(S  10,C   4)                  1.7530         0.444054 C 
     13. B(C  11,S  10)                  1.7781         0.404936 C 
     14. B(C  12,C   5)                  1.4311         0.537152 C 
     15. B(C  12,C  11)                  1.3902         0.624360 C 
     16. B(H  13,C  12)                  1.0960         0.352215   
     17. B(O  14,C   0)                  1.3714         0.599066 C 
     18. B(C  15,O  14)                  1.4450         0.457290 C 
     19. B(C  16,C  15)                  1.5293         0.374478 C 
     20. B(H  17,C  15)                  1.1121         0.332027   
     21. B(H  18,C  15)                  1.1158         0.327514   
     22. B(C  19,C  16)                  1.5453         0.353199 C 
     23. B(C  20,C  19)                  1.5334         0.368986 C 
     24. B(H  21,C  19)                  1.1137         0.330058   
     25. B(H  22,C  19)                  1.1111         0.333265   
     26. B(H  23,C  20)                  1.1092         0.335543   
     27. B(H  24,C  20)                  1.1087         0.336159   
     28. B(H  25,C  20)                  1.1100         0.334574   
     29. B(C  26,C  16)                  1.5425         0.356775 C 
     30. B(H  27,C  16)                  1.1148         0.328740   
     31. B(C  28,C  26)                  1.5328         0.369806 C 
     32. B(H  29,C  26)                  1.1119         0.332285   
     33. B(H  30,C  26)                  1.1133         0.330573   
     34. B(C  31,C  28)                  1.5325         0.370096 C 
     35. B(H  32,C  28)                  1.1097         0.334992   
     36. B(H  33,C  28)                  1.1135         0.330297   
     37. B(C  34,C  31)                  1.5311         0.372035 C 
     38. B(H  35,C  31)                  1.1139         0.329851   
     39. B(H  36,C  31)                  1.1109         0.333454   
     40. B(H  37,C  34)                  1.1103         0.334278   
     41. B(H  38,C  34)                  1.1093         0.335506   
     42. B(H  39,C  34)                  1.1104         0.334065   
     43. B(O  40,C   3)                  1.3621         0.620105 C 
     44. B(C  41,O  40)                  1.4322         0.479228 C 
     45. B(C  42,C  41)                  1.5302         0.373258 C 
     46. B(H  43,C  41)                  1.1162         0.327105   
     47. B(H  44,C  41)                  1.1087         0.336229   
     48. B(C  45,C  42)                  1.5484         0.349177 C 
     49. B(C  46,C  45)                  1.5328         0.369714 C 
     50. B(H  47,C  45)                  1.1129         0.331003   
     51. B(H  48,C  45)                  1.1121         0.332059   
     52. B(H  49,C  46)                  1.1067         0.338663   
     53. B(H  50,C  46)                  1.1092         0.335535   
     54. B(H  51,C  46)                  1.1103         0.334192   
     55. B(C  52,C  42)                  1.5451         0.353383 C 
     56. B(H  53,C  42)                  1.1144         0.329249   
     57. B(C  54,C  52)                  1.5349         0.366940 C 
     58. B(H  55,C  52)                  1.1120         0.332114   
     59. B(H  56,C  52)                  1.1148         0.328702   
     60. B(C  57,C  54)                  1.5348         0.367081 C 
     61. B(H  58,C  54)                  1.1129         0.331010   
     62. B(H  59,C  54)                  1.1145         0.329118   
     63. B(C  60,C  57)                  1.5315         0.371455 C 
     64. B(H  61,C  57)                  1.1131         0.330840   
     65. B(H  62,C  57)                  1.1131         0.330759   
     66. B(H  63,C  60)                  1.1104         0.334082   
     67. B(H  64,C  60)                  1.1090         0.335852   
     68. B(H  65,C  60)                  1.1099         0.334659   
     69. B(H  66,C  11)                  1.0800         0.373574   
     70. B(H  67,C   7)                  1.0800         0.373575   
     71. A(C   1,C   0,O  14)          120.4087         0.427384 C 
     72. A(C   5,C   0,O  14)          122.0314         0.421871 C 
     73. A(C   1,C   0,C   5)          117.5597         0.426065 C 
     74. A(C   0,C   1,C   2)          124.4230         0.418479 C 
     75. A(C   2,C   1,S   6)          112.3865         0.415976 C 
     76. A(C   0,C   1,S   6)          123.1613         0.429044 C 
     77. A(C   1,C   2,C   3)          117.7300         0.409885 C 
     78. A(C   1,C   2,C   8)          110.6718         0.408090 C 
     79. A(C   3,C   2,C   8)          131.5858         0.412188 C 
     80. A(C   2,C   3,O  40)          126.8288         0.421143 C 
     81. A(C   4,C   3,O  40)          115.6953         0.428170 C 
     82. A(C   2,C   3,C   4)          117.4365         0.420882 C 
     83. A(C   5,C   4,S  10)          111.6072         0.420168 C 
     84. A(C   3,C   4,S  10)          124.1482         0.428349 C 
     85. A(C   3,C   4,C   5)          124.2432         0.419734 C 
     86. A(C   0,C   5,C  12)          129.3418         0.416447 C 
     87. A(C   0,C   5,C   4)          118.5508         0.416138 C 
     88. A(C   4,C   5,C  12)          112.0942         0.412066 C 
     89. A(C   1,S   6,C   7)           90.6813         0.422255 C 
     90. A(S   6,C   7,H  67)          119.9651         0.348884   
     91. A(C   8,C   7,H  67)          127.7547         0.355559   
     92. A(S   6,C   7,C   8)          112.2791         0.426554 C 
     93. A(C   2,C   8,H   9)          124.7581         0.342526   
     94. A(C   2,C   8,C   7)          113.9655         0.422571 C 
     95. A(C   7,C   8,H   9)          121.2643         0.352143   
     96. A(C   4,S  10,C  11)           91.0999         0.421776 C 
     97. A(C  12,C  11,H  66)          129.1428         0.355535   
     98. A(S  10,C  11,C  12)          111.8769         0.424880 C 
     99. A(S  10,C  11,H  66)          118.9753         0.347617   
    100. A(C   5,C  12,C  11)          113.3204         0.423573 C 
    101. A(C   5,C  12,H  13)          122.9770         0.343201   
    102. A(C  11,C  12,H  13)          123.6930         0.352007   
    103. A(C   0,O  14,C  15)          113.8487         0.403360 C 
    104. A(H  17,C  15,H  18)          107.4235         0.282956   
    105. A(O  14,C  15,C  16)          109.8488         0.373992 C 
    106. A(O  14,C  15,H  17)          108.1758         0.328864   
    107. A(C  16,C  15,H  17)          111.0232         0.320162   
    108. A(C  16,C  15,H  18)          110.7166         0.319447   
    109. A(O  14,C  15,H  18)          109.5833         0.328122   
    110. A(C  15,C  16,C  19)          110.0600         0.360039 C 
    111. A(C  15,C  16,C  26)          112.6991         0.360658 C 
    112. A(C  26,C  16,H  27)          108.5324         0.317127   
    113. A(C  19,C  16,C  26)          111.2324         0.357084 C 
    114. A(C  15,C  16,H  27)          106.2560         0.319642   
    115. A(C  19,C  16,H  27)          107.8091         0.316608   
    116. A(C  16,C  19,C  20)          114.7508         0.359134 C 
    117. A(C  16,C  19,H  21)          109.2741         0.316814   
    118. A(C  20,C  19,H  21)          110.0689         0.319080   
    119. A(C  16,C  19,H  22)          107.7839         0.317313   
    120. A(H  21,C  19,H  22)          105.3568         0.283460   
    121. A(C  20,C  19,H  22)          109.1635         0.319584   
    122. A(C  19,C  20,H  23)          112.6112         0.319940   
    123. A(C  19,C  20,H  24)          111.0547         0.320036   
    124. A(H  23,C  20,H  24)          106.9414         0.284569   
    125. A(C  19,C  20,H  25)          111.3278         0.319789   
    126. A(H  24,C  20,H  25)          107.4889         0.284441   
    127. A(H  23,C  20,H  25)          107.1444         0.284360   
    128. A(C  16,C  26,H  29)          108.3324         0.317682   
    129. A(C  28,C  26,H  29)          108.9885         0.319546   
    130. A(C  16,C  26,H  30)          108.3066         0.317415   
    131. A(H  29,C  26,H  30)          105.1780         0.283399   
    132. A(C  16,C  26,C  28)          116.7032         0.359887 C 
    133. A(C  28,C  26,H  30)          108.7252         0.319277   
    134. A(C  26,C  28,C  31)          113.0128         0.362144 C 
    135. A(C  26,C  28,H  32)          109.8848         0.319970   
    136. A(C  31,C  28,H  32)          109.5713         0.320011   
    137. A(C  26,C  28,H  33)          109.4434         0.319233   
    138. A(C  31,C  28,H  33)          109.8861         0.319274   
    139. A(H  32,C  28,H  33)          104.7135         0.283720   
    140. A(C  28,C  31,C  34)          113.3960         0.362515 C 
    141. A(C  28,C  31,H  35)          109.3807         0.319204   
    142. A(C  34,C  31,H  35)          109.8838         0.319476   
    143. A(C  28,C  31,H  36)          109.1047         0.319770   
    144. A(C  34,C  31,H  36)          109.1953         0.320043   
    145. A(H  35,C  31,H  36)          105.5812         0.283457   
    146. A(C  31,C  34,H  37)          111.3944         0.320173   
    147. A(C  31,C  34,H  38)          111.9199         0.320364   
    148. A(H  37,C  34,H  38)          107.6832         0.284316   
    149. A(C  31,C  34,H  39)          111.0750         0.320139   
    150. A(H  37,C  34,H  39)          107.2347         0.284126   
    151. A(H  38,C  34,H  39)          107.3018         0.284288   
    152. A(C   3,O  40,C  41)          120.8011         0.409204 C 
    153. A(O  40,C  41,C  42)          110.5141         0.376818 C 
    154. A(O  40,C  41,H  43)          109.1273         0.330604   
    155. A(C  42,C  41,H  43)          109.1840         0.319211   
    156. A(O  40,C  41,H  44)          109.3007         0.332113   
    157. A(C  42,C  41,H  44)          110.4708         0.320649   
    158. A(H  43,C  41,H  44)          108.1983         0.283454   
    159. A(C  41,C  42,C  45)          112.7209         0.359138 C 
    160. A(C  41,C  42,C  52)          109.1165         0.359871 C 
    161. A(C  45,C  42,C  52)          110.9908         0.355813 C 
    162. A(C  41,C  42,H  53)          107.5663         0.319552   
    163. A(C  45,C  42,H  53)          108.2568         0.316098   
    164. A(C  52,C  42,H  53)          108.0215         0.316714   
    165. A(C  42,C  45,C  46)          114.7018         0.358555 C 
    166. A(C  42,C  45,H  47)          109.2394         0.316371   
    167. A(C  46,C  45,H  47)          109.9208         0.319332   
    168. A(C  42,C  45,H  48)          108.2035         0.316535   
    169. A(C  46,C  45,H  48)          108.8136         0.319498   
    170. A(H  47,C  45,H  48)          105.5493         0.283426   
    171. A(C  45,C  46,H  49)          111.7201         0.320527   
    172. A(C  45,C  46,H  50)          111.2696         0.320042   
    173. A(H  49,C  46,H  50)          107.7949         0.284897   
    174. A(C  45,C  46,H  51)          110.9243         0.319832   
    175. A(H  49,C  46,H  51)          107.3856         0.284719   
    176. A(H  50,C  46,H  51)          107.5483         0.284308   
    177. A(C  42,C  52,C  54)          116.2262         0.358826 C 
    178. A(C  42,C  52,H  55)          107.7715         0.317161   
    179. A(C  54,C  52,H  55)          108.9832         0.319114   
    180. A(C  42,C  52,H  56)          108.6291         0.316629   
    181. A(C  54,C  52,H  56)          109.2386         0.318577   
    182. A(H  55,C  52,H  56)          105.4525         0.283127   
    183. A(C  52,C  54,C  57)          113.4024         0.361159 C 
    184. A(C  52,C  54,H  58)          110.3207         0.318940   
    185. A(C  57,C  54,H  58)          108.3638         0.318960   
    186. A(C  52,C  54,H  59)          109.4538         0.318642   
    187. A(C  57,C  54,H  59)          109.3402         0.318662   
    188. A(H  58,C  54,H  59)          105.6639         0.283036   
    189. A(C  54,C  57,C  60)          113.3203         0.361913 C 
    190. A(C  54,C  57,H  61)          109.1303         0.318934   
    191. A(C  60,C  57,H  61)          109.9573         0.319551   
    192. A(C  54,C  57,H  62)          109.0449         0.318921   
    193. A(C  60,C  57,H  62)          109.6611         0.319538   
    194. A(H  61,C  57,H  62)          105.4204         0.283232   
    195. A(C  57,C  60,H  65)          111.1846         0.320151   
    196. A(H  63,C  60,H  65)          107.3237         0.284178   
    197. A(H  64,C  60,H  65)          107.4493         0.284412   
    198. A(C  57,C  60,H  63)          111.3424         0.320060   
    199. A(C  57,C  60,H  64)          111.7747         0.320337   
    200. A(H  63,C  60,H  64)          107.5429         0.284336   
    201. D(C   2,C   1,C   0,C   5)      0.0007         0.025738 C 
    202. D(S   6,C   1,C   0,C   5)   -177.8847         0.025738 C 
    203. D(S   6,C   1,C   0,O  14)      1.9569         0.025738 C 
    204. D(C   2,C   1,C   0,O  14)    179.8423         0.025738 C 
    205. D(C   8,C   2,C   1,S   6)      1.2983         0.017966 C 
    206. D(C   8,C   2,C   1,C   0)   -176.7873         0.017966 C 
    207. D(C   3,C   2,C   1,S   6)   -179.8362         0.017966 C 
    208. D(C   3,C   2,C   1,C   0)      2.0782         0.017966 C 
    209. D(C   4,C   3,C   2,C   8)    176.0660         0.020166 C 
    210. D(O  40,C   3,C   2,C   1)    179.8791         0.020166 C 
    211. D(C   4,C   3,C   2,C   1)     -2.5148         0.020166 C 
    212. D(O  40,C   3,C   2,C   8)     -1.5401         0.020166 C 
    213. D(C   5,C   4,C   3,C   2)      1.1061         0.024453 C 
    214. D(C   5,C   4,C   3,O  40)    178.9798         0.024453 C 
    215. D(S  10,C   4,C   3,C   2)   -179.3547         0.024453 C 
    216. D(S  10,C   4,C   3,O  40)     -1.4810         0.024453 C 
    217. D(C   4,C   5,C   0,O  14)    178.6576         0.022101 C 
    218. D(C  12,C   5,C   4,C   3)    179.7821         0.019540 C 
    219. D(C   0,C   5,C   4,S  10)   -178.6073         0.019540 C 
    220. D(C   0,C   5,C   4,C   3)      0.9825         0.019540 C 
    221. D(C  12,C   5,C   0,O  14)      0.0958         0.022101 C 
    222. D(C  12,C   5,C   0,C   1)    179.9346         0.022101 C 
    223. D(C   4,C   5,C   0,C   1)     -1.5036         0.022101 C 
    224. D(C  12,C   5,C   4,S  10)      0.1923         0.019540 C 
    225. D(C   7,S   6,C   1,C   0)    176.9461         0.004300 C 
    226. D(C   7,S   6,C   1,C   2)     -1.1675         0.004300 C 
    227. D(C   8,C   7,S   6,C   1)      0.7458         0.003995 C 
    228. D(H  67,C   7,S   6,C   1)   -179.5974         0.003995   
    229. D(C   7,C   8,C   2,C   1)     -0.7417         0.019164 C 
    230. D(C   7,C   8,C   2,C   3)   -179.3991         0.019164 C 
    231. D(H   9,C   8,C   2,C   1)    178.0022         0.019164   
    232. D(C   2,C   8,C   7,S   6)     -0.1327         0.027021 C 
    233. D(H   9,C   8,C   7,H  67)      1.4506         0.027021   
    234. D(C   2,C   8,C   7,H  67)   -179.7567         0.027021   
    235. D(H   9,C   8,C   7,S   6)   -178.9254         0.027021   
    236. D(H   9,C   8,C   2,C   3)     -0.6552         0.019164   
    237. D(C  11,S  10,C   4,C   3)   -179.8940         0.004391 C 
    238. D(C  11,S  10,C   4,C   5)     -0.3037         0.004391 C 
    239. D(C  12,C  11,S  10,C   4)      0.3486         0.003885 C 
    240. D(H  66,C  11,S  10,C   4)    179.6086         0.003885   
    241. D(C  11,C  12,C   5,C   0)    178.7106         0.019709 C 
    242. D(H  13,C  12,C  11,S  10)    178.6040         0.026998   
    243. D(H  13,C  12,C   5,C   0)     -0.2061         0.019709   
    244. D(H  13,C  12,C   5,C   4)   -178.8427         0.019709   
    245. D(C   5,C  12,C  11,S  10)     -0.3038         0.026998 C 
    246. D(C  11,C  12,C   5,C   4)      0.0740         0.019709 C 
    247. D(C   5,C  12,C  11,H  66)   -179.4691         0.026998   
    248. D(H  13,C  12,C  11,H  66)     -0.5613         0.026998   
    249. D(C  15,O  14,C   0,C   1)    -88.6164         0.026206 C 
    250. D(C  15,O  14,C   0,C   5)     91.2179         0.026206 C 
    251. D(C  16,C  15,O  14,C   0)    175.0896         0.016472 C 
    252. D(H  17,C  15,O  14,C   0)     53.7606         0.016472   
    253. D(H  18,C  15,O  14,C   0)    -63.0669         0.016472   
    254. D(C  19,C  16,C  15,O  14)   -158.3358         0.011194 C 
    255. D(C  19,C  16,C  15,H  17)    -38.7306         0.011194   
    256. D(C  19,C  16,C  15,H  18)     80.4992         0.011194   
    257. D(C  26,C  16,C  15,O  14)     76.8684         0.011194 C 
    258. D(C  26,C  16,C  15,H  17)   -163.5263         0.011194   
    259. D(C  26,C  16,C  15,H  18)    -44.2965         0.011194   
    260. D(H  27,C  16,C  15,O  14)    -41.8720         0.011194   
    261. D(H  27,C  16,C  15,H  17)     77.7333         0.011194   
    262. D(H  27,C  16,C  15,H  18)   -163.0370         0.011194   
    263. D(C  20,C  19,C  16,C  15)     67.9955         0.010037 C 
    264. D(H  22,C  19,C  16,H  27)     74.3441         0.010037   
    265. D(C  20,C  19,C  16,H  27)    -47.4917         0.010037   
    266. D(H  21,C  19,C  16,C  15)    -56.1649         0.010037   
    267. D(H  21,C  19,C  16,C  26)     69.4690         0.010037   
    268. D(H  21,C  19,C  16,H  27)   -171.6521         0.010037   
    269. D(H  22,C  19,C  16,C  26)    -44.5348         0.010037   
    270. D(H  22,C  19,C  16,C  15)   -170.1687         0.010037   
    271. D(C  20,C  19,C  16,C  26)   -166.3706         0.010037 C 
    272. D(H  23,C  20,C  19,H  22)    172.8442         0.010888   
    273. D(H  23,C  20,C  19,C  16)    -66.0734         0.010888   
    274. D(H  24,C  20,C  19,C  16)    174.0212         0.010888   
    275. D(H  25,C  20,C  19,C  16)     54.2856         0.010888   
    276. D(H  23,C  20,C  19,H  21)     57.6649         0.010888   
    277. D(H  24,C  20,C  19,H  21)    -62.2404         0.010888   
    278. D(H  25,C  20,C  19,H  21)    178.0240         0.010888   
    279. D(H  25,C  20,C  19,H  22)    -66.7968         0.010888   
    280. D(H  24,C  20,C  19,H  22)     52.9388         0.010888   
    281. D(C  28,C  26,C  16,H  27)     52.0412         0.010225   
    282. D(C  28,C  26,C  16,C  15)    -65.3619         0.010225 C 
    283. D(C  28,C  26,C  16,C  19)    170.4858         0.010225 C 
    284. D(H  29,C  26,C  16,C  15)    171.2456         0.010225   
    285. D(H  29,C  26,C  16,C  19)     47.0933         0.010225   
    286. D(H  29,C  26,C  16,H  27)    -71.3512         0.010225   
    287. D(H  30,C  26,C  16,C  19)    -66.4940         0.010225   
    288. D(H  30,C  26,C  16,H  27)    175.0614         0.010225   
    289. D(H  30,C  26,C  16,C  15)     57.6583         0.010225   
    290. D(C  31,C  28,C  26,C  16)   -179.2466         0.010933 C 
    291. D(C  31,C  28,C  26,H  29)    -56.1924         0.010933   
    292. D(C  31,C  28,C  26,H  30)     57.9497         0.010933   
    293. D(H  32,C  28,C  26,C  16)     58.0259         0.010933   
    294. D(H  32,C  28,C  26,H  29)   -178.9199         0.010933   
    295. D(H  32,C  28,C  26,H  30)    -64.7778         0.010933   
    296. D(H  33,C  28,C  26,C  16)    -56.4371         0.010933   
    297. D(H  33,C  28,C  26,H  29)     66.6171         0.010933   
    298. D(H  33,C  28,C  26,H  30)   -179.2407         0.010933   
    299. D(H  36,C  31,C  28,H  33)   -176.9143         0.010949   
    300. D(C  34,C  31,C  28,H  32)    -53.3863         0.010949   
    301. D(C  34,C  31,C  28,H  33)     61.1488         0.010949   
    302. D(H  35,C  31,C  28,C  26)     60.6844         0.010949   
    303. D(H  35,C  31,C  28,H  32)   -176.4138         0.010949   
    304. D(H  35,C  31,C  28,H  33)    -61.8787         0.010949   
    305. D(H  36,C  31,C  28,C  26)    -54.3513         0.010949   
    306. D(C  34,C  31,C  28,C  26)   -176.2882         0.010949 C 
    307. D(H  36,C  31,C  28,H  32)     68.5506         0.010949   
    308. D(H  37,C  34,C  31,C  28)    -59.8706         0.011057   
    309. D(H  37,C  34,C  31,H  35)     62.8794         0.011057   
    310. D(H  37,C  34,C  31,H  36)    178.2431         0.011057   
    311. D(H  38,C  34,C  31,C  28)    179.5115         0.011057   
    312. D(H  38,C  34,C  31,H  35)    -57.7385         0.011057   
    313. D(H  38,C  34,C  31,H  36)     57.6251         0.011057   
    314. D(H  39,C  34,C  31,C  28)     59.6019         0.011057   
    315. D(H  39,C  34,C  31,H  35)   -177.6481         0.011057   
    316. D(H  39,C  34,C  31,H  36)    -62.2844         0.011057   
    317. D(C  41,O  40,C   3,C   2)    -28.6147         0.028213 C 
    318. D(C  41,O  40,C   3,C   4)    153.7430         0.028213 C 
    319. D(C  42,C  41,O  40,C   3)   -149.1400         0.018116 C 
    320. D(H  43,C  41,O  40,C   3)     90.7859         0.018116   
    321. D(H  44,C  41,O  40,C   3)    -27.3585         0.018116   
    322. D(C  45,C  42,C  41,O  40)    -49.2312         0.011126 C 
    323. D(C  45,C  42,C  41,H  43)     70.8087         0.011126   
    324. D(C  45,C  42,C  41,H  44)   -170.3203         0.011126   
    325. D(C  52,C  42,C  41,O  40)   -173.0217         0.011126 C 
    326. D(C  52,C  42,C  41,H  43)    -52.9818         0.011126   
    327. D(C  52,C  42,C  41,H  44)     65.8892         0.011126   
    328. D(H  53,C  42,C  41,O  40)     70.0309         0.011126   
    329. D(H  53,C  42,C  41,H  43)   -169.9291         0.011126   
    330. D(H  53,C  42,C  41,H  44)    -51.0581         0.011126   
    331. D(H  48,C  45,C  42,H  53)     92.4324         0.009827   
    332. D(C  46,C  45,C  42,C  52)   -147.6236         0.009827 C 
    333. D(C  46,C  45,C  42,H  53)    -29.2318         0.009827   
    334. D(H  47,C  45,C  42,C  41)    -34.2724         0.009827   
    335. D(H  47,C  45,C  42,C  52)     88.4752         0.009827   
    336. D(H  47,C  45,C  42,H  53)   -153.1330         0.009827   
    337. D(H  48,C  45,C  42,C  41)   -148.7070         0.009827   
    338. D(C  46,C  45,C  42,C  41)     89.6288         0.009827 C 
    339. D(H  48,C  45,C  42,C  52)    -25.9594         0.009827   
    340. D(H  49,C  46,C  45,C  42)    -59.6416         0.010928   
    341. D(H  49,C  46,C  45,H  47)     63.8965         0.010928   
    342. D(H  49,C  46,C  45,H  48)    179.0275         0.010928   
    343. D(H  50,C  46,C  45,C  42)    179.8223         0.010928   
    344. D(H  50,C  46,C  45,H  47)    -56.6396         0.010928   
    345. D(H  50,C  46,C  45,H  48)     58.4914         0.010928   
    346. D(H  51,C  46,C  45,C  42)     60.1374         0.010928   
    347. D(H  51,C  46,C  45,H  47)   -176.3245         0.010928   
    348. D(H  51,C  46,C  45,H  48)    -61.1935         0.010928   
    349. D(C  54,C  52,C  42,C  41)    -53.5209         0.010046 C 
    350. D(C  54,C  52,C  42,C  45)   -178.3288         0.010046 C 
    351. D(C  54,C  52,C  42,H  53)     63.1372         0.010046   
    352. D(H  55,C  52,C  42,C  41)   -176.1152         0.010046   
    353. D(H  55,C  52,C  42,C  45)     59.0769         0.010046   
    354. D(H  55,C  52,C  42,H  53)    -59.4571         0.010046   
    355. D(H  56,C  52,C  42,C  41)     70.0997         0.010046   
    356. D(H  56,C  52,C  42,C  45)    -54.7082         0.010046   
    357. D(H  56,C  52,C  42,H  53)   -173.2422         0.010046   
    358. D(C  57,C  54,C  52,C  42)   -172.7048         0.010775 C 
    359. D(C  57,C  54,C  52,H  55)    -50.7479         0.010775   
    360. D(C  57,C  54,C  52,H  56)     63.9909         0.010775   
    361. D(H  58,C  54,C  52,C  42)     65.5364         0.010775   
    362. D(H  58,C  54,C  52,H  55)   -172.5067         0.010775   
    363. D(H  58,C  54,C  52,H  56)    -57.7679         0.010775   
    364. D(H  59,C  54,C  52,C  42)    -50.3219         0.010775   
    365. D(H  59,C  54,C  52,H  55)     71.6351         0.010775   
    366. D(H  59,C  54,C  52,H  56)   -173.6262         0.010775   
    367. D(H  62,C  57,C  54,H  59)   -176.7123         0.010782   
    368. D(C  60,C  57,C  54,H  58)    -53.8610         0.010782   
    369. D(C  60,C  57,C  54,H  59)     60.8477         0.010782   
    370. D(H  61,C  57,C  54,C  52)     60.4094         0.010782   
    371. D(H  61,C  57,C  54,H  58)   -176.7453         0.010782   
    372. D(H  61,C  57,C  54,H  59)    -62.0365         0.010782   
    373. D(H  62,C  57,C  54,C  52)    -54.2663         0.010782   
    374. D(C  60,C  57,C  54,C  52)   -176.7064         0.010782 C 
    375. D(H  62,C  57,C  54,H  58)     68.5790         0.010782   
    376. D(H  63,C  60,C  57,C  54)    -59.7474         0.011025   
    377. D(H  63,C  60,C  57,H  61)     62.6788         0.011025   
    378. D(H  63,C  60,C  57,H  62)    178.1554         0.011025   
    379. D(H  64,C  60,C  57,C  54)    179.9505         0.011025   
    380. D(H  64,C  60,C  57,H  61)    -57.6233         0.011025   
    381. D(H  64,C  60,C  57,H  62)     57.8532         0.011025   
    382. D(H  65,C  60,C  57,C  54)     59.8762         0.011025   
    383. D(H  65,C  60,C  57,H  61)   -177.6976         0.011025   
    384. D(H  65,C  60,C  57,H  62)    -62.2210         0.011025   
    -----------------------------------------------------------------

Number of atoms                         .... 68
Number of degrees of freedom            .... 384

         *************************************************************
         *                GEOMETRY OPTIMIZATION CYCLE   1            *
         *************************************************************
---------------------------------
CARTESIAN COORDINATES (ANGSTROEM)
---------------------------------
  C     -1.991911    1.464439    0.018867
  C     -0.698245    0.947392   -0.075057
  C     -0.366065   -0.450410    0.064164
  C     -1.438365   -1.370985    0.269644
  C     -2.733367   -0.841793    0.375229
  C     -3.045765    0.551856    0.267610
  S      0.722059    1.950989   -0.325913
  C      1.773161    0.528674   -0.212600
  C      1.053761   -0.643536   -0.010820
  H      1.559329   -1.609290    0.098097
  S     -4.171845   -1.806895    0.643944
  C     -5.193593   -0.351880    0.622751
  C     -4.447610    0.801891    0.410734
  H     -4.885049    1.804361    0.340193
  O     -2.213656    2.810274   -0.124053
  C     -2.116630    3.552839    1.111702
  C     -2.257475    5.049511    0.830590
  H     -1.132492    3.325154    1.576875
  H     -2.908097    3.207779    1.818502
  C     -1.634517    5.866530    1.984823
  C     -0.109465    5.755816    2.099566
  H     -2.112663    5.568997    2.945660
  H     -1.912644    6.931784    1.835220
  H      0.224396    4.734841    2.376207
  H      0.282762    6.445032    2.874431
  H      0.387312    6.014053    1.141100
  C     -3.718429    5.471759    0.572321
  H     -1.662228    5.251476   -0.090103
  C     -4.386766    4.906054   -0.685716
  H     -3.760293    6.582259    0.535986
  H     -4.327087    5.186002    1.459615
  C     -5.828058    5.393600   -0.869224
  H     -4.370558    3.796912   -0.655431
  H     -3.779695    5.173458   -1.580075
  C     -6.534189    4.764103   -2.073157
  H     -5.833561    6.503391   -0.964463
  H     -6.407507    5.170278    0.051930
  H     -6.001149    4.992022   -3.020040
  H     -7.577149    5.127044   -2.177845
  H     -6.577229    3.658622   -1.977710
  O     -1.337833   -2.720843    0.421176
  C     -0.263138   -3.448751   -0.184124
  C     -0.712252   -4.866174   -0.545807
  H      0.589661   -3.506162    0.533685
  H      0.081557   -2.908522   -1.088828
  C     -1.424029   -5.585360    0.626217
  C     -2.941589   -5.376161    0.679223
  H     -0.963258   -5.264810    1.587238
  H     -1.214799   -6.674464    0.543940
  H     -3.204221   -4.305710    0.779025
  H     -3.392673   -5.917197    1.536079
  H     -3.426224   -5.751765   -0.246451
  C      0.510758   -5.676094   -1.031284
  H     -1.430801   -4.785233   -1.393735
  C      1.330649   -5.050600   -2.168116
  H      0.148686   -6.676604   -1.354516
  H      1.178709   -5.869208   -0.159847
  C      2.418452   -5.982464   -2.719335
  H      1.816217   -4.110682   -1.822588
  H      0.647978   -4.749835   -2.996118
  C      3.287219   -5.328801   -3.798043
  H      1.940099   -6.902899   -3.122944
  H      3.061468   -6.327331   -1.878699
  H      2.676518   -5.003389   -4.666474
  H      4.064169   -6.023334   -4.177253
  H      3.807156   -4.430597   -3.404504
  H     -6.260025   -0.459480    0.755210
  H      2.843348    0.639994   -0.305912

----------------------------
CARTESIAN COORDINATES (A.U.)
----------------------------
  NO LB      ZA    FRAG     MASS         X           Y           Z
   0 C     6.0000    0    12.011   -3.764166    2.767389    0.035653
   1 C     6.0000    0    12.011   -1.319492    1.790311   -0.141837
   2 C     6.0000    0    12.011   -0.691763   -0.851152    0.121252
   3 C     6.0000    0    12.011   -2.718116   -2.590786    0.509553
   4 C     6.0000    0    12.011   -5.165315   -1.590758    0.709080
   5 C     6.0000    0    12.011   -5.755662    1.042857    0.505710
   6 S    16.0000    0    32.060    1.364494    3.686835   -0.615886
   7 C     6.0000    0    12.011    3.350789    0.999049   -0.401756
   8 C     6.0000    0    12.011    1.991320   -1.216107   -0.020447
   9 H     1.0000    0     1.008    2.946705   -3.041117    0.185376
  10 S    16.0000    0    32.060   -7.883645   -3.414537    1.216878
  11 C     6.0000    0    12.011   -9.814468   -0.664957    1.176829
  12 C     6.0000    0    12.011   -8.404765    1.515354    0.776175
  13 H     1.0000    0     1.008   -9.231405    3.409748    0.642872
  14 O     8.0000    0    15.999   -4.183204    5.310648   -0.234426
  15 C     6.0000    0    12.011   -3.999851    6.713893    2.100812
  16 C     6.0000    0    12.011   -4.266010    9.542193    1.569588
  17 H     1.0000    0     1.008   -2.140100    6.283630    2.979862
  18 H     1.0000    0     1.008   -5.495507    6.061824    3.436471
  19 C     6.0000    0    12.011   -3.088789   11.086135    3.750772
  20 C     6.0000    0    12.011   -0.206859   10.876916    3.967605
  21 H     1.0000    0     1.008   -3.992354   10.523879    5.566491
  22 H     1.0000    0     1.008   -3.614373   13.099173    3.468063
  23 H     1.0000    0     1.008    0.424047    8.947553    4.490380
  24 H     1.0000    0     1.008    0.534343   12.179345    5.431887
  25 H     1.0000    0     1.008    0.731914   11.364913    2.156366
  26 C     6.0000    0    12.011   -7.026812   10.340126    1.081530
  27 H     1.0000    0     1.008   -3.141156    9.923851   -0.170270
  28 C     6.0000    0    12.011   -8.289786    9.271098   -1.295815
  29 H     1.0000    0     1.008   -7.105924   12.438667    1.012867
  30 H     1.0000    0     1.008   -8.177009    9.800124    2.758273
  31 C     6.0000    0    12.011  -11.013434   10.192427   -1.642595
  32 H     1.0000    0     1.008   -8.259158    7.175124   -1.238585
  33 H     1.0000    0     1.008   -7.142588    9.776419   -2.985909
  34 C     6.0000    0    12.011  -12.347828    9.002850   -3.917699
  35 H     1.0000    0     1.008  -11.023833   12.289628   -1.822571
  36 H     1.0000    0     1.008  -12.108433    9.770409    0.098133
  37 H     1.0000    0     1.008  -11.340528    9.433554   -5.707049
  38 H     1.0000    0     1.008  -14.318736    9.688709   -4.115531
  39 H     1.0000    0     1.008  -12.429162    6.913794   -3.737330
  40 O     8.0000    0    15.999   -2.528138   -5.141648    0.795907
  41 C     6.0000    0    12.011   -0.497259   -6.517195   -0.347944
  42 C     6.0000    0    12.011   -1.345961   -9.195736   -1.031426
  43 H     1.0000    0     1.008    1.114298   -6.625686    1.008518
  44 H     1.0000    0     1.008    0.154120   -5.496310   -2.057587
  45 C     6.0000    0    12.011   -2.691025  -10.554801    1.183379
  46 C     6.0000    0    12.011   -5.558798  -10.159472    1.283545
  47 H     1.0000    0     1.008   -1.820294   -9.949049    2.999445
  48 H     1.0000    0     1.008   -2.295637  -12.612909    1.027898
  49 H     1.0000    0     1.008   -6.055100   -8.136613    1.472144
  50 H     1.0000    0     1.008   -6.411223  -11.181882    2.902769
  51 H     1.0000    0     1.008   -6.474625  -10.869261   -0.465725
  52 C     6.0000    0    12.011    0.965193  -10.726263   -1.948844
  53 H     1.0000    0     1.008   -2.703822   -9.042780   -2.633777
  54 C     6.0000    0    12.011    2.514562   -9.544251   -4.097145
  55 H     1.0000    0     1.008    0.280976  -12.616953   -2.559664
  56 H     1.0000    0     1.008    2.227437  -11.091196   -0.302067
  57 C     6.0000    0    12.011    4.570212  -11.305219   -5.138798
  58 H     1.0000    0     1.008    3.432153   -7.768063   -3.444192
  59 H     1.0000    0     1.008    1.224501   -8.975887   -5.661842
  60 C     6.0000    0    12.011    6.211944  -10.069975   -7.177261
  61 H     1.0000    0     1.008    3.666256  -13.044589   -5.901509
  62 H     1.0000    0     1.008    5.785336  -11.956923   -3.550227
  63 H     1.0000    0     1.008    5.057886   -9.455035   -8.818358
  64 H     1.0000    0     1.008    7.680166  -11.382452   -7.893864
  65 H     1.0000    0     1.008    7.194482   -8.372615   -6.433580
  66 H     1.0000    0     1.008  -11.829733   -0.868291    1.427140
  67 H     1.0000    0     1.008    5.373149    1.209413   -0.578090

--------------------------------
INTERNAL COORDINATES (ANGSTROEM)
--------------------------------
 C      0   0   0     0.000000000000     0.00000000     0.00000000
 C      1   0   0     1.396327697047     0.00000000     0.00000000
 C      2   1   0     1.443459895683   124.42301042     0.00000000
 C      3   2   1     1.428113318692   117.72999614     2.07820285
 C      4   3   2     1.402933549778   117.43649838   357.48519689
 C      1   2   3     1.416082294662   117.55970971     0.00000000
 S      2   1   3     1.757099633931   123.16133824   182.11459689
 C      7   2   1     1.772183740360    90.68133189   176.94608534
 C      8   7   2     1.390081944527   112.27914919     0.74578905
 H      9   8   7     1.095510248254   121.26429546   181.07455514
 S      5   4   3     1.752954243017   124.14819780   180.64525889
 C     11   5   4     1.778057020733    91.09988339   180.10602672
 C     12  11   5     1.390190406030   111.87690443     0.34859678
 H     13  12  11     1.096026921340   123.69303515   178.60398927
 O      1   2   3     1.371447709047   120.40868950   179.84226380
 C     15   1   2     1.444959253379   113.84869651   271.38358868
 C     16  15   1     1.529342455486   109.84876325   175.08960074
 H     16  15   1     1.112094412448   108.17580124    53.76060203
 H     16  15   1     1.115819275550   109.58326061   296.93311295
 C     17  16  15     1.545267140146   110.05996170   201.66418234
 C     20  17  16     1.533364649569   114.75083588    67.99551957
 H     20  17  16     1.113713259315   109.27406216   303.83508745
 H     20  17  16     1.111081351771   107.78391244   189.83127676
 H     21  20  17     1.109226469585   112.61116765   293.92658495
 H     21  20  17     1.108727415738   111.05472361   174.02123933
 H     21  20  17     1.110013877865   111.32779044    54.28559735
 C     17  16  15     1.542524826374   112.69910989    76.86844011
 H     17  16  15     1.114802427555   106.25598775   318.12801251
 C     27  17  16     1.532760120163   116.70324512   294.63807292
 H     27  17  16     1.111882672192   108.33242504   171.24560783
 H     27  17  16     1.113288941133   108.30663586    57.65829538
 C     29  27  17     1.532546546583   113.01281878   180.75337071
 H     29  27  17     1.109673761361   109.88480719    58.02587647
 H     29  27  17     1.113516106367   109.44342256   303.56291331
 C     32  29  27     1.531124466090   113.39596344   183.71183303
 H     32  29  27     1.113883662602   109.38069911    60.68435026
 H     32  29  27     1.110926888234   109.10471621   305.64872968
 H     35  32  29     1.110254983258   111.39439546   300.12944350
 H     35  32  29     1.109257097532   111.91989038   179.51151902
 H     35  32  29     1.110428211444   111.07504658    59.60193809
 O      4   3   2     1.362051852982   126.82878975   179.87908424
 C     41   4   3     1.432203717873   120.80106155   331.38527826
 C     42  41   4     1.530230681438   110.51408080   210.85998685
 H     42  41   4     1.116159449990   109.12727361    90.78594616
 H     42  41   4     1.108670980536   109.30066707   332.64146488
 C     43  42  41     1.548384725093   112.72092767   310.76875075
 C     46  43  42     1.532828174075   114.70177163    89.62876608
 H     46  43  42     1.112934669863   109.23938769   325.72755405
 H     46  43  42     1.112067543113   108.20352059   211.29298732
 H     47  46  43     1.106707436511   111.72005399   300.35841055
 H     47  46  43     1.109233488986   111.26955766   179.82234710
 H     47  46  43     1.110325088574   110.92431285    60.13740679
 C     43  42  41     1.545125167755   109.11651009   186.97825729
 H     43  42  41     1.114381444599   107.56632015    70.03093945
 C     53  43  42     1.534878168501   116.22624535   306.47909330
 H     53  43  42     1.112023074899   107.77152445   183.88479295
 H     53  43  42     1.114833620038   108.62910608    70.09969292
 C     55  53  43     1.534773034447   113.40240591   187.29515846
 H     55  53  43     1.112929345526   110.32071992    65.53638481
 H     55  53  43     1.114489385984   109.45375172   309.67811566
 C     58  55  53     1.531549009050   113.32031178   183.29364407
 H     58  55  53     1.113068913731   109.13032684    60.40938125
 H     58  55  53     1.113135979313   109.04487893   305.73366445
 H     61  58  55     1.110414824697   111.34236649   300.25262534
 H     61  58  55     1.108975930618   111.77474356   179.95046624
 H     61  58  55     1.109944977963   111.18463110    59.87623042
 H     12  11   5     1.080000165419   118.97534261   179.60856936
 H      8   7   2     1.079999762367   119.96513228   180.40258654

---------------------------
INTERNAL COORDINATES (A.U.)
---------------------------
 C      0   0   0     0.000000000000     0.00000000     0.00000000
 C      1   0   0     2.638676940628     0.00000000     0.00000000
 C      2   1   0     2.727743888139   124.42301042     0.00000000
 C      3   2   1     2.698743060533   117.72999614     2.07820285
 C      4   3   2     2.651160193171   117.43649838   357.48519689
 C      1   2   3     2.676007720005   117.55970971     0.00000000
 S      2   1   3     3.320437098143   123.16133824   182.11459689
 C      7   2   1     3.348941928269    90.68133189   176.94608534
 C      8   7   2     2.626874178865   112.27914919     0.74578905
 H      9   8   7     2.070214346104   121.26429546   181.07455514
 S      5   4   3     3.312603444598   124.14819780   180.64525889
 C     11   5   4     3.360040819681    91.09988339   180.10602672
 C     12  11   5     2.627079141402   111.87690443     0.34859678
 H     13  12  11     2.071190716737   123.69303515   178.60398927
 O      1   2   3     2.591660577092   120.40868950   179.84226380
 C     15   1   2     2.730577263562   113.84869651   271.38358868
 C     16  15   1     2.890038405848   109.84876325   175.08960074
 H     16  15   1     2.101553874591   108.17580124    53.76060203
 H     16  15   1     2.108592845740   109.58326061   296.93311295
 C     17  16  15     2.920131698623   110.05996170   201.66418234
 C     20  17  16     2.897639251122   114.75083588    67.99551957
 H     20  17  16     2.104613051822   109.27406216   303.83508745
 H     20  17  16     2.099639467355   107.78391244   189.83127676
 H     21  20  17     2.096134248011   112.61116765   293.92658495
 H     21  20  17     2.095191172916   111.05472361   174.02123933
 H     21  20  17     2.097622234018   111.32779044    54.28559735
 C     17  16  15     2.914949476622   112.69910989    76.86844011
 H     17  16  15     2.106671281510   106.25598775   318.12801251
 C     27  17  16     2.896496856105   116.70324512   294.63807292
 H     27  17  16     2.101153743496   108.33242504   171.24560783
 H     27  17  16     2.103811206665   108.30663586    57.65829538
 C     29  27  17     2.896093260529   113.01281878   180.75337071
 H     29  27  17     2.096979506971   109.88480719    58.02587647
 H     29  27  17     2.104240486743   109.44342256   303.56291331
 C     32  29  27     2.893405917856   113.39596344   183.71183303
 H     32  29  27     2.104935067366   109.38069911    60.68435026
 H     32  29  27     2.099347573571   109.10471621   305.64872968
 H     35  32  29     2.098077857180   111.39439546   300.12944350
 H     35  32  29     2.096192126444   111.91989038   179.51151902
 H     35  32  29     2.098405211009   111.07504658    59.60193809
 O      4   3   2     2.573904982336   126.82878975   179.87908424
 C     41   4   3     2.706472794764   120.80106155   331.38527826
 C     42  41   4     2.891716909641   110.51408080   210.85998685
 H     42  41   4     2.109235682270   109.12727361    90.78594616
 H     42  41   4     2.095084525838   109.30066707   332.64146488
 C     43  42  41     2.926023080373   112.72092767   310.76875075
 C     46  43  42     2.896625459360   114.70177163    89.62876608
 H     46  43  42     2.103141730986   109.23938769   325.72755405
 H     46  43  42     2.101503098906   108.20352059   211.29298732
 H     47  46  43     2.091373965380   111.72005399   300.35841055
 H     47  46  43     2.096147512757   111.26955766   179.82234710
 H     47  46  43     2.098210337027   110.92431285    60.13740679
 C     43  42  41     2.919863409686   109.11651009   186.97825729
 H     43  42  41     2.105875739015   107.56632015    70.03093945
 C     53  43  42     2.900499387402   116.22624535   306.47909330
 H     53  43  42     2.101419066160   107.77152445   183.88479295
 H     53  43  42     2.106730226759   108.62910608    70.09969292
 C     55  53  43     2.900300712832   113.40240591   187.29515846
 H     55  53  43     2.103131669448   110.32071992    65.53638481
 H     55  53  43     2.106079718671   109.45375172   309.67811566
 C     58  55  53     2.894208187783   113.32031178   183.29364407
 H     58  55  53     2.103395415133   109.13032684    60.40938125
 H     58  55  53     2.103522150716   109.04487893   305.73366445
 H     61  58  55     2.098379913723   111.34236649   300.25262534
 H     61  58  55     2.095660797978   111.77474356   179.95046624
 H     61  58  55     2.097492032072   111.18463110    59.87623042
 H     12  11   5     2.040904537232   118.97534261   179.60856936
 H      8   7   2     2.040903775574   119.96513228   180.40258654

---------------------
BASIS SET INFORMATION
---------------------
There are 4 groups of distinct atoms

 Group   1 Type C   : 7s4p1d contracted to 3s2p1d pattern {511/31/1}
 Group   2 Type S   : 10s7p1d contracted to 4s3p1d pattern {5311/511/1}
 Group   3 Type H   : 4s1p contracted to 2s1p pattern {31/1}
 Group   4 Type O   : 7s4p1d contracted to 3s2p1d pattern {511/31/1}

Atom   0C    basis set group =>   1
Atom   1C    basis set group =>   1
Atom   2C    basis set group =>   1
Atom   3C    basis set group =>   1
Atom   4C    basis set group =>   1
Atom   5C    basis set group =>   1
Atom   6S    basis set group =>   2
Atom   7C    basis set group =>   1
Atom   8C    basis set group =>   1
Atom   9H    basis set group =>   3
Atom  10S    basis set group =>   2
Atom  11C    basis set group =>   1
Atom  12C    basis set group =>   1
Atom  13H    basis set group =>   3
Atom  14O    basis set group =>   4
Atom  15C    basis set group =>   1
Atom  16C    basis set group =>   1
Atom  17H    basis set group =>   3
Atom  18H    basis set group =>   3
Atom  19C    basis set group =>   1
Atom  20C    basis set group =>   1
Atom  21H    basis set group =>   3
Atom  22H    basis set group =>   3
Atom  23H    basis set group =>   3
Atom  24H    basis set group =>   3
Atom  25H    basis set group =>   3
Atom  26C    basis set group =>   1
Atom  27H    basis set group =>   3
Atom  28C    basis set group =>   1
Atom  29H    basis set group =>   3
Atom  30H    basis set group =>   3
Atom  31C    basis set group =>   1
Atom  32H    basis set group =>   3
Atom  33H    basis set group =>   3
Atom  34C    basis set group =>   1
Atom  35H    basis set group =>   3
Atom  36H    basis set group =>   3
Atom  37H    basis set group =>   3
Atom  38H    basis set group =>   3
Atom  39H    basis set group =>   3
Atom  40O    basis set group =>   4
Atom  41C    basis set group =>   1
Atom  42C    basis set group =>   1
Atom  43H    basis set group =>   3
Atom  44H    basis set group =>   3
Atom  45C    basis set group =>   1
Atom  46C    basis set group =>   1
Atom  47H    basis set group =>   3
Atom  48H    basis set group =>   3
Atom  49H    basis set group =>   3
Atom  50H    basis set group =>   3
Atom  51H    basis set group =>   3
Atom  52C    basis set group =>   1
Atom  53H    basis set group =>   3
Atom  54C    basis set group =>   1
Atom  55H    basis set group =>   3
Atom  56H    basis set group =>   3
Atom  57C    basis set group =>   1
Atom  58H    basis set group =>   3
Atom  59H    basis set group =>   3
Atom  60C    basis set group =>   1
Atom  61H    basis set group =>   3
Atom  62H    basis set group =>   3
Atom  63H    basis set group =>   3
Atom  64H    basis set group =>   3
Atom  65H    basis set group =>   3
Atom  66H    basis set group =>   3
Atom  67H    basis set group =>   3
---------------------------------
AUXILIARY/J BASIS SET INFORMATION
---------------------------------
There are 4 groups of distinct atoms

 Group   1 Type C   : 12s5p4d2f1g contracted to 6s4p3d1f1g pattern {711111/2111/211/2/1}
 Group   2 Type S   : 14s5p5d2f1g contracted to 8s4p3d1f1g pattern {71111111/2111/311/2/1}
 Group   3 Type H   : 5s2p1d contracted to 3s1p1d pattern {311/2/1}
 Group   4 Type O   : 12s5p4d2f1g contracted to 6s4p3d1f1g pattern {711111/2111/211/2/1}

Atom   0C    basis set group =>   1
Atom   1C    basis set group =>   1
Atom   2C    basis set group =>   1
Atom   3C    basis set group =>   1
Atom   4C    basis set group =>   1
Atom   5C    basis set group =>   1
Atom   6S    basis set group =>   2
Atom   7C    basis set group =>   1
Atom   8C    basis set group =>   1
Atom   9H    basis set group =>   3
Atom  10S    basis set group =>   2
Atom  11C    basis set group =>   1
Atom  12C    basis set group =>   1
Atom  13H    basis set group =>   3
Atom  14O    basis set group =>   4
Atom  15C    basis set group =>   1
Atom  16C    basis set group =>   1
Atom  17H    basis set group =>   3
Atom  18H    basis set group =>   3
Atom  19C    basis set group =>   1
Atom  20C    basis set group =>   1
Atom  21H    basis set group =>   3
Atom  22H    basis set group =>   3
Atom  23H    basis set group =>   3
Atom  24H    basis set group =>   3
Atom  25H    basis set group =>   3
Atom  26C    basis set group =>   1
Atom  27H    basis set group =>   3
Atom  28C    basis set group =>   1
Atom  29H    basis set group =>   3
Atom  30H    basis set group =>   3
Atom  31C    basis set group =>   1
Atom  32H    basis set group =>   3
Atom  33H    basis set group =>   3
Atom  34C    basis set group =>   1
Atom  35H    basis set group =>   3
Atom  36H    basis set group =>   3
Atom  37H    basis set group =>   3
Atom  38H    basis set group =>   3
Atom  39H    basis set group =>   3
Atom  40O    basis set group =>   4
Atom  41C    basis set group =>   1
Atom  42C    basis set group =>   1
Atom  43H    basis set group =>   3
Atom  44H    basis set group =>   3
Atom  45C    basis set group =>   1
Atom  46C    basis set group =>   1
Atom  47H    basis set group =>   3
Atom  48H    basis set group =>   3
Atom  49H    basis set group =>   3
Atom  50H    basis set group =>   3
Atom  51H    basis set group =>   3
Atom  52C    basis set group =>   1
Atom  53H    basis set group =>   3
Atom  54C    basis set group =>   1
Atom  55H    basis set group =>   3
Atom  56H    basis set group =>   3
Atom  57C    basis set group =>   1
Atom  58H    basis set group =>   3
Atom  59H    basis set group =>   3
Atom  60C    basis set group =>   1
Atom  61H    basis set group =>   3
Atom  62H    basis set group =>   3
Atom  63H    basis set group =>   3
Atom  64H    basis set group =>   3
Atom  65H    basis set group =>   3
Atom  66H    basis set group =>   3
Atom  67H    basis set group =>   3
------------------------------------------------------------------------------
                           ORCA GTO INTEGRAL CALCULATION
                           -- RI-GTO INTEGRALS CHOSEN --
------------------------------------------------------------------------------

                         BASIS SET STATISTICS AND STARTUP INFO

Gaussian basis set:
 # of primitive gaussian shells          ...  562
 # of primitive gaussian functions       ... 1010
 # of contracted shells                  ...  298
 # of contracted basis functions         ...  618
 Highest angular momentum                ...    2
 Maximum contraction depth               ...    5
Auxiliary gaussian basis set:
 # of primitive gaussian shells          ... 1030
 # of primitive gaussian functions       ... 2722
 # of contracted shells                  ...  644
 # of contracted aux-basis functions     ... 1892
 Highest angular momentum                ...    4
 Maximum contraction depth               ...    7
Ratio of auxiliary to basis functions    ...  3.06
Integral package used                  ... LIBINT
 One Electron integrals                  ... done
 Ordering auxiliary basis shells         ... done
 Integral threshhold             Thresh  ...  2.500e-11
 Primitive cut-off               TCut    ...  2.500e-12
 Pre-screening matrix                    ... done
 Shell pair data                         ... 
 Ordering of the shell pairs             ... done (   0.005 sec) 24544 of 44551 pairs
 Determination of significant pairs      ... done (   0.000 sec)
 Creation of shell pair data             ... done (   0.004 sec)
 Storage of shell pair data              ... done (   0.014 sec)
 Shell pair data done in (   0.023 sec)
 Computing two index integrals           ... done
 Cholesky decomposition of the V-matrix  ... done


Timings:
 Total evaluation time                   ...   1.204 sec (  0.020 min)
 One electron matrix time                ...   0.497 sec (  0.008 min) = 41.3%
 Schwartz matrix evaluation time         ...   0.310 sec (  0.005 min) = 25.8%
 Two index repulsion integral time       ...   0.131 sec (  0.002 min) = 10.8%
 Cholesky decomposition of V             ...   0.212 sec (  0.004 min) = 17.6%
 Three index repulsion integral time     ...   0.000 sec (  0.000 min) =  0.0%

-------------------------------------------------------------------------------
                                 ORCA SCF
-------------------------------------------------------------------------------

------------
SCF SETTINGS
------------
Hamiltonian:
 Density Functional     Method          .... DFT(GTOs)
 Exchange Functional    Exchange        .... B88
   X-Alpha parameter    XAlpha          ....  0.666667
   Becke's b parameter  XBeta           ....  0.004200
 Correlation Functional Correlation     .... P86
 LDA part of GGA corr.  LDAOpt          .... PW91-LDA
 Gradients option       PostSCFGGA      .... off
   Density functional embedding theory  .... OFF
 RI-approximation to the Coulomb term is turned on
   Number of auxiliary basis functions  .... 1892


General Settings:
 Integral files         IntName         .... PTB7_Input_Noninteracting_Benzodithiophene_With_Sidechain_1_Optimize_Monomer
 Hartree-Fock type      HFTyp           .... RHF
 Total Charge           Charge          ....    0
 Multiplicity           Mult            ....    1
 Number of Electrons    NEL             ....  242
 Basis Dimension        Dim             ....  618
 Nuclear Repulsion      ENuc            ....   3289.9594825416 Eh

Convergence Acceleration:
 DIIS                   CNVDIIS         .... on
   Start iteration      DIISMaxIt       ....    12
   Startup error        DIISStart       ....  0.200000
   # of expansion vecs  DIISMaxEq       ....     5
   Bias factor          DIISBfac        ....   1.050
   Max. coefficient     DIISMaxC        ....  10.000
 Newton-Raphson         CNVNR           .... off
 SOSCF                  CNVSOSCF        .... on
   Start iteration      SOSCFMaxIt      ....   150
   Startup grad/error   SOSCFStart      ....  0.003300
 Level Shifting         CNVShift        .... on
   Level shift para.    LevelShift      ....    0.2500
   Turn off err/grad.   ShiftErr        ....    0.0010
 Zerner damping         CNVZerner       .... off
 Static damping         CNVDamp         .... on
   Fraction old density DampFac         ....    0.7000
   Max. Damping (<1)    DampMax         ....    0.9800
   Min. Damping (>=0)   DampMin         ....    0.0000
   Turn off err/grad.   DampErr         ....    0.1000
 Fernandez-Rico         CNVRico         .... off

SCF Procedure:
 Maximum # iterations   MaxIter         ....   125
 SCF integral mode      SCFMode         .... Direct
   Integral package                     .... LIBINT
 Reset frequency        DirectResetFreq ....    20
 Integral Threshold     Thresh          ....  2.500e-11 Eh
 Primitive CutOff       TCut            ....  2.500e-12 Eh

Convergence Tolerance:
 Convergence Check Mode ConvCheckMode   .... Total+1el-Energy
 Convergence forced     ConvForced      .... 0
 Energy Change          TolE            ....  1.000e-08 Eh
 1-El. energy change                    ....  1.000e-05 Eh
 Orbital Gradient       TolG            ....  1.000e-05
 Orbital Rotation angle TolX            ....  1.000e-05
 DIIS Error             TolErr          ....  5.000e-07


Diagonalization of the overlap matrix:
Smallest eigenvalue                        ... 1.613e-04
Time for diagonalization                   ...    0.190 sec
Threshold for overlap eigenvalues          ... 1.000e-08
Number of eigenvalues below threshold      ... 0
Time for construction of square roots      ...    0.052 sec
Total time needed                          ...    0.242 sec

-------------------
DFT GRID GENERATION
-------------------

General Integration Accuracy     IntAcc      ...  4.340
Radial Grid Type                 RadialGrid  ... Gauss-Chebyshev
Angular Grid (max. acc.)         AngularGrid ... Lebedev-194
Angular grid pruning method      GridPruning ... 3 (G Style)
Weight generation scheme         WeightScheme... Becke
Basis function cutoff            BFCut       ...    1.0000e-11
Integration weight cutoff        WCut        ...    1.0000e-14
Grids for H and He will be reduced by one unit

# of grid points (after initial pruning)     ... 157172 (   0.2 sec)
# of grid points (after weights+screening)   ... 136624 (   2.7 sec)
nearest neighbour list constructed           ...    0.0 sec
Grid point re-assignment to atoms done       ...    0.0 sec
Grid point division into batches done        ...    0.2 sec
Reduced shell lists constructed in    2.2 sec

Total number of grid points                  ...   136624
Total number of batches                      ...     2170
Average number of points per batch           ...       62
Average number of grid points per atom       ...     2009
Average number of shells per batch           ...    98.14 (32.93%)
Average number of basis functions per batch  ...   187.73 (30.38%)
Average number of large shells per batch     ...    60.44 (61.58%)
Average number of large basis fcns per batch ...   116.72 (62.18%)
Maximum spatial batch extension              ...  21.69, 19.80, 21.11 au
Average spatial batch extension              ...   2.67,  2.54,  2.79 au

Time for grid setup =    5.183 sec

------------------------------
INITIAL GUESS: MODEL POTENTIAL
------------------------------
Loading Hartree-Fock densities                     ... done
Calculating cut-offs                               ... done
Setting up the integral package                    ... done
Initializing the effective Hamiltonian             ... done
Starting the Coulomb interaction                   ... done (   2.6 sec)
Reading the grid                                   ... done
Mapping shells                                     ... done
Starting the XC term evaluation                    ... done (   2.6 sec)
  promolecular density results
     # of electrons  =    241.977521823
     EX              =   -211.390178618
     EC              =     -9.037331084
     EX+EC           =   -220.427509702
Transforming the Hamiltonian                       ... done (   0.0 sec)
Diagonalizing the Hamiltonian                      ... done (   0.1 sec)
Back transforming the eigenvectors                 ... done (   0.0 sec)
Now organizing SCF variables                       ... done
                      ------------------
                      INITIAL GUESS DONE (  10.7 sec)
                      ------------------
--------------
SCF ITERATIONS
--------------
ITER       Energy         Delta-E        Max-DP      RMS-DP      [F,P]     Damp
               ***  Starting incremental Fock matrix formation  ***
  0  -1958.8121871131   0.000000000000 0.07448460  0.00122736  0.1586492 0.7000
  1  -1959.1393210506  -0.327133937445 0.04230485  0.00086458  0.0756213 0.7000
                               ***Turning on DIIS***
  2  -1959.2486304290  -0.109309378379 0.08211880  0.00131450  0.0212575 0.0000
  3  -1959.4018025855  -0.153172156512 0.03199230  0.00066007  0.0477983 0.0000
  4  -1959.4600421436  -0.058239558140 0.02456979  0.00022233  0.0095490 0.0000
  5  -1959.4630771235  -0.003034979867 0.00482492  0.00007234  0.0056211 0.0000
                      *** Initiating the SOSCF procedure ***
                           *** Shutting down DIIS ***
                      *** Re-Reading the Fockian *** 
                      *** Removing any level shift *** 
ITER      Energy       Delta-E        Grad      Rot      Max-DP    RMS-DP
  6  -1959.46342590  -0.0003487795  0.000532  0.000532  0.001549  0.000026
               *** Restarting incremental Fock matrix formation ***
  7  -1959.46345347  -0.0000275696  0.000194  0.001278  0.001705  0.000024
  8  -1959.46345114   0.0000023277  0.000437  0.001007  0.000969  0.000011
  9  -1959.46345911  -0.0000079626  0.000128  0.000836  0.000721  0.000009
 10  -1959.46345810   0.0000010109  0.000234  0.000741  0.000539  0.000005
 11  -1959.46345977  -0.0000016717  0.000073  0.000386  0.000594  0.000005
 12  -1959.46345949   0.0000002780  0.000082  0.000178  0.000206  0.000002
 13  -1959.46346002  -0.0000005259  0.000031  0.000249  0.000271  0.000002
 14  -1959.46345990   0.0000001139  0.000061  0.000144  0.000136  0.000001
 15  -1959.46346005  -0.0000001521  0.000009  0.000033  0.000098  0.000001
 16  -1959.46346004   0.0000000145  0.000014  0.000018  0.000045  0.000001
 17  -1959.46346006  -0.0000000155  0.000003  0.000020  0.000027  0.000000
 18  -1959.46346006  -0.0000000007  0.000005  0.000013  0.000015  0.000000
                  ***Gradient check signals convergence***
              ***Rediagonalizing the Fockian in SOSCF/NRSCF***

               *****************************************************
               *                     SUCCESS                       *
               *           SCF CONVERGED AFTER  19 CYCLES          *
               *****************************************************

Setting up the final grid:

General Integration Accuracy     IntAcc      ...  5.010
Radial Grid Type                 RadialGrid  ... Gauss-Chebyshev
Angular Grid (max. acc.)         AngularGrid ... Lebedev-434
Angular grid pruning method      GridPruning ... 3 (G Style)
Weight generation scheme         WeightScheme... Becke
Basis function cutoff            BFCut       ...    1.0000e-11
Integration weight cutoff        WCut        ...    1.0000e-14
Grids for H and He will be reduced by one unit

# of grid points (after initial pruning)     ... 577608 (   0.4 sec)
# of grid points (after weights+screening)   ... 493896 (   9.7 sec)
nearest neighbour list constructed           ...    0.0 sec
Grid point re-assignment to atoms done       ...    0.1 sec
Grid point division into batches done        ...    2.9 sec
Reduced shell lists constructed in    9.6 sec

Total number of grid points                  ...   493896
Total number of batches                      ...     7750
Average number of points per batch           ...       63
Average number of grid points per atom       ...     7263
Average number of shells per batch           ...    89.63 (30.08%)
Average number of basis functions per batch  ...   170.34 (27.56%)
Average number of large shells per batch     ...    54.61 (60.93%)
Average number of large basis fcns per batch ...   104.36 (61.27%)
Maximum spatial batch extension              ...  20.46, 19.74, 25.45 au
Average spatial batch extension              ...   1.73,  1.70,  1.77 au

Final grid set up in   19.8 sec
Final integration                            ... done (   9.2 sec)
Change in XC energy                          ...    -0.000938709
Integrated number of electrons               ...   241.999895338
Previous integrated no of electrons          ...   241.997793346

----------------
TOTAL SCF ENERGY
----------------

Total Energy       :        -1959.46439876 Eh          -53319.73701 eV

Components:
Nuclear Repulsion  :         3289.95948254 Eh           89524.34885 eV
Electronic Energy  :        -5249.42388130 Eh         -142844.08586 eV
One Electron Energy:        -9221.59792777 Eh         -250932.43677 eV
Two Electron Energy:         3972.17404646 Eh          108088.35091 eV

Virial components:
Potential Energy   :        -3902.27654860 Eh         -106186.34330 eV
Kinetic Energy     :         1942.81214984 Eh           52866.60628 eV
Virial Ratio       :            2.00857121


DFT components:
N(Alpha)           :      120.999947669083 electrons
N(Beta)            :      120.999947669083 electrons
N(Total)           :      241.999895338165 electrons
E(X)               :     -214.566964888547 Eh       
E(C)               :       -9.013244300226 Eh       
E(XC)              :     -223.580209188773 Eh       
DFET-embed. en.    :        0.000000000000 Eh       

---------------
SCF CONVERGENCE
---------------

  Last Energy change         ...    3.1755e-09  Tolerance :   1.0000e-08
  Last MAX-Density change    ...    1.0148e-05  Tolerance :   1.0000e-07
  Last RMS-Density change    ...    1.0015e-07  Tolerance :   5.0000e-09
  Last Orbital Gradient      ...    1.1579e-06  Tolerance :   1.0000e-05
  Last Orbital Rotation      ...    5.7132e-06  Tolerance :   1.0000e-05

             **** THE GBW FILE WAS UPDATED (PTB7_Input_Noninteracting_Benzodithiophene_With_Sidechain_1_Optimize_Monomer.gbw) ****
             **** DENSITY FILE WAS UPDATED (PTB7_Input_Noninteracting_Benzodithiophene_With_Sidechain_1_Optimize_Monomer.scfp) ****
             **** ENERGY FILE WAS UPDATED (PTB7_Input_Noninteracting_Benzodithiophene_With_Sidechain_1_Optimize_Monomer.en.tmp) ****
             **** THE GBW FILE WAS UPDATED (PTB7_Input_Noninteracting_Benzodithiophene_With_Sidechain_1_Optimize_Monomer.gbw) ****
             **** DENSITY FILE WAS UPDATED (PTB7_Input_Noninteracting_Benzodithiophene_With_Sidechain_1_Optimize_Monomer.scfp) ****
----------------
ORBITAL ENERGIES
----------------

  NO   OCC          E(Eh)            E(eV) 
   0   2.0000     -88.114976     -2397.7304 
   1   2.0000     -88.113415     -2397.6879 
   2   2.0000     -18.816573      -512.0250 
   3   2.0000     -18.797889      -511.5166 
   4   2.0000      -9.983354      -271.6609 
   5   2.0000      -9.972197      -271.3573 
   6   2.0000      -9.967654      -271.2337 
   7   2.0000      -9.960950      -271.0512 
   8   2.0000      -9.945180      -270.6221 
   9   2.0000      -9.944757      -270.6106 
  10   2.0000      -9.943685      -270.5814 
  11   2.0000      -9.940495      -270.4946 
  12   2.0000      -9.934087      -270.3203 
  13   2.0000      -9.928711      -270.1740 
  14   2.0000      -9.926778      -270.1214 
  15   2.0000      -9.924210      -270.0515 
  16   2.0000      -9.923001      -270.0186 
  17   2.0000      -9.918113      -269.8856 
  18   2.0000      -9.917154      -269.8595 
  19   2.0000      -9.916401      -269.8390 
  20   2.0000      -9.915931      -269.8262 
  21   2.0000      -9.915056      -269.8024 
  22   2.0000      -9.911386      -269.7025 
  23   2.0000      -9.909863      -269.6611 
  24   2.0000      -9.907775      -269.6043 
  25   2.0000      -9.907023      -269.5838 
  26   2.0000      -9.905626      -269.5458 
  27   2.0000      -9.901397      -269.4307 
  28   2.0000      -9.900194      -269.3980 
  29   2.0000      -9.897808      -269.3331 
  30   2.0000      -7.710313      -209.8083 
  31   2.0000      -7.708191      -209.7506 
  32   2.0000      -5.737698      -156.1307 
  33   2.0000      -5.735631      -156.0745 
  34   2.0000      -5.733386      -156.0134 
  35   2.0000      -5.731274      -155.9559 
  36   2.0000      -5.728961      -155.8930 
  37   2.0000      -5.726892      -155.8367 
  38   2.0000      -0.975309       -26.5395 
  39   2.0000      -0.958380       -26.0788 
  40   2.0000      -0.811886       -22.0925 
  41   2.0000      -0.792078       -21.5535 
  42   2.0000      -0.750031       -20.4094 
  43   2.0000      -0.742322       -20.1996 
  44   2.0000      -0.723793       -19.6954 
  45   2.0000      -0.711272       -19.3547 
  46   2.0000      -0.703695       -19.1485 
  47   2.0000      -0.694736       -18.9047 
  48   2.0000      -0.673455       -18.3256 
  49   2.0000      -0.661446       -17.9988 
  50   2.0000      -0.658634       -17.9223 
  51   2.0000      -0.648826       -17.6555 
  52   2.0000      -0.638118       -17.3641 
  53   2.0000      -0.634668       -17.2702 
  54   2.0000      -0.608780       -16.5658 
  55   2.0000      -0.592072       -16.1111 
  56   2.0000      -0.576931       -15.6991 
  57   2.0000      -0.554652       -15.0929 
  58   2.0000      -0.545351       -14.8398 
  59   2.0000      -0.542310       -14.7570 
  60   2.0000      -0.525123       -14.2893 
  61   2.0000      -0.520939       -14.1755 
  62   2.0000      -0.515567       -14.0293 
  63   2.0000      -0.509315       -13.8592 
  64   2.0000      -0.506352       -13.7785 
  65   2.0000      -0.502392       -13.6708 
  66   2.0000      -0.492945       -13.4137 
  67   2.0000      -0.480674       -13.0798 
  68   2.0000      -0.474474       -12.9111 
  69   2.0000      -0.457453       -12.4479 
  70   2.0000      -0.441718       -12.0197 
  71   2.0000      -0.432831       -11.7779 
  72   2.0000      -0.422164       -11.4877 
  73   2.0000      -0.410419       -11.1681 
  74   2.0000      -0.409559       -11.1447 
  75   2.0000      -0.405943       -11.0463 
  76   2.0000      -0.403858       -10.9895 
  77   2.0000      -0.393706       -10.7133 
  78   2.0000      -0.389436       -10.5971 
  79   2.0000      -0.385264       -10.4836 
  80   2.0000      -0.382692       -10.4136 
  81   2.0000      -0.381917       -10.3925 
  82   2.0000      -0.378238       -10.2924 
  83   2.0000      -0.370906       -10.0929 
[...]
      px      :     0.020509
      py      :     0.013618
 31 C s       :     2.851107  s :     2.851107
      pz      :     1.037681  p :     3.115216
      px      :     1.025923
      py      :     1.051612
      dz2     :     0.019402  d :     0.085623
      dxz     :     0.022522
      dyz     :     0.008294
      dx2y2   :     0.024608
      dxy     :     0.010795
 32 H s       :     0.911727  s :     0.911727
      pz      :     0.012632  p :     0.067342
      px      :     0.012994
      py      :     0.041716
 33 H s       :     0.910306  s :     0.910306
      pz      :     0.029409  p :     0.063504
      px      :     0.020197
      py      :     0.013897
 34 C s       :     2.853747  s :     2.853747
      pz      :     1.041579  p :     3.153385
      px      :     1.051937
      py      :     1.059869
      dz2     :     0.018727  d :     0.067394
      dxz     :     0.014884
      dyz     :     0.007646
      dx2y2   :     0.019401
      dxy     :     0.006736
 35 H s       :     0.914172  s :     0.914172
      pz      :     0.012287  p :     0.063043
      px      :     0.012401
      py      :     0.038356
 36 H s       :     0.915027  s :     0.915027
      pz      :     0.030295  p :     0.062962
      px      :     0.019480
      py      :     0.013187
 37 H s       :     0.909704  s :     0.909704
      pz      :     0.031642  p :     0.063125
      px      :     0.018289
      py      :     0.013194
 38 H s       :     0.909139  s :     0.909139
      pz      :     0.012709  p :     0.063323
      px      :     0.035497
      py      :     0.015117
 39 H s       :     0.910349  s :     0.910349
      pz      :     0.012386  p :     0.063101
      px      :     0.012024
      py      :     0.038691
 40 O s       :     3.438031  s :     3.438031
      pz      :     1.698414  p :     4.609857
      px      :     1.585057
      py      :     1.326385
      dz2     :     0.003606  d :     0.030182
      dxz     :     0.003801
      dyz     :     0.006288
      dx2y2   :     0.010091
      dxy     :     0.006396
 41 C s       :     2.861453  s :     2.861453
      pz      :     1.024880  p :     2.928446
      px      :     0.913090
      py      :     0.990476
      dz2     :     0.016247  d :     0.133190
      dxz     :     0.035085
      dyz     :     0.023463
      dx2y2   :     0.029666
      dxy     :     0.028730
 42 C s       :     2.857430  s :     2.857430
      pz      :     1.043507  p :     3.092836
      px      :     1.031922
      py      :     1.017407
      dz2     :     0.015454  d :     0.097617
      dxz     :     0.026264
      dyz     :     0.016611
      dx2y2   :     0.020590
      dxy     :     0.018698
 43 H s       :     0.920128  s :     0.920128
      pz      :     0.023428  p :     0.064265
      px      :     0.028934
      py      :     0.011902
 44 H s       :     0.910026  s :     0.910026
      pz      :     0.034396  p :     0.067288
      px      :     0.013872
      py      :     0.019020
 45 C s       :     2.852126  s :     2.852126
      pz      :     1.034847  p :     3.106446
      px      :     1.025959
      py      :     1.045640
      dz2     :     0.018756  d :     0.083412
      dxz     :     0.019581
      dyz     :     0.009816
      dx2y2   :     0.023515
      dxy     :     0.011743
 46 C s       :     2.852020  s :     2.852020
      pz      :     1.061190  p :     3.157267
      px      :     1.015382
      py      :     1.080695
      dz2     :     0.012996  d :     0.067075
      dxz     :     0.015240
      dyz     :     0.009388
      dx2y2   :     0.018830
      dxy     :     0.010621
 47 H s       :     0.908734  s :     0.908734
      pz      :     0.032649  p :     0.063792
      px      :     0.016826
      py      :     0.014317
 48 H s       :     0.911151  s :     0.911151
      pz      :     0.012473  p :     0.063984
      px      :     0.013397
      py      :     0.038113
 49 H s       :     0.917276  s :     0.917276
      pz      :     0.012560  p :     0.068756
      px      :     0.014182
      py      :     0.042015
 50 H s       :     0.908885  s :     0.908885
      pz      :     0.027103  p :     0.063371
      px      :     0.016835
      py      :     0.019434
 51 H s       :     0.911866  s :     0.911866
      pz      :     0.030984  p :     0.063158
      px      :     0.017071
      py      :     0.015103
 52 C s       :     2.853068  s :     2.853068
      pz      :     1.036704  p :     3.100425
      px      :     1.025060
      py      :     1.038660
      dz2     :     0.013680  d :     0.084625
      dxz     :     0.025853
      dyz     :     0.012459
      dx2y2   :     0.014853
      dxy     :     0.017781
 53 H s       :     0.906575  s :     0.906575
      pz      :     0.028378  p :     0.065260
      px      :     0.023985
      py      :     0.012898
 54 C s       :     2.852470  s :     2.852470
      pz      :     1.036595  p :     3.114461
      px      :     1.034758
      py      :     1.043108
      dz2     :     0.012315  d :     0.084765
      dxz     :     0.024707
      dyz     :     0.015159
      dx2y2   :     0.011300
      dxy     :     0.021285
 55 H s       :     0.907694  s :     0.907694
      pz      :     0.014272  p :     0.064130
      px      :     0.014956
      py      :     0.034902
 56 H s       :     0.912032  s :     0.912032
      pz      :     0.028485  p :     0.064005
      px      :     0.021980
      py      :     0.013541
 57 C s       :     2.850641  s :     2.850641
      pz      :     1.039633  p :     3.113714
      px      :     1.032655
      py      :     1.041426
      dz2     :     0.011337  d :     0.085165
      dxz     :     0.024339
      dyz     :     0.016862
      dx2y2   :     0.010717
      dxy     :     0.021910
 58 H s       :     0.913829  s :     0.913829
      pz      :     0.014962  p :     0.064445
      px      :     0.017569
      py      :     0.031914
 59 H s       :     0.910497  s :     0.910497
      pz      :     0.027110  p :     0.063661
      px      :     0.022130
      py      :     0.014421
 60 C s       :     2.853814  s :     2.853814
      pz      :     1.044780  p :     3.153330
      px      :     1.050146
      py      :     1.058404
      dz2     :     0.010184  d :     0.067213
      dxz     :     0.019468
      dyz     :     0.013173
      dx2y2   :     0.004855
      dxy     :     0.019532
 61 H s       :     0.911341  s :     0.911341
      pz      :     0.015534  p :     0.063119
      px      :     0.016938
      py      :     0.030647
 62 H s       :     0.911759  s :     0.911759
      pz      :     0.027147  p :     0.063164
      px      :     0.021042
      py      :     0.014975
 63 H s       :     0.909077  s :     0.909077
      pz      :     0.028455  p :     0.063170
      px      :     0.020125
      py      :     0.014589
 64 H s       :     0.906714  s :     0.906714
      pz      :     0.015603  p :     0.063448
      px      :     0.025256
      py      :     0.022589
 65 H s       :     0.910206  s :     0.910206
      pz      :     0.015353  p :     0.063108
      px      :     0.017991
      py      :     0.029764
 66 H s       :     0.895454  s :     0.895454
      pz      :     0.016994  p :     0.072113
      px      :     0.044436
      py      :     0.010683
 67 H s       :     0.895947  s :     0.895947
      pz      :     0.016988  p :     0.072239
      px      :     0.044417
      py      :     0.010834


                      *****************************
                      * MAYER POPULATION ANALYSIS *
                      *****************************

  NA   - Mulliken gross atomic population
  ZA   - Total nuclear charge
  QA   - Mulliken gross atomic charge
  VA   - Mayer's total valence
  BVA  - Mayer's bonded valence
  FA   - Mayer's free valence

  ATOM       NA         ZA         QA         VA         BVA        FA
  0 C      5.9354     6.0000     0.0646     4.0705     4.0705     0.0000
  1 C      6.1490     6.0000    -0.1490     3.9070     3.9070    -0.0000
  2 C      5.9592     6.0000     0.0408     3.8382     3.8382    -0.0000
  3 C      5.8664     6.0000     0.1336     3.9949     3.9949    -0.0000
  4 C      6.1332     6.0000    -0.1332     3.8917     3.8917    -0.0000
  5 C      5.9282     6.0000     0.0718     3.9136     3.9136     0.0000
  6 S     15.8950    16.0000     0.1050     2.4493     2.4493     0.0000
  7 C      6.0844     6.0000    -0.0844     3.7837     3.7837    -0.0000
  8 C      6.0329     6.0000    -0.0329     3.8866     3.8866     0.0000
  9 H      1.0070     1.0000    -0.0070     1.0055     1.0055    -0.0000
 10 S     15.9037    16.0000     0.0963     2.4730     2.4730    -0.0000
 11 C      6.0754     6.0000    -0.0754     3.7824     3.7824    -0.0000
 12 C      6.0360     6.0000    -0.0360     3.8733     3.8733     0.0000
 13 H      0.9940     1.0000     0.0060     1.0025     1.0025     0.0000
 14 O      8.3013     8.0000    -0.3013     2.2288     2.2288     0.0000
 15 C      5.7845     6.0000     0.2155     3.8881     3.8881     0.0000
 16 C      6.0870     6.0000    -0.0870     4.0797     4.0797     0.0000
 17 H      0.9902     1.0000     0.0098     1.0058     1.0058    -0.0000
 18 H      0.9918     1.0000     0.0082     0.9915     0.9915    -0.0000
 19 C      6.0402     6.0000    -0.0402     4.0878     4.0878    -0.0000
 20 C      6.0404     6.0000    -0.0404     4.0058     4.0058    -0.0000
 21 H      0.9831     1.0000     0.0169     0.9806     0.9806    -0.0000
 22 H      0.9813     1.0000     0.0187     0.9827     0.9827    -0.0000
 23 H      0.9653     1.0000     0.0347     0.9996     0.9996    -0.0000
 24 H      0.9703     1.0000     0.0297     0.9833     0.9833     0.0000
 25 H      0.9697     1.0000     0.0303     0.9893     0.9893     0.0000
 26 C      6.0005     6.0000    -0.0005     4.0591     4.0591    -0.0000
 27 H      0.9843     1.0000     0.0157     0.9960     0.9960    -0.0000
 28 C      6.0219     6.0000    -0.0219     4.0548     4.0548    -0.0000
 29 H      0.9956     1.0000     0.0044     0.9878     0.9878    -0.0000
 30 H      0.9998     1.0000     0.0002     0.9900     0.9900    -0.0000
 31 C      6.0580     6.0000    -0.0580     4.1141     4.1141     0.0000
 32 H      0.9751     1.0000     0.0249     1.0214     1.0214     0.0000
 33 H      0.9902     1.0000     0.0098     0.9857     0.9857     0.0000
 34 C      6.0374     6.0000    -0.0374     4.0124     4.0124     0.0000
 35 H      0.9856     1.0000     0.0144     0.9771     0.9771    -0.0000
 36 H      0.9888     1.0000     0.0112     0.9777     0.9777     0.0000
 37 H      0.9735     1.0000     0.0265     0.9881     0.9881     0.0000
 38 H      0.9736     1.0000     0.0264     0.9816     0.9816    -0.0000
 39 H      0.9736     1.0000     0.0264     0.9900     0.9900     0.0000
 40 O      8.2794     8.0000    -0.2794     2.2890     2.2890     0.0000
 41 C      5.8511     6.0000     0.1489     3.9623     3.9623     0.0000
 42 C      6.0986     6.0000    -0.0986     4.0925     4.0925    -0.0000
 43 H      0.9705     1.0000     0.0295     0.9823     0.9823     0.0000
 44 H      0.9514     1.0000     0.0486     0.9918     0.9918     0.0000
 45 C      6.0012     6.0000    -0.0012     4.0611     4.0611     0.0000
 46 C      6.0442     6.0000    -0.0442     4.0306     4.0306    -0.0000
 47 H      0.9833     1.0000     0.0167     0.9877     0.9877    -0.0000
 48 H      0.9886     1.0000     0.0114     0.9857     0.9857    -0.0000
 49 H      0.9533     1.0000     0.0467     1.0200     1.0200     0.0000
 50 H      0.9766     1.0000     0.0234     0.9827     0.9827     0.0000
 51 H      0.9771     1.0000     0.0229     0.9870     0.9870    -0.0000
 52 C      6.0161     6.0000    -0.0161     4.0306     4.0306    -0.0000
 53 H      0.9856     1.0000     0.0144     0.9883     0.9883     0.0000
 54 C      6.0590     6.0000    -0.0590     4.0733     4.0733    -0.0000
 55 H      0.9813     1.0000     0.0187     0.9854     0.9854     0.0000
 56 H      0.9855     1.0000     0.0145     0.9880     0.9880    -0.0000
 57 C      6.0519     6.0000    -0.0519     4.1196     4.1196    -0.0000
 58 H      0.9782     1.0000     0.0218     0.9841     0.9841     0.0000
 59 H      0.9809     1.0000     0.0191     0.9832     0.9832    -0.0000
 60 C      6.0429     6.0000    -0.0429     4.0147     4.0147     0.0000
 61 H      0.9799     1.0000     0.0201     0.9781     0.9781    -0.0000
 62 H      0.9830     1.0000     0.0170     0.9778     0.9778    -0.0000
 63 H      0.9713     1.0000     0.0287     0.9879     0.9879     0.0000
 64 H      0.9690     1.0000     0.0310     0.9823     0.9823    -0.0000
 65 H      0.9730     1.0000     0.0270     0.9889     0.9889     0.0000
 66 H      0.9512     1.0000     0.0488     0.9910     0.9910     0.0000
 67 H      0.9533     1.0000     0.0467     0.9912     0.9912     0.0000

  Mayer bond orders larger than 0.100000
B(  0-C ,  1-C ) :   1.4058 B(  0-C ,  5-C ) :   1.2687 B(  0-C , 14-O ) :   1.1783 
B(  1-C ,  2-C ) :   1.2580 B(  1-C ,  6-S ) :   1.0657 B(  2-C ,  3-C ) :   1.2204 
B(  2-C ,  8-C ) :   1.1964 B(  3-C ,  4-C ) :   1.3945 B(  3-C , 40-O ) :   1.1927 
B(  4-C ,  5-C ) :   1.2820 B(  4-C , 10-S ) :   1.0609 B(  5-C , 12-C ) :   1.2111 
B(  6-S ,  7-C ) :   1.0994 B(  7-C ,  8-C ) :   1.5766 B(  7-C , 67-H ) :   0.9562 
B(  8-C ,  9-H ) :   0.9722 B( 10-S , 11-C ) :   1.1108 B( 11-C , 12-C ) :   1.5641 
B( 11-C , 66-H ) :   0.9581 B( 12-C , 13-H ) :   0.9769 B( 14-O , 15-C ) :   0.9314 
B( 15-C , 16-C ) :   1.0204 B( 15-C , 17-H ) :   0.9279 B( 15-C , 18-H ) :   0.9223 
B( 16-C , 19-C ) :   1.0478 B( 16-C , 26-C ) :   1.0581 B( 16-C , 27-H ) :   0.9049 
B( 19-C , 20-C ) :   1.1112 B( 19-C , 21-H ) :   0.9341 B( 19-C , 22-H ) :   0.9332 
B( 20-C , 23-H ) :   0.9582 B( 20-C , 24-H ) :   0.9566 B( 20-C , 25-H ) :   0.9639 
B( 26-C , 28-C ) :   1.0907 B( 26-C , 29-H ) :   0.9273 B( 26-C , 30-H ) :   0.9252 
B( 28-C , 31-C ) :   1.0835 B( 28-C , 32-H ) :   0.9230 B( 28-C , 33-H ) :   0.9252 
B( 31-C , 34-C ) :   1.1119 B( 31-C , 35-H ) :   0.9373 B( 31-C , 36-H ) :   0.9385 
B( 34-C , 37-H ) :   0.9653 B( 34-C , 38-H ) :   0.9613 B( 34-C , 39-H ) :   0.9652 
B( 40-O , 41-C ) :   0.9466 B( 41-C , 42-C ) :   1.0417 B( 41-C , 43-H ) :   0.9255 
B( 41-C , 44-H ) :   0.9240 B( 42-C , 45-C ) :   1.0382 B( 42-C , 52-C ) :   1.0379 
B( 42-C , 53-H ) :   0.9075 B( 45-C , 46-C ) :   1.1174 B( 45-C , 47-H ) :   0.9284 
B( 45-C , 48-H ) :   0.9368 B( 46-C , 49-H ) :   0.9580 B( 46-C , 50-H ) :   0.9553 
B( 46-C , 51-H ) :   0.9631 B( 52-C , 54-C ) :   1.0805 B( 52-C , 55-H ) :   0.9275 
B( 52-C , 56-H ) :   0.9267 B( 54-C , 57-C ) :   1.0874 B( 54-C , 58-H ) :   0.9258 
B( 54-C , 59-H ) :   0.9347 B( 57-C , 60-C ) :   1.1109 B( 57-C , 61-H ) :   0.9385 
B( 57-C , 62-H ) :   0.9388 B( 60-C , 63-H ) :   0.9658 B( 60-C , 64-H ) :   0.9615 
B( 60-C , 65-H ) :   0.9657 

-------
TIMINGS
-------

Total SCF time: 0 days 0 hours 1 min 19 sec 

Total time                  ....      79.287 sec
Sum of individual times     ....      78.483 sec  ( 99.0%)

Fock matrix formation       ....      52.847 sec  ( 66.7%)
  Split-RI-J                ....      28.317 sec  ( 53.6% of F)
  XC integration            ....      24.235 sec  ( 45.9% of F)
    Basis function eval.    ....      10.065 sec  ( 41.5% of XC)
    Density eval.           ....       5.749 sec  ( 23.7% of XC)
    XC-Functional eval.     ....       1.406 sec  (  5.8% of XC)
    XC-Potential eval.      ....       6.190 sec  ( 25.5% of XC)
Diagonalization             ....       0.102 sec  (  0.1%)
Density matrix formation    ....       0.113 sec  (  0.1%)
Population analysis         ....       0.113 sec  (  0.1%)
Initial guess               ....       0.119 sec  (  0.1%)
Orbital Transformation      ....       0.000 sec  (  0.0%)
Orbital Orthonormalization  ....       0.094 sec  (  0.1%)
DIIS solution               ....       0.039 sec  (  0.0%)
SOSCF solution              ....       0.431 sec  (  0.5%)
Grid generation             ....      24.720 sec  ( 31.2%)


-------------------------------------------------------------------------------
                          DFT DISPERSION CORRECTION                            
                                                                               
                              DFTD3 V3.1  Rev 1                                
                          USING Becke-Johnson damping                          
-------------------------------------------------------------------------------
The BP86 functional is recognized
Active option DFTDOPT                   ...         4   

molecular C6(AA) [au] = 45416.054975 


            DFT-D V3
 parameters
 s6 scaling factor         :     1.0000 
 a1 scaling factor         :     0.3946 
 s8 scaling factor         :     3.2822 
 a2 scaling factor         :     4.8516 
 ad hoc parameters k1-k3   :    16.0000     1.3333    -4.0000 

 Edisp/kcal,au: -83.736615171530  -0.133442776086 
 E6   /kcal   : -32.400553710 
 E8   /kcal   : -51.336061461 
 % E8         :  61.306587753 

-------------------------   ----------------
Dispersion correction           -0.133442776
-------------------------   ----------------


-------------------------   --------------------
FINAL SINGLE POINT ENERGY     -1959.598353640996
-------------------------   --------------------

                                *** OPTIMIZATION RUN DONE ***

                            ***************************************
                            *     ORCA property calculations      *
                            ***************************************

                                    ---------------------
                                    Active property flags
                                    ---------------------
   (+) Dipole Moment


------------------------------------------------------------------------------
                       ORCA ELECTRIC PROPERTIES CALCULATION
------------------------------------------------------------------------------

Dipole Moment Calculation                       ... on
Quadrupole Moment Calculation                   ... off
Polarizability Calculation                      ... off
GBWName                                         ... PTB7_Input_Noninteracting_Benzodithiophene_With_Sidechain_1_Optimize_Monomer.gbw
Electron density file                           ... PTB7_Input_Noninteracting_Benzodithiophene_With_Sidechain_1_Optimize_Monomer.scfp
The origin for moment calculation is the CENTER OF MASS  = (-3.062157,  0.023869 -0.223334)

-------------
DIPOLE MOMENT
-------------
                                X             Y             Z
Electronic contribution:     -2.97294       1.22754       9.33875
Nuclear contribution   :      3.52180      -1.52773      -9.20512
                        -----------------------------------------
Total Dipole Moment    :      0.54886      -0.30019       0.13363
                        -----------------------------------------
Magnitude (a.u.)       :      0.63970
Magnitude (Debye)      :      1.62598



--------------------
Rotational spectrum 
--------------------
 
Rotational constants in cm-1:     0.006662     0.002073     0.001767 
Rotational constants in MHz :   199.712942    62.137085    52.970954 

 Dipole components along the rotational axes: 
x,y,z [a.u.] :     0.458611     0.380335    -0.232879 
x,y,z [Debye]:     1.165696     0.966735    -0.591930 

 

Timings for individual modules:

Sum of individual times         ...     1145.158 sec (=  19.086 min)
GTO integral calculation        ...        9.998 sec (=   0.167 min)   0.9 %
SCF iterations                  ...      635.844 sec (=  10.597 min)  55.5 %
SCF Gradient evaluation         ...      490.465 sec (=   8.174 min)  42.8 %
Geometry relaxation             ...        8.850 sec (=   0.148 min)   0.8 %
                             ****ORCA TERMINATED NORMALLY****
TOTAL RUN TIME: 0 days 0 hours 19 minutes 15 seconds 263 msec
