
                                 *****************
                                 * O   R   C   A *
                                 *****************

           --- An Ab Initio, DFT and Semiempirical electronic structure package ---

                  #######################################################
                  #                        -***-                        #
                  #          Department of theory and spectroscopy      #
                  #               Directorship: Frank Neese             #
                  #        Max Planck Institute fuer Kohlenforschung    #
                  #                Kaiser Wilhelm Platz 1               #
                  #                 D-45470 Muelheim/Ruhr               #
                  #                      Germany                        #
                  #                                                     #
                  #                  All rights reserved                #
                  #                        -***-                        #
                  #######################################################


                         Program Version 4.2.0 -  RELEASE  -


 With contributions from (in alphabetic order):
   Daniel Aravena         : Magnetic Suceptibility
   Michael Atanasov       : Ab Initio Ligand Field Theory (pilot matlab implementation)
   Alexander A. Auer      : GIAO ZORA, VPT2
   Ute Becker             : Parallelization
   Giovanni Bistoni       : ED, misc. LED, open-shell LED, HFLED
   Martin Brehm           : Molecular dynamics
   Dmytro Bykov           : SCF Hessian
   Vijay G. Chilkuri      : MRCI spin determinant printing, contributions to CSF-ICE
   Dipayan Datta          : RHF DLPNO-CCSD density
   Achintya Kumar Dutta   : EOM-CC, STEOM-CC
   Dmitry Ganyushin       : Spin-Orbit,Spin-Spin,Magnetic field MRCI
   Miquel Garcia          : C-PCM Hessian, Gaussian charge scheme
   Yang Guo               : DLPNO-NEVPT2, CIM, IAO-localization
   Andreas Hansen         : Spin unrestricted coupled pair/coupled cluster methods
   Benjamin Helmich-Paris : CASSCF linear response (MC-RPA)
   Lee Huntington         : MR-EOM, pCC
   Robert Izsak           : Overlap fitted RIJCOSX, COSX-SCS-MP3, EOM
   Christian Kollmar      : KDIIS, OOCD, Brueckner-CCSD(T), CCSD density
   Simone Kossmann        : Meta GGA functionals, TD-DFT gradient, OOMP2, MP2 Hessian
   Martin Krupicka        : AUTO-CI
   Lucas Lang             : DCDCAS
   Dagmar Lenk            : GEPOL surface, SMD
   Dimitrios Liakos       : Extrapolation schemes; Compound Job, initial MDCI parallelization
   Dimitrios Manganas     : Further ROCIS development; embedding schemes
   Dimitrios Pantazis     : SARC Basis sets
   Taras Petrenko         : DFT Hessian,TD-DFT gradient, ASA, ECA, R-Raman, ABS, FL, XAS/XES, NRVS
   Peter Pinski           : DLPNO-MP2, DLPNO-MP2 Gradient
   Christoph Reimann      : Effective Core Potentials
   Marius Retegan         : Local ZFS, SOC
   Christoph Riplinger    : Optimizer, TS searches, QM/MM, DLPNO-CCSD(T), (RO)-DLPNO pert. Triples
   Tobias Risthaus        : Range-separated hybrids, TD-DFT gradient, RPA, STAB
   Michael Roemelt        : Original ROCIS implementation
   Masaaki Saitow         : Open-shell DLPNO-CCSD energy and density
   Barbara Sandhoefer     : DKH picture change effects
   Avijit Sen             : IP-ROCIS
   Kantharuban Sivalingam : CASSCF convergence, NEVPT2, FIC-MRCI
   Bernardo de Souza      : ESD, SOC TD-DFT
   Georgi Stoychev        : AutoAux, RI-MP2 NMR
   Willem Van den Heuvel  : Paramagnetic NMR
   Boris Wezisla          : Elementary symmetry handling
   Frank Wennmohs         : Technical directorship


 We gratefully acknowledge several colleagues who have allowed us to
 interface, adapt or use parts of their codes:
   Stefan Grimme, W. Hujo, H. Kruse,             : VdW corrections, initial TS optimization,
                  C. Bannwarth                     DFT functionals, gCP, sTDA/sTD-DF
   Ed Valeev, F. Pavosevic, A. Kumar             : LibInt (2-el integral package), F12 methods
   Garnet Chan, S. Sharma, J. Yang, R. Olivares  : DMRG
   Ulf Ekstrom                                   : XCFun DFT Library
   Mihaly Kallay                                 : mrcc  (arbitrary order and MRCC methods)
   Andreas Klamt, Michael Diedenhofen            : otool_cosmo (COSMO solvation model)
   Jiri Pittner, Ondrej Demel                    : Mk-CCSD
   Frank Weinhold                                : gennbo (NPA and NBO analysis)
   Christopher J. Cramer and Donald G. Truhlar   : smd solvation model
   Lars Goerigk                                  : TD-DFT with DH, B97 family of functionals
   V. Asgeirsson, H. Jonsson                     : NEB implementation
   FAccTs GmbH                                   : IRC, NEB, NEB-TS, Multilevel, MM, QM/MM, CI optimization
   S Lehtola, MJT Oliveira, MAL Marques          : LibXC Library


 Your calculation uses the libint2 library for the computation of 2-el integrals
 For citations please refer to: http://libint.valeyev.net

 Your ORCA version has been built with support for libXC version: 4.2.3
 For citations please refer to: https://tddft.org/programs/libxc/

 This ORCA versions uses:
   CBLAS   interface :  Fast vector & matrix operations
   LAPACKE interface :  Fast linear algebra routines
   SCALAPACK package :  Parallel linear algebra routines


Your calculation utilizes the atom-pairwise dispersion correction
with the Becke-Johnson damping scheme (D3BJ)
Cite in your paper:
S.Grimme, S.Ehrlich, L.Goerigk, J Comput Chem, (2011), 32, 1456–1465 
S.Grimme, J.Antony, S.Ehrlich and H.Krieg, J.Chem.Phys., 132, (2010), 154104 
   

----- Orbital basis set information -----
Your calculation utilizes the basis: def2-SVP
   F. Weigend and R. Ahlrichs, Phys. Chem. Chem. Phys. 7, 3297 (2005).

----- AuxJ basis set information -----
Your calculation utilizes the auxiliary basis: def2/J
   F. Weigend, Phys. Chem. Chem. Phys. 8, 1057 (2006).

================================================================================
                                        WARNINGS
                       Please study these warnings very carefully!
================================================================================


WARNING: Geometry Optimization
  ===> : Switching off AutoStart
         For restart on a previous wavefunction, please use MOREAD

INFO   : the flag for use of LIBINT has been found!

================================================================================
                                       INPUT FILE
================================================================================
NAME = PTB7_Input_Noninteracting_Methylcarbonyl_3_Fluoro_Thienothiophene_With_Sidechain_2_Optimize_Monomer.inp
|  1> ! RI BP86 def2-SVP def2/J D3BJ TIGHTSCF  Opt Grid3 FinalGrid5
|  2> %maxcore 3000
|  3> %geom
|  4> optimizehydrogens true
|  5> end
|  6> 
|  7> 
|  8> *xyz 0 1
|  9> C	-0.770450	-1.417466	0.324953
| 10> C	0.006426	-0.274412	0.115070
| 11> S	0.291054	-2.818028	0.423863
| 12> C	1.426639	-0.519341	0.038452
| 13> C	1.768366	-1.887391	0.191519
| 14> S	-0.412678	1.424345	-0.052525
| 15> C	1.300378	1.835301	-0.278616
| 16> C	2.113793	0.715835	-0.192279
| 17> F	3.449379	0.782242	-0.308478
| 18> C	1.633464	3.244870	-0.550828
| 19> O	0.838547	4.150916	-0.373641
| 20> O	2.850805	3.442300	-1.136951
| 21> C	4.034613	3.700472	-0.358229
| 22> C	5.019618	4.496722	-1.207664
| 23> H	4.474318	2.733633	-0.053738
| 24> H	3.758430	4.273602	0.556384
| 25> C	6.405884	4.528647	-0.528927
| 26> C	7.028937	3.154349	-0.244275
| 27> H	6.335814	5.118278	0.413322
| 28> H	7.082218	5.111019	-1.191053
| 29> H	6.523158	2.614848	0.582959
| 30> H	8.096253	3.252043	0.039423
| 31> H	6.983494	2.493472	-1.136513
| 32> C	4.497581	5.919015	-1.547111
| 33> H	5.134308	3.922659	-2.156574
| 34> C	4.245997	6.178233	-3.041146
| 35> H	5.232707	6.667867	-1.180501
| 36> H	3.557302	6.114443	-0.987164
| 37> C	3.047919	5.427640	-3.637363
| 38> H	5.167139	5.925419	-3.616502
| 39> H	4.092100	7.270754	-3.190093
| 40> C	2.788890	5.782768	-5.103786
| 41> H	2.146107	5.643918	-3.024085
| 42> H	3.204409	4.332692	-3.532959
| 43> H	2.561059	6.863175	-5.225974
| 44> H	1.932460	5.212537	-5.518299
| 45> H	3.673533	5.560461	-5.738240
| 46> H	-1.840637	-1.528786	0.418265
| 47> H	2.708669	-2.418085	0.215885
| 48> **                         ****END OF INPUT****
================================================================================

                       *****************************
                       * Geometry Optimization Run *
                       *****************************

Geometry optimization settings:
Update method            Update   .... BFGS
Choice of coordinates    CoordSys .... Z-matrix Internals
Initial Hessian          InHess   .... Almoef's Model

Convergence Tolerances:
Energy Change            TolE     ....  5.0000e-06 Eh
Max. Gradient            TolMAXG  ....  3.0000e-04 Eh/bohr
RMS Gradient             TolRMSG  ....  1.0000e-04 Eh/bohr
Max. Displacement        TolMAXD  ....  4.0000e-03 bohr
RMS Displacement         TolRMSD  ....  2.0000e-03 bohr
Strict Convergence                ....  False
------------------------------------------------------------------------------
                        ORCA OPTIMIZATION COORDINATE SETUP
------------------------------------------------------------------------------

The optimization will be done in new redundant internal coordinates
Making redundant internal coordinates   ...  (new redundants) done
Evaluating the initial hessian          ...  (Almloef) done
Evaluating the coordinates              ...  done
Calculating the B-matrix                .... done
Calculating the G-matrix                .... done
Diagonalizing the G-matrix              .... done
Imposing constraints:
 Iter   0:  RMS(Cart)=    0.0000000000 RMS(Int)=    0.0000000000
CONVERGED
Small eigenvalue found = 1.777e-03
Small eigenvalue found = 3.455e-03
Small eigenvalue found = 7.191e-03
Small eigenvalue found = 1.181e-02
Small eigenvalue found = 1.763e-02
Small eigenvalue found = 1.821e-02
Small eigenvalue found = 2.317e-02
The first mode is                       ....  101
The number of degrees of freedom        ....  111
Storing new coordinates                 .... done

    -----------------------------------------------------------------
                    Redundant Internal Coordinates


    -----------------------------------------------------------------
         Definition                    Initial Value    Approx d2E/dq
    -----------------------------------------------------------------
      1. B(C   1,C   0)                  1.3979         0.606896 C 
      2. B(S   2,C   0)                  1.7602         0.432461 C 
      3. B(C   3,C   1)                  1.4432         0.513854 C 
      4. B(C   4,S   2)                  1.7614         0.430493 C 
      5. B(C   4,C   3)                  1.4184         0.562962 C 
      6. B(S   5,C   1)                  1.7577         0.436379 C 
      7. B(C   6,S   5)                  1.7761         0.407844 C 
      8. B(C   7,C   3)                  1.4322         0.535153 C 
      9. B(C   7,C   6)                  1.3865         0.632949 C 
     10. B(F   8,C   7)                  1.3423         0.619597 C 
     11. B(C   9,C   6)                  1.4737         0.459331 C 
     12. B(O  10,C   9)                  1.2183         1.051581 C 
     13. B(O  11,C   9)                  1.3654         0.612425 C 
     14. B(C  12,O  11)                  1.4403         0.465185 C 
     15. B(C  13,C  12)                  1.5251         0.380425 C 
     16. B(H  14,C  12)                  1.1049         0.340903   
     17. B(H  15,C  12)                  1.1141         0.329560   
     18. B(C  16,C  13)                  1.5438         0.355058 C 
     19. B(C  17,C  16)                  1.5356         0.366034 C 
     20. B(H  18,C  16)                  1.1137         0.330030   
     21. B(H  19,C  16)                  1.1113         0.332993   
     22. B(H  20,C  17)                  1.1096         0.335096   
     23. B(H  21,C  17)                  1.1087         0.336206   
     24. B(H  22,C  17)                  1.1113         0.333039   
     25. B(C  23,C  13)                  1.5526         0.343772 C 
     26. B(H  24,C  13)                  1.1150         0.328552   
     27. B(C  25,C  23)                  1.5371         0.363977 C 
     28. B(H  26,C  23)                  1.1116         0.332664   
     29. B(H  27,C  23)                  1.1117         0.332519   
     30. B(C  28,C  25)                  1.5344         0.367641 C 
     31. B(H  29,C  25)                  1.1151         0.328379   
     32. B(H  30,C  25)                  1.1133         0.330540   
     33. B(C  31,C  28)                  1.5309         0.372362 C 
     34. B(H  32,C  28)                  1.1118         0.332358   
     35. B(H  33,C  28)                  1.1110         0.333376   
     36. B(H  34,C  31)                  1.1109         0.333477   
     37. B(H  35,C  31)                  1.1093         0.335502   
     38. B(H  36,C  31)                  1.1111         0.333240   
     39. B(H  37,C   0)                  1.0800         0.373575   
     40. B(H  38,C   4)                  1.0800         0.373575   
     41. A(S   2,C   0,H  37)          120.7120         0.351496   
     42. A(C   1,C   0,H  37)          130.3868         0.353829   
     43. A(C   1,C   0,S   2)          108.9002         0.427734 C 
     44. A(C   0,C   1,S   5)          132.2271         0.428427 C 
     45. A(C   3,C   1,S   5)          113.1785         0.415879 C 
     46. A(C   0,C   1,C   3)          114.5876         0.418112 C 
     47. A(C   0,S   2,C   4)           94.4727         0.424404 C 
     48. A(C   1,C   3,C   7)          109.5325         0.408873 C 
     49. A(C   1,C   3,C   4)          113.2692         0.412562 C 
     50. A(C   4,C   3,C   7)          137.1932         0.415550 C 
     51. A(S   2,C   4,H  38)          117.8806         0.351225   
     52. A(C   3,C   4,H  38)          133.3262         0.349363   
     53. A(S   2,C   4,C   3)          108.7701         0.421678 C 
     54. A(C   1,S   5,C   6)           90.3314         0.421003 C 
     55. A(S   5,C   6,C   9)          117.5683         0.402844 C 
     56. A(S   5,C   6,C   7)          111.7838         0.426466 C 
     57. A(C   7,C   6,C   9)          130.6295         0.412929 C 
     58. A(C   3,C   7,F   8)          122.2780         0.418118 C 
     59. A(C   3,C   7,C   6)          115.1448         0.424327 C 
     60. A(C   6,C   7,F   8)          122.5761         0.430861 C 
     61. A(C   6,C   9,O  10)          122.4788         0.449382 C 
     62. A(C   6,C   9,O  11)          114.7764         0.407876 C 
     63. A(O  10,C   9,O  11)          122.4536         0.470461 C 
     64. A(C   9,O  11,C  12)          121.7762         0.406160 C 
     65. A(O  11,C  12,C  13)          108.8630         0.376120 C 
     66. A(O  11,C  12,H  14)          108.6166         0.331237   
     67. A(C  13,C  12,H  14)          110.6911         0.322377   
     68. A(C  13,C  12,H  15)          110.4120         0.320596   
     69. A(H  14,C  12,H  15)          108.8177         0.284393   
     70. A(O  11,C  12,H  15)          109.4090         0.329389   
     71. A(C  12,C  13,C  16)          110.2356         0.361331 C 
     72. A(C  16,C  13,H  24)          107.0046         0.316849   
     73. A(C  12,C  13,C  23)          112.5129         0.359347 C 
     74. A(C  16,C  13,C  23)          112.2770         0.355157 C 
     75. A(C  12,C  13,H  24)          105.7626         0.320436   
     76. A(C  23,C  13,H  24)          108.6732         0.315189   
     77. A(C  17,C  16,H  19)          109.4219         0.319123   
     78. A(H  18,C  16,H  19)          105.3623         0.283420   
     79. A(C  13,C  16,C  17)          115.2982         0.358964 C 
     80. A(C  13,C  16,H  18)          109.0506         0.317081   
     81. A(C  17,C  16,H  18)          110.0303         0.318658   
     82. A(C  13,C  16,H  19)          107.1798         0.317542   
     83. A(C  16,C  17,H  20)          112.8555         0.319451   
     84. A(C  16,C  17,H  21)          111.0500         0.319623   
     85. A(H  20,C  17,H  21)          106.9111         0.284516   
     86. A(C  16,C  17,H  22)          111.5199         0.319130   
     87. A(H  20,C  17,H  22)          106.9054         0.284098   
     88. A(H  21,C  17,H  22)          107.2908         0.284244   
     89. A(C  13,C  23,C  25)          114.9623         0.356656 C 
     90. A(C  13,C  23,H  26)          108.8243         0.315827   
     91. A(C  25,C  23,H  26)          108.3734         0.318778   
     92. A(C  13,C  23,H  27)          109.5908         0.315804   
     93. A(C  25,C  23,H  27)          108.7535         0.318755   
     94. A(H  26,C  23,H  27)          105.9509         0.283708   
     95. A(C  23,C  25,C  28)          115.0241         0.360754 C 
     96. A(C  23,C  25,H  29)          109.1520         0.318105   
     97. A(C  28,C  25,H  29)          109.4883         0.318625   
     98. A(C  23,C  25,H  30)          108.5516         0.318445   
     99. A(C  28,C  25,H  30)          108.6708         0.318966   
    100. A(H  29,C  25,H  30)          105.5241         0.282875   
    101. A(C  25,C  28,H  33)          109.6105         0.319411   
    102. A(C  31,C  28,H  33)          110.0278         0.320077   
    103. A(H  32,C  28,H  33)          104.7221         0.283781   
    104. A(C  25,C  28,C  31)          113.0076         0.362158 C 
    105. A(C  25,C  28,H  32)          108.8956         0.319251   
    106. A(C  31,C  28,H  32)          110.2431         0.319917   
    107. A(C  28,C  31,H  35)          111.6746         0.320410   
    108. A(H  34,C  31,H  35)          107.4881         0.284210   
    109. A(C  28,C  31,H  36)          111.4593         0.320056   
    110. A(H  34,C  31,H  36)          107.1615         0.283911   
    111. A(H  35,C  31,H  36)          107.3665         0.284178   
    112. A(C  28,C  31,H  34)          111.4485         0.320093   
    113. D(C   3,C   1,C   0,S   2)     -0.1348         0.025423 C 
    114. D(S   5,C   1,C   0,H  37)      1.2629         0.025423   
    115. D(C   3,C   1,C   0,H  37)   -179.7699         0.025423   
    116. D(S   5,C   1,C   0,S   2)   -179.1020         0.025423 C 
    117. D(C   4,S   2,C   0,C   1)      0.1593         0.004235 C 
    118. D(C   4,S   2,C   0,H  37)    179.8360         0.004235   
    119. D(C   4,C   3,C   1,C   0)      0.0300         0.017999 C 
    120. D(C   4,C   3,C   1,S   5)    179.1981         0.017999 C 
    121. D(C   7,C   3,C   1,C   0)    179.3450         0.017999 C 
    122. D(C   7,C   3,C   1,S   5)     -1.4869         0.017999 C 
    123. D(H  38,C   4,C   3,C   7)      2.8837         0.021718   
    124. D(H  38,C   4,S   2,C   0)    178.3398         0.004209   
    125. D(S   2,C   4,C   3,C   1)      0.0901         0.021718 C 
    126. D(H  38,C   4,C   3,C   1)   -178.0663         0.021718   
    127. D(S   2,C   4,C   3,C   7)   -178.9600         0.021718 C 
    128. D(C   3,C   4,S   2,C   0)     -0.1429         0.004209 C 
    129. D(C   6,S   5,C   1,C   0)   -179.3895         0.004287 C 
    130. D(C   6,S   5,C   1,C   3)      1.6321         0.004287 C 
    131. D(C   7,C   6,S   5,C   1)     -1.3548         0.003921 C 
    132. D(C   9,C   6,S   5,C   1)    177.2482         0.003921 C 
    133. D(C   3,C   7,C   6,C   9)   -177.5995         0.027794 C 
    134. D(C   6,C   7,C   3,C   1)      0.4445         0.019558 C 
    135. D(C   3,C   7,C   6,S   5)      0.7687         0.027794 C 
    136. D(C   6,C   7,C   3,C   4)    179.5185         0.019558 C 
    137. D(F   8,C   7,C   6,S   5)   -178.8700         0.027794 C 
    138. D(F   8,C   7,C   3,C   4)     -0.8416         0.019558 C 
    139. D(F   8,C   7,C   6,C   9)      2.7617         0.027794 C 
    140. D(F   8,C   7,C   3,C   1)   -179.9156         0.019558 C 
    141. D(O  10,C   9,C   6,S   5)     14.4102         0.014373 C 
    142. D(O  10,C   9,C   6,C   7)   -167.2991         0.014373 C 
    143. D(O  11,C   9,C   6,S   5)   -159.5283         0.014373 C 
    144. D(O  11,C   9,C   6,C   7)     18.7624         0.014373 C 
    145. D(C  12,O  11,C   9,C   6)    -92.7219         0.027469 C 
    146. D(C  12,O  11,C   9,O  10)     93.3379         0.027469 C 
    147. D(C  13,C  12,O  11,C   9)   -153.5350         0.017052 C 
    148. D(H  14,C  12,O  11,C   9)     85.8620         0.017052   
    149. D(H  15,C  12,O  11,C   9)    -32.7948         0.017052   
    150. D(C  16,C  13,C  12,O  11)   -167.7314         0.011533 C 
    151. D(C  16,C  13,C  12,H  15)     72.1469         0.011533   
    152. D(C  23,C  13,C  12,O  11)     66.1015         0.011533 C 
    153. D(H  24,C  13,C  12,H  14)     66.9218         0.011533   
    154. D(C  16,C  13,C  12,H  14)    -48.4138         0.011533   
    155. D(C  23,C  13,C  12,H  14)   -174.5808         0.011533   
    156. D(C  23,C  13,C  12,H  15)    -54.0202         0.011533   
    157. D(H  24,C  13,C  12,O  11)    -52.3958         0.011533   
    158. D(H  24,C  13,C  12,H  15)   -172.5175         0.011533   
    159. D(H  19,C  16,C  13,H  24)     64.9907         0.010134   
    160. D(C  17,C  16,C  13,C  23)   -176.2391         0.010134 C 
    161. D(C  17,C  16,C  13,H  24)    -57.0893         0.010134   
    162. D(H  18,C  16,C  13,C  12)    -66.8731         0.010134   
    163. D(H  18,C  16,C  13,C  23)     59.4266         0.010134   
    164. D(H  18,C  16,C  13,H  24)    178.5764         0.010134   
    165. D(H  19,C  16,C  13,C  12)    179.5411         0.010134   
    166. D(C  17,C  16,C  13,C  12)     57.4611         0.010134 C 
    167. D(H  19,C  16,C  13,C  23)    -54.1592         0.010134   
    168. D(H  22,C  17,C  16,H  18)    172.1881         0.010725   
    169. D(H  20,C  17,C  16,H  18)     51.8290         0.010725   
    170. D(H  20,C  17,C  16,H  19)    167.1402         0.010725   
    171. D(H  21,C  17,C  16,C  13)    167.9780         0.010725   
    172. D(H  21,C  17,C  16,H  18)    -68.2018         0.010725   
    173. D(H  21,C  17,C  16,H  19)     47.1094         0.010725   
    174. D(H  20,C  17,C  16,C  13)    -71.9913         0.010725   
    175. D(H  22,C  17,C  16,C  13)     48.3678         0.010725   
    176. D(H  22,C  17,C  16,H  19)    -72.5007         0.010725   
    177. D(C  25,C  23,C  13,C  12)   -115.6199         0.009550 C 
    178. D(C  25,C  23,C  13,C  16)    119.3218         0.009550 C 
    179. D(C  25,C  23,C  13,H  24)      1.1545         0.009550   
    180. D(H  26,C  23,C  13,C  12)    122.6427         0.009550   
    181. D(H  26,C  23,C  13,C  16)     -2.4156         0.009550   
    182. D(H  26,C  23,C  13,H  24)   -120.5829         0.009550   
    183. D(H  27,C  23,C  13,C  12)      7.2061         0.009550   
    184. D(H  27,C  23,C  13,C  16)   -117.8522         0.009550   
    185. D(H  27,C  23,C  13,H  24)    123.9805         0.009550   
    186. D(C  28,C  25,C  23,C  13)     70.1347         0.010613 C 
    187. D(C  28,C  25,C  23,H  26)   -167.8837         0.010613   
    188. D(C  28,C  25,C  23,H  27)    -53.1387         0.010613   
    189. D(H  29,C  25,C  23,C  13)    -53.3609         0.010613   
    190. D(H  29,C  25,C  23,H  26)     68.6207         0.010613   
    191. D(H  29,C  25,C  23,H  27)   -176.6343         0.010613   
    192. D(H  30,C  25,C  23,C  13)   -167.9057         0.010613   
    193. D(H  30,C  25,C  23,H  26)    -45.9242         0.010613   
    194. D(H  30,C  25,C  23,H  27)     68.8208         0.010613   
    195. D(H  33,C  28,C  25,H  30)    177.7789         0.010813   
    196. D(C  31,C  28,C  25,H  29)    -60.1211         0.010813   
    197. D(C  31,C  28,C  25,H  30)     54.6670         0.010813   
    198. D(H  32,C  28,C  25,C  23)     53.6969         0.010813   
    199. D(H  32,C  28,C  25,H  29)    177.0137         0.010813   
    200. D(H  32,C  28,C  25,H  30)    -68.1982         0.010813   
    201. D(H  33,C  28,C  25,C  23)    -60.3259         0.010813   
    202. D(C  31,C  28,C  25,C  23)    176.5621         0.010813 C 
    203. D(H  33,C  28,C  25,H  29)     62.9909         0.010813   
    204. D(H  34,C  31,C  28,C  25)    -60.9645         0.011076   
    205. D(H  34,C  31,C  28,H  32)     61.1484         0.011076   
    206. D(H  34,C  31,C  28,H  33)    176.1551         0.011076   
    207. D(H  35,C  31,C  28,C  25)    178.7987         0.011076   
    208. D(H  35,C  31,C  28,H  32)    -59.0884         0.011076   
    209. D(H  35,C  31,C  28,H  33)     55.9183         0.011076   
    210. D(H  36,C  31,C  28,C  25)     58.7097         0.011076   
    211. D(H  36,C  31,C  28,H  32)   -179.1773         0.011076   
    212. D(H  36,C  31,C  28,H  33)    -64.1706         0.011076   
    -----------------------------------------------------------------

Number of atoms                         .... 39
Number of degrees of freedom            .... 212

         *************************************************************
         *                GEOMETRY OPTIMIZATION CYCLE   1            *
         *************************************************************
---------------------------------
CARTESIAN COORDINATES (ANGSTROEM)
---------------------------------
  C     -0.770450   -1.417466    0.324953
  C      0.006426   -0.274412    0.115070
  S      0.291054   -2.818028    0.423863
  C      1.426639   -0.519341    0.038452
  C      1.768366   -1.887391    0.191519
  S     -0.412678    1.424345   -0.052525
  C      1.300378    1.835301   -0.278616
  C      2.113793    0.715835   -0.192279
  F      3.449379    0.782242   -0.308478
  C      1.633464    3.244870   -0.550828
  O      0.838547    4.150916   -0.373641
  O      2.850805    3.442300   -1.136951
  C      4.034613    3.700472   -0.358229
  C      5.019618    4.496722   -1.207664
  H      4.474318    2.733633   -0.053738
  H      3.758430    4.273602    0.556384
  C      6.405884    4.528647   -0.528927
  C      7.028937    3.154349   -0.244275
  H      6.335814    5.118278    0.413322
  H      7.082218    5.111019   -1.191053
  H      6.523158    2.614848    0.582959
  H      8.096253    3.252043    0.039423
  H      6.983494    2.493472   -1.136513
  C      4.497581    5.919015   -1.547111
  H      5.134308    3.922659   -2.156574
  C      4.245997    6.178233   -3.041146
  H      5.232707    6.667867   -1.180501
  H      3.557302    6.114443   -0.987164
  C      3.047919    5.427640   -3.637363
  H      5.167139    5.925419   -3.616502
  H      4.092100    7.270754   -3.190093
  C      2.788890    5.782768   -5.103786
  H      2.146107    5.643918   -3.024085
  H      3.204409    4.332692   -3.532959
  H      2.561059    6.863175   -5.225974
  H      1.932460    5.212537   -5.518299
  H      3.673533    5.560461   -5.738240
  H     -1.840637   -1.528786    0.418265
  H      2.708669   -2.418085    0.215885

----------------------------
CARTESIAN COORDINATES (A.U.)
----------------------------
  NO LB      ZA    FRAG     MASS         X           Y           Z
   0 C     6.0000    0    12.011   -1.455939   -2.678623    0.614072
   1 C     6.0000    0    12.011    0.012143   -0.518564    0.217451
   2 S    16.0000    0    32.060    0.550012   -5.325301    0.800985
   3 C     6.0000    0    12.011    2.695957   -0.981412    0.072664
   4 C     6.0000    0    12.011    3.341727   -3.566652    0.361918
   5 S    16.0000    0    32.060   -0.779848    2.691622   -0.099258
   6 C     6.0000    0    12.011    2.457358    3.468216   -0.526508
   7 C     6.0000    0    12.011    3.994490    1.352732   -0.363355
   8 F     9.0000    0    18.998    6.518382    1.478223   -0.582939
   9 C     6.0000    0    12.011    3.086800    6.131916   -1.040914
  10 O     8.0000    0    15.999    1.584624    7.844094   -0.706079
  11 O     8.0000    0    15.999    5.387241    6.505004   -2.148526
  12 C     6.0000    0    12.011    7.624314    6.992879   -0.676955
  13 C     6.0000    0    12.011    9.485703    8.497573   -2.282154
  14 H     1.0000    0     1.008    8.455236    5.165818   -0.101550
  15 H     1.0000    0     1.008    7.102403    8.075937    1.051413
  16 C     6.0000    0    12.011   12.105366    8.557903   -0.999527
  17 C     6.0000    0    12.011   13.282766    5.960856   -0.461613
  18 H     1.0000    0     1.008   11.972953    9.672144    0.781065
  19 H     1.0000    0     1.008   13.383452    9.658426   -2.250764
  20 H     1.0000    0     1.008   12.326982    4.941347    1.101633
  21 H     1.0000    0     1.008   15.299701    6.145471    0.074499
  22 H     1.0000    0     1.008   13.196891    4.711979   -2.147698
  23 C     6.0000    0    12.011    8.499196   11.185317   -2.923616
  24 H     1.0000    0     1.008    9.702436    7.412751   -4.075334
  25 C     6.0000    0    12.011    8.023771   11.675168   -5.746933
  26 H     1.0000    0     1.008    9.888383   12.600443   -2.230824
  27 H     1.0000    0     1.008    6.722327   11.554623   -1.865470
  28 C     6.0000    0    12.011    5.759732   10.256753   -6.873620
  29 H     1.0000    0     1.008    9.764478   11.197419   -6.834198
  30 H     1.0000    0     1.008    7.732948   13.739734   -6.028402
  31 C     6.0000    0    12.011    5.270238   10.927848   -9.644758
  32 H     1.0000    0     1.008    4.055554   10.665459   -5.714692
  33 H     1.0000    0     1.008    6.055455    8.187601   -6.676325
  34 H     1.0000    0     1.008    4.839700   12.969521   -9.875660
  35 H     1.0000    0     1.008    3.651820    9.850267  -10.428074
  36 H     1.0000    0     1.008    6.941971   10.507748  -10.843702
  37 H     1.0000    0     1.008   -3.478300   -2.888987    0.790406
  38 H     1.0000    0     1.008    5.118643   -4.569518    0.407964

--------------------------------
INTERNAL COORDINATES (ANGSTROEM)
--------------------------------
 C      0   0   0     0.000000000000     0.00000000     0.00000000
 C      1   0   0     1.397912600981     0.00000000     0.00000000
 S      1   2   0     1.760155631176   108.90018627     0.00000000
 C      2   1   3     1.443213601077   114.58757761   359.86515034
 C      4   2   1     1.418367953501   113.26915582     0.02996183
 S      2   1   3     1.757700654802   132.22713390   180.89795059
 C      6   2   1     1.776108902447    90.33141161   180.61046733
 C      7   6   2     1.386471119407   111.78376413   358.64517414
 F      8   7   6     1.342274957170   122.57613526   181.12997771
 C      7   6   2     1.473747068564   117.56830885   177.24823873
 O     10   7   6     1.218280601493   122.47875126    14.41017205
 O     10   7   6     1.365444208421   114.77643463   200.47165682
 C     12  10   7     1.440299314633   121.77618883   267.27810853
 C     13  12  10     1.525053681596   108.86297562   206.46502253
 H     13  12  10     1.104913077136   108.61655436    85.86195109
 H     13  12  10     1.114123864818   109.40901440   327.20515358
 C     14  13  12     1.543838250449   110.23562369   192.26861222
 C     17  14  13     1.535550974314   115.29823376    57.46113564
 H     17  14  13     1.113735919804   109.05063493   293.12686347
 H     17  14  13     1.111303588501   107.17984120   179.54107514
 H     18  17  14     1.109589931731   112.85547284   288.00873041
 H     18  17  14     1.108689368893   111.04996542   167.97797733
 H     18  17  14     1.111266000570   111.51990275    48.36784345
 C     14  13  12     1.552631402821   112.51294905    66.10153039
 H     14  13  12     1.114958435176   105.76261572   307.60415744
 C     24  14  13     1.537084598129   114.96229499   244.38007380
 H     24  14  13     1.111572060588   108.82431549   122.64268845
 H     24  14  13     1.111691208850   109.59080025     7.20607959
 C     26  24  14     1.534358320870   115.02412475    70.13471051
 H     26  24  14     1.115101802301   109.15201344   306.63913395
 H     26  24  14     1.113315602540   108.55156572   192.09427251
 C     29  26  24     1.530884820669   113.00763782   176.56211958
 H     29  26  24     1.111823260196   108.89557840    53.69692051
 H     29  26  24     1.110990746145   109.61054235   299.67407768
 H     32  29  26     1.110907807855   111.44853959   299.03545706
 H     32  29  26     1.109259557286   111.67464314   178.79867255
 H     32  29  26     1.111101038526   111.45929693    58.70972213
 H      1   2   3     1.079999762367   130.38684557   180.36491193
 H      5   4   2     1.079999794167   133.32624165   181.93370854

---------------------------
INTERNAL COORDINATES (A.U.)
---------------------------
 C      0   0   0     0.000000000000     0.00000000     0.00000000
 C      1   0   0     2.641671975011     0.00000000     0.00000000
 S      1   2   0     3.326212096002   108.90018627     0.00000000
 C      2   1   3     2.727278458786   114.58757761   359.86515034
 C      4   2   1     2.680326989247   113.26915582     0.02996183
 S      2   1   3     3.321572862989   132.22713390   180.89795059
 C      6   2   1     3.356359409645    90.33141161   180.61046733
 C      7   6   2     2.620050708271   111.78376413   358.64517414
 F      8   7   6     2.536532065472   122.57613526   181.12997771
 C      7   6   2     2.784978350255   117.56830885   177.24823873
 O     10   7   6     2.302216691091   122.47875126    14.41017205
 O     10   7   6     2.580315605064   114.77643463   200.47165682
 C     12  10   7     2.721771255531   121.77618883   267.27810853
 C     13  12  10     2.881933797745   108.86297562   206.46502253
 H     13  12  10     2.087983117576   108.61655436    85.86195109
 H     13  12  10     2.105388983773   109.40901440   327.20515358
 C     14  13  12     2.917431488421   110.23562369   192.26861222
 C     17  14  13     2.901770806130   115.29823376    57.46113564
 H     17  14  13     2.104655873941   109.05063493   293.12686347
 H     17  14  13     2.100059433911   107.17984120   179.54107514
 H     18  17  14     2.096821091927   112.85547284   288.00873041
 H     18  17  14     2.095119274797   111.04996542   167.97797733
 H     18  17  14     2.099988403015   111.51990275    48.36784345
 C     14  13  12     2.934048138258   112.51294905    66.10153039
 H     14  13  12     2.106966093187   105.76261572   307.60415744
 C     24  14  13     2.904668935132   114.96229499   244.38007380
 H     24  14  13     2.100566772630   108.82431549   122.64268845
 H     24  14  13     2.100791930214   109.59080025     7.20607959
 C     26  24  14     2.899517017747   115.02412475    70.13471051
 H     26  24  14     2.107237017792   109.15201344   306.63913395
 H     26  24  14     2.103861589422   108.55156572   192.09427251
 C     29  26  24     2.892953053641   113.00763782   176.56211958
 H     29  26  24     2.101041471093   108.89557840    53.69692051
 H     29  26  24     2.099468247535   109.61054235   299.67407768
 H     32  29  26     2.099311516881   111.44853959   299.03545706
 H     32  29  26     2.096196774705   111.67464314   178.79867255
 H     32  29  26     2.099676669930   111.45929693    58.70972213
 H      1   2   3     2.040903775574   130.38684557   180.36491193
 H      5   4   2     2.040903835667   133.32624165   181.93370854

---------------------
BASIS SET INFORMATION
---------------------
There are 5 groups of distinct atoms

 Group   1 Type C   : 7s4p1d contracted to 3s2p1d pattern {511/31/1}
 Group   2 Type S   : 10s7p1d contracted to 4s3p1d pattern {5311/511/1}
 Group   3 Type F   : 7s4p1d contracted to 3s2p1d pattern {511/31/1}
 Group   4 Type O   : 7s4p1d contracted to 3s2p1d pattern {511/31/1}
 Group   5 Type H   : 4s1p contracted to 2s1p pattern {31/1}

Atom   0C    basis set group =>   1
Atom   1C    basis set group =>   1
Atom   2S    basis set group =>   2
Atom   3C    basis set group =>   1
Atom   4C    basis set group =>   1
Atom   5S    basis set group =>   2
Atom   6C    basis set group =>   1
Atom   7C    basis set group =>   1
Atom   8F    basis set group =>   3
Atom   9C    basis set group =>   1
Atom  10O    basis set group =>   4
Atom  11O    basis set group =>   4
Atom  12C    basis set group =>   1
Atom  13C    basis set group =>   1
Atom  14H    basis set group =>   5
Atom  15H    basis set group =>   5
Atom  16C    basis set group =>   1
Atom  17C    basis set group =>   1
Atom  18H    basis set group =>   5
Atom  19H    basis set group =>   5
Atom  20H    basis set group =>   5
Atom  21H    basis set group =>   5
Atom  22H    basis set group =>   5
Atom  23C    basis set group =>   1
Atom  24H    basis set group =>   5
Atom  25C    basis set group =>   1
Atom  26H    basis set group =>   5
Atom  27H    basis set group =>   5
Atom  28C    basis set group =>   1
Atom  29H    basis set group =>   5
Atom  30H    basis set group =>   5
Atom  31C    basis set group =>   1
Atom  32H    basis set group =>   5
Atom  33H    basis set group =>   5
Atom  34H    basis set group =>   5
Atom  35H    basis set group =>   5
Atom  36H    basis set group =>   5
Atom  37H    basis set group =>   5
Atom  38H    basis set group =>   5
---------------------------------
AUXILIARY/J BASIS SET INFORMATION
---------------------------------
There are 5 groups of distinct atoms

 Group   1 Type C   : 12s5p4d2f1g contracted to 6s4p3d1f1g pattern {711111/2111/211/2/1}
 Group   2 Type S   : 14s5p5d2f1g contracted to 8s4p3d1f1g pattern {71111111/2111/311/2/1}
 Group   3 Type F   : 12s5p4d2f1g contracted to 6s4p3d1f1g pattern {711111/2111/211/2/1}
 Group   4 Type O   : 12s5p4d2f1g contracted to 6s4p3d1f1g pattern {711111/2111/211/2/1}
 Group   5 Type H   : 5s2p1d contracted to 3s1p1d pattern {311/2/1}

Atom   0C    basis set group =>   1
Atom   1C    basis set group =>   1
Atom   2S    basis set group =>   2
Atom   3C    basis set group =>   1
Atom   4C    basis set group =>   1
Atom   5S    basis set group =>   2
Atom   6C    basis set group =>   1
Atom   7C    basis set group =>   1
Atom   8F    basis set group =>   3
Atom   9C    basis set group =>   1
Atom  10O    basis set group =>   4
Atom  11O    basis set group =>   4
Atom  12C    basis set group =>   1
Atom  13C    basis set group =>   1
Atom  14H    basis set group =>   5
Atom  15H    basis set group =>   5
Atom  16C    basis set group =>   1
Atom  17C    basis set group =>   1
Atom  18H    basis set group =>   5
Atom  19H    basis set group =>   5
Atom  20H    basis set group =>   5
Atom  21H    basis set group =>   5
Atom  22H    basis set group =>   5
Atom  23C    basis set group =>   1
Atom  24H    basis set group =>   5
Atom  25C    basis set group =>   1
Atom  26H    basis set group =>   5
Atom  27H    basis set group =>   5
Atom  28C    basis set group =>   1
Atom  29H    basis set group =>   5
Atom  30H    basis set group =>   5
Atom  31C    basis set group =>   1
Atom  32H    basis set group =>   5
Atom  33H    basis set group =>   5
Atom  34H    basis set group =>   5
Atom  35H    basis set group =>   5
Atom  36H    basis set group =>   5
Atom  37H    basis set group =>   5
Atom  38H    basis set group =>   5
------------------------------------------------------------------------------
                           ORCA GTO INTEGRAL CALCULATION
                           -- RI-GTO INTEGRALS CHOSEN --
------------------------------------------------------------------------------

                         BASIS SET STATISTICS AND STARTUP INFO

Gaussian basis set:
 # of primitive gaussian shells          ...  347
 # of primitive gaussian functions       ...  637
 # of contracted shells                  ...  181
 # of contracted basis functions         ...  383
 Highest angular momentum                ...    2
 Maximum contraction depth               ...    5
Auxiliary gaussian basis set:
 # of primitive gaussian shells          ...  638
 # of primitive gaussian functions       ... 1718
 # of contracted shells                  ...  399
 # of contracted aux-basis functions     ... 1193
 Highest angular momentum                ...    4
 Maximum contraction depth               ...    7
Ratio of auxiliary to basis functions    ...  3.11
Integral package used                  ... LIBINT
 One Electron integrals                  ... done
 Ordering auxiliary basis shells         ... done
 Integral threshhold             Thresh  ...  2.500e-11
 Primitive cut-off               TCut    ...  2.500e-12
 Pre-screening matrix                    ... done
 Shell pair data                         ... 
 Ordering of the shell pairs             ... done (   0.002 sec) 11542 of 16471 pairs
 Determination of significant pairs      ... done (   0.000 sec)
 Creation of shell pair data             ... done (   0.002 sec)
 Storage of shell pair data              ... done (   0.008 sec)
 Shell pair data done in (   0.012 sec)
 Computing two index integrals           ... done
 Cholesky decomposition of the V-matrix  ... done


Timings:
 Total evaluation time                   ...   0.387 sec (  0.006 min)
 One electron matrix time                ...   0.100 sec (  0.002 min) = 25.9%
 Schwartz matrix evaluation time         ...   0.162 sec (  0.003 min) = 41.8%
 Two index repulsion integral time       ...   0.045 sec (  0.001 min) = 11.7%
 Cholesky decomposition of V             ...   0.043 sec (  0.001 min) = 11.2%
 Three index repulsion integral time     ...   0.000 sec (  0.000 min) =  0.0%

-------------------------------------------------------------------------------
                                 ORCA SCF
-------------------------------------------------------------------------------

------------
SCF SETTINGS
------------
Hamiltonian:
 Density Functional     Method          .... DFT(GTOs)
 Exchange Functional    Exchange        .... B88
   X-Alpha parameter    XAlpha          ....  0.666667
   Becke's b parameter  XBeta           ....  0.004200
 Correlation Functional Correlation     .... P86
 LDA part of GGA corr.  LDAOpt          .... PW91-LDA
 Gradients option       PostSCFGGA      .... off
   Density functional embedding theory  .... OFF
 RI-approximation to the Coulomb term is turned on
   Number of auxiliary basis functions  .... 1193


General Settings:
 Integral files         IntName         .... PTB7_Input_Noninteracting_Methylcarbonyl_3_Fluoro_Thienothiophene_With_Sidechain_2_Optimize_Monomer
 Hartree-Fock type      HFTyp           .... RHF
 Total Charge           Charge          ....    0
 Multiplicity           Mult            ....    1
 Number of Electrons    NEL             ....  166
 Basis Dimension        Dim             ....  383
 Nuclear Repulsion      ENuc            ....   1813.5887144883 Eh

Convergence Acceleration:
 DIIS                   CNVDIIS         .... on
   Start iteration      DIISMaxIt       ....    12
   Startup error        DIISStart       ....  0.200000
   # of expansion vecs  DIISMaxEq       ....     5
   Bias factor          DIISBfac        ....   1.050
   Max. coefficient     DIISMaxC        ....  10.000
 Newton-Raphson         CNVNR           .... off
 SOSCF                  CNVSOSCF        .... on
   Start iteration      SOSCFMaxIt      ....   150
   Startup grad/error   SOSCFStart      ....  0.003300
 Level Shifting         CNVShift        .... on
   Level shift para.    LevelShift      ....    0.2500
   Turn off err/grad.   ShiftErr        ....    0.0010
 Zerner damping         CNVZerner       .... off
 Static damping         CNVDamp         .... on
   Fraction old density DampFac         ....    0.7000
   Max. Damping (<1)    DampMax         ....    0.9800
   Min. Damping (>=0)   DampMin         ....    0.0000
   Turn off err/grad.   DampErr         ....    0.1000
 Fernandez-Rico         CNVRico         .... off

SCF Procedure:
 Maximum # iterations   MaxIter         ....   125
 SCF integral mode      SCFMode         .... Direct
   Integral package                     .... LIBINT
 Reset frequency        DirectResetFreq ....    20
 Integral Threshold     Thresh          ....  2.500e-11 Eh
 Primitive CutOff       TCut            ....  2.500e-12 Eh

Convergence Tolerance:
 Convergence Check Mode ConvCheckMode   .... Total+1el-Energy
 Convergence forced     ConvForced      .... 0
 Energy Change          TolE            ....  1.000e-08 Eh
 1-El. energy change                    ....  1.000e-05 Eh
 Orbital Gradient       TolG            ....  1.000e-05
 Orbital Rotation angle TolX            ....  1.000e-05
 DIIS Error             TolErr          ....  5.000e-07


Diagonalization of the overlap matrix:
Smallest eigenvalue                        ... 5.700e-04
Time for diagonalization                   ...    0.030 sec
Threshold for overlap eigenvalues          ... 1.000e-08
Number of eigenvalues below threshold      ... 0
Time for construction of square roots      ...    0.017 sec
Total time needed                          ...    0.048 sec

-------------------
DFT GRID GENERATION
-------------------

General Integration Accuracy     IntAcc      ...  4.340
Radial Grid Type                 RadialGrid  ... Gauss-Chebyshev
Angular Grid (max. acc.)         AngularGrid ... Lebedev-194
Angular grid pruning method      GridPruning ... 3 (G Style)
Weight generation scheme         WeightScheme... Becke
Basis function cutoff            BFCut       ...    1.0000e-11
Integration weight cutoff        WCut        ...    1.0000e-14
Grids for H and He will be reduced by one unit

# of grid points (after initial pruning)     ...  95506 (   0.0 sec)
# of grid points (after weights+screening)   ...  84744 (   0.8 sec)
nearest neighbour list constructed           ...    0.0 sec
Grid point re-assignment to atoms done       ...    0.0 sec
Grid point division into batches done        ...    0.1 sec
Reduced shell lists constructed in    1.1 sec

Total number of grid points                  ...    84744
Total number of batches                      ...     1346
Average number of points per batch           ...       62
Average number of grid points per atom       ...     2173
Average number of shells per batch           ...    79.09 (43.70%)
Average number of basis functions per batch  ...   156.57 (40.88%)
Average number of large shells per batch     ...    51.82 (65.52%)
Average number of large basis fcns per batch ...   102.77 (65.64%)
Maximum spatial batch extension              ...  17.20, 20.83, 21.84 au
Average spatial batch extension              ...   2.65,  2.75,  2.88 au

Time for grid setup =    1.943 sec

------------------------------
INITIAL GUESS: MODEL POTENTIAL
------------------------------
Loading Hartree-Fock densities                     ... done
Calculating cut-offs                               ... done
Setting up the integral package                    ... done
Initializing the effective Hamiltonian             ... done
Starting the Coulomb interaction                   ... done (   0.8 sec)
Reading the grid                                   ... done
Mapping shells                                     ... done
Starting the XC term evaluation                    ... done (   1.3 sec)
  promolecular density results
     # of electrons  =    165.995232588
     EX              =   -159.228427524
     EC              =     -6.326450932
     EX+EC           =   -165.554878455
Transforming the Hamiltonian                       ... done (   0.0 sec)
Diagonalizing the Hamiltonian                      ... done (   0.0 sec)
Back transforming the eigenvectors                 ... done (   0.0 sec)
Now organizing SCF variables                       ... done
                      ------------------
                      INITIAL GUESS DONE (   4.2 sec)
                      ------------------
--------------
SCF ITERATIONS
--------------
ITER       Energy         Delta-E        Max-DP      RMS-DP      [F,P]     Damp
               ***  Starting incremental Fock matrix formation  ***
  0  -1628.4706439946   0.000000000000 0.12753697  0.00174778  0.2465839 0.7000
  1  -1628.7006392851  -0.229995290496 0.07473126  0.00112739  0.0742912 0.7000
                               ***Turning on DIIS***
  2  -1628.7689194869  -0.068280201777 0.09916124  0.00158555  0.0237640 0.0000
  3  -1628.8801591382  -0.111239651337 0.04995952  0.00085532  0.0477920 0.0000
  4  -1628.9134155854  -0.033256447176 0.02141842  0.00032065  0.0320976 0.0000
  5  -1628.9168813575  -0.003465772078 0.01006323  0.00011484  0.0110618 0.0000
                      *** Initiating the SOSCF procedure ***
                           *** Shutting down DIIS ***
                      *** Re-Reading the Fockian *** 
                      *** Removing any level shift *** 
ITER      Energy       Delta-E        Grad      Rot      Max-DP    RMS-DP
  6  -1628.91722834  -0.0003469856  0.000648  0.000648  0.002827  0.000040
               *** Restarting incremental Fock matrix formation ***
  7  -1628.91726205  -0.0000337118  0.000380  0.002939  0.002390  0.000043
  8  -1628.91724388   0.0000181729  0.000831  0.001433  0.001655  0.000026
  9  -1628.91727002  -0.0000261338  0.000218  0.001844  0.001572  0.000021
 10  -1628.91726286   0.0000071576  0.000606  0.001632  0.001067  0.000015
 11  -1628.91727118  -0.0000083221  0.000090  0.000603  0.000826  0.000009
 12  -1628.91726948   0.0000016994  0.000255  0.000505  0.000652  0.000007
 13  -1628.91727149  -0.0000020056  0.000037  0.000222  0.000238  0.000003
 14  -1628.91727124   0.0000002462  0.000065  0.000140  0.000189  0.000002
 15  -1628.91727153  -0.0000002895  0.000008  0.000081  0.000074  0.000001
 16  -1628.91727150   0.0000000329  0.000017  0.000059  0.000052  0.000001
 17  -1628.91727154  -0.0000000469  0.000004  0.000019  0.000018  0.000000
 18  -1628.91727154   0.0000000021  0.000008  0.000012  0.000015  0.000000
                  ***Gradient check signals convergence***
              ***Rediagonalizing the Fockian in SOSCF/NRSCF***

               *****************************************************
               *                     SUCCESS                       *
               *           SCF CONVERGED AFTER  19 CYCLES          *
               *****************************************************

Setting up the final grid:

General Integration Accuracy     IntAcc      ...  5.010
Radial Grid Type                 RadialGrid  ... Gauss-Chebyshev
Angular Grid (max. acc.)         AngularGrid ... Lebedev-434
Angular grid pruning method      GridPruning ... 3 (G Style)
Weight generation scheme         WeightScheme... Becke
Basis function cutoff            BFCut       ...    1.0000e-11
Integration weight cutoff        WCut        ...    1.0000e-14
Grids for H and He will be reduced by one unit

# of grid points (after initial pruning)     ... 343600 (   0.2 sec)
# of grid points (after weights+screening)   ... 300663 (   2.8 sec)
nearest neighbour list constructed           ...    0.0 sec
Grid point re-assignment to atoms done       ...    0.1 sec
Grid point division into batches done        ...    1.9 sec
Reduced shell lists constructed in    5.1 sec

Total number of grid points                  ...   300663
Total number of batches                      ...     4718
Average number of points per batch           ...       63
Average number of grid points per atom       ...     7709
Average number of shells per batch           ...    72.95 (40.30%)
Average number of basis functions per batch  ...   143.11 (37.37%)
Average number of large shells per batch     ...    47.17 (64.66%)
Average number of large basis fcns per batch ...    92.54 (64.66%)
Maximum spatial batch extension              ...  20.55, 20.57, 23.40 au
Average spatial batch extension              ...   1.80,  1.85,  1.88 au

Final grid set up in    8.1 sec
Final integration                            ... done (   4.6 sec)
Change in XC energy                          ...    -0.000160381
Integrated number of electrons               ...   165.999991805
Previous integrated no of electrons          ...   166.001161216

----------------
TOTAL SCF ENERGY
----------------

Total Energy       :        -1628.91743192 Eh          -44325.09677 eV

Components:
Nuclear Repulsion  :         1813.58871449 Eh           49350.25784 eV
Electronic Energy  :        -3442.50614641 Eh          -93675.35461 eV
One Electron Energy:        -5839.09007772 Eh         -158889.71881 eV
Two Electron Energy:         2396.58393131 Eh           65214.36421 eV

Virial components:
Potential Energy   :        -3246.45707364 Eh          -88340.58812 eV
Kinetic Energy     :         1617.53964172 Eh           44015.49136 eV
Virial Ratio       :            2.00703401


DFT components:
N(Alpha)           :       82.999995902631 electrons
N(Beta)            :       82.999995902631 electrons
N(Total)           :      165.999991805263 electrons
E(X)               :     -161.024070620105 Eh       
E(C)               :       -6.319434592772 Eh       
E(XC)              :     -167.343505212877 Eh       
DFET-embed. en.    :        0.000000000000 Eh       

---------------
SCF CONVERGENCE
---------------

  Last Energy change         ...   -2.4779e-09  Tolerance :   1.0000e-08
  Last MAX-Density change    ...    8.7126e-06  Tolerance :   1.0000e-07
  Last RMS-Density change    ...    1.1421e-07  Tolerance :   5.0000e-09
  Last Orbital Gradient      ...    1.0751e-06  Tolerance :   1.0000e-05
  Last Orbital Rotation      ...    7.1905e-06  Tolerance :   1.0000e-05

             **** THE GBW FILE WAS UPDATED (PTB7_Input_Noninteracting_Methylcarbonyl_3_Fluoro_Thienothiophene_With_Sidechain_2_Optimize_Monomer.gbw) ****
             **** DENSITY FILE WAS UPDATED (PTB7_Input_Noninteracting_Methylcarbonyl_3_Fluoro_Thienothiophene_With_Sidechain_2_Optimize_Monomer.scfp) ****
             **** ENERGY FILE WAS UPDATED (PTB7_Input_Noninteracting_Methylcarbonyl_3_Fluoro_Thienothiophene_With_Sidechain_2_Optimize_Monomer.en.tmp) ****
             **** THE GBW FILE WAS UPDATED (PTB7_Input_Noninteracting_Methylcarbonyl_3_Fluoro_Thienothiophene_With_Sidechain_2_Optimize_Monomer.gbw) ****
             **** DENSITY FILE WAS UPDATED (PTB7_Input_Noninteracting_Methylcarbonyl_3_Fluoro_Thienothiophene_With_Sidechain_2_Optimize_Monomer.scfp) ****
----------------
ORBITAL ENERGIES
----------------

  NO   OCC          E(Eh)            E(eV) 
   0   2.0000     -88.148848     -2398.6521 
   1   2.0000     -88.129905     -2398.1366 
   2   2.0000     -24.331336      -662.0893 
   3   2.0000     -18.803780      -511.6769 
   4   2.0000     -18.775792      -510.9153 
   5   2.0000     -10.046716      -273.3850 
   6   2.0000     -10.028033      -272.8767 
   7   2.0000      -9.972407      -271.3630 
   8   2.0000      -9.971514      -271.3387 
   9   2.0000      -9.968220      -271.2491 
  10   2.0000      -9.966534      -271.2032 
  11   2.0000      -9.965405      -271.1725 
  12   2.0000      -9.959936      -271.0236 
  13   2.0000      -9.917920      -269.8803 
  14   2.0000      -9.917635      -269.8726 
  15   2.0000      -9.911858      -269.7154 
  16   2.0000      -9.903992      -269.5013 
  17   2.0000      -9.901466      -269.4326 
  18   2.0000      -9.895508      -269.2705 
  19   2.0000      -9.894326      -269.2383 
  20   2.0000      -7.743993      -210.7248 
  21   2.0000      -7.725760      -210.2286 
  22   2.0000      -5.770989      -157.0366 
  23   2.0000      -5.766333      -156.9099 
  24   2.0000      -5.763981      -156.8459 
  25   2.0000      -5.753540      -156.5618 
  26   2.0000      -5.749389      -156.4488 
  27   2.0000      -5.743255      -156.2819 
  28   2.0000      -1.138075       -30.9686 
  29   2.0000      -0.993201       -27.0264 
  30   2.0000      -0.922003       -25.0890 
  31   2.0000      -0.842127       -22.9154 
  32   2.0000      -0.788146       -21.4465 
  33   2.0000      -0.741993       -20.1906 
  34   2.0000      -0.704520       -19.1710 
  35   2.0000      -0.698737       -19.0136 
  36   2.0000      -0.687652       -18.7120 
  37   2.0000      -0.661460       -17.9992 
  38   2.0000      -0.646932       -17.6039 
  39   2.0000      -0.638196       -17.3662 
  40   2.0000      -0.597831       -16.2678 
  41   2.0000      -0.581240       -15.8163 
  42   2.0000      -0.547748       -14.9050 
  43   2.0000      -0.543056       -14.7773 
  44   2.0000      -0.522167       -14.2089 
  45   2.0000      -0.516223       -14.0471 
  46   2.0000      -0.509906       -13.8752 
  47   2.0000      -0.502936       -13.6856 
  48   2.0000      -0.494043       -13.4436 
  49   2.0000      -0.462276       -12.5792 
  50   2.0000      -0.442143       -12.0313 
  51   2.0000      -0.434895       -11.8341 
  52   2.0000      -0.425518       -11.5789 
  53   2.0000      -0.413716       -11.2578 
  54   2.0000      -0.402574       -10.9546 
  55   2.0000      -0.401709       -10.9311 
  56   2.0000      -0.393328       -10.7030 
  57   2.0000      -0.390031       -10.6133 
  58   2.0000      -0.388857       -10.5813 
  59   2.0000      -0.380608       -10.3569 
  60   2.0000      -0.375433       -10.2160 
  61   2.0000      -0.369704       -10.0602 
  62   2.0000      -0.365771        -9.9531 
  63   2.0000      -0.357666        -9.7326 
  64   2.0000      -0.351406        -9.5622 
  65   2.0000      -0.339902        -9.2492 
  66   2.0000      -0.331818        -9.0292 
  67   2.0000      -0.325686        -8.8624 
  68   2.0000      -0.318394        -8.6640 
  69   2.0000      -0.315900        -8.5961 
  70   2.0000      -0.310978        -8.4621 
  71   2.0000      -0.303965        -8.2713 
  72   2.0000      -0.298712        -8.1284 
  73   2.0000      -0.290333        -7.9004 
  74   2.0000      -0.284068        -7.7299 
  75   2.0000      -0.275590        -7.4992 
  76   2.0000      -0.268129        -7.2962 
  77   2.0000      -0.264853        -7.2070 
  78   2.0000      -0.264648        -7.2014 
  79   2.0000      -0.246166        -6.6985 
  80   2.0000      -0.241849        -6.5810 
  81   2.0000      -0.229541        -6.2461 
  82   2.0000      -0.201419        -5.4809 
  83   0.0000      -0.112517        -3.0618 
  84   0.0000      -0.061704        -1.6791 
  85   0.0000      -0.032685        -0.8894 
  86   0.0000      -0.022511        -0.6125 
  87   0.0000      -0.004268        -0.1161 
  88   0.0000       0.031173         0.8483 
  89   0.0000       0.034368         0.9352 
  90   0.0000       0.040571         1.1040 
  91   0.0000       0.043644         1.1876 
  92   0.0000       0.050403         1.3715 
  93   0.0000       0.054828         1.4919 
  94   0.0000       0.067632         1.8404 
  95   0.0000       0.073421         1.9979 
  96   0.0000       0.076936         2.0935 
  97   0.0000       0.083786         2.2799 
  98   0.0000       0.085770         2.3339 
  99   0.0000       0.088120         2.3979 
 100   0.0000       0.093793         2.5522 
 101   0.0000       0.104753         2.8505 
 102   0.0000       0.105485         2.8704 
 103   0.0000       0.114675         3.1205 
 104   0.0000       0.119156         3.2424 
 105   0.0000       0.125847         3.4245 
 106   0.0000       0.131229         3.5709 
 107   0.0000       0.135857         3.6969 
 108   0.0000       0.141173         3.8415 
 109   0.0000       0.156552         4.2600 
 110   0.0000       0.159795         4.3482 
 111   0.0000       0.173677         4.7260 
 112   0.0000       0.181294         4.9333 
 113   0.0000       0.188731         5.1356 
 114   0.0000       0.190773         5.1912 
 115   0.0000       0.198174         5.3926 
 116   0.0000       0.203104         5.5268 
 117   0.0000       0.212756         5.7894 
 118   0.0000       0.218116         5.9352 
 119   0.0000       0.227081         6.1792 
 120   0.0000       0.240362         6.5406 
 121   0.0000       0.246171         6.6987 
 122   0.0000       0.256602         6.9825 
 123   0.0000       0.257681         7.0119 
 124   0.0000       0.271002         7.3743 
 125   0.0000       0.285136         7.7589 
 126   0.0000       0.297777         8.1029 
 127   0.0000       0.311490         8.4761 
 128   0.0000       0.342617         9.3231 
 129   0.0000       0.355836         9.6828 
 130   0.0000       0.367323         9.9954 
 131   0.0000       0.375107        10.2072 
 132   0.0000       0.379092        10.3156 
 133   0.0000       0.385401        10.4873 
 134   0.0000       0.386892        10.5279 
 135   0.0000       0.394270        10.7286 
 136   0.0000       0.399459        10.8698 
 137   0.0000       0.403140        10.9700 
 138   0.0000       0.408463        11.1148 
 139   0.0000       0.416937        11.3454 
 140   0.0000       0.424661        11.5556 
 141   0.0000       0.432527        11.7697 
 142   0.0000       0.439407        11.9569 
 143   0.0000       0.441434        12.0120 
 144   0.0000       0.446733        12.1562 
 145   0.0000       0.451497        12.2858 
 146   0.0000       0.464442        12.6381 
 147   0.0000       0.472531        12.8582 
 148   0.0000       0.482383        13.1263 
 149   0.0000       0.487410        13.2631 
 150   0.0000       0.498615        13.5680 
 151   0.0000       0.511815        13.9272 
 152   0.0000       0.516881        14.0651 
 153   0.0000       0.522517        14.2184 
 154   0.0000       0.530214        14.4279 
 155   0.0000       0.538643        14.6572 
 156   0.0000       0.550405        14.9773 
 157   0.0000       0.553456        15.0603 
 158   0.0000       0.559407        15.2222 
 159   0.0000       0.563877        15.3439 
 160   0.0000       0.571538        15.5523 
 161   0.0000       0.575383        15.6570 
 162   0.0000       0.579029        15.7562 
 163   0.0000       0.582342        15.8463 
 164   0.0000       0.585417        15.9300 
 165   0.0000       0.589979        16.0541 
 166   0.0000       0.594104        16.1664 
 167   0.0000       0.595436        16.2026 
 168   0.0000       0.603694        16.4274 
 169   0.0000       0.608473        16.5574 
 170   0.0000       0.611254        16.6331 
 171   0.0000       0.613218        16.6865 
 172   0.0000       0.617551        16.8044 
 173   0.0000       0.620671        16.8893 
 174   0.0000       0.625511        17.0210 
 175   0.0000       0.625877        17.0310 
 176   0.0000       0.631901        17.1949 
 177   0.0000       0.636805        17.3283 
 178   0.0000       0.641928        17.4678 
 179   0.0000       0.644492        17.5375 
 180   0.0000       0.646806        17.6005 
 181   0.0000       0.652215        17.7477 
 182   0.0000       0.653888        17.7932 
 183   0.0000       0.658191        17.9103 
 184   0.0000       0.665692        18.1144 
 185   0.0000       0.667321        18.1587 
 186   0.0000       0.673585        18.3292 
 187   0.0000       0.680360        18.5135 
 188   0.0000       0.685584        18.6557 
 189   0.0000       0.687653        18.7120 
 190   0.0000       0.693204        18.8630 
 191   0.0000       0.695818        18.9342 
 192   0.0000       0.696134        18.9428 
 193   0.0000       0.701613        19.0919 
 194   0.0000       0.708767        19.2865 
 195   0.0000       0.717985        19.5374 
 196   0.0000       0.734003        19.9732 
 197   0.0000       0.740771        20.1574 
 198   0.0000       0.757761        20.6197 
 199   0.0000       0.764593        20.8056 
 200   0.0000       0.781196        21.2574 
 201   0.0000       0.788138        21.4463 
 202   0.0000       0.798637        21.7320 
 203   0.0000       0.812551        22.1107 
 204   0.0000       0.820513        22.3273 
 205   0.0000       0.843296        22.9473 
 206   0.0000       0.860024        23.4024 
 207   0.0000       0.879698        23.9378 
 208   0.0000       0.901949        24.5433 
 209   0.0000       0.908240        24.7145 
 210   0.0000       0.920579        25.0502 
 211   0.0000       0.961333        26.1592 
 212   0.0000       0.971638        26.4396 
 213   0.0000       0.986741        26.8506 
 214   0.0000       0.988128        26.8883 
 215   0.0000       1.009730        27.4762 
 216   0.0000       1.023300        27.8454 
 217   0.0000       1.028518        27.9874 
 218   0.0000       1.048268        28.5248 
 219   0.0000       1.056903        28.7598 
 220   0.0000       1.071251        29.1502 
 221   0.0000       1.074304        29.2333 
 222   0.0000       1.090490        29.6737 
 223   0.0000       1.097840        29.8738 
 224   0.0000       1.116983        30.3946 
 225   0.0000       1.127110        30.6702 
 226   0.0000       1.132821        30.8256 
 227   0.0000       1.147931        31.2368 
 228   0.0000       1.159686        31.5567 
 229   0.0000       1.181278        32.1442 
 230   0.0000       1.191365        32.4187 
 231   0.0000       1.198698        32.6182 
 232   0.0000       1.217543        33.1310 
 233   0.0000       1.230664        33.4881 
 234   0.0000       1.235372        33.6162 
 235   0.0000       1.252635        34.0859 
 236   0.0000       1.261260        34.3206 
 237   0.0000       1.280290        34.8385 
 238   0.0000       1.291116        35.1330 
 239   0.0000       1.306022        35.5387 
 240   0.0000       1.312114        35.7044 
 241   0.0000       1.316207        35.8158 
 242   0.0000       1.339652        36.4538 
 243   0.0000       1.346991        36.6535 
 244   0.0000       1.389738        37.8167 
 245   0.0000       1.395737        37.9799 
 246   0.0000       1.422751        38.7150 
 247   0.0000       1.433271        39.0013 
 248   0.0000       1.455641        39.6100 
 249   0.0000       1.467332        39.9281 
 250   0.0000       1.477684        40.2098 
 251   0.0000       1.478530        40.2329 
 252   0.0000       1.509966        41.0883 
 253   0.0000       1.534834        41.7650 
 254   0.0000       1.544217        42.0203 
 255   0.0000       1.557963        42.3943 
 256   0.0000       1.563037        42.5324 
 257   0.0000       1.596129        43.4329 
 258   0.0000       1.618655        44.0458 
 259   0.0000       1.636109        44.5208 
 260   0.0000       1.638030        44.5731 
 261   0.0000       1.643758        44.7289 
 262   0.0000       1.661948        45.2239 
 263   0.0000       1.663785        45.2739 
 264   0.0000       1.679000        45.6879 
 265   0.0000       1.682658        45.7875 
 266   0.0000       1.691194        46.0197 
 267   0.0000       1.691953        46.0404 
 268   0.0000       1.697389        46.1883 
 269   0.0000       1.702447        46.3259 
 270   0.0000       1.711246        46.5654 
 271   0.0000       1.718210        46.7549 
 272   0.0000       1.725037        46.9406 
 273   0.0000       1.727541        47.0088 
 274   0.0000       1.730182        47.0807 
 275   0.0000       1.734213        47.1903 
 276   0.0000       1.744950        47.4825 
 277   0.0000       1.749486        47.6059 
 278   0.0000       1.751618        47.6639 
 279   0.0000       1.756208        47.7888 
 280   0.0000       1.768561        48.1250 
 281   0.0000       1.778861        48.4053 
 282   0.0000       1.789119        48.6844 
 283   0.0000       1.793962        48.8162 
 284   0.0000       1.804091        49.0918 
 285   0.0000       1.810327        49.2615 
 286   0.0000       1.817429        49.4548 
 287   0.0000       1.823413        49.6176 
 288   0.0000       1.831815        49.8462 
 289   0.0000       1.842800        50.1452 
 290   0.0000       1.846767        50.2531 
 291   0.0000       1.860489        50.6265 
 292   0.0000       1.874465        51.0068 
 293   0.0000       1.877573        51.0914 
 294   0.0000       1.881043        51.1858 
 295   0.0000       1.898438        51.6591 
 296   0.0000       1.904668        51.8287 
 297   0.0000       1.908823        51.9417 
 298   0.0000       1.934664        52.6449 
 299   0.0000       1.942791        52.8660 
 300   0.0000       1.946365        52.9633 
 301   0.0000       1.959871        53.3308 
 302   0.0000       1.975619        53.7593 
 303   0.0000       1.989820        54.1457 
 304   0.0000       1.995135        54.2904 
 305   0.0000       1.999552        54.4106 
 306   0.0000       2.010474        54.7078 
 307   0.0000       2.012762        54.7700 
 308   0.0000       2.035181        55.3801 
 309   0.0000       2.039625        55.5010 
 310   0.0000       2.058906        56.0257 
 311   0.0000       2.074956        56.4624 
 312   0.0000       2.104164        57.2572 
 313   0.0000       2.121586        57.7313 
 314   0.0000       2.127528        57.8930 
 315   0.0000       2.155723        58.6602 
 316   0.0000       2.160984        58.8034 
 317   0.0000       2.174462        59.1701 
 318   0.0000       2.187271        59.5187 
 319   0.0000       2.210669        60.1554 
 320   0.0000       2.226304        60.5808 
 321   0.0000       2.237343        60.8812 
 322   0.0000       2.249885        61.2225 
 323   0.0000       2.259339        61.4797 
 324   0.0000       2.280911        62.0667 
 325   0.0000       2.297386        62.5150 
 326   0.0000       2.303112        62.6709 
 327   0.0000       2.318126        63.0794 
 328   0.0000       2.321976        63.1842 
 329   0.0000       2.329183        63.3803 
 330   0.0000       2.347256        63.8721 
 331   0.0000       2.361596        64.2623 
 332   0.0000       2.383699        64.8637 
 333   0.0000       2.399563        65.2954 
 334   0.0000       2.400908        65.3320 
 335   0.0000       2.418180        65.8020 
 336   0.0000       2.450164        66.6723 
 337   0.0000       2.450893        66.6922 
 338   0.0000       2.467674        67.1488 
 339   0.0000       2.482466        67.5513 
 340   0.0000       2.497738        67.9669 
 341   0.0000       2.500196        68.0338 
 342   0.0000       2.515648        68.4543 
 343   0.0000       2.541133        69.1478 
 344   0.0000       2.562620        69.7324 
 345   0.0000       2.571959        69.9866 
 346   0.0000       2.585318        70.3501 
 347   0.0000       2.600743        70.7698 
 348   0.0000       2.612349        71.0856 
 349   0.0000       2.620310        71.3023 
 350   0.0000       2.643845        71.9427 
 351   0.0000       2.694620        73.3243 
 352   0.0000       2.738308        74.5132 
 353   0.0000       2.768615        75.3379 
 354   0.0000       2.783728        75.7491 
 355   0.0000       2.791555        75.9621 
 356   0.0000       2.804187        76.3058 
 357   0.0000       2.822127        76.7940 
 358   0.0000       2.841169        77.3121 
 359   0.0000       2.853540        77.6488 
 360   0.0000       2.855782        77.7098 
 361   0.0000       2.863974        77.9327 
 362   0.0000       2.890816        78.6631 
 363   0.0000       2.906064        79.0780 
 364   0.0000       2.915077        79.3233 
 365   0.0000       2.923723        79.5585 
 366   0.0000       2.933356        79.8207 
 367   0.0000       2.947820        80.2143 
 368   0.0000       2.956249        80.4436 
 369   0.0000       2.972807        80.8942 
 370   0.0000       2.992201        81.4219 
 371   0.0000       2.996550        81.5403 
 372   0.0000       3.006897        81.8218 
 373   0.0000       3.023545        82.2748 
 374   0.0000       3.062350        83.3308 
 375   0.0000       3.080973        83.8375 
 376   0.0000       3.189791        86.7986 
 377   0.0000       3.206814        87.2618 
 378   0.0000       3.326602        90.5215 
 379   0.0000       3.400076        92.5208 
 380   0.0000       3.481602        94.7392 
 381   0.0000       3.526697        95.9663 
 382   0.0000       3.737262       101.6961 

                    ********************************
                    * MULLIKEN POPULATION ANALYSIS *
                    ********************************

-----------------------
MULLIKEN ATOMIC CHARGES
-----------------------
   0 C :   -0.150774
   1 C :   -0.017703
   2 S :    0.117888
   3 C :    0.045729
   4 C :   -0.131605
   5 S :    0.178892
   6 C :   -0.241397
   7 C :    0.251687
   8 F :   -0.134397
   9 C :    0.186468
  10 O :   -0.149229
  11 O :   -0.298579
  12 C :    0.194856
  13 C :   -0.131062
  14 H :    0.019318
  15 H :    0.019852
  16 C :   -0.044083
  17 C :   -0.057125
  18 H :    0.021581
  19 H :    0.027388
  20 H :    0.039940
  21 H :    0.029802
  22 H :    0.031510
  23 C :    0.061034
  24 H :    0.023085
  25 C :   -0.058462
  26 H :    0.003344
  27 H :    0.019618
  28 C :   -0.059223
  29 H :    0.008100
  30 H :    0.009655
  31 C :   -0.043406
  32 H :    0.028052
  33 H :    0.024450
  34 H :    0.022385
  35 H :    0.027204
  36 H :    0.018953
  37 H :    0.050897
  38 H :    0.055357
Sum of atomic charges:   -0.0000000

--------------------------------
MULLIKEN REDUCED ORBITAL CHARGES
--------------------------------
  0 C s       :     3.249700  s :     3.249700
      pz      :     1.131389  p :     2.870720
      px      :     0.859892
      py      :     0.879439
      dz2     :     0.003038  d :     0.030355
      dxz     :     0.002881
      dyz     :     0.005725
      dx2y2   :     0.008122
      dxy     :     0.010589
  1 C s       :     3.004771  s :     3.004771
      pz      :     1.064356  p :     2.970389
      px      :     1.015298
      py      :     0.890735
      dz2     :     0.003682  d :     0.042542
      dxz     :     0.006305
      dyz     :     0.008464
      dx2y2   :     0.013580
      dxy     :     0.010512
  2 S s       :     5.862024  s :     5.862024
      pz      :     3.586558  p :     9.911674
      px      :     2.995847
      py      :     3.329270
      dz2     :     0.011818  d :     0.108413
      dxz     :     0.026113
      dyz     :     0.011576
      dx2y2   :     0.019652
      dxy     :     0.039254
  3 C s       :     3.084062  s :     3.084062
      pz      :     1.052222  p :     2.830445
      px      :     0.968787
      py      :     0.809436
      dz2     :     0.003560  d :     0.039763
      dxz     :     0.005331
      dyz     :     0.008644
      dx2y2   :     0.011595
      dxy     :     0.010632
  4 C s       :     3.247834  s :     3.247834
      pz      :     1.118186  p :     2.853859
      px      :     0.811998
      py      :     0.923674
      dz2     :     0.002989  d :     0.029913
      dxz     :     0.002984
      dyz     :     0.005503
      dx2y2   :     0.006900
      dxy     :     0.011536
  5 S s       :     5.880703  s :     5.880703
      pz      :     3.703307  p :     9.841344
      px      :     3.140775
      py      :     2.997262
      dz2     :     0.012231  d :     0.099061
      dxz     :     0.013906
      dyz     :     0.014677
      dx2y2   :     0.038687
      dxy     :     0.019558
  6 C s       :     3.139989  s :     3.139989
      pz      :     1.156561  p :     3.065033
      px      :     0.921112
      py      :     0.987361
      dz2     :     0.003524  d :     0.036374
      dxz     :     0.006772
      dyz     :     0.005142
      dx2y2   :     0.011193
      dxy     :     0.009744
  7 C s       :     3.075337  s :     3.075337
      pz      :     1.004595  p :     2.593250
      px      :     0.616558
      py      :     0.972097
      dz2     :     0.006262  d :     0.079726
      dxz     :     0.016460
      dyz     :     0.007683
      dx2y2   :     0.025427
      dxy     :     0.023894
  8 F s       :     3.896350  s :     3.896350
      pz      :     1.868728  p :     5.229966
      px      :     1.463100
      py      :     1.898137
      dz2     :     0.001035  d :     0.008081
      dxz     :     0.002164
      dyz     :     0.000043
      dx2y2   :     0.003039
      dxy     :     0.001799
  9 C s       :     3.041116  s :     3.041116
      pz      :     0.832237  p :     2.644576
      px      :     0.845548
      py      :     0.966791
      dz2     :     0.009393  d :     0.127840
      dxz     :     0.021278
      dyz     :     0.017397
      dx2y2   :     0.048078
      dxy     :     0.031694
 10 O s       :     3.735794  s :     3.735794
      pz      :     1.387825  p :     4.396013
      px      :     1.506117
      py      :     1.502072
      dz2     :     0.002022  d :     0.017422
      dxz     :     0.002228
      dyz     :     0.003257
      dx2y2   :     0.004069
      dxy     :     0.005845
 11 O s       :     3.739524  s :     3.739524
      pz      :     1.541835  p :     4.544803
      px      :     1.194592
      py      :     1.808376
      dz2     :     0.002491  d :     0.014252
      dxz     :     0.005604
      dyz     :     0.001654
      dx2y2   :     0.002324
      dxy     :     0.002179
 12 C s       :     2.992369  s :     2.992369
      pz      :     0.945413  p :     2.756274
      px      :     0.781495
      py      :     1.029365
      dz2     :     0.008190  d :     0.056501
      dxz     :     0.015162
      dyz     :     0.009305
      dx2y2   :     0.011459
      dxy     :     0.012385
 13 C s       :     3.121914  s :     3.121914
      pz      :     0.996799  p :     2.970170
      px      :     0.964531
      py      :     1.008840
      dz2     :     0.005926  d :     0.038978
      dxz     :     0.007492
      dyz     :     0.008677
      dx2y2   :     0.008695
      dxy     :     0.008189
 14 H s       :     0.958848  s :     0.958848
      pz      :     0.004787  p :     0.021835
      px      :     0.004917
      py      :     0.012131
 15 H s       :     0.960011  s :     0.960011
      pz      :     0.009716  p :     0.020137
      px      :     0.003312
      py      :     0.007109
 16 C s       :     3.044863  s :     3.044863
      pz      :     0.994565  p :     2.965962
      px      :     0.973800
      py      :     0.997597
      dz2     :     0.004669  d :     0.033258
      dxz     :     0.006213
      dyz     :     0.008417
      dx2y2   :     0.006865
      dxy     :     0.007095
 17 C s       :     3.028804  s :     3.028804
      pz      :     1.012598  p :     3.002912
      px      :     1.003616
      py      :     0.986698
      dz2     :     0.003347  d :     0.025409
      dxz     :     0.003105
      dyz     :     0.008513
      dx2y2   :     0.006567
      dxy     :     0.003876
 18 H s       :     0.957332  s :     0.957332
      pz      :     0.010216  p :     0.021087
      px      :     0.004318
      py      :     0.006553
 19 H s       :     0.951473  s :     0.951473
      pz      :     0.007564  p :     0.021139
      px      :     0.007106
      py      :     0.006469
 20 H s       :     0.937654  s :     0.937654
      pz      :     0.009295  p :     0.022406
      px      :     0.006905
      py      :     0.006206
 21 H s       :     0.948142  s :     0.948142
      pz      :     0.005715  p :     0.022055
      px      :     0.011945
      py      :     0.004395
 22 H s       :     0.946421  s :     0.946421
      pz      :     0.009867  p :     0.022069
      px      :     0.005121
      py      :     0.007082
 23 C s       :     2.988365  s :     2.988365
      pz      :     0.985523  p :     2.919107
      px      :     0.976284
      py      :     0.957300
      dz2     :     0.006490  d :     0.031495
      dxz     :     0.007087
      dyz     :     0.006587
      dx2y2   :     0.005026
      dxy     :     0.006306
 24 H s       :     0.956414  s :     0.956414
      pz      :     0.010327  p :     0.020501
      px      :     0.004216
      py      :     0.005958
 25 C s       :     3.052600  s :     3.052600
      pz      :     0.974528  p :     2.972186
      px      :     0.996334
      py      :     1.001323
      dz2     :     0.007962  d :     0.033677
      dxz     :     0.008921
      dyz     :     0.004165
      dx2y2   :     0.008859
      dxy     :     0.003770
 26 H s       :     0.975165  s :     0.975165
      pz      :     0.005408  p :     0.021492
      px      :     0.008315
      py      :     0.007769
 27 H s       :     0.958622  s :     0.958622
      pz      :     0.006332  p :     0.021761
      px      :     0.010846
      py      :     0.004583
[...]
      py      :     0.005342


                     *******************************
                     * LOEWDIN POPULATION ANALYSIS *
                     *******************************

----------------------
LOEWDIN ATOMIC CHARGES
----------------------
   0 C :   -0.215035
   1 C :   -0.186368
   2 S :    0.462056
   3 C :   -0.103374
   4 C :   -0.188911
   5 S :    0.421107
   6 C :   -0.241144
   7 C :    0.057851
   8 F :   -0.017055
   9 C :    0.051482
  10 O :   -0.131392
  11 O :   -0.107285
  12 C :    0.084037
  13 C :   -0.050741
  14 H :    0.006194
  15 H :    0.016900
  16 C :   -0.044095
  17 C :   -0.077768
  18 H :    0.025111
  19 H :    0.030148
  20 H :    0.025398
  21 H :    0.031886
  22 H :    0.029408
  23 C :   -0.037021
  24 H :    0.028934
  25 C :   -0.045307
  26 H :    0.025746
  27 H :    0.029746
  28 C :   -0.055509
  29 H :    0.019241
  30 H :    0.024225
  31 C :   -0.075639
  32 H :    0.028304
  33 H :    0.021780
  34 H :    0.024335
  35 H :    0.028062
  36 H :    0.023614
  37 H :    0.040186
  38 H :    0.040895

-------------------------------
LOEWDIN REDUCED ORBITAL CHARGES
-------------------------------
  0 C s       :     2.947916  s :     2.947916
      pz      :     1.134857  p :     3.191931
      px      :     1.041678
      py      :     1.015396
      dz2     :     0.006181  d :     0.075188
      dxz     :     0.005043
      dyz     :     0.012493
      dx2y2   :     0.022029
      dxy     :     0.029441
  1 C s       :     2.916681  s :     2.916681
      pz      :     1.062603  p :     3.164687
      px      :     1.058460
      py      :     1.043624
      dz2     :     0.008244  d :     0.105000
      dxz     :     0.013035
      dyz     :     0.017311
      dx2y2   :     0.037595
      dxy     :     0.028815
  2 S s       :     5.535368  s :     5.535368
      pz      :     3.543477  p :     9.871744
      px      :     2.985447
      py      :     3.342821
      dz2     :     0.014554  d :     0.130832
      dxz     :     0.031678
      dyz     :     0.011059
      dx2y2   :     0.022210
      dxy     :     0.051331
  3 C s       :     2.863359  s :     2.863359
      pz      :     1.041177  p :     3.131024
      px      :     1.037616
      py      :     1.052232
      dz2     :     0.008893  d :     0.108991
      dxz     :     0.011127
      dyz     :     0.018319
      dx2y2   :     0.038996
      dxy     :     0.031656
  4 C s       :     2.951199  s :     2.951199
      pz      :     1.117764  p :     3.165228
      px      :     1.012228
      py      :     1.035237
      dz2     :     0.005938  d :     0.072484
      dxz     :     0.005241
      dyz     :     0.011575
      dx2y2   :     0.020329
      dxy     :     0.029400
  5 S s       :     5.536167  s :     5.536167
      pz      :     3.669861  p :     9.916500
      px      :     3.204241
      py      :     3.042398
      dz2     :     0.016136  d :     0.126225
      dxz     :     0.016083
      dyz     :     0.017071
      dx2y2   :     0.051661
      dxy     :     0.025273
  6 C s       :     2.942876  s :     2.942876
      pz      :     1.122865  p :     3.204276
      px      :     1.014492
      py      :     1.066919
      dz2     :     0.008789  d :     0.093991
      dxz     :     0.013634
      dyz     :     0.010706
      dx2y2   :     0.032021
      dxy     :     0.028841
  7 C s       :     2.860843  s :     2.860843
      pz      :     1.010860  p :     2.892564
      px      :     0.807256
      py      :     1.074448
      dz2     :     0.014094  d :     0.188742
      dxz     :     0.032677
      dyz     :     0.015982
      dx2y2   :     0.060332
      dxy     :     0.065657
  8 F s       :     3.722553  s :     3.722553
      pz      :     1.869171  p :     5.281503
      px      :     1.511979
      py      :     1.900353
      dz2     :     0.001819  d :     0.012999
      dxz     :     0.003116
      dyz     :     0.000055
      dx2y2   :     0.005391
      dxy     :     0.002619
  9 C s       :     2.853540  s :     2.853540
      pz      :     0.852033  p :     2.802782
      px      :     0.920651
      py      :     1.030098
      dz2     :     0.020141  d :     0.292196
      dxz     :     0.046622
      dyz     :     0.035349
      dx2y2   :     0.113335
      dxy     :     0.076749
 10 O s       :     3.559271  s :     3.559271
      pz      :     1.390654  p :     4.541673
      px      :     1.573469
      py      :     1.577550
      dz2     :     0.004304  d :     0.030449
      dxz     :     0.003131
      dyz     :     0.004324
      dx2y2   :     0.006087
      dxy     :     0.012603
 11 O s       :     3.451699  s :     3.451699
      pz      :     1.571653  p :     4.627586
      px      :     1.260354
      py      :     1.795580
      dz2     :     0.003753  d :     0.028000
      dxz     :     0.011911
      dyz     :     0.002114
      dx2y2   :     0.005925
      dxy     :     0.004297
 12 C s       :     2.860768  s :     2.860768
      pz      :     0.989739  p :     2.922873
      px      :     0.859468
      py      :     1.073666
      dz2     :     0.017306  d :     0.132321
      dxz     :     0.036072
      dyz     :     0.025180
      dx2y2   :     0.024354
      dxy     :     0.029410
 13 C s       :     2.859186  s :     2.859186
      pz      :     1.041121  p :     3.094195
      px      :     1.019797
      py      :     1.033277
      dz2     :     0.014100  d :     0.097360
      dxz     :     0.019864
      dyz     :     0.022639
      dx2y2   :     0.021723
      dxy     :     0.019034
 14 H s       :     0.923668  s :     0.923668
      pz      :     0.014284  p :     0.070138
      px      :     0.016557
      py      :     0.039296
 15 H s       :     0.918393  s :     0.918393
      pz      :     0.032331  p :     0.064707
      px      :     0.010883
      py      :     0.021493
 16 C s       :     2.852280  s :     2.852280
      pz      :     1.053792  p :     3.107177
      px      :     1.019247
      py      :     1.034137
      dz2     :     0.011930  d :     0.084638
      dxz     :     0.016375
      dyz     :     0.020404
      dx2y2   :     0.018163
      dxy     :     0.017766
 17 C s       :     2.853070  s :     2.853070
      pz      :     1.065554  p :     3.157870
      px      :     1.058059
      py      :     1.034257
      dz2     :     0.009220  d :     0.066829
      dxz     :     0.009098
      dyz     :     0.020788
      dx2y2   :     0.016766
      dxy     :     0.010957
 18 H s       :     0.911260  s :     0.911260
      pz      :     0.031394  p :     0.063629
      px      :     0.012589
      py      :     0.019646
 19 H s       :     0.906020  s :     0.906020
      pz      :     0.021669  p :     0.063832
      px      :     0.022490
      py      :     0.019673
 20 H s       :     0.909831  s :     0.909831
      pz      :     0.026194  p :     0.064772
      px      :     0.019353
      py      :     0.019225
 21 H s       :     0.904493  s :     0.904493
      pz      :     0.014569  p :     0.063621
      px      :     0.036332
      py      :     0.012720
 22 H s       :     0.907129  s :     0.907129
      pz      :     0.030079  p :     0.063463
      px      :     0.012131
      py      :     0.021253
 23 C s       :     2.852415  s :     2.852415
      pz      :     1.034296  p :     3.102924
      px      :     1.052543
      py      :     1.016085
      dz2     :     0.018843  d :     0.081682
      dxz     :     0.017062
      dyz     :     0.014403
      dx2y2   :     0.014003
      dxy     :     0.017371
 24 H s       :     0.905478  s :     0.905478
      pz      :     0.032787  p :     0.065587
      px      :     0.013123
      py      :     0.019677
 25 C s       :     2.854040  s :     2.854040
      pz      :     1.015477  p :     3.105766
      px      :     1.040245
      py      :     1.050043
      dz2     :     0.021794  d :     0.085502
      dxz     :     0.022023
      dyz     :     0.009650
      dx2y2   :     0.021743
      dxy     :     0.010292
 26 H s       :     0.909549  s :     0.909549
      pz      :     0.016366  p :     0.064705
      px      :     0.023729
      py      :     0.024610
 27 H s       :     0.905123  s :     0.905123
      pz      :     0.019472  p :     0.065131
      px      :     0.032874
      py      :     0.012785
 28 C s       :     2.849618  s :     2.849618
      pz      :     1.022067  p :     3.121320
      px      :     1.040511
      py      :     1.058741
      dz2     :     0.021155  d :     0.084571
      dxz     :     0.021838
      dyz     :     0.010138
      dx2y2   :     0.021061
      dxy     :     0.010380
 29 H s       :     0.917633  s :     0.917633
      pz      :     0.019451  p :     0.063126
      px      :     0.030172
      py      :     0.013503
 30 H s       :     0.912387  s :     0.912387
      pz      :     0.012844  p :     0.063388
      px      :     0.012793
      py      :     0.037751
 31 C s       :     2.854412  s :     2.854412
      pz      :     1.029559  p :     3.153520
      px      :     1.061359
      py      :     1.062602
      dz2     :     0.016826  d :     0.067707
      dxz     :     0.018818
      dyz     :     0.008936
      dx2y2   :     0.014276
      dxy     :     0.008850
 32 H s       :     0.907796  s :     0.907796
      pz      :     0.020382  p :     0.063900
      px      :     0.030139
      py      :     0.013378
 33 H s       :     0.912889  s :     0.912889
      pz      :     0.012837  p :     0.065331
      px      :     0.013175
      py      :     0.039319
 34 H s       :     0.912689  s :     0.912689
      pz      :     0.012633  p :     0.062977
      px      :     0.012923
      py      :     0.037421
 35 H s       :     0.908682  s :     0.908682
      pz      :     0.016100  p :     0.063256
      px      :     0.028470
      py      :     0.018686
 36 H s       :     0.913422  s :     0.913422
      pz      :     0.021111  p :     0.062964
      px      :     0.028511
      py      :     0.013342
 37 H s       :     0.885644  s :     0.885644
      pz      :     0.018387  p :     0.074171
      px      :     0.045545
      py      :     0.010239
 38 H s       :     0.884342  s :     0.884342
      pz      :     0.018065  p :     0.074763
      px      :     0.040295
      py      :     0.016403


                      *****************************
                      * MAYER POPULATION ANALYSIS *
                      *****************************

  NA   - Mulliken gross atomic population
  ZA   - Total nuclear charge
  QA   - Mulliken gross atomic charge
  VA   - Mayer's total valence
  BVA  - Mayer's bonded valence
  FA   - Mayer's free valence

  ATOM       NA         ZA         QA         VA         BVA        FA
  0 C      6.1585     6.0000    -0.1585     3.8439     3.8439    -0.0000
  1 C      6.0187     6.0000    -0.0187     3.9177     3.9177    -0.0000
  2 S     15.8781    16.0000     0.1219     2.6062     2.6062     0.0000
  3 C      5.9637     6.0000     0.0363     3.9419     3.9419    -0.0000
  4 C      6.1302     6.0000    -0.1302     3.7506     3.7506     0.0000
  5 S     15.8214    16.0000     0.1786     2.3955     2.3955    -0.0000
  6 C      6.2412     6.0000    -0.2412     3.6853     3.6853     0.0000
  7 C      5.7482     6.0000     0.2518     3.9486     3.9486    -0.0000
  8 F      9.1348     9.0000    -0.1348     1.2867     1.2867    -0.0000
  9 C      5.8135     6.0000     0.1865     4.3777     4.3777     0.0000
 10 O      8.1491     8.0000    -0.1491     2.3569     2.3569    -0.0000
 11 O      8.2985     8.0000    -0.2985     2.1727     2.1727     0.0000
 12 C      5.8079     6.0000     0.1921     3.9185     3.9185     0.0000
 13 C      6.1283     6.0000    -0.1283     4.1182     4.1182     0.0000
 14 H      0.9796     1.0000     0.0204     1.0321     1.0321    -0.0000
 15 H      0.9809     1.0000     0.0191     0.9877     0.9877    -0.0000
 16 C      6.0461     6.0000    -0.0461     4.0962     4.0962    -0.0000
 17 C      6.0554     6.0000    -0.0554     4.0169     4.0169     0.0000
 18 H      0.9789     1.0000     0.0211     0.9785     0.9785    -0.0000
 19 H      0.9725     1.0000     0.0275     0.9752     0.9752    -0.0000
 20 H      0.9606     1.0000     0.0394     0.9890     0.9890     0.0000
 21 H      0.9703     1.0000     0.0297     0.9836     0.9836     0.0000
 22 H      0.9687     1.0000     0.0313     0.9897     0.9897     0.0000
 23 C      5.9386     6.0000     0.0614     4.0067     4.0067     0.0000
 24 H      0.9771     1.0000     0.0229     0.9940     0.9940    -0.0000
 25 C      6.0578     6.0000    -0.0578     4.1266     4.1266     0.0000
 26 H      0.9964     1.0000     0.0036     0.9908     0.9908     0.0000
 27 H      0.9804     1.0000     0.0196     1.0013     1.0013    -0.0000
 28 C      6.0597     6.0000    -0.0597     4.1038     4.1038    -0.0000
 29 H      0.9919     1.0000     0.0081     0.9797     0.9797    -0.0000
 30 H      0.9905     1.0000     0.0095     0.9785     0.9785     0.0000
 31 C      6.0435     6.0000    -0.0435     4.0126     4.0126     0.0000
 32 H      0.9720     1.0000     0.0280     0.9904     0.9904     0.0000
 33 H      0.9749     1.0000     0.0251     0.9963     0.9963    -0.0000
 34 H      0.9780     1.0000     0.0220     0.9877     0.9877    -0.0000
 35 H      0.9726     1.0000     0.0274     0.9820     0.9820    -0.0000
 36 H      0.9809     1.0000     0.0191     0.9872     0.9872     0.0000
 37 H      0.9408     1.0000     0.0592     1.0001     1.0001     0.0000
 38 H      0.9395     1.0000     0.0605     0.9983     0.9983    -0.0000

  Mayer bond orders larger than 0.100000
B(  0-C ,  1-C ) :   1.4745 B(  0-C ,  2-S ) :   1.1722 B(  0-C ,  4-C ) :   0.1309 
B(  0-C , 37-H ) :   0.9648 B(  1-C ,  3-C ) :   1.2465 B(  1-C ,  5-S ) :   1.0499 
B(  2-S ,  4-C ) :   1.1925 B(  3-C ,  4-C ) :   1.3763 B(  3-C ,  7-C ) :   1.1564 
B(  4-C , 38-H ) :   0.9615 B(  5-S ,  6-C ) :   1.0555 B(  6-C ,  7-C ) :   1.4618 
B(  6-C ,  9-C ) :   0.9959 B(  7-C ,  8-F ) :   1.1686 B(  9-C , 10-O ) :   2.1433 
B(  9-C , 11-O ) :   1.1296 B( 11-O , 12-C ) :   0.9187 B( 12-C , 13-C ) :   1.0572 
B( 12-C , 14-H ) :   0.9185 B( 12-C , 15-H ) :   0.9234 B( 13-C , 16-C ) :   1.0556 
B( 13-C , 23-C ) :   1.0118 B( 13-C , 24-H ) :   0.9134 B( 16-C , 17-C ) :   1.1092 
B( 16-C , 18-H ) :   0.9328 B( 16-C , 19-H ) :   0.9338 B( 17-C , 20-H ) :   0.9591 
B( 17-C , 21-H ) :   0.9559 B( 17-C , 22-H ) :   0.9643 B( 23-C , 25-C ) :   1.1004 
B( 23-C , 26-H ) :   0.9258 B( 23-C , 27-H ) :   0.9224 B( 25-C , 28-C ) :   1.0890 
B( 25-C , 29-H ) :   0.9358 B( 25-C , 30-H ) :   0.9300 B( 28-C , 31-C ) :   1.1057 
B( 28-C , 32-H ) :   0.9375 B( 28-C , 33-H ) :   0.9338 B( 31-C , 34-H ) :   0.9655 
B( 31-C , 35-H ) :   0.9629 B( 31-C , 36-H ) :   0.9649 

-------
TIMINGS
-------

Total SCF time: 0 days 0 hours 0 min 37 sec 

Total time                  ....      37.837 sec
Sum of individual times     ....      37.416 sec  ( 98.9%)

Fock matrix formation       ....      26.996 sec  ( 71.3%)
  Split-RI-J                ....      12.376 sec  ( 45.8% of F)
  XC integration            ....      14.346 sec  ( 53.1% of F)
    Basis function eval.    ....       6.176 sec  ( 43.0% of XC)
    Density eval.           ....       3.210 sec  ( 22.4% of XC)
    XC-Functional eval.     ....       1.012 sec  (  7.1% of XC)
    XC-Potential eval.      ....       3.297 sec  ( 23.0% of XC)
Diagonalization             ....       0.028 sec  (  0.1%)
Density matrix formation    ....       0.040 sec  (  0.1%)
Population analysis         ....       0.047 sec  (  0.1%)
Initial guess               ....       0.032 sec  (  0.1%)
Orbital Transformation      ....       0.000 sec  (  0.0%)
Orbital Orthonormalization  ....       0.023 sec  (  0.1%)
DIIS solution               ....       0.008 sec  (  0.0%)
SOSCF solution              ....       0.161 sec  (  0.4%)
Grid generation             ....      10.104 sec  ( 26.7%)


-------------------------------------------------------------------------------
                          DFT DISPERSION CORRECTION                            
                                                                               
                              DFTD3 V3.1  Rev 1                                
                          USING Becke-Johnson damping                          
-------------------------------------------------------------------------------
The BP86 functional is recognized
Active option DFTDOPT                   ...         4   

molecular C6(AA) [au] = 17816.084926 


            DFT-D V3
 parameters
 s6 scaling factor         :     1.0000 
 a1 scaling factor         :     0.3946 
 s8 scaling factor         :     3.2822 
 a2 scaling factor         :     4.8516 
 ad hoc parameters k1-k3   :    16.0000     1.3333    -4.0000 

 Edisp/kcal,au: -46.918035300842  -0.074768640531 
 E6   /kcal   : -17.627794284 
 E8   /kcal   : -29.290241016 
 % E8         :  62.428532714 

-------------------------   ----------------
Dispersion correction           -0.074768641
-------------------------   ----------------


-------------------------   --------------------
FINAL SINGLE POINT ENERGY     -1628.992874434448
-------------------------   --------------------

                                *** OPTIMIZATION RUN DONE ***

                            ***************************************
                            *     ORCA property calculations      *
                            ***************************************

                                    ---------------------
                                    Active property flags
                                    ---------------------
   (+) Dipole Moment


------------------------------------------------------------------------------
                       ORCA ELECTRIC PROPERTIES CALCULATION
------------------------------------------------------------------------------

Dipole Moment Calculation                       ... on
Quadrupole Moment Calculation                   ... off
Polarizability Calculation                      ... off
GBWName                                         ... PTB7_Input_Noninteracting_Methylcarbonyl_3_Fluoro_Thienothiophene_With_Sidechain_2_Optimize_Monomer.gbw
Electron density file                           ... PTB7_Input_Noninteracting_Methylcarbonyl_3_Fluoro_Thienothiophene_With_Sidechain_2_Optimize_Monomer.scfp
The origin for moment calculation is the CENTER OF MASS  = ( 4.429909,  3.979938 -1.471395)

-------------
DIPOLE MOMENT
-------------
                                X             Y             Z
Electronic contribution:    -32.66317     -39.56247      19.28151
Nuclear contribution   :     33.14560      38.19295     -18.83202
                        -----------------------------------------
Total Dipole Moment    :      0.48243      -1.36952       0.44949
                        -----------------------------------------
Magnitude (a.u.)       :      1.51999
Magnitude (Debye)      :      3.86350



--------------------
Rotational spectrum 
--------------------
 
Rotational constants in cm-1:     0.016145     0.004386     0.003819 
Rotational constants in MHz :   484.022878   131.490914   114.496921 

 Dipole components along the rotational axes: 
x,y,z [a.u.] :     0.991761     1.107063     0.318099 
x,y,z [Debye]:     2.520857     2.813930     0.808543 

 

Timings for individual modules:

Sum of individual times         ...      479.649 sec (=   7.994 min)
GTO integral calculation        ...        2.568 sec (=   0.043 min)   0.5 %
SCF iterations                  ...      290.447 sec (=   4.841 min)  60.6 %
SCF Gradient evaluation         ...      185.039 sec (=   3.084 min)  38.6 %
Geometry relaxation             ...        1.596 sec (=   0.027 min)   0.3 %
                             ****ORCA TERMINATED NORMALLY****
TOTAL RUN TIME: 0 days 0 hours 8 minutes 1 seconds 568 msec
