
                                 *****************
                                 * O   R   C   A *
                                 *****************

           --- An Ab Initio, DFT and Semiempirical electronic structure package ---

                  #######################################################
                  #                        -***-                        #
                  #          Department of theory and spectroscopy      #
                  #               Directorship: Frank Neese             #
                  #        Max Planck Institute fuer Kohlenforschung    #
                  #                Kaiser Wilhelm Platz 1               #
                  #                 D-45470 Muelheim/Ruhr               #
                  #                      Germany                        #
                  #                                                     #
                  #                  All rights reserved                #
                  #                        -***-                        #
                  #######################################################


                         Program Version 4.2.0 -  RELEASE  -


 With contributions from (in alphabetic order):
   Daniel Aravena         : Magnetic Suceptibility
   Michael Atanasov       : Ab Initio Ligand Field Theory (pilot matlab implementation)
   Alexander A. Auer      : GIAO ZORA, VPT2
   Ute Becker             : Parallelization
   Giovanni Bistoni       : ED, misc. LED, open-shell LED, HFLED
   Martin Brehm           : Molecular dynamics
   Dmytro Bykov           : SCF Hessian
   Vijay G. Chilkuri      : MRCI spin determinant printing, contributions to CSF-ICE
   Dipayan Datta          : RHF DLPNO-CCSD density
   Achintya Kumar Dutta   : EOM-CC, STEOM-CC
   Dmitry Ganyushin       : Spin-Orbit,Spin-Spin,Magnetic field MRCI
   Miquel Garcia          : C-PCM Hessian, Gaussian charge scheme
   Yang Guo               : DLPNO-NEVPT2, CIM, IAO-localization
   Andreas Hansen         : Spin unrestricted coupled pair/coupled cluster methods
   Benjamin Helmich-Paris : CASSCF linear response (MC-RPA)
   Lee Huntington         : MR-EOM, pCC
   Robert Izsak           : Overlap fitted RIJCOSX, COSX-SCS-MP3, EOM
   Christian Kollmar      : KDIIS, OOCD, Brueckner-CCSD(T), CCSD density
   Simone Kossmann        : Meta GGA functionals, TD-DFT gradient, OOMP2, MP2 Hessian
   Martin Krupicka        : AUTO-CI
   Lucas Lang             : DCDCAS
   Dagmar Lenk            : GEPOL surface, SMD
   Dimitrios Liakos       : Extrapolation schemes; Compound Job, initial MDCI parallelization
   Dimitrios Manganas     : Further ROCIS development; embedding schemes
   Dimitrios Pantazis     : SARC Basis sets
   Taras Petrenko         : DFT Hessian,TD-DFT gradient, ASA, ECA, R-Raman, ABS, FL, XAS/XES, NRVS
   Peter Pinski           : DLPNO-MP2, DLPNO-MP2 Gradient
   Christoph Reimann      : Effective Core Potentials
   Marius Retegan         : Local ZFS, SOC
   Christoph Riplinger    : Optimizer, TS searches, QM/MM, DLPNO-CCSD(T), (RO)-DLPNO pert. Triples
   Tobias Risthaus        : Range-separated hybrids, TD-DFT gradient, RPA, STAB
   Michael Roemelt        : Original ROCIS implementation
   Masaaki Saitow         : Open-shell DLPNO-CCSD energy and density
   Barbara Sandhoefer     : DKH picture change effects
   Avijit Sen             : IP-ROCIS
   Kantharuban Sivalingam : CASSCF convergence, NEVPT2, FIC-MRCI
   Bernardo de Souza      : ESD, SOC TD-DFT
   Georgi Stoychev        : AutoAux, RI-MP2 NMR
   Willem Van den Heuvel  : Paramagnetic NMR
   Boris Wezisla          : Elementary symmetry handling
   Frank Wennmohs         : Technical directorship


 We gratefully acknowledge several colleagues who have allowed us to
 interface, adapt or use parts of their codes:
   Stefan Grimme, W. Hujo, H. Kruse,             : VdW corrections, initial TS optimization,
                  C. Bannwarth                     DFT functionals, gCP, sTDA/sTD-DF
   Ed Valeev, F. Pavosevic, A. Kumar             : LibInt (2-el integral package), F12 methods
   Garnet Chan, S. Sharma, J. Yang, R. Olivares  : DMRG
   Ulf Ekstrom                                   : XCFun DFT Library
   Mihaly Kallay                                 : mrcc  (arbitrary order and MRCC methods)
   Andreas Klamt, Michael Diedenhofen            : otool_cosmo (COSMO solvation model)
   Jiri Pittner, Ondrej Demel                    : Mk-CCSD
   Frank Weinhold                                : gennbo (NPA and NBO analysis)
   Christopher J. Cramer and Donald G. Truhlar   : smd solvation model
   Lars Goerigk                                  : TD-DFT with DH, B97 family of functionals
   V. Asgeirsson, H. Jonsson                     : NEB implementation
   FAccTs GmbH                                   : IRC, NEB, NEB-TS, Multilevel, MM, QM/MM, CI optimization
   S Lehtola, MJT Oliveira, MAL Marques          : LibXC Library


 Your calculation uses the libint2 library for the computation of 2-el integrals
 For citations please refer to: http://libint.valeyev.net

 Your ORCA version has been built with support for libXC version: 4.2.3
 For citations please refer to: https://tddft.org/programs/libxc/

 This ORCA versions uses:
   CBLAS   interface :  Fast vector & matrix operations
   LAPACKE interface :  Fast linear algebra routines
   SCALAPACK package :  Parallel linear algebra routines


Your calculation utilizes the atom-pairwise dispersion correction
with the Becke-Johnson damping scheme (D3BJ)
Cite in your paper:
S.Grimme, S.Ehrlich, L.Goerigk, J Comput Chem, (2011), 32, 1456–1465 
S.Grimme, J.Antony, S.Ehrlich and H.Krieg, J.Chem.Phys., 132, (2010), 154104 
   

----- Orbital basis set information -----
Your calculation utilizes the basis: def2-SVP
   F. Weigend and R. Ahlrichs, Phys. Chem. Chem. Phys. 7, 3297 (2005).

----- AuxJ basis set information -----
Your calculation utilizes the auxiliary basis: def2/J
   F. Weigend, Phys. Chem. Chem. Phys. 8, 1057 (2006).

================================================================================
                                        WARNINGS
                       Please study these warnings very carefully!
================================================================================


WARNING: Geometry Optimization
  ===> : Switching off AutoStart
         For restart on a previous wavefunction, please use MOREAD

INFO   : the flag for use of LIBINT has been found!

================================================================================
                                       INPUT FILE
================================================================================
NAME = PTB7-Th_Optimize_Monomer.inp
|  1> ! RI BP86 def2-SVP def2/J D3BJ TIGHTSCF  Opt Grid3 FinalGrid5
|  2> %maxcore 3000
|  3> %geom
|  4> Constraints
|  5> {D 6 7 52 57 0.0 C}
|  6> {D 8 7 52 53 0.0 C}
|  7> {D 10 11 36 39 0.0 C}
|  8> {D 13 11 36 37 0.0 C}
|  9> {D 37 38 69 71 0.0 C}
| 10> {D 40 38 69 70 0.0 C}
| 11> {D 0 2 14 15 90.0 C}
| 12> {D 4 2 14 16 90.0 C}
| 13> {D 74 75 84 85 90.0 C}
| 14> {D 72 76 93 99 90.0 C}
| 15> {D 1 3 25 26 90.0 C}
| 16> {D 5 3 25 31 90.0 C}
| 17> {D 72 76 95 96 90.0 C}
| 18> {D 78 75 84 88 90.0 C}
| 19> end
| 20> end
| 21> 
| 22> *xyz 0 1
| 23> C	-4.485002	1.068043	0.258921
| 24> C	-4.610422	-0.301207	0.065601
| 25> C	-3.282172	1.742333	0.003961
| 26> C	-3.386642	-1.071027	-0.005999
| 27> C	-2.060632	1.031133	-0.097219
| 28> C	-2.103932	-0.372007	0.001951
| 29> S	-5.951452	1.689153	0.944901
| 30> C	-6.904262	0.488003	0.208381
| 31> C	-6.054682	-0.563347	-0.129799
| 32> H	-6.447612	-1.482977	-0.543219
| 33> C	-0.700202	1.500673	-0.318849
| 34> C	0.331478	0.599063	-0.084609
| 35> H	-0.528162	2.531973	-0.577739
| 36> S	-0.415552	-0.936347	0.138251
| 37> C	-3.348742	3.218253	-0.082779
| 38> S	-4.564612	3.969863	-1.076269
| 39> C	-2.591782	4.207573	0.517801
| 40> C	-4.406222	5.456423	-0.250309
| 41> C	-3.200772	5.500843	0.417161
| 42> H	-2.824682	6.390213	0.906691
| 43> H	-1.705612	4.011913	1.106541
| 44> C	-5.474382	6.494923	-0.340219
| 45> H	-6.473422	6.044233	-0.306219
| 46> H	-5.388342	7.078763	-1.260059
| 47> H	-5.412132	7.181223	0.512341
| 48> C	-3.525472	-2.570457	-0.006629
| 49> C	-4.639552	-3.358737	0.287211
| 50> C	-4.428232	-4.764787	0.182151
| 51> H	-5.601912	-2.978247	0.592481
| 52> C	-3.116212	-5.054977	-0.089279
| 53> H	-5.188882	-5.515467	0.365131
| 54> S	-2.228462	-3.637317	-0.412049
| 55> C	-2.458052	-6.391237	-0.114069
| 56> H	-3.203202	-7.194647	-0.101329
| 57> H	-1.826582	-6.514857	0.773011
| 58> H	-1.839092	-6.520677	-1.006299
| 59> C	1.805588	0.894723	-0.052059
| 60> S	3.141508	-0.288887	-0.040779
| 61> C	4.443168	0.897333	-0.045969
| 62> C	2.439638	2.110153	-0.038199
| 63> C	3.842608	2.142243	-0.150649
| 64> C	2.006218	3.473063	0.084231
| 65> S	4.571228	3.810373	-0.382409
| 66> C	2.990738	4.448643	-0.053599
| 67> F	0.777128	3.809263	0.364901
| 68> C	2.881278	5.892303	0.018681
| 69> O	3.822708	6.685753	0.039361
| 70> O	1.575858	6.282803	0.035331
| 71> C	1.407038	7.700943	0.029561
| 72> H	0.336198	7.918583	0.024991
| 73> H	1.851758	8.134603	-0.872569
| 74> H	1.848778	8.143823	0.928161
| 75> C	-8.351462	0.620413	0.115401
| 76> S	-9.420342	-0.746397	0.078261
| 77> C	-10.848442	0.218883	0.032341
| 78> C	-10.473742	1.516463	0.021251
| 79> H	-11.838882	-0.217607	0.012301
| 80> C	-9.102412	1.783513	0.047501
| 81> S	-8.667742	3.550263	-0.016429
| 82> C	-11.195992	2.735633	-0.010729
| 83> C	-10.405282	3.887063	-0.014809
| 84> F	-12.503712	2.769273	-0.027039
| 85> C	-10.795422	5.290123	-0.021289
| 86> O	-10.028802	6.247933	-0.033609
| 87> O	-12.155712	5.423853	-0.003599
| 88> C	-12.605112	6.783233	0.004871
| 89> H	-13.698922	6.785193	0.009591
| 90> H	-12.264812	7.308813	-0.893679
| 91> H	-12.257052	7.298363	0.906531
| 92> C	5.928128	0.663113	0.047691
| 93> S	6.954198	1.919523	0.644161
| 94> C	6.776078	-0.436207	-0.139549
| 95> C	8.252838	-0.152027	-0.018399
| 96> H	6.397578	-1.422707	-0.374589
| 97> C	8.444588	1.235093	0.124791
| 98> C	9.723318	1.865583	-0.016229
| 99> C	9.448878	-0.956747	-0.037779
|100> C	10.724738	-0.323547	0.103281
|101> C	10.887618	1.055843	-0.065879
|102> S	12.270258	-0.992317	0.606111
|103> C	13.139968	0.345693	0.051691
|104> C	12.287488	1.353813	-0.315189
|105> H	12.671468	2.298493	-0.678019
|106> H	14.222728	0.353433	0.049621
|107> C	9.925318	3.361163	0.010861
|108> S	8.727378	4.482113	-0.543949
|109> C	9.633908	5.858653	-0.096319
|110> C	10.910878	5.509643	0.264971
|111> C	11.045328	4.097683	0.400471
|112> H	11.687468	6.228093	0.502791
|113> H	11.958848	3.665763	0.783851
|114> C	9.050268	7.230823	-0.136019
|115> H	7.956298	7.217553	-0.121339
|116> H	9.385528	7.771573	-1.025949
|117> H	9.378168	7.798763	0.744181
|118> C	9.406228	-2.449547	-0.116679
|119> S	10.673528	-3.346947	-0.920789
|120> C	10.216848	-4.821747	-0.199249
|121> C	8.920628	-4.729557	0.254641
|122> C	8.462098	-3.369797	0.313061
|123> H	7.510008	-3.098457	0.744291
|124> H	8.358128	-5.580657	0.617401
|125> C	11.143418	-5.994337	-0.178889
|126> H	12.194988	-5.685917	-0.127619
|127> H	11.010518	-6.622937	-1.063609
|128> H	10.955908	-6.611107	0.708801
|129> **                         ****END OF INPUT****
================================================================================

                       *****************************
                       * Geometry Optimization Run *
                       *****************************

Geometry optimization settings:
Update method            Update   .... BFGS
Choice of coordinates    CoordSys .... Z-matrix Internals
Initial Hessian          InHess   .... Almoef's Model

Convergence Tolerances:
Energy Change            TolE     ....  5.0000e-06 Eh
Max. Gradient            TolMAXG  ....  3.0000e-04 Eh/bohr
RMS Gradient             TolRMSG  ....  1.0000e-04 Eh/bohr
Max. Displacement        TolMAXD  ....  4.0000e-03 bohr
RMS Displacement         TolRMSD  ....  2.0000e-03 bohr
Strict Convergence                ....  False
------------------------------------------------------------------------------
                        ORCA OPTIMIZATION COORDINATE SETUP
------------------------------------------------------------------------------

The optimization will be done in new redundant internal coordinates
Making redundant internal coordinates   ...  (new redundants) done
Evaluating the initial hessian          ...  (Almloef) done
Evaluating the coordinates              ...  done
Calculating the B-matrix                .... done
Calculating the G-matrix                .... done
Diagonalizing the G-matrix              .... done
Imposing constraints:
 Iter   0:  RMS(Cart)=    0.6333007511 RMS(Int)=    1.3795587517
 Iter   1:  RMS(Cart)=    0.3270824669 RMS(Int)=    1.3000758307
 Iter   2:  RMS(Cart)=    0.1938572979 RMS(Int)=    1.2284892410
 Iter   3:  RMS(Cart)=    0.1394986079 RMS(Int)=    1.1620111296
 Iter   4:  RMS(Cart)=    0.1206532030 RMS(Int)=    1.1004979488
 Iter   5:  RMS(Cart)=    0.1155859072 RMS(Int)=    1.0441200846
 Iter   6:  RMS(Cart)=    0.1149485670 RMS(Int)=    0.9928999439
 Iter   7:  RMS(Cart)=    0.1154659096 RMS(Int)=    0.9466743236
 Iter   8:  RMS(Cart)=    0.1161338974 RMS(Int)=    0.9051470761
 Iter   9:  RMS(Cart)=    0.1166901550 RMS(Int)=    0.8679479901
 Iter  10:  RMS(Cart)=    0.1170971958 RMS(Int)=    0.8346783881
 Iter  11:  RMS(Cart)=    0.1173773745 RMS(Int)=    0.8049415892
 Iter  12:  RMS(Cart)=    0.1173522437 RMS(Int)=    0.7783762682
 Iter  13:  RMS(Cart)=    0.1124387688 RMS(Int)=    0.7549102398
 Iter  14:  RMS(Cart)=    0.1102038695 RMS(Int)=    0.7338536891
 Iter  15:  RMS(Cart)=    0.1091207099 RMS(Int)=    0.7147863763
 Iter  16:  RMS(Cart)=    0.1085748624 RMS(Int)=    0.6974114244
 Iter  17:  RMS(Cart)=    0.1082944035 RMS(Int)=    0.6815007713
 Iter  18:  RMS(Cart)=    0.1081506924 RMS(Int)=    0.6668705495
 Iter  19:  RMS(Cart)=    0.1080798370 RMS(Int)=    0.6533681716
 Iter  20:  RMS(Cart)=    0.1080489310 RMS(Int)=    0.6408646786
 Iter  21:  RMS(Cart)=    0.1080405542 RMS(Int)=    0.6292497429
 Iter  22:  RMS(Cart)=    0.1080452901 RMS(Int)=    0.6184281540
 Iter  23:  RMS(Cart)=    0.1080579666 RMS(Int)=    0.6083172075
 Iter  24:  RMS(Cart)=    0.1080757086 RMS(Int)=    0.5988446881
 Iter  25:  RMS(Cart)=    0.1080969031 RMS(Int)=    0.5899472656
 Iter  26:  RMS(Cart)=    0.1081206383 RMS(Int)=    0.5815691943
 Iter  27:  RMS(Cart)=    0.1081463950 RMS(Int)=    0.5736612428
 Iter  28:  RMS(Cart)=    0.1081738745 RMS(Int)=    0.5661798022
 Iter  29:  RMS(Cart)=    0.1082029017 RMS(Int)=    0.5590861385
 Iter  30:  RMS(Cart)=    0.1082333706 RMS(Int)=    0.5523457594
 Iter  31:  RMS(Cart)=    0.1082652138 RMS(Int)=    0.5459278769
 Iter  32:  RMS(Cart)=    0.1082983848 RMS(Int)=    0.5398049476
 Iter  33:  RMS(Cart)=    0.1083328489 RMS(Int)=    0.5339522787
 Iter  34:  RMS(Cart)=    0.1083685780 RMS(Int)=    0.5283476883
 Iter  35:  RMS(Cart)=    0.1084055480 RMS(Int)=    0.5229712121
 Iter  36:  RMS(Cart)=    0.1084437380 RMS(Int)=    0.5178048492
 Iter  37:  RMS(Cart)=    0.1084831295 RMS(Int)=    0.5128323408
 Iter  38:  RMS(Cart)=    0.1085237063 RMS(Int)=    0.5080389773
 Iter  39:  RMS(Cart)=    0.1085654551 RMS(Int)=    0.5034114304
 Iter  40:  RMS(Cart)=    0.1086083651 RMS(Int)=    0.4989376046
 Iter  41:  RMS(Cart)=    0.1086524284 RMS(Int)=    0.4946065083
 Iter  42:  RMS(Cart)=    0.1086976401 RMS(Int)=    0.4904081391
 Iter  43:  RMS(Cart)=    0.1087439981 RMS(Int)=    0.4863333831
 Iter  44:  RMS(Cart)=    0.1087915034 RMS(Int)=    0.4823739263
 Iter  45:  RMS(Cart)=    0.1088401597 RMS(Int)=    0.4785221748
 Iter  46:  RMS(Cart)=    0.1088899734 RMS(Int)=    0.4747711855
 Iter  47:  RMS(Cart)=    0.1089409537 RMS(Int)=    0.4711146034
 Iter  48:  RMS(Cart)=    0.1089931122 RMS(Int)=    0.4675466061
 Iter  49:  RMS(Cart)=    0.1090464627 RMS(Int)=    0.4640618541
 Iter  50:  RMS(Cart)=    0.1091010215 RMS(Int)=    0.4606554467
 Iter  51:  RMS(Cart)=    0.1091568068 RMS(Int)=    0.4573228817
 Iter  52:  RMS(Cart)=    0.1092138387 RMS(Int)=    0.4540600204
 Iter  53:  RMS(Cart)=    0.1092721392 RMS(Int)=    0.4508630548
 Iter  54:  RMS(Cart)=    0.1093317322 RMS(Int)=    0.4477284795
 Iter  55:  RMS(Cart)=    0.1093926431 RMS(Int)=    0.4446530647
 Iter  56:  RMS(Cart)=    0.1094548988 RMS(Int)=    0.4416338334
 Iter  57:  RMS(Cart)=    0.1095185282 RMS(Int)=    0.4386680400
 Iter  58:  RMS(Cart)=    0.1095835613 RMS(Int)=    0.4357531507
 Iter  59:  RMS(Cart)=    0.1096500299 RMS(Int)=    0.4328868261
 Iter  60:  RMS(Cart)=    0.1097179674 RMS(Int)=    0.4300669056
 Iter  61:  RMS(Cart)=    0.1097874088 RMS(Int)=    0.4272913925
 Iter  62:  RMS(Cart)=    0.1098583910 RMS(Int)=    0.4245584415
 Iter  63:  RMS(Cart)=    0.1099309523 RMS(Int)=    0.4218663458
 Iter  64:  RMS(Cart)=    0.1100051335 RMS(Int)=    0.4192135269
 Iter  65:  RMS(Cart)=    0.1100809771 RMS(Int)=    0.4165985246
 Iter  66:  RMS(Cart)=    0.1101585281 RMS(Int)=    0.4140199871
 Iter  67:  RMS(Cart)=    0.1102378340 RMS(Int)=    0.4114766637
 Iter  68:  RMS(Cart)=    0.1103189450 RMS(Int)=    0.4089673963
 Iter  69:  RMS(Cart)=    0.1104019144 RMS(Int)=    0.4064911128
 Iter  70:  RMS(Cart)=    0.1104867990 RMS(Int)=    0.4040468207
 Iter  71:  RMS(Cart)=    0.1105736591 RMS(Int)=    0.4016336009
 Iter  72:  RMS(Cart)=    0.1106625593 RMS(Int)=    0.3992506027
 Iter  73:  RMS(Cart)=    0.1107535691 RMS(Int)=    0.3968970385
 Iter  74:  RMS(Cart)=    0.1108467626 RMS(Int)=    0.3945721794
 Iter  75:  RMS(Cart)=    0.1109422203 RMS(Int)=    0.3922753512
 Iter  76:  RMS(Cart)=    0.1110400286 RMS(Int)=    0.3900059303
 Iter  77:  RMS(Cart)=    0.1111402814 RMS(Int)=    0.3877633405
 Iter  78:  RMS(Cart)=    0.1112430807 RMS(Int)=    0.3855470496
 Iter  79:  RMS(Cart)=    0.1113485371 RMS(Int)=    0.3833565667
 Iter  80:  RMS(Cart)=    0.1114567716 RMS(Int)=    0.3811914394
 Iter  81:  RMS(Cart)=    0.1115679165 RMS(Int)=    0.3790512519
 Iter  82:  RMS(Cart)=    0.1116821165 RMS(Int)=    0.3769356224
 Iter  83:  RMS(Cart)=    0.1117995307 RMS(Int)=    0.3748442015
 Iter  84:  RMS(Cart)=    0.1119203342 RMS(Int)=    0.3727766708
 Iter  85:  RMS(Cart)=    0.1120447202 RMS(Int)=    0.3707327413
 Iter  86:  RMS(Cart)=    0.1121729024 RMS(Int)=    0.3687121525
 Iter  87:  RMS(Cart)=    0.1123051173 RMS(Int)=    0.3667146713
 Iter  88:  RMS(Cart)=    0.1124416282 RMS(Int)=    0.3647400919
 Iter  89:  RMS(Cart)=    0.1125827279 RMS(Int)=    0.3627882355
 Iter  90:  RMS(Cart)=    0.1127287435 RMS(Int)=    0.3608589501
 Iter  91:  RMS(Cart)=    0.1128800413 RMS(Int)=    0.3589521112
 Iter  92:  RMS(Cart)=    0.1130370325 RMS(Int)=    0.3570676230
 Iter  93:  RMS(Cart)=    0.1132001800 RMS(Int)=    0.3552054192
 Iter  94:  RMS(Cart)=    0.1133700071 RMS(Int)=    0.3533654659
 Iter  95:  RMS(Cart)=    0.1135471065 RMS(Int)=    0.3515477636
 Iter  96:  RMS(Cart)=    0.1137321526 RMS(Int)=    0.3497523514
 Iter  97:  RMS(Cart)=    0.1139259152 RMS(Int)=    0.3479793113
 Iter  98:  RMS(Cart)=    0.1141292770 RMS(Int)=    0.3462287747
 Iter  99:  RMS(Cart)=    0.1143432539 RMS(Int)=    0.3445009300
 RMS(Cart) too big - taking linear step, building new B-matrix and trying again
Imposing constraints:
 Iter   0:  RMS(Cart)=    0.3415804609 RMS(Int)=    1.2946195498
 Iter   1:  RMS(Cart)=    0.1927611709 RMS(Int)=    1.2184321971
 Iter   2:  RMS(Cart)=    0.1362127127 RMS(Int)=    1.1477098109
 Iter   3:  RMS(Cart)=    0.1202889589 RMS(Int)=    1.0822584945
 Iter   4:  RMS(Cart)=    0.1176259760 RMS(Int)=    1.0223417332
 Iter   5:  RMS(Cart)=    0.1180542984 RMS(Int)=    0.9680478346
 Iter   6:  RMS(Cart)=    0.1188360317 RMS(Int)=    0.9192316130
 Iter   7:  RMS(Cart)=    0.1194197169 RMS(Int)=    0.8755800110
 Iter   8:  RMS(Cart)=    0.1197783392 RMS(Int)=    0.8366854147
 Iter   9:  RMS(Cart)=    0.1199768898 RMS(Int)=    0.8021017718
 Iter  10:  RMS(Cart)=    0.1200750857 RMS(Int)=    0.7713819570
 Iter  11:  RMS(Cart)=    0.1155350978 RMS(Int)=    0.7441740664
 Iter  12:  RMS(Cart)=    0.1134008384 RMS(Int)=    0.7197858603
 Iter  13:  RMS(Cart)=    0.1124736420 RMS(Int)=    0.6977739667
 Iter  14:  RMS(Cart)=    0.1120588570 RMS(Int)=    0.6778151274
 Iter  15:  RMS(Cart)=    0.1118758363 RMS(Int)=    0.6596503970
 Iter  16:  RMS(Cart)=    0.1118015243 RMS(Int)=    0.6430632621
 Iter  17:  RMS(Cart)=    0.1117789939 RMS(Int)=    0.6278689884
 Iter  18:  RMS(Cart)=    0.1117810180 RMS(Int)=    0.6139083307
 Iter  19:  RMS(Cart)=    0.1117943582 RMS(Int)=    0.6010432188
 Iter  20:  RMS(Cart)=    0.1118125805 RMS(Int)=    0.5891534882
 Iter  21:  RMS(Cart)=    0.1118326256 RMS(Int)=    0.5781342585
 Iter  22:  RMS(Cart)=    0.1118531200 RMS(Int)=    0.5678937620
 Iter  23:  RMS(Cart)=    0.1118735274 RMS(Int)=    0.5583515194
 Iter  24:  RMS(Cart)=    0.1118937163 RMS(Int)=    0.5494367918
 Iter  25:  RMS(Cart)=    0.1119137401 RMS(Int)=    0.5410872635
 Iter  26:  RMS(Cart)=    0.1119337253 RMS(Int)=    0.5332479167
 Iter  27:  RMS(Cart)=    0.1119538171 RMS(Int)=    0.5258700693
 Iter  28:  RMS(Cart)=    0.1119741535 RMS(Int)=    0.5189105514
 Iter  29:  RMS(Cart)=    0.1119948553 RMS(Int)=    0.5123309974
 Iter  30:  RMS(Cart)=    0.1120160229 RMS(Int)=    0.5060972396
 Iter  31:  RMS(Cart)=    0.1120377368 RMS(Int)=    0.5001787849
 Iter  32:  RMS(Cart)=    0.1120600604 RMS(Int)=    0.4945483646
 Iter  33:  RMS(Cart)=    0.1120830421 RMS(Int)=    0.4891815451
 Iter  34:  RMS(Cart)=    0.1121067180 RMS(Int)=    0.4840563910
 Iter  35:  RMS(Cart)=    0.1121311144 RMS(Int)=    0.4791531734
 Iter  36:  RMS(Cart)=    0.1121562499 RMS(Int)=    0.4744541158
 Iter  37:  RMS(Cart)=    0.1121821368 RMS(Int)=    0.4699431734
 Iter  38:  RMS(Cart)=    0.1122087825 RMS(Int)=    0.4656058401
 Iter  39:  RMS(Cart)=    0.1122361907 RMS(Int)=    0.4614289797
 Iter  40:  RMS(Cart)=    0.1122643622 RMS(Int)=    0.4574006786
 Iter  41:  RMS(Cart)=    0.1122932956 RMS(Int)=    0.4535101156
 Iter  42:  RMS(Cart)=    0.1123229876 RMS(Int)=    0.4497474478
 Iter  43:  RMS(Cart)=    0.1123534335 RMS(Int)=    0.4461037098
 Iter  44:  RMS(Cart)=    0.1123846279 RMS(Int)=    0.4425707250
 Iter  45:  RMS(Cart)=    0.1124165640 RMS(Int)=    0.4391410263
 Iter  46:  RMS(Cart)=    0.1124492348 RMS(Int)=    0.4358077868
 Iter  47:  RMS(Cart)=    0.1124826325 RMS(Int)=    0.4325647571
 Iter  48:  RMS(Cart)=    0.1125167487 RMS(Int)=    0.4294062102
 Iter  49:  RMS(Cart)=    0.1125515750 RMS(Int)=    0.4263268925
 Iter  50:  RMS(Cart)=    0.1125871021 RMS(Int)=    0.4233219789
 Iter  51:  RMS(Cart)=    0.1126233209 RMS(Int)=    0.4203870344
 Iter  52:  RMS(Cart)=    0.1126602214 RMS(Int)=    0.4175179776
 Iter  53:  RMS(Cart)=    0.1126977939 RMS(Int)=    0.4147110499
 Iter  54:  RMS(Cart)=    0.1127360279 RMS(Int)=    0.4119627860
 Iter  55:  RMS(Cart)=    0.1127749131 RMS(Int)=    0.4092699892
 Iter  56:  RMS(Cart)=    0.1128144385 RMS(Int)=    0.4066297071
 Iter  57:  RMS(Cart)=    0.1128545932 RMS(Int)=    0.4040392115
 Iter  58:  RMS(Cart)=    0.1128953659 RMS(Int)=    0.4014959788
 Iter  59:  RMS(Cart)=    0.1129367451 RMS(Int)=    0.3989976733
 Iter  60:  RMS(Cart)=    0.1129787192 RMS(Int)=    0.3965421313
 Iter  61:  RMS(Cart)=    0.1130212763 RMS(Int)=    0.3941273471
 Iter  62:  RMS(Cart)=    0.1130644043 RMS(Int)=    0.3917514600
 Iter  63:  RMS(Cart)=    0.1131080912 RMS(Int)=    0.3894127426
 Iter  64:  RMS(Cart)=    0.1131523246 RMS(Int)=    0.3871095905
 Iter  65:  RMS(Cart)=    0.1131970922 RMS(Int)=    0.3848405121
 Iter  66:  RMS(Cart)=    0.1132423815 RMS(Int)=    0.3826041198
 Iter  67:  RMS(Cart)=    0.1132881799 RMS(Int)=    0.3803991222
 Iter  68:  RMS(Cart)=    0.1133344750 RMS(Int)=    0.3782243163
 Iter  69:  RMS(Cart)=    0.1133812542 RMS(Int)=    0.3760785809
 Iter  70:  RMS(Cart)=    0.1134285050 RMS(Int)=    0.3739608705
 Iter  71:  RMS(Cart)=    0.1134762149 RMS(Int)=    0.3718702090
 Iter  72:  RMS(Cart)=    0.1135243715 RMS(Int)=    0.3698056854
 Iter  73:  RMS(Cart)=    0.1135729624 RMS(Int)=    0.3677664479
 Iter  74:  RMS(Cart)=    0.1136219754 RMS(Int)=    0.3657517005
 Iter  75:  RMS(Cart)=    0.1136713985 RMS(Int)=    0.3637606980
 Iter  76:  RMS(Cart)=    0.1137212197 RMS(Int)=    0.3617927430
 Iter  77:  RMS(Cart)=    0.1137714272 RMS(Int)=    0.3598471819
 Iter  78:  RMS(Cart)=    0.1138220096 RMS(Int)=    0.3579234021
 Iter  79:  RMS(Cart)=    0.1138729553 RMS(Int)=    0.3560208287
 Iter  80:  RMS(Cart)=    0.1139242533 RMS(Int)=    0.3541389221
 Iter  81:  RMS(Cart)=    0.1139758926 RMS(Int)=    0.3522771751
 Iter  82:  RMS(Cart)=    0.1140278626 RMS(Int)=    0.3504351112
 Iter  83:  RMS(Cart)=    0.1140801528 RMS(Int)=    0.3486122816
 Iter  84:  RMS(Cart)=    0.1141327531 RMS(Int)=    0.3468082641
 Iter  85:  RMS(Cart)=    0.1141856536 RMS(Int)=    0.3450226606
 Iter  86:  RMS(Cart)=    0.1142388447 RMS(Int)=    0.3432550957
 Iter  87:  RMS(Cart)=    0.1142923171 RMS(Int)=    0.3415052150
 Iter  88:  RMS(Cart)=    0.1143460618 RMS(Int)=    0.3397726837
 Iter  89:  RMS(Cart)=    0.1144000700 RMS(Int)=    0.3380571852
 Iter  90:  RMS(Cart)=    0.1144543333 RMS(Int)=    0.3363584199
 Iter  91:  RMS(Cart)=    0.1145088436 RMS(Int)=    0.3346761040
 Iter  92:  RMS(Cart)=    0.1145635930 RMS(Int)=    0.3330099683
 Iter  93:  RMS(Cart)=    0.1146185740 RMS(Int)=    0.3313597573
 Iter  94:  RMS(Cart)=    0.1146737793 RMS(Int)=    0.3297252282
 Iter  95:  RMS(Cart)=    0.1147292020 RMS(Int)=    0.3281061503
 Iter  96:  RMS(Cart)=    0.1147848354 RMS(Int)=    0.3265023036
 Iter  97:  RMS(Cart)=    0.1148406731 RMS(Int)=    0.3249134787
 Iter  98:  RMS(Cart)=    0.1148967091 RMS(Int)=    0.3233394755
 Iter  99:  RMS(Cart)=    0.1149529375 RMS(Int)=    0.3217801031
 RMS(Cart) too big - taking linear step, building new B-matrix and trying again
Imposing constraints:
 Iter   0:  RMS(Cart)=    0.1957291105 RMS(Int)=    1.2166353949
 Iter   1:  RMS(Cart)=    0.1339506171 RMS(Int)=    1.1429960826
 Iter   2:  RMS(Cart)=    0.1158643625 RMS(Int)=    1.0739153958
 Iter   3:  RMS(Cart)=    0.1125169029 RMS(Int)=    1.0100232226
 Iter   4:  RMS(Cart)=    0.1126724919 RMS(Int)=    0.9517036895
 Iter   5:  RMS(Cart)=    0.1133000552 RMS(Int)=    0.8990197715
 Iter   6:  RMS(Cart)=    0.1137869993 RMS(Int)=    0.8517898311
 Iter   7:  RMS(Cart)=    0.1140881207 RMS(Int)=    0.8096779779
 Iter   8:  RMS(Cart)=    0.1142569881 RMS(Int)=    0.7722664329
 Iter   9:  RMS(Cart)=    0.1085072428 RMS(Int)=    0.7391431349
 Iter  10:  RMS(Cart)=    0.1069173452 RMS(Int)=    0.7094520882
 Iter  11:  RMS(Cart)=    0.1065029607 RMS(Int)=    0.6827170576
 Iter  12:  RMS(Cart)=    0.1064467327 RMS(Int)=    0.6585773520
 Iter  13:  RMS(Cart)=    0.1064960095 RMS(Int)=    0.6367283665
 Iter  14:  RMS(Cart)=    0.1065683963 RMS(Int)=    0.6169044615
 Iter  15:  RMS(Cart)=    0.1066378977 RMS(Int)=    0.5988722569
 Iter  16:  RMS(Cart)=    0.1066979019 RMS(Int)=    0.5824266937
 Iter  17:  RMS(Cart)=    0.1067482802 RMS(Int)=    0.5673878733
 Iter  18:  RMS(Cart)=    0.1067907662 RMS(Int)=    0.5535981898
 Iter  19:  RMS(Cart)=    0.1068273343 RMS(Int)=    0.5409196699
 Iter  20:  RMS(Cart)=    0.1068596912 RMS(Int)=    0.5292315329
 Iter  21:  RMS(Cart)=    0.1068891719 RMS(Int)=    0.5184279892
 Iter  22:  RMS(Cart)=    0.1069167719 RMS(Int)=    0.5084162812
 Iter  23:  RMS(Cart)=    0.1069432151 RMS(Int)=    0.4991149615
 Iter  24:  RMS(Cart)=    0.1069690201 RMS(Int)=    0.4904523911
 Iter  25:  RMS(Cart)=    0.1069945554 RMS(Int)=    0.4823654374
 Iter  26:  RMS(Cart)=    0.1070200817 RMS(Int)=    0.4747983499
 Iter  27:  RMS(Cart)=    0.1070457829 RMS(Int)=    0.4677017920
 Iter  28:  RMS(Cart)=    0.1070717890 RMS(Int)=    0.4610320070
 Iter  29:  RMS(Cart)=    0.1070981919 RMS(Int)=    0.4547501021
 Iter  30:  RMS(Cart)=    0.1071250570 RMS(Int)=    0.4488214313
 Iter  31:  RMS(Cart)=    0.1071524313 RMS(Int)=    0.4432150646
 Iter  32:  RMS(Cart)=    0.1071803489 RMS(Int)=    0.4379033303
 Iter  33:  RMS(Cart)=    0.1072088353 RMS(Int)=    0.4328614199
 Iter  34:  RMS(Cart)=    0.1072379099 RMS(Int)=    0.4280670464
 Iter  35:  RMS(Cart)=    0.1072675880 RMS(Int)=    0.4235001481
 Iter  36:  RMS(Cart)=    0.1072978827 RMS(Int)=    0.4191426319
 Iter  37:  RMS(Cart)=    0.1073288049 RMS(Int)=    0.4149781494
 Iter  38:  RMS(Cart)=    0.1073603649 RMS(Int)=    0.4109919022
 Iter  39:  RMS(Cart)=    0.1073925723 RMS(Int)=    0.4071704720
 Iter  40:  RMS(Cart)=    0.1074254366 RMS(Int)=    0.4035016710
 Iter  41:  RMS(Cart)=    0.1074589671 RMS(Int)=    0.3999744116
 Iter  42:  RMS(Cart)=    0.1074931736 RMS(Int)=    0.3965785911
 Iter  43:  RMS(Cart)=    0.1075280659 RMS(Int)=    0.3933049911
 Iter  44:  RMS(Cart)=    0.1075636542 RMS(Int)=    0.3901451873
 Iter  45:  RMS(Cart)=    0.1075999491 RMS(Int)=    0.3870914711
 Iter  46:  RMS(Cart)=    0.1076369615 RMS(Int)=    0.3841367792
 Iter  47:  RMS(Cart)=    0.1076747027 RMS(Int)=    0.3812746312
 Iter  48:  RMS(Cart)=    0.1077131846 RMS(Int)=    0.3784990747
 Iter  49:  RMS(Cart)=    0.1077524193 RMS(Int)=    0.3758046355
 Iter  50:  RMS(Cart)=    0.1077924194 RMS(Int)=    0.3731862735
 Iter  51:  RMS(Cart)=    0.1078331981 RMS(Int)=    0.3706393434
 Iter  52:  RMS(Cart)=    0.1078747686 RMS(Int)=    0.3681595594
 Iter  53:  RMS(Cart)=    0.1079171450 RMS(Int)=    0.3657429630
 Iter  54:  RMS(Cart)=    0.1079603417 RMS(Int)=    0.3633858951
 Iter  55:  RMS(Cart)=    0.1080043733 RMS(Int)=    0.3610849695
 Iter  56:  RMS(Cart)=    0.1080492553 RMS(Int)=    0.3588370504
 Iter  57:  RMS(Cart)=    0.1080950035 RMS(Int)=    0.3566392308
 Iter  58:  RMS(Cart)=    0.1081416341 RMS(Int)=    0.3544888142
 Iter  59:  RMS(Cart)=    0.1081891642 RMS(Int)=    0.3523832965
 Iter  60:  RMS(Cart)=    0.1082188685 RMS(Int)=    0.3503202077
 Iter  61:  RMS(Cart)=    0.1081793860 RMS(Int)=    0.3482967967
 Iter  62:  RMS(Cart)=    0.1081493782 RMS(Int)=    0.3463110385
 Iter  63:  RMS(Cart)=    0.1081296792 RMS(Int)=    0.3443611173
 Iter  64:  RMS(Cart)=    0.1081200035 RMS(Int)=    0.3424453723
 Iter  65:  RMS(Cart)=    0.1081196840 RMS(Int)=    0.3405622693
 Iter  66:  RMS(Cart)=    0.1081279633 RMS(Int)=    0.3387103837
 Iter  67:  RMS(Cart)=    0.1081441042 RMS(Int)=    0.3368883882
 Iter  68:  RMS(Cart)=    0.1081674269 RMS(Int)=    0.3350950428
 Iter  69:  RMS(Cart)=    0.1081973188 RMS(Int)=    0.3333291868
 Iter  70:  RMS(Cart)=    0.1082332331 RMS(Int)=    0.3315897320
 Iter  71:  RMS(Cart)=    0.1082746845 RMS(Int)=    0.3298756558
 Iter  72:  RMS(Cart)=    0.1083212429 RMS(Int)=    0.3281859969
 Iter  73:  RMS(Cart)=    0.1083725284 RMS(Int)=    0.3265198497
 Iter  74:  RMS(Cart)=    0.1084282056 RMS(Int)=    0.3248763610
 Iter  75:  RMS(Cart)=    0.1084879792 RMS(Int)=    0.3232547257
 Iter  76:  RMS(Cart)=    0.1085515898 RMS(Int)=    0.3216541838
 Iter  77:  RMS(Cart)=    0.1086188104 RMS(Int)=    0.3200740172
 Iter  78:  RMS(Cart)=    0.1086894430 RMS(Int)=    0.3185135476
 Iter  79:  RMS(Cart)=    0.1087633161 RMS(Int)=    0.3169721334
 Iter  80:  RMS(Cart)=    0.1088402819 RMS(Int)=    0.3154491678
 Iter  81:  RMS(Cart)=    0.1089202145 RMS(Int)=    0.3139440768
 Iter  82:  RMS(Cart)=    0.1090030076 RMS(Int)=    0.3124563172
 Iter  83:  RMS(Cart)=    0.1090885735 RMS(Int)=    0.3109853751
 Iter  84:  RMS(Cart)=    0.1091768411 RMS(Int)=    0.3095307639
 Iter  85:  RMS(Cart)=    0.1092677548 RMS(Int)=    0.3080920233
 Iter  86:  RMS(Cart)=    0.1093612736 RMS(Int)=    0.3066687175
 Iter  87:  RMS(Cart)=    0.1094573702 RMS(Int)=    0.3052604342
 Iter  88:  RMS(Cart)=    0.1095560298 RMS(Int)=    0.3038667833
 Iter  89:  RMS(Cart)=    0.1096572501 RMS(Int)=    0.3024873960
 Iter  90:  RMS(Cart)=    0.1097610399 RMS(Int)=    0.3011219233
 Iter  91:  RMS(Cart)=    0.1098674195 RMS(Int)=    0.2997700357
 Iter  92:  RMS(Cart)=    0.1099764200 RMS(Int)=    0.2984314216
 Iter  93:  RMS(Cart)=    0.1100880826 RMS(Int)=    0.2971057874
 Iter  94:  RMS(Cart)=    0.1102024591 RMS(Int)=    0.2957928559
 Iter  95:  RMS(Cart)=    0.1103196116 RMS(Int)=    0.2944923660
 Iter  96:  RMS(Cart)=    0.1104396122 RMS(Int)=    0.2932040723
 Iter  97:  RMS(Cart)=    0.1105625432 RMS(Int)=    0.2919277442
 Iter  98:  RMS(Cart)=    0.1106884975 RMS(Int)=    0.2906631655
 Iter  99:  RMS(Cart)=    0.1108175782 RMS(Int)=    0.2894101341
 RMS(Cart) too big - taking linear step, building new B-matrix and trying again
Decreasing the constraint accuracy, check your results carefully!
Imposing constraints:
 Iter   0:  RMS(Cart)=    0.1324664428 RMS(Int)=    1.1416698128
 Iter   1:  RMS(Cart)=    0.1126913557 RMS(Int)=    1.0698365211
 Iter   2:  RMS(Cart)=    0.1087200212 RMS(Int)=    1.0022387826
 Iter   3:  RMS(Cart)=    0.1086720714 RMS(Int)=    0.9396983618
 Iter   4:  RMS(Cart)=    0.1092392496 RMS(Int)=    0.8826281253
 Iter   5:  RMS(Cart)=    0.1097191808 RMS(Int)=    0.8310984186
 Iter   6:  RMS(Cart)=    0.1100352559 RMS(Int)=    0.7849387947
 Iter   7:  RMS(Cart)=    0.1020242185 RMS(Int)=    0.7439464535
 Iter   8:  RMS(Cart)=    0.0993234732 RMS(Int)=    0.7071388560
 Iter   9:  RMS(Cart)=    0.0988514949 RMS(Int)=    0.6739788903
 Iter  10:  RMS(Cart)=    0.0988449545 RMS(Int)=    0.6440796961
 Iter  11:  RMS(Cart)=    0.0989246130 RMS(Int)=    0.6170964420
 Iter  12:  RMS(Cart)=    0.0990055656 RMS(Int)=    0.5927118501
 Iter  13:  RMS(Cart)=    0.0990725213 RMS(Int)=    0.5706362428
 Iter  14:  RMS(Cart)=    0.0991263745 RMS(Int)=    0.5506084964
 Iter  15:  RMS(Cart)=    0.0991707950 RMS(Int)=    0.5323957400
 Iter  16:  RMS(Cart)=    0.0992090498 RMS(Int)=    0.5157919057
 Iter  17:  RMS(Cart)=    0.0992434947 RMS(Int)=    0.5006155872
 Iter  18:  RMS(Cart)=    0.0992757040 RMS(Int)=    0.4867075924
 Iter  19:  RMS(Cart)=    0.0993066927 RMS(Int)=    0.4739284520
 Iter  20:  RMS(Cart)=    0.0993371018 RMS(Int)=    0.4621560374
 Iter  21:  RMS(Cart)=    0.0993673296 RMS(Int)=    0.4512833704
 Iter  22:  RMS(Cart)=    0.0993976200 RMS(Int)=    0.4412166555
 Iter  23:  RMS(Cart)=    0.0994281190 RMS(Int)=    0.4318735428
 Iter  24:  RMS(Cart)=    0.0994589112 RMS(Int)=    0.4231816088
 Iter  25:  RMS(Cart)=    0.0994900431 RMS(Int)=    0.4150770387
 Iter  26:  RMS(Cart)=    0.0995215375 RMS(Int)=    0.4075034878
 Iter  27:  RMS(Cart)=    0.0995534029 RMS(Int)=    0.4004111004
 Iter  28:  RMS(Cart)=    0.0995856396 RMS(Int)=    0.3937556660
 Iter  29:  RMS(Cart)=    0.0996182433 RMS(Int)=    0.3874978936
 Iter  30:  RMS(Cart)=    0.0996512073 RMS(Int)=    0.3816027872
 Iter  31:  RMS(Cart)=    0.0996845242 RMS(Int)=    0.3760391086
 Iter  32:  RMS(Cart)=    0.0997181869 RMS(Int)=    0.3707789145
 Iter  33:  RMS(Cart)=    0.0997521890 RMS(Int)=    0.3657971563
 Iter  34:  RMS(Cart)=    0.0997865253 RMS(Int)=    0.3610713350
 Iter  35:  RMS(Cart)=    0.0998211920 RMS(Int)=    0.3565812015
 Iter  36:  RMS(Cart)=    0.0998561868 RMS(Int)=    0.3523084966
 Iter  37:  RMS(Cart)=    0.0997200290 RMS(Int)=    0.3482373164
 Iter  38:  RMS(Cart)=    0.0994497487 RMS(Int)=    0.3443519646
 Iter  39:  RMS(Cart)=    0.0992279769 RMS(Int)=    0.3406375595
 Iter  40:  RMS(Cart)=    0.0990480352 RMS(Int)=    0.3370812715
 Iter  41:  RMS(Cart)=    0.0989039218 RMS(Int)=    0.3336718705
 Iter  42:  RMS(Cart)=    0.0987904397 RMS(Int)=    0.3303994101
 Iter  43:  RMS(Cart)=    0.0987031677 RMS(Int)=    0.3272549987
 Iter  44:  RMS(Cart)=    0.0986383738 RMS(Int)=    0.3242306269
 Iter  45:  RMS(Cart)=    0.0985929140 RMS(Int)=    0.3213190342
 Iter  46:  RMS(Cart)=    0.0985641366 RMS(Int)=    0.3185136048
 Iter  47:  RMS(Cart)=    0.0985497998 RMS(Int)=    0.3158082834
 Iter  48:  RMS(Cart)=    0.0984188508 RMS(Int)=    0.3132007188
 Iter  49:  RMS(Cart)=    0.0980014373 RMS(Int)=    0.3106923573
 Iter  50:  RMS(Cart)=    0.0976338545 RMS(Int)=    0.3082761565
 Iter  51:  RMS(Cart)=    0.0973071954 RMS(Int)=    0.3059458187
 Iter  52:  RMS(Cart)=    0.0970153118 RMS(Int)=    0.3036957375
 Iter  53:  RMS(Cart)=    0.0967536426 RMS(Int)=    0.3015209160
 Iter  54:  RMS(Cart)=    0.0965186235 RMS(Int)=    0.2994168838
 Iter  55:  RMS(Cart)=    0.0963073685 RMS(Int)=    0.2973796245
 Iter  56:  RMS(Cart)=    0.0961174851 RMS(Int)=    0.2954055142
 Iter  57:  RMS(Cart)=    0.0959469577 RMS(Int)=    0.2934912701
 Iter  58:  RMS(Cart)=    0.0957940692 RMS(Int)=    0.2916339084
 Iter  59:  RMS(Cart)=    0.0956573444 RMS(Int)=    0.2898307093
 Iter  60:  RMS(Cart)=    0.0955355081 RMS(Int)=    0.2880791875
 Iter  61:  RMS(Cart)=    0.0954274520 RMS(Int)=    0.2863770676
 Iter  62:  RMS(Cart)=    0.0953322092 RMS(Int)=    0.2847222629
 Iter  63:  RMS(Cart)=    0.0952489335 RMS(Int)=    0.2831128571
 Iter  64:  RMS(Cart)=    0.0951768826 RMS(Int)=    0.2815470890
 Iter  65:  RMS(Cart)=    0.0951154043 RMS(Int)=    0.2800233383
 Iter  66:  RMS(Cart)=    0.0950639253 RMS(Int)=    0.2785401140
 Iter  67:  RMS(Cart)=    0.0950219415 RMS(Int)=    0.2770960434
 Iter  68:  RMS(Cart)=    0.0949890105 RMS(Int)=    0.2756898631
 Iter  69:  RMS(Cart)=    0.0949647446 RMS(Int)=    0.2743204100
 Iter  70:  RMS(Cart)=    0.0949488057 RMS(Int)=    0.2729866146
 Iter  71:  RMS(Cart)=    0.0949409005 RMS(Int)=    0.2716874935
 Iter  72:  RMS(Cart)=    0.0949407766 RMS(Int)=    0.2704221437
 Iter  73:  RMS(Cart)=    0.0949482191 RMS(Int)=    0.2691897376
 Iter  74:  RMS(Cart)=    0.0949630483 RMS(Int)=    0.2679895173
 Iter  75:  RMS(Cart)=    0.0949851169 RMS(Int)=    0.2668207909
 Iter  76:  RMS(Cart)=    0.0950143088 RMS(Int)=    0.2656829282
 Iter  77:  RMS(Cart)=    0.0950505368 RMS(Int)=    0.2645753575
 Iter  78:  RMS(Cart)=    0.0950937425 RMS(Int)=    0.2634975621
 Iter  79:  RMS(Cart)=    0.0951438944 RMS(Int)=    0.2624490776
 Iter  80:  RMS(Cart)=    0.0952009881 RMS(Int)=    0.2614294897
 Iter  81:  RMS(Cart)=    0.0952650455 RMS(Int)=    0.2604384315
 Iter  82:  RMS(Cart)=    0.0953361152 RMS(Int)=    0.2594755820
 Iter  83:  RMS(Cart)=    0.0954142720 RMS(Int)=    0.2585406642
 Iter  84:  RMS(Cart)=    0.0954996178 RMS(Int)=    0.2576334441
 Iter  85:  RMS(Cart)=    0.0955922822 RMS(Int)=    0.2567537290
 Iter  86:  RMS(Cart)=    0.0956924231 RMS(Int)=    0.2559013671
 Iter  87:  RMS(Cart)=    0.0958002280 RMS(Int)=    0.2550762468
 Iter  88:  RMS(Cart)=    0.0959159152 RMS(Int)=    0.2542782959
 Iter  89:  RMS(Cart)=    0.0960397355 RMS(Int)=    0.2535074820
 Iter  90:  RMS(Cart)=    0.0961719743 RMS(Int)=    0.2527638125
 Iter  91:  RMS(Cart)=    0.0963129532 RMS(Int)=    0.2520473345
 Iter  92:  RMS(Cart)=    0.0964630333 RMS(Int)=    0.2513581362
 Iter  93:  RMS(Cart)=    0.0966226176 RMS(Int)=    0.2506963470
 Iter  94:  RMS(Cart)=    0.0967921544 RMS(Int)=    0.2500621397
 Iter  95:  RMS(Cart)=    0.0969721411 RMS(Int)=    0.2494557310
 Iter  96:  RMS(Cart)=    0.0971631283 RMS(Int)=    0.2488773845
 Iter  97:  RMS(Cart)=    0.0973657249 RMS(Int)=    0.2483274122
 Iter  98:  RMS(Cart)=    0.0975806030 RMS(Int)=    0.2478061775
 Iter  99:  RMS(Cart)=    0.0978085043 RMS(Int)=    0.2473140986
 RMS(Cart) too big - taking linear step, building new B-matrix and trying again
Decreasing the constraint accuracy, check your results carefully!
Imposing constraints:
 Iter   0:  RMS(Cart)=    0.1156985660 RMS(Int)=    1.0685134343
 Iter   1:  RMS(Cart)=    0.1121034559 RMS(Int)=    0.9982238404
 Iter   2:  RMS(Cart)=    0.1122669970 RMS(Int)=    0.9320610194
 Iter   3:  RMS(Cart)=    0.1129624820 RMS(Int)=    0.8708534678
 Iter   4:  RMS(Cart)=    0.1135296926 RMS(Int)=    0.8150097690
 Iter   5:  RMS(Cart)=    0.1073783074 RMS(Int)=    0.7647511500
 Iter   6:  RMS(Cart)=    0.0963133113 RMS(Int)=    0.7195475133
 Iter   7:  RMS(Cart)=    0.0944084394 RMS(Int)=    0.6785991602
 Iter   8:  RMS(Cart)=    0.0939989834 RMS(Int)=    0.6415603366
 Iter   9:  RMS(Cart)=    0.0939000818 RMS(Int)=    0.6081071337
 Iter  10:  RMS(Cart)=    0.0938761598 RMS(Int)=    0.5779080263
 Iter  11:  RMS(Cart)=    0.0938720039 RMS(Int)=    0.5506355941
 Iter  12:  RMS(Cart)=    0.0938734414 RMS(Int)=    0.5259785431
 Iter  13:  RMS(Cart)=    0.0938768183 RMS(Int)=    0.5036490972
 Iter  14:  RMS(Cart)=    0.0938813289 RMS(Int)=    0.4833863558
 Iter  15:  RMS(Cart)=    0.0938869098 RMS(Int)=    0.4649569043
 Iter  16:  RMS(Cart)=    0.0938936444 RMS(Int)=    0.4481537639
 Iter  17:  RMS(Cart)=    0.0939016037 RMS(Int)=    0.4327944461
 Iter  18:  RMS(Cart)=    0.0939108165 RMS(Int)=    0.4187186136
 Iter  19:  RMS(Cart)=    0.0939212727 RMS(Int)=    0.4057856493
 Iter  20:  RMS(Cart)=    0.0939329344 RMS(Int)=    0.3938723109
 Iter  21:  RMS(Cart)=    0.0939457456 RMS(Int)=    0.3828705594
 Iter  22:  RMS(Cart)=    0.0939596388 RMS(Int)=    0.3726856027
 Iter  23:  RMS(Cart)=    0.0939745405 RMS(Int)=    0.3632341625
 Iter  24:  RMS(Cart)=    0.0939903740 RMS(Int)=    0.3544429561
 Iter  25:  RMS(Cart)=    0.0940070612 RMS(Int)=    0.3462473767
 Iter  26:  RMS(Cart)=    0.0940245247 RMS(Int)=    0.3385903514
 Iter  27:  RMS(Cart)=    0.0939383950 RMS(Int)=    0.3314231325
 Iter  28:  RMS(Cart)=    0.0933364469 RMS(Int)=    0.3247064400
 Iter  29:  RMS(Cart)=    0.0928619751 RMS(Int)=    0.3183926504
 Iter  30:  RMS(Cart)=    0.0924876272 RMS(Int)=    0.3124423353
 Iter  31:  RMS(Cart)=    0.0921929180 RMS(Int)=    0.3068222241
 Iter  32:  RMS(Cart)=    0.0919622247 RMS(Int)=    0.3015037960
 Iter  33:  RMS(Cart)=    0.0917834622 RMS(Int)=    0.2964622803
 Iter  34:  RMS(Cart)=    0.0913438691 RMS(Int)=    0.2916885123
 Iter  35:  RMS(Cart)=    0.0905098429 RMS(Int)=    0.2871784163
 Iter  36:  RMS(Cart)=    0.0897873043 RMS(Int)=    0.2829074675
 Iter  37:  RMS(Cart)=    0.0891564593 RMS(Int)=    0.2788544433
 Iter  38:  RMS(Cart)=    0.0886022048 RMS(Int)=    0.2750008423
 Iter  39:  RMS(Cart)=    0.0881127110 RMS(Int)=    0.2713304235
 Iter  40:  RMS(Cart)=    0.0876785229 RMS(Int)=    0.2678288395
 Iter  41:  RMS(Cart)=    0.0872919608 RMS(Int)=    0.2644833427
 Iter  42:  RMS(Cart)=    0.0869467049 RMS(Int)=    0.2612825498
 Iter  43:  RMS(Cart)=    0.0865877183 RMS(Int)=    0.2582184901
 Iter  44:  RMS(Cart)=    0.0860711508 RMS(Int)=    0.2552902658
 Iter  45:  RMS(Cart)=    0.0856258709 RMS(Int)=    0.2524874300
 Iter  46:  RMS(Cart)=    0.0852422652 RMS(Int)=    0.2498009223
 Iter  47:  RMS(Cart)=    0.0849123253 RMS(Int)=    0.2472228010
 Iter  48:  RMS(Cart)=    0.0846292890 RMS(Int)=    0.2447460339
 Iter  49:  RMS(Cart)=    0.0843873885 RMS(Int)=    0.2423643356
 Iter  50:  RMS(Cart)=    0.0841816667 RMS(Int)=    0.2400720414
 Iter  51:  RMS(Cart)=    0.0840078374 RMS(Int)=    0.2378640078
 Iter  52:  RMS(Cart)=    0.0838621756 RMS(Int)=    0.2357355357
 Iter  53:  RMS(Cart)=    0.0837414311 RMS(Int)=    0.2336823091
 Iter  54:  RMS(Cart)=    0.0836427572 RMS(Int)=    0.2317003464
 Iter  55:  RMS(Cart)=    0.0835636528 RMS(Int)=    0.2297859613
 Iter  56:  RMS(Cart)=    0.0835019143 RMS(Int)=    0.2279357312
 Iter  57:  RMS(Cart)=    0.0834555951 RMS(Int)=    0.2261464707
 Iter  58:  RMS(Cart)=    0.0834229712 RMS(Int)=    0.2244152099
 Iter  59:  RMS(Cart)=    0.0834025127 RMS(Int)=    0.2227391758
 Iter  60:  RMS(Cart)=    0.0833928589 RMS(Int)=    0.2211157764
 Iter  61:  RMS(Cart)=    0.0833927974 RMS(Int)=    0.2195425870
 Iter  62:  RMS(Cart)=    0.0834012455 RMS(Int)=    0.2180173375
 Iter  63:  RMS(Cart)=    0.0834172353 RMS(Int)=    0.2165379022
 Iter  64:  RMS(Cart)=    0.0834398990 RMS(Int)=    0.2151022890
 Iter  65:  RMS(Cart)=    0.0834684583 RMS(Int)=    0.2137086315
 Iter  66:  RMS(Cart)=    0.0835022133 RMS(Int)=    0.2123551798
 Iter  67:  RMS(Cart)=    0.0835405339 RMS(Int)=    0.2110402934
 Iter  68:  RMS(Cart)=    0.0835828517 RMS(Int)=    0.2097624339
 Iter  69:  RMS(Cart)=    0.0836286536 RMS(Int)=    0.2085201587
 Iter  70:  RMS(Cart)=    0.0836774752 RMS(Int)=    0.2073121142
 Iter  71:  RMS(Cart)=    0.0837288959 RMS(Int)=    0.2061370306
 Iter  72:  RMS(Cart)=    0.0837825341 RMS(Int)=    0.2049937161
 Iter  73:  RMS(Cart)=    0.0838380431 RMS(Int)=    0.2038810517
 Iter  74:  RMS(Cart)=    0.0838951075 RMS(Int)=    0.2027979868
 Iter  75:  RMS(Cart)=    0.0839505701 RMS(Int)=    0.2017438258
 Iter  76:  RMS(Cart)=    0.0839527024 RMS(Int)=    0.2007233018
 Iter  77:  RMS(Cart)=    0.0839561917 RMS(Int)=    0.1997358343
 Iter  78:  RMS(Cart)=    0.0839609152 RMS(Int)=    0.1987808764
 Iter  79:  RMS(Cart)=    0.0839667871 RMS(Int)=    0.1978579193
 Iter  80:  RMS(Cart)=    0.0839737367 RMS(Int)=    0.1969664922
 Iter  81:  RMS(Cart)=    0.0839816993 RMS(Int)=    0.1961061603
 Iter  82:  RMS(Cart)=    0.0839906124 RMS(Int)=    0.1952765220
 Iter  83:  RMS(Cart)=    0.0840004156 RMS(Int)=    0.1944772059
 Iter  84:  RMS(Cart)=    0.0840110497 RMS(Int)=    0.1937078683
 Iter  85:  RMS(Cart)=    0.0840224574 RMS(Int)=    0.1929681900
 Iter  86:  RMS(Cart)=    0.0840345834 RMS(Int)=    0.1922578741
 Iter  87:  RMS(Cart)=    0.0840473744 RMS(Int)=    0.1915766431
 Iter  88:  RMS(Cart)=    0.0840607795 RMS(Int)=    0.1909242366
 Iter  89:  RMS(Cart)=    0.0840747504 RMS(Int)=    0.1903004094
 Iter  90:  RMS(Cart)=    0.0840892409 RMS(Int)=    0.1897049288
 Iter  91:  RMS(Cart)=    0.0841042075 RMS(Int)=    0.1891375731
 Iter  92:  RMS(Cart)=    0.0841196090 RMS(Int)=    0.1885981292
 Iter  93:  RMS(Cart)=    0.0841354067 RMS(Int)=    0.1880863914
 Iter  94:  RMS(Cart)=    0.0841515641 RMS(Int)=    0.1876021591
 Iter  95:  RMS(Cart)=    0.0841680469 RMS(Int)=    0.1871452354
 Iter  96:  RMS(Cart)=    0.0841848231 RMS(Int)=    0.1867154257
 Iter  97:  RMS(Cart)=    0.0842018626 RMS(Int)=    0.1863125362
 Iter  98:  RMS(Cart)=    0.0842191375 RMS(Int)=    0.1859363723
 Iter  99:  RMS(Cart)=    0.0842366214 RMS(Int)=    0.1855867376
 RMS(Cart) too big - taking linear step, building new B-matrix and trying again
Decreasing the constraint accuracy, check your results carefully!
Imposing constraints:
 Iter   0:  RMS(Cart)=    0.1232521200 RMS(Int)=    0.9969490546
 Iter   1:  RMS(Cart)=    0.1240201558 RMS(Int)=    0.9282793371
 Iter   2:  RMS(Cart)=    0.1250148805 RMS(Int)=    0.8637252691
 Iter   3:  RMS(Cart)=    0.1257464410 RMS(Int)=    0.8040686549
 Iter   4:  RMS(Cart)=    0.1080053404 RMS(Int)=    0.7499211831
 Iter   5:  RMS(Cart)=    0.0970475987 RMS(Int)=    0.7004540173
 Iter   6:  RMS(Cart)=    0.0949934518 RMS(Int)=    0.6552734590
 Iter   7:  RMS(Cart)=    0.0944050246 RMS(Int)=    0.6142052221
 Iter   8:  RMS(Cart)=    0.0941683160 RMS(Int)=    0.5770107059
 Iter   9:  RMS(Cart)=    0.0940387016 RMS(Int)=    0.5433961861
 Iter  10:  RMS(Cart)=    0.0939476712 RMS(Int)=    0.5130424401
 Iter  11:  RMS(Cart)=    0.0938730972 RMS(Int)=    0.4856282059
 Iter  12:  RMS(Cart)=    0.0938071473 RMS(Int)=    0.4608454139
 Iter  13:  RMS(Cart)=    0.0937468366 RMS(Int)=    0.4384078016
 Iter  14:  RMS(Cart)=    0.0936909328 RMS(Int)=    0.4180548924
 Iter  15:  RMS(Cart)=    0.0936388701 RMS(Int)=    0.3995529834
 Iter  16:  RMS(Cart)=    0.0935903453 RMS(Int)=    0.3826943435
 Iter  17:  RMS(Cart)=    0.0935451614 RMS(Int)=    0.3672954373
 Iter  18:  RMS(Cart)=    0.0935031646 RMS(Int)=    0.3531947016
 Iter  19:  RMS(Cart)=    0.0934642176 RMS(Int)=    0.3402501946
 Iter  20:  RMS(Cart)=    0.0934281891 RMS(Int)=    0.3283373045
 Iter  21:  RMS(Cart)=    0.0931652124 RMS(Int)=    0.3173546152
 Iter  22:  RMS(Cart)=    0.0921823782 RMS(Int)=    0.3072213996
 Iter  23:  RMS(Cart)=    0.0914385984 RMS(Int)=    0.2978310197
 Iter  24:  RMS(Cart)=    0.0908693126 RMS(Int)=    0.2890981620
 Iter  25:  RMS(Cart)=    0.0904306267 RMS(Int)=    0.2809527734
 Iter  26:  RMS(Cart)=    0.0893468968 RMS(Int)=    0.2733786491
 Iter  27:  RMS(Cart)=    0.0876315006 RMS(Int)=    0.2663576145
 Iter  28:  RMS(Cart)=    0.0857722207 RMS(Int)=    0.2598416709
 Iter  29:  RMS(Cart)=    0.0842405168 RMS(Int)=    0.2537652191
 Iter  30:  RMS(Cart)=    0.0829717080 RMS(Int)=    0.2480764387
 Iter  31:  RMS(Cart)=    0.0819163037 RMS(Int)=    0.2427334559
 Iter  32:  RMS(Cart)=    0.0810358769 RMS(Int)=    0.2377017342
 Iter  33:  RMS(Cart)=    0.0803001861 RMS(Int)=    0.2329522584
 Iter  34:  RMS(Cart)=    0.0796851374 RMS(Int)=    0.2284602478
 Iter  35:  RMS(Cart)=    0.0791713195 RMS(Int)=    0.2242042288
 Iter  36:  RMS(Cart)=    0.0787429360 RMS(Int)=    0.2201653572
 Iter  37:  RMS(Cart)=    0.0783870147 RMS(Int)=    0.2163269162
 Iter  38:  RMS(Cart)=    0.0780928161 RMS(Int)=    0.2126739398
 Iter  39:  RMS(Cart)=    0.0778513831 RMS(Int)=    0.2091929260
 Iter  40:  RMS(Cart)=    0.0776551958 RMS(Int)=    0.2058716171
 Iter  41:  RMS(Cart)=    0.0771746201 RMS(Int)=    0.2026993186
 Iter  42:  RMS(Cart)=    0.0764813309 RMS(Int)=    0.1996629287
 Iter  43:  RMS(Cart)=    0.0758381554 RMS(Int)=    0.1967505692
 Iter  44:  RMS(Cart)=    0.0752404775 RMS(Int)=    0.1939521125
 Iter  45:  RMS(Cart)=    0.0746844149 RMS(Int)=    0.1912588411
 Iter  46:  RMS(Cart)=    0.0741665844 RMS(Int)=    0.1886631681
 Iter  47:  RMS(Cart)=    0.0736839784 RMS(Int)=    0.1861584183
 Iter  48:  RMS(Cart)=    0.0732338920 RMS(Int)=    0.1837386613
 Iter  49:  RMS(Cart)=    0.0728138754 RMS(Int)=    0.1813985839
 Iter  50:  RMS(Cart)=    0.0724216994 RMS(Int)=    0.1791333929
 Iter  51:  RMS(Cart)=    0.0720553293 RMS(Int)=    0.1769387396
 Iter  52:  RMS(Cart)=    0.0717129038 RMS(Int)=    0.1748106605
 Iter  53:  RMS(Cart)=    0.0713927175 RMS(Int)=    0.1727455309
 Iter  54:  RMS(Cart)=    0.0710932057 RMS(Int)=    0.1707400258
 Iter  55:  RMS(Cart)=    0.0708129312 RMS(Int)=    0.1687910886
 Iter  56:  RMS(Cart)=    0.0705505725 RMS(Int)=    0.1668959047
 Iter  57:  RMS(Cart)=    0.0703049141 RMS(Int)=    0.1650518781
 Iter  58:  RMS(Cart)=    0.0700748362 RMS(Int)=    0.1632566122
 Iter  59:  RMS(Cart)=    0.0698593073 RMS(Int)=    0.1615078922
 Iter  60:  RMS(Cart)=    0.0696573762 RMS(Int)=    0.1598036696
 Iter  61:  RMS(Cart)=    0.0694681651 RMS(Int)=    0.1581420486
 Iter  62:  RMS(Cart)=    0.0692908634 RMS(Int)=    0.1565212737
 Iter  63:  RMS(Cart)=    0.0691247225 RMS(Int)=    0.1549397182
 Iter  64:  RMS(Cart)=    0.0689690498 RMS(Int)=    0.1533958743
 Iter  65:  RMS(Cart)=    0.0688232050 RMS(Int)=    0.1518883433
 Iter  66:  RMS(Cart)=    0.0686865949 RMS(Int)=    0.1504158274
 Iter  67:  RMS(Cart)=    0.0685586701 RMS(Int)=    0.1489771214
 Iter  68:  RMS(Cart)=    0.0684389214 RMS(Int)=    0.1475711056
 Iter  69:  RMS(Cart)=    0.0683268761 RMS(Int)=    0.1461967389
 Iter  70:  RMS(Cart)=    0.0682220955 RMS(Int)=    0.1448530528
 Iter  71:  RMS(Cart)=    0.0681241720 RMS(Int)=    0.1435391455
 Iter  72:  RMS(Cart)=    0.0680327265 RMS(Int)=    0.1422541764
 Iter  73:  RMS(Cart)=    0.0679474063 RMS(Int)=    0.1409973612
 Iter  74:  RMS(Cart)=    0.0678678830 RMS(Int)=    0.1397679674
 Iter  75:  RMS(Cart)=    0.0677938505 RMS(Int)=    0.1385653101
 Iter  76:  RMS(Cart)=    0.0677250233 RMS(Int)=    0.1373887477
 Iter  77:  RMS(Cart)=    0.0676611349 RMS(Int)=    0.1362376785
 Iter  78:  RMS(Cart)=    0.0676019364 RMS(Int)=    0.1351115371
 Iter  79:  RMS(Cart)=    0.0675471950 RMS(Int)=    0.1340097914
 Iter  80:  RMS(Cart)=    0.0674966929 RMS(Int)=    0.1329319394
 Iter  81:  RMS(Cart)=    0.0674502263 RMS(Int)=    0.1318775069
 Iter  82:  RMS(Cart)=    0.0671189049 RMS(Int)=    0.1308600819
 Iter  83:  RMS(Cart)=    0.0665831853 RMS(Int)=    0.1298868952
 Iter  84:  RMS(Cart)=    0.0661207682 RMS(Int)=    0.1289512146
 Iter  85:  RMS(Cart)=    0.0657224365 RMS(Int)=    0.1280480348
 Iter  86:  RMS(Cart)=    0.0653801008 RMS(Int)=    0.1271735511
 Iter  87:  RMS(Cart)=    0.0650866824 RMS(Int)=    0.1263248045
 Iter  88:  RMS(Cart)=    0.0648360060 RMS(Int)=    0.1254994429
 Iter  89:  RMS(Cart)=    0.0646226939 RMS(Int)=    0.1246955574
 Iter  90:  RMS(Cart)=    0.0644420662 RMS(Int)=    0.1239115700
 Iter  91:  RMS(Cart)=    0.0642900504 RMS(Int)=    0.1231461531
 Iter  92:  RMS(Cart)=    0.0641631015 RMS(Int)=    0.1223981726
 Iter  93:  RMS(Cart)=    0.0640581313 RMS(Int)=    0.1216666455
 Iter  94:  RMS(Cart)=    0.0639724483 RMS(Int)=    0.1209507098
 Iter  95:  RMS(Cart)=    0.0639037048 RMS(Int)=    0.1202496006
 Iter  96:  RMS(Cart)=    0.0638498521 RMS(Int)=    0.1195626331
 Iter  97:  RMS(Cart)=    0.0638091009 RMS(Int)=    0.1188891887
 Iter  98:  RMS(Cart)=    0.0637798880 RMS(Int)=    0.1182287052
 Iter  99:  RMS(Cart)=    0.0637608470 RMS(Int)=    0.1175806684
 RMS(Cart) too big - taking linear step, building new B-matrix and trying again
Imposing constraints:
 Iter   0:  RMS(Cart)=    0.1411202005 RMS(Int)=    0.9271340625
 Iter   1:  RMS(Cart)=    0.1425103574 RMS(Int)=    0.8603528412
 Iter   2:  RMS(Cart)=    0.1434466070 RMS(Int)=    0.7977357307
 Iter   3:  RMS(Cart)=    0.1140683786 RMS(Int)=    0.7401645693
 Iter   4:  RMS(Cart)=    0.1033558281 RMS(Int)=    0.6867496155
 Iter   5:  RMS(Cart)=    0.1012936141 RMS(Int)=    0.6374859146
 Iter   6:  RMS(Cart)=    0.1006508825 RMS(Int)=    0.5924105177
 Iter   7:  RMS(Cart)=    0.1003461041 RMS(Int)=    0.5514173122
 Iter   8:  RMS(Cart)=    0.1001405286 RMS(Int)=    0.5142898923
 Iter   9:  RMS(Cart)=    0.0999699478 RMS(Int)=    0.4807460369
 Iter  10:  RMS(Cart)=    0.0998149668 RMS(Int)=    0.4504736284
 Iter  11:  RMS(Cart)=    0.0996691918 RMS(Int)=    0.4231558678
 Iter  12:  RMS(Cart)=    0.0995303505 RMS(Int)=    0.3984872893
 Iter  13:  RMS(Cart)=    0.0993975797 RMS(Int)=    0.3761828676
 Iter  14:  RMS(Cart)=    0.0992705292 RMS(Int)=    0.3559823548
 Iter  15:  RMS(Cart)=    0.0991490426 RMS(Int)=    0.3376515399
 Iter  16:  RMS(Cart)=    0.0990330355 RMS(Int)=    0.3209816548
 Iter  17:  RMS(Cart)=    0.0982051375 RMS(Int)=    0.3058286599
 Iter  18:  RMS(Cart)=    0.0969548484 RMS(Int)=    0.2920247876
 Iter  19:  RMS(Cart)=    0.0960385205 RMS(Int)=    0.2793845964
 Iter  20:  RMS(Cart)=    0.0949821680 RMS(Int)=    0.2677913935
 Iter  21:  RMS(Cart)=    0.0917083750 RMS(Int)=    0.2572810056
 Iter  22:  RMS(Cart)=    0.0887867097 RMS(Int)=    0.2476910585
 Iter  23:  RMS(Cart)=    0.0864975747 RMS(Int)=    0.2388760560
 Iter  24:  RMS(Cart)=    0.0846885286 RMS(Int)=    0.2307271786
 Iter  25:  RMS(Cart)=    0.0832495410 RMS(Int)=    0.2231601961
 Iter  26:  RMS(Cart)=    0.0820997206 RMS(Int)=    0.2161079603
 Iter  27:  RMS(Cart)=    0.0811785787 RMS(Int)=    0.2095155672
 Iter  28:  RMS(Cart)=    0.0804401759 RMS(Int)=    0.2033371417
 Iter  29:  RMS(Cart)=    0.0798491282 RMS(Int)=    0.1975336421
 Iter  30:  RMS(Cart)=    0.0787394467 RMS(Int)=    0.1920941747
 Iter  31:  RMS(Cart)=    0.0773058805 RMS(Int)=    0.1869942345
 Iter  32:  RMS(Cart)=    0.0760314893 RMS(Int)=    0.1821952805
 Iter  33:  RMS(Cart)=    0.0748938045 RMS(Int)=    0.1776652967
 Iter  34:  RMS(Cart)=    0.0738742981 RMS(Int)=    0.1733773883
 Iter  35:  RMS(Cart)=    0.0729575363 RMS(Int)=    0.1693087175
 Iter  36:  RMS(Cart)=    0.0721305720 RMS(Int)=    0.1654396968
 Iter  37:  RMS(Cart)=    0.0713824748 RMS(Int)=    0.1617533786
 Iter  38:  RMS(Cart)=    0.0707039605 RMS(Int)=    0.1582349881
 Iter  39:  RMS(Cart)=    0.0700870966 RMS(Int)=    0.1548715621
 Iter  40:  RMS(Cart)=    0.0695250673 RMS(Int)=    0.1516516666
 Iter  41:  RMS(Cart)=    0.0690119859 RMS(Int)=    0.1485651734
 Iter  42:  RMS(Cart)=    0.0685427431 RMS(Int)=    0.1456030793
 Iter  43:  RMS(Cart)=    0.0681128841 RMS(Int)=    0.1427573596
 Iter  44:  RMS(Cart)=    0.0677185089 RMS(Int)=    0.1400208465
 Iter  45:  RMS(Cart)=    0.0673561895 RMS(Int)=    0.1373871278
 Iter  46:  RMS(Cart)=    0.0670229027 RMS(Int)=    0.1348504607
 Iter  47:  RMS(Cart)=    0.0667159731 RMS(Int)=    0.1324056986
 Iter  48:  RMS(Cart)=    0.0664330258 RMS(Int)=    0.1300482271
 Iter  49:  RMS(Cart)=    0.0661719471 RMS(Int)=    0.1277739086
 Iter  50:  RMS(Cart)=    0.0657260962 RMS(Int)=    0.1255918775
 Iter  51:  RMS(Cart)=    0.0644677370 RMS(Int)=    0.1235472849
 Iter  52:  RMS(Cart)=    0.0634053969 RMS(Int)=    0.1216195103
 Iter  53:  RMS(Cart)=    0.0625080916 RMS(Int)=    0.1197925839
 Iter  54:  RMS(Cart)=    0.0617500852 RMS(Int)=    0.1180540892
 Iter  55:  RMS(Cart)=    0.0611100155 RMS(Int)=    0.1163942553
 Iter  56:  RMS(Cart)=    0.0605700796 RMS(Int)=    0.1148052623
 Iter  57:  RMS(Cart)=    0.0601153561 RMS(Int)=    0.1132807291
 Iter  58:  RMS(Cart)=    0.0597332681 RMS(Int)=    0.1118153422
 Iter  59:  RMS(Cart)=    0.0594131616 RMS(Int)=    0.1104045880
 Iter  60:  RMS(Cart)=    0.0591459754 RMS(Int)=    0.1090445610
 Iter  61:  RMS(Cart)=    0.0589239781 RMS(Int)=    0.1077318262
 Iter  62:  RMS(Cart)=    0.0587405583 RMS(Int)=    0.1064633202
 Iter  63:  RMS(Cart)=    0.0585900529 RMS(Int)=    0.1052362802
 Iter  64:  RMS(Cart)=    0.0584676068 RMS(Int)=    0.1040481919
 Iter  65:  RMS(Cart)=    0.0583690558 RMS(Int)=    0.1028967527
 Iter  66:  RMS(Cart)=    0.0582908282 RMS(Int)=    0.1017798433
 Iter  67:  RMS(Cart)=    0.0582298623 RMS(Int)=    0.1006955069
 Iter  68:  RMS(Cart)=    0.0581835350 RMS(Int)=    0.0996419332
 Iter  69:  RMS(Cart)=    0.0581496019 RMS(Int)=    0.0986174453
 Iter  70:  RMS(Cart)=    0.0581261452 RMS(Int)=    0.0976204895
 Iter  71:  RMS(Cart)=    0.0581115289 RMS(Int)=    0.0966496263
 Iter  72:  RMS(Cart)=    0.0581043596 RMS(Int)=    0.0957035221
 Iter  73:  RMS(Cart)=    0.0581034537 RMS(Int)=    0.0947809427
 Iter  74:  RMS(Cart)=    0.0581078079 RMS(Int)=    0.0938807465
 Iter  75:  RMS(Cart)=    0.0581165737 RMS(Int)=    0.0930018785
 Iter  76:  RMS(Cart)=    0.0581290362 RMS(Int)=    0.0921433642
 Iter  77:  RMS(Cart)=    0.0581445946 RMS(Int)=    0.0913043049
 Iter  78:  RMS(Cart)=    0.0581627459 RMS(Int)=    0.0904838717
 Iter  79:  RMS(Cart)=    0.0581830707 RMS(Int)=    0.0896813011
 Iter  80:  RMS(Cart)=    0.0582052208 RMS(Int)=    0.0888958903
 Iter  81:  RMS(Cart)=    0.0582289087 RMS(Int)=    0.0881269925
 Iter  82:  RMS(Cart)=    0.0582538984 RMS(Int)=    0.0873740131
 Iter  83:  RMS(Cart)=    0.0582799973 RMS(Int)=    0.0866364054
 Iter  84:  RMS(Cart)=    0.0583070497 RMS(Int)=    0.0859136675
 Iter  85:  RMS(Cart)=    0.0583349307 RMS(Int)=    0.0852053381
 Iter  86:  RMS(Cart)=    0.0583635414 RMS(Int)=    0.0845109941
 Iter  87:  RMS(Cart)=    0.0583928046 RMS(Int)=    0.0838302468
 Iter  88:  RMS(Cart)=    0.0584226610 RMS(Int)=    0.0831627399
 Iter  89:  RMS(Cart)=    0.0584530663 RMS(Int)=    0.0825081466
 Iter  90:  RMS(Cart)=    0.0584839884 RMS(Int)=    0.0818661668
 Iter  91:  RMS(Cart)=    0.0585154054 RMS(Int)=    0.0812365257
 Iter  92:  RMS(Cart)=    0.0585473034 RMS(Int)=    0.0806189712
 Iter  93:  RMS(Cart)=    0.0585796752 RMS(Int)=    0.0800132722
 Iter  94:  RMS(Cart)=    0.0586125187 RMS(Int)=    0.0794192167
 Iter  95:  RMS(Cart)=    0.0586458360 RMS(Int)=    0.0788366105
 Iter  96:  RMS(Cart)=    0.0586796324 RMS(Int)=    0.0782652754
 Iter  97:  RMS(Cart)=    0.0587139155 RMS(Int)=    0.0777050479
 Iter  98:  RMS(Cart)=    0.0587486948 RMS(Int)=    0.0771557780
 Iter  99:  RMS(Cart)=    0.0587839808 RMS(Int)=    0.0766173280
 RMS(Cart) too big - taking linear step, building new B-matrix and trying again
Imposing constraints:
 Iter   0:  RMS(Cart)=    0.1623323941 RMS(Int)=    0.8593864106
 Iter   1:  RMS(Cart)=    0.1635130390 RMS(Int)=    0.7948712459
 Iter   2:  RMS(Cart)=    0.1247248294 RMS(Int)=    0.7346229844
 Iter   3:  RMS(Cart)=    0.1140701555 RMS(Int)=    0.6778283193
 Iter   4:  RMS(Cart)=    0.1121258516 RMS(Int)=    0.6248371867
 Iter   5:  RMS(Cart)=    0.1115045876 RMS(Int)=    0.5759359314
 Iter   6:  RMS(Cart)=    0.1111671766 RMS(Int)=    0.5312023428
 Iter   7:  RMS(Cart)=    0.1109052223 RMS(Int)=    0.4905451791
 Iter   8:  RMS(Cart)=    0.1106689760 RMS(Int)=    0.4537576329
 Iter   9:  RMS(Cart)=    0.1104451284 RMS(Int)=    0.4205647358
 Iter  10:  RMS(Cart)=    0.1102298267 RMS(Int)=    0.3906598129
 Iter  11:  RMS(Cart)=    0.1100219408 RMS(Int)=    0.3637299021
 Iter  12:  RMS(Cart)=    0.1098211984 RMS(Int)=    0.3394719703
 Iter  13:  RMS(Cart)=    0.1096276141 RMS(Int)=    0.3176022449
 Iter  14:  RMS(Cart)=    0.1082087452 RMS(Int)=    0.2979666995
 Iter  15:  RMS(Cart)=    0.1068260761 RMS(Int)=    0.2802623060
 Iter  16:  RMS(Cart)=    0.1052832137 RMS(Int)=    0.2642656875
 Iter  17:  RMS(Cart)=    0.1013644620 RMS(Int)=    0.2499601672
 Iter  18:  RMS(Cart)=    0.0972545780 RMS(Int)=    0.2371070989
 Iter  19:  RMS(Cart)=    0.0942201101 RMS(Int)=    0.2254364655
 Iter  20:  RMS(Cart)=    0.0919493728 RMS(Int)=    0.2147583843
 Iter  21:  RMS(Cart)=    0.0902335973 RMS(Int)=    0.2049325708
 Iter  22:  RMS(Cart)=    0.0889289835 RMS(Int)=    0.1958511014
 Iter  23:  RMS(Cart)=    0.0879340492 RMS(Int)=    0.1874281524
 Iter  24:  RMS(Cart)=    0.0862432628 RMS(Int)=    0.1796443671
 Iter  25:  RMS(Cart)=    0.0839962044 RMS(Int)=    0.1724637540
 Iter  26:  RMS(Cart)=    0.0820801924 RMS(Int)=    0.1658078347
 Iter  27:  RMS(Cart)=    0.0804327156 RMS(Int)=    0.1596134699
 Iter  28:  RMS(Cart)=    0.0790059370 RMS(Int)=    0.1538290117
 Iter  29:  RMS(Cart)=    0.0777625050 RMS(Int)=    0.1484116311
 Iter  30:  RMS(Cart)=    0.0766728225 RMS(Int)=    0.1433254120
 Iter  31:  RMS(Cart)=    0.0757131499 RMS(Int)=    0.1385399657
 Iter  32:  RMS(Cart)=    0.0748642414 RMS(Int)=    0.1340294013
 Iter  33:  RMS(Cart)=    0.0741103434 RMS(Int)=    0.1297715482
 Iter  34:  RMS(Cart)=    0.0734384474 RMS(Int)=    0.1257473581
 Iter  35:  RMS(Cart)=    0.0713549483 RMS(Int)=    0.1220406285
 Iter  36:  RMS(Cart)=    0.0692121390 RMS(Int)=    0.1186269682
 Iter  37:  RMS(Cart)=    0.0674408265 RMS(Int)=    0.1154592787
 Iter  38:  RMS(Cart)=    0.0659770786 RMS(Int)=    0.1125022149
 Iter  39:  RMS(Cart)=    0.0647687801 RMS(Int)=    0.1097289318
 Iter  40:  RMS(Cart)=    0.0637733635 RMS(Int)=    0.1071186803
 Iter  41:  RMS(Cart)=    0.0629558753 RMS(Int)=    0.1046550664
 Iter  42:  RMS(Cart)=    0.0622874215 RMS(Int)=    0.1023248087
 Iter  43:  RMS(Cart)=    0.0617439554 RMS(Int)=    0.1001168572
 Iter  44:  RMS(Cart)=    0.0613053408 RMS(Int)=    0.0980217754
 Iter  45:  RMS(Cart)=    0.0609546293 RMS(Int)=    0.0960313076
 Iter  46:  RMS(Cart)=    0.0606774976 RMS(Int)=    0.0941380809
 Iter  47:  RMS(Cart)=    0.0604618058 RMS(Int)=    0.0923354010
 Iter  48:  RMS(Cart)=    0.0602972459 RMS(Int)=    0.0906171138
 Iter  49:  RMS(Cart)=    0.0601750578 RMS(Int)=    0.0889775131
 Iter  50:  RMS(Cart)=    0.0600877978 RMS(Int)=    0.0874112803
 Iter  51:  RMS(Cart)=    0.0600291462 RMS(Int)=    0.0859134440
 Iter  52:  RMS(Cart)=    0.0599937469 RMS(Int)=    0.0844793542
 Iter  53:  RMS(Cart)=    0.0599770715 RMS(Int)=    0.0831046643
 Iter  54:  RMS(Cart)=    0.0599753029 RMS(Int)=    0.0817853186
 Iter  55:  RMS(Cart)=    0.0599852364 RMS(Int)=    0.0805175417
 Iter  56:  RMS(Cart)=    0.0600041936 RMS(Int)=    0.0792978295
 Iter  57:  RMS(Cart)=    0.0600299482 RMS(Int)=    0.0781229399
 Iter  58:  RMS(Cart)=    0.0600606613 RMS(Int)=    0.0769898832
 Iter  59:  RMS(Cart)=    0.0600948258 RMS(Int)=    0.0758959118
 Iter  60:  RMS(Cart)=    0.0601312172 RMS(Int)=    0.0748385090
 Iter  61:  RMS(Cart)=    0.0601688515 RMS(Int)=    0.0738153777
 Iter  62:  RMS(Cart)=    0.0602069484 RMS(Int)=    0.0728244282
 Iter  63:  RMS(Cart)=    0.0602448991 RMS(Int)=    0.0718637655
 Iter  64:  RMS(Cart)=    0.0602822390 RMS(Int)=    0.0709316771
 Iter  65:  RMS(Cart)=    0.0603186238 RMS(Int)=    0.0700266205
 Iter  66:  RMS(Cart)=    0.0603538084 RMS(Int)=    0.0691472107
 Iter  67:  RMS(Cart)=    0.0602268967 RMS(Int)=    0.0682760609
 Iter  68:  RMS(Cart)=    0.0594655811 RMS(Int)=    0.0673506462
 Iter  69:  RMS(Cart)=    0.0586472103 RMS(Int)=    0.0663868617
 Iter  70:  RMS(Cart)=    0.0577878998 RMS(Int)=    0.0653981862
 Iter  71:  RMS(Cart)=    0.0569016790 RMS(Int)=    0.0643956393
 Iter  72:  RMS(Cart)=    0.0559999744 RMS(Int)=    0.0633880200
 Iter  73:  RMS(Cart)=    0.0550917888 RMS(Int)=    0.0623822273
 Iter  74:  RMS(Cart)=    0.0541840723 RMS(Int)=    0.0613835831
 Iter  75:  RMS(Cart)=    0.0532821075 RMS(Int)=    0.0603961249
 Iter  76:  RMS(Cart)=    0.0523898504 RMS(Int)=    0.0594228588
 Iter  77:  RMS(Cart)=    0.0515102145 RMS(Int)=    0.0584659705
 Iter  78:  RMS(Cart)=    0.0506453003 RMS(Int)=    0.0575269997
 Iter  79:  RMS(Cart)=    0.0497965778 RMS(Int)=    0.0566069809
 Iter  80:  RMS(Cart)=    0.0489650310 RMS(Int)=    0.0557065567
 Iter  81:  RMS(Cart)=    0.0481512711 RMS(Int)=    0.0548260683
 Iter  82:  RMS(Cart)=    0.0473556251 RMS(Int)=    0.0539656264
 Iter  83:  RMS(Cart)=    0.0465782045 RMS(Int)=    0.0531251673
 Iter  84:  RMS(Cart)=    0.0458189591 RMS(Int)=    0.0523044975
 Iter  85:  RMS(Cart)=    0.0450777186 RMS(Int)=    0.0515033271
 Iter  86:  RMS(Cart)=    0.0443542244 RMS(Int)=    0.0507212966
 Iter  87:  RMS(Cart)=    0.0436481541 RMS(Int)=    0.0499579976
 Iter  88:  RMS(Cart)=    0.0429591412 RMS(Int)=    0.0492129884
 Iter  89:  RMS(Cart)=    0.0422867885 RMS(Int)=    0.0484858058
 Iter  90:  RMS(Cart)=    0.0416306799 RMS(Int)=    0.0477759745
 Iter  91:  RMS(Cart)=    0.0409903884 RMS(Int)=    0.0470830141
 Iter  92:  RMS(Cart)=    0.0403654825 RMS(Int)=    0.0464064438
 Iter  93:  RMS(Cart)=    0.0397555305 RMS(Int)=    0.0457457866
 Iter  94:  RMS(Cart)=    0.0391601044 RMS(Int)=    0.0451005723
 Iter  95:  RMS(Cart)=    0.0385787820 RMS(Int)=    0.0444703387
 Iter  96:  RMS(Cart)=    0.0380111491 RMS(Int)=    0.0438546340
 Iter  97:  RMS(Cart)=    0.0374568002 RMS(Int)=    0.0432530168
 Iter  98:  RMS(Cart)=    0.0369153398 RMS(Int)=    0.0426650576
 Iter  99:  RMS(Cart)=    0.0363863827 RMS(Int)=    0.0420903385
 RMS(Cart) too big - taking linear step, building new B-matrix and trying again
Imposing constraints:
 Iter   0:  RMS(Cart)=    0.1837918736 RMS(Int)=    0.7941168593
 Iter   1:  RMS(Cart)=    0.1390618295 RMS(Int)=    0.7321441764
 Iter   2:  RMS(Cart)=    0.1274989183 RMS(Int)=    0.6727563802
 Iter   3:  RMS(Cart)=    0.1255967505 RMS(Int)=    0.6165972902
 Iter   4:  RMS(Cart)=    0.1249872940 RMS(Int)=    0.5642222219
 Iter   5:  RMS(Cart)=    0.1246204090 RMS(Int)=    0.5159375132
 Iter   6:  RMS(Cart)=    0.1243115971 RMS(Int)=    0.4718278680
 Iter   7:  RMS(Cart)=    0.1240224104 RMS(Int)=    0.4318085337
 Iter   8:  RMS(Cart)=    0.1237439269 RMS(Int)=    0.3956796506
 Iter   9:  RMS(Cart)=    0.1234740253 RMS(Int)=    0.3631731379
 Iter  10:  RMS(Cart)=    0.1232123407 RMS(Int)=    0.3339886439
 Iter  11:  RMS(Cart)=    0.1224174896 RMS(Int)=    0.3078939476
 Iter  12:  RMS(Cart)=    0.1205814258 RMS(Int)=    0.2846571346
 Iter  13:  RMS(Cart)=    0.1184963048 RMS(Int)=    0.2639214602
 Iter  14:  RMS(Cart)=    0.1147090474 RMS(Int)=    0.2455248695
 Iter  15:  RMS(Cart)=    0.1092126732 RMS(Int)=    0.2292281036
 Iter  16:  RMS(Cart)=    0.1054234498 RMS(Int)=    0.2145843203
 Iter  17:  RMS(Cart)=    0.1027549539 RMS(Int)=    0.2013004416
 Iter  18:  RMS(Cart)=    0.1008486151 RMS(Int)=    0.1891707037
 Iter  19:  RMS(Cart)=    0.0994753875 RMS(Int)=    0.1780427436
 Iter  20:  RMS(Cart)=    0.0969016110 RMS(Int)=    0.1679047839
 Iter  21:  RMS(Cart)=    0.0938478781 RMS(Int)=    0.1586840166
 Iter  22:  RMS(Cart)=    0.0913529811 RMS(Int)=    0.1502518667
 Iter  23:  RMS(Cart)=    0.0892850170 RMS(Int)=    0.1425083742
 Iter  24:  RMS(Cart)=    0.0875507026 RMS(Int)=    0.1353740621
 Iter  25:  RMS(Cart)=    0.0860818206 RMS(Int)=    0.1287847335
 Iter  26:  RMS(Cart)=    0.0841672956 RMS(Int)=    0.1227390533
 Iter  27:  RMS(Cart)=    0.0801106435 RMS(Int)=    0.1173401503
 Iter  28:  RMS(Cart)=    0.0768499906 RMS(Int)=    0.1124539292
 Iter  29:  RMS(Cart)=    0.0742282933 RMS(Int)=    0.1079862783
 Iter  30:  RMS(Cart)=    0.0721229308 RMS(Int)=    0.1038701729
 Iter  31:  RMS(Cart)=    0.0704372881 RMS(Int)=    0.1000570060
 Iter  32:  RMS(Cart)=    0.0690945309 RMS(Int)=    0.0965107206
 Iter  33:  RMS(Cart)=    0.0680329542 RMS(Int)=    0.0932038178
 Iter  34:  RMS(Cart)=    0.0672025188 RMS(Int)=    0.0901146355
 Iter  35:  RMS(Cart)=    0.0665622775 RMS(Int)=    0.0872254897
 Iter  36:  RMS(Cart)=    0.0660784556 RMS(Int)=    0.0845214104
 Iter  37:  RMS(Cart)=    0.0657230101 RMS(Int)=    0.0819892873
 Iter  38:  RMS(Cart)=    0.0654725363 RMS(Int)=    0.0796172993
 Iter  39:  RMS(Cart)=    0.0653074273 RMS(Int)=    0.0773945425
 Iter  40:  RMS(Cart)=    0.0652112182 RMS(Int)=    0.0753107947
 Iter  41:  RMS(Cart)=    0.0651700670 RMS(Int)=    0.0733563743
 Iter  42:  RMS(Cart)=    0.0651723374 RMS(Int)=    0.0715220633
 Iter  43:  RMS(Cart)=    0.0652082591 RMS(Int)=    0.0697990712
 Iter  44:  RMS(Cart)=    0.0652696476 RMS(Int)=    0.0681790264
 Iter  45:  RMS(Cart)=    0.0653496705 RMS(Int)=    0.0666539824
 Iter  46:  RMS(Cart)=    0.0654426507 RMS(Int)=    0.0652164311
 Iter  47:  RMS(Cart)=    0.0647443694 RMS(Int)=    0.0638059750
 Iter  48:  RMS(Cart)=    0.0633882104 RMS(Int)=    0.0623766697
 Iter  49:  RMS(Cart)=    0.0619830296 RMS(Int)=    0.0609372852
 Iter  50:  RMS(Cart)=    0.0605471307 RMS(Int)=    0.0594970804
 Iter  51:  RMS(Cart)=    0.0590969732 RMS(Int)=    0.0580646102
 Iter  52:  RMS(Cart)=    0.0576462067 RMS(Int)=    0.0566472271
 Iter  53:  RMS(Cart)=    0.0562056603 RMS(Int)=    0.0552509413
 Iter  54:  RMS(Cart)=    0.0547836606 RMS(Int)=    0.0538804608
 Iter  55:  RMS(Cart)=    0.0533864320 RMS(Int)=    0.0525393189
 Iter  56:  RMS(Cart)=    0.0520184825 RMS(Int)=    0.0512300345
 Iter  57:  RMS(Cart)=    0.0506829453 RMS(Int)=    0.0499542780
 Iter  58:  RMS(Cart)=    0.0493818671 RMS(Int)=    0.0487130275
 Iter  59:  RMS(Cart)=    0.0481164463 RMS(Int)=    0.0475067087
 Iter  60:  RMS(Cart)=    0.0468872274 RMS(Int)=    0.0463353149
 Iter  61:  RMS(Cart)=    0.0456942572 RMS(Int)=    0.0451985087
 Iter  62:  RMS(Cart)=    0.0445372098 RMS(Int)=    0.0440957051
 Iter  63:  RMS(Cart)=    0.0434154857 RMS(Int)=    0.0430261400
 Iter  64:  RMS(Cart)=    0.0423282899 RMS(Int)=    0.0419889239
 Iter  65:  RMS(Cart)=    0.0412746923 RMS(Int)=    0.0409830848
 Iter  66:  RMS(Cart)=    0.0402536755 RMS(Int)=    0.0400076015
 Iter  67:  RMS(Cart)=    0.0392641702 RMS(Int)=    0.0390614290
 Iter  68:  RMS(Cart)=    0.0383050829 RMS(Int)=    0.0381435180
 Iter  69:  RMS(Cart)=    0.0373753158 RMS(Int)=    0.0372528289
 Iter  70:  RMS(Cart)=    0.0364737824 RMS(Int)=    0.0363883423
 Iter  71:  RMS(Cart)=    0.0355994179 RMS(Int)=    0.0355490662
 Iter  72:  RMS(Cart)=    0.0347511864 RMS(Int)=    0.0347340407
 Iter  73:  RMS(Cart)=    0.0339280865 RMS(Int)=    0.0339423415
 Iter  74:  RMS(Cart)=    0.0331291536 RMS(Int)=    0.0331730810
 Iter  75:  RMS(Cart)=    0.0323534622 RMS(Int)=    0.0324254093
 Iter  76:  RMS(Cart)=    0.0316001263 RMS(Int)=    0.0316985142
 Iter  77:  RMS(Cart)=    0.0308682987 RMS(Int)=    0.0309916200
 Iter  78:  RMS(Cart)=    0.0301571710 RMS(Int)=    0.0303039872
 Iter  79:  RMS(Cart)=    0.0294659722 RMS(Int)=    0.0296349106
 Iter  80:  RMS(Cart)=    0.0287939671 RMS(Int)=    0.0289837186
 Iter  81:  RMS(Cart)=    0.0281404552 RMS(Int)=    0.0283497707
 Iter  82:  RMS(Cart)=    0.0275047686 RMS(Int)=    0.0277324568
 Iter  83:  RMS(Cart)=    0.0268862709 RMS(Int)=    0.0271311955
 Iter  84:  RMS(Cart)=    0.0262843553 RMS(Int)=    0.0265454322
 Iter  85:  RMS(Cart)=    0.0256984431 RMS(Int)=    0.0259746380
 Iter  86:  RMS(Cart)=    0.0251279821 RMS(Int)=    0.0254183082
 Iter  87:  RMS(Cart)=    0.0245724451 RMS(Int)=    0.0248759608
 Iter  88:  RMS(Cart)=    0.0240313288 RMS(Int)=    0.0243471356
 Iter  89:  RMS(Cart)=    0.0235041521 RMS(Int)=    0.0238313927
 Iter  90:  RMS(Cart)=    0.0229904550 RMS(Int)=    0.0233283113
 Iter  91:  RMS(Cart)=    0.0224897976 RMS(Int)=    0.0228374889
 Iter  92:  RMS(Cart)=    0.0220017587 RMS(Int)=    0.0223585401
 Iter  93:  RMS(Cart)=    0.0215259351 RMS(Int)=    0.0218910960
 Iter  94:  RMS(Cart)=    0.0210619405 RMS(Int)=    0.0214348027
 Iter  95:  RMS(Cart)=    0.0206094042 RMS(Int)=    0.0209893211
 Iter  96:  RMS(Cart)=    0.0201679712 RMS(Int)=    0.0205543259
 Iter  97:  RMS(Cart)=    0.0197373002 RMS(Int)=    0.0201295046
 Iter  98:  RMS(Cart)=    0.0193170641 RMS(Int)=    0.0197145574
 Iter  99:  RMS(Cart)=    0.0189069483 RMS(Int)=    0.0193091962
 RMS(Cart) too big - taking linear step, building new B-matrix and trying again
Imposing constraints:
 Iter   0:  RMS(Cart)=    0.1561155290 RMS(Int)=    0.7314835694
 Iter   1:  RMS(Cart)=    0.1420503243 RMS(Int)=    0.6704533948
 Iter   2:  RMS(Cart)=    0.1400116517 RMS(Int)=    0.6118713971
 Iter   3:  RMS(Cart)=    0.1393786391 RMS(Int)=    0.5565520350
 Iter   4:  RMS(Cart)=    0.1389738773 RMS(Int)=    0.5050569286
 Iter   5:  RMS(Cart)=    0.1386174009 RMS(Int)=    0.4576924265
 Iter   6:  RMS(Cart)=    0.1382772721 RMS(Int)=    0.4145466766
 Iter   7:  RMS(Cart)=    0.1379475905 RMS(Int)=    0.3755422887
 Iter   8:  RMS(Cart)=    0.1376275219 RMS(Int)=    0.3404897786
 Iter   9:  RMS(Cart)=    0.1366145650 RMS(Int)=    0.3092660207
 Iter  10:  RMS(Cart)=    0.1347132731 RMS(Int)=    0.2816142211
 Iter  11:  RMS(Cart)=    0.1313783595 RMS(Int)=    0.2572310089
 Iter  12:  RMS(Cart)=    0.1265124539 RMS(Int)=    0.2357753596
 Iter  13:  RMS(Cart)=    0.1205086913 RMS(Int)=    0.2168470431
 Iter  14:  RMS(Cart)=    0.1166185566 RMS(Int)=    0.1998954634
 Iter  15:  RMS(Cart)=    0.1140263689 RMS(Int)=    0.1845746155
 Iter  16:  RMS(Cart)=    0.1122696663 RMS(Int)=    0.1706488351
 Iter  17:  RMS(Cart)=    0.1083065147 RMS(Int)=    0.1581613052
 Iter  18:  RMS(Cart)=    0.1045323533 RMS(Int)=    0.1469480948
 Iter  19:  RMS(Cart)=    0.1015823089 RMS(Int)=    0.1368260864
 Iter  20:  RMS(Cart)=    0.0992265981 RMS(Int)=    0.1276581114
 Iter  21:  RMS(Cart)=    0.0958209651 RMS(Int)=    0.1194622039
 Iter  22:  RMS(Cart)=    0.0898104374 RMS(Int)=    0.1123163092
 Iter  23:  RMS(Cart)=    0.0851423714 RMS(Int)=    0.1059641317
 Iter  24:  RMS(Cart)=    0.0815132299 RMS(Int)=    0.1002368196
 Iter  25:  RMS(Cart)=    0.0786982728 RMS(Int)=    0.0950208485
 Iter  26:  RMS(Cart)=    0.0765275339 RMS(Int)=    0.0902382896
 Iter  27:  RMS(Cart)=    0.0748702889 RMS(Int)=    0.0858343614
 Iter  28:  RMS(Cart)=    0.0736245144 RMS(Int)=    0.0817694186
 Iter  29:  RMS(Cart)=    0.0727095432 RMS(Int)=    0.0780137194
 Iter  30:  RMS(Cart)=    0.0720608610 RMS(Int)=    0.0745439692
 Iter  31:  RMS(Cart)=    0.0716263635 RMS(Int)=    0.0713410218
 Iter  32:  RMS(Cart)=    0.0713636245 RMS(Int)=    0.0683883469
 Iter  33:  RMS(Cart)=    0.0712378708 RMS(Int)=    0.0656710157
 Iter  34:  RMS(Cart)=    0.0712204573 RMS(Int)=    0.0631750395
 Iter  35:  RMS(Cart)=    0.0712876994 RMS(Int)=    0.0608869551
 Iter  36:  RMS(Cart)=    0.0692007287 RMS(Int)=    0.0587278447
 Iter  37:  RMS(Cart)=    0.0668911120 RMS(Int)=    0.0566654122
 Iter  38:  RMS(Cart)=    0.0646265402 RMS(Int)=    0.0546860908
 Iter  39:  RMS(Cart)=    0.0624128579 RMS(Int)=    0.0527821270
 Iter  40:  RMS(Cart)=    0.0602564299 RMS(Int)=    0.0509490392
 Iter  41:  RMS(Cart)=    0.0581626292 RMS(Int)=    0.0491840987
 Iter  42:  RMS(Cart)=    0.0561354181 RMS(Int)=    0.0474854301
 Iter  43:  RMS(Cart)=    0.0541773563 RMS(Int)=    0.0458514913
 Iter  44:  RMS(Cart)=    0.0522897650 RMS(Int)=    0.0442807899
 Iter  45:  RMS(Cart)=    0.0504729319 RMS(Int)=    0.0427717422
 Iter  46:  RMS(Cart)=    0.0487263153 RMS(Int)=    0.0413226186
 Iter  47:  RMS(Cart)=    0.0470487266 RMS(Int)=    0.0399315374
 Iter  48:  RMS(Cart)=    0.0454384886 RMS(Int)=    0.0385964854
 Iter  49:  RMS(Cart)=    0.0438935684 RMS(Int)=    0.0373153502
 Iter  50:  RMS(Cart)=    0.0424116864 RMS(Int)=    0.0360859557
 Iter  51:  RMS(Cart)=    0.0409904057 RMS(Int)=    0.0349060971
 Iter  52:  RMS(Cart)=    0.0396272027 RMS(Int)=    0.0337735714
 Iter  53:  RMS(Cart)=    0.0383195228 RMS(Int)=    0.0326862033
 Iter  54:  RMS(Cart)=    0.0370648235 RMS(Int)=    0.0316418659
 Iter  55:  RMS(Cart)=    0.0358606067 RMS(Int)=    0.0306384967
 Iter  56:  RMS(Cart)=    0.0347044425 RMS(Int)=    0.0296741089
 Iter  57:  RMS(Cart)=    0.0335939858 RMS(Int)=    0.0287467994
 Iter  58:  RMS(Cart)=    0.0325269878 RMS(Int)=    0.0278547532
 Iter  59:  RMS(Cart)=    0.0315013024 RMS(Int)=    0.0269962460
 Iter  60:  RMS(Cart)=    0.0305148896 RMS(Int)=    0.0261696439
 Iter  61:  RMS(Cart)=    0.0295658164 RMS(Int)=    0.0253734026
 Iter  62:  RMS(Cart)=    0.0286522552 RMS(Int)=    0.0246060647
 Iter  63:  RMS(Cart)=    0.0277724815 RMS(Int)=    0.0238662566
 Iter  64:  RMS(Cart)=    0.0269248699 RMS(Int)=    0.0231526849
 Iter  65:  RMS(Cart)=    0.0261078902 RMS(Int)=    0.0224641323
 Iter  66:  RMS(Cart)=    0.0253201021 RMS(Int)=    0.0217994533
 Iter  67:  RMS(Cart)=    0.0245601507 RMS(Int)=    0.0211575704
 Iter  68:  RMS(Cart)=    0.0238267616 RMS(Int)=    0.0205374692
 Iter  69:  RMS(Cart)=    0.0231187353 RMS(Int)=    0.0199381950
 Iter  70:  RMS(Cart)=    0.0224349431 RMS(Int)=    0.0193588487
 Iter  71:  RMS(Cart)=    0.0217743221 RMS(Int)=    0.0187985828
 Iter  72:  RMS(Cart)=    0.0211358710 RMS(Int)=    0.0182565982
 Iter  73:  RMS(Cart)=    0.0205186458 RMS(Int)=    0.0177321408
 Iter  74:  RMS(Cart)=    0.0199217557 RMS(Int)=    0.0172244984
 Iter  75:  RMS(Cart)=    0.0193443599 RMS(Int)=    0.0167329978
 Iter  76:  RMS(Cart)=    0.0187856637 RMS(Int)=    0.0162570021
 Iter  77:  RMS(Cart)=    0.0182449158 RMS(Int)=    0.0157959081
 Iter  78:  RMS(Cart)=    0.0177214050 RMS(Int)=    0.0153491445
 Iter  79:  RMS(Cart)=    0.0172144576 RMS(Int)=    0.0149161691
 Iter  80:  RMS(Cart)=    0.0167234346 RMS(Int)=    0.0144964671
 Iter  81:  RMS(Cart)=    0.0162477302 RMS(Int)=    0.0140895497
 Iter  82:  RMS(Cart)=    0.0157867685 RMS(Int)=    0.0136949517
 Iter  83:  RMS(Cart)=    0.0153400023 RMS(Int)=    0.0133122304
 Iter  84:  RMS(Cart)=    0.0149069113 RMS(Int)=    0.0129409641
 Iter  85:  RMS(Cart)=    0.0144869998 RMS(Int)=    0.0125807506
 Iter  86:  RMS(Cart)=    0.0140797955 RMS(Int)=    0.0122312065
 Iter  87:  RMS(Cart)=    0.0136848483 RMS(Int)=    0.0118919652
 Iter  88:  RMS(Cart)=    0.0133017285 RMS(Int)=    0.0115626768
 Iter  89:  RMS(Cart)=    0.0129300258 RMS(Int)=    0.0112430064
 Iter  90:  RMS(Cart)=    0.0125693480 RMS(Int)=    0.0109326337
 Iter  91:  RMS(Cart)=    0.0122193203 RMS(Int)=    0.0106312518
 Iter  92:  RMS(Cart)=    0.0118795837 RMS(Int)=    0.0103385667
 Iter  93:  RMS(Cart)=    0.0115497947 RMS(Int)=    0.0100542966
 Iter  94:  RMS(Cart)=    0.0112296242 RMS(Int)=    0.0097781707
 Iter  95:  RMS(Cart)=    0.0109187563 RMS(Int)=    0.0095099296
 Iter  96:  RMS(Cart)=    0.0106168885 RMS(Int)=    0.0092493237
 Iter  97:  RMS(Cart)=    0.0103237301 RMS(Int)=    0.0089961131
 Iter  98:  RMS(Cart)=    0.0100390020 RMS(Int)=    0.0087500675
 Iter  99:  RMS(Cart)=    0.0097624361 RMS(Int)=    0.0085109648
CONVERGED
Small eigenvalue found = 4.871e-04
Small eigenvalue found = 6.110e-04
Small eigenvalue found = 9.683e-04
Small eigenvalue found = 1.044e-03
Small eigenvalue found = 1.783e-03
Small eigenvalue found = 2.577e-03
Small eigenvalue found = 3.640e-03
Small eigenvalue found = 4.433e-03
Small eigenvalue found = 6.442e-03
Small eigenvalue found = 6.785e-03
Small eigenvalue found = 9.379e-03
Small eigenvalue found = 9.657e-03
Small eigenvalue found = 1.245e-02
Small eigenvalue found = 1.511e-02
Small eigenvalue found = 1.680e-02
Small eigenvalue found = 1.839e-02
Small eigenvalue found = 2.176e-02
Small eigenvalue found = 2.436e-02
Small eigenvalue found = 2.753e-02
The first mode is                       ....  297
The number of degrees of freedom        ....  312
Storing new coordinates                 .... done

    -----------------------------------------------------------------
                    Redundant Internal Coordinates


    -----------------------------------------------------------------
         Definition                    Initial Value    Approx d2E/dq
    -----------------------------------------------------------------
      1. B(C   1,C   0)                  1.3406         0.628235   
[...]
 C      0   0   0     0.000000000000     0.00000000     0.00000000
 C      1   0   0     1.462591711566     0.00000000     0.00000000
 C      1   2   0     1.328287117661   124.83683633     0.00000000
 C      2   1   3     1.527531281335   116.33098373    17.26454932
 C      3   1   2     1.402012098554   121.03732787   348.39858362
 C      5   3   1     1.465243528859   121.31792529   357.16088971
 S      1   2   3     1.755671803502   117.57476214   175.52559477
 C      7   1   2     1.777623581581    88.48312065   333.82585259
 C      8   7   1     1.504936199940   110.69747030    23.53400872
 H      9   8   7     1.137774082916   120.94225163   177.31714869
 C      5   3   1     1.381622923311   124.23844469   179.70609049
 C     11   5   3     1.365865507254   118.72613895   165.30393003
 H     11   5   3     1.087988911594   117.89767980   349.10860636
 S     12  11   5     1.789585079855   107.78603826     9.78957898
 C      3   1   2     1.490609379754   104.43310147   169.58288243
 S     13  11   5     2.737194503829   172.75451368   305.22803759
 C      7   1   2     1.237405152416   136.07853251   151.57579497
 C     16  13  11     2.579677208416    99.51789910    48.73214060
 C     17   7   1     1.686548062636   116.48927426    88.29796988
 H     19  17   7     1.792814730499    83.73577866   115.32042124
 H     17   7   1     2.511384012346    89.08426359   228.16676394
 C     18  16  13     2.201500132987    98.09641954   216.07856080
 H     22  18  16     2.125045702225   127.55212317    64.82525387
 H     22  18  16     2.071047454337   100.88757016   299.36523819
 H     22  18  16     1.953088443353    84.09578052   161.81391653
 C      4   2   1     1.544588590503   119.07005740   171.61286825
 C     26   4   2     1.453736355588   130.06509879     2.32763445
 C     27  26   4     1.466782259395   115.15979486   179.53106763
 H     27  26   4     1.117247055871   125.29885001   358.34431953
 C     28  27  26     1.424795686295   111.06711451     4.58973277
 H     28  27  26     1.133531945639   124.67748005   180.58323373
 S     26   4   2     1.778884357143   121.65569067   181.63614031
 C     30  28  27     1.541390895900   127.60398251   172.37121863
 H     33  30  28     1.142897736295   110.64953911    12.44696742
 H     33  30  28     1.137286634053   111.96680927   253.48241478
 H     33  30  28     1.119818776478   110.13212176   133.69848238
 C     12  11   5     1.476775487836   111.64432529   188.46598043
 S     37  12  11     1.821594448318   136.77227642   185.76698353
 C     38  37  12     1.798761387088    92.37765639   175.86474758
 C     37  12  11     1.400740401923   117.02616445     3.46925256
 C     40  37  12     1.377308164302   117.41455870   188.24792409
 C     40  37  12     1.475991971915   136.71023888    10.36986290
 S     41  40  37     1.860767060486   115.50081533   169.53673177
 C     42  40  37     1.393190943676   117.17984930   186.06222163
 F     13  11   5     1.276025134069   134.62733759    72.72175588
 C     44  42  40     1.487059745705   127.76395023   179.13992760
 O     46  44  42     1.267210462539   126.22159252   173.62361389
 O     46  44  42     1.421531277390   106.06974970   354.44382198
 C     48  46  44     1.503927137041   122.46100501   181.43625351
 H     49  48  46     1.180572964384   107.70446583   180.98725290
 H     49  48  46     1.142827378031   111.38052101    58.75768216
 H     49  48  46     1.106415856149   110.73257505   297.80007227
 C      8   7   1     1.582768163492   111.46993498   202.70964831
 S     53   8   7     2.049145225691   130.37718164   195.62557160
 C     54  53   8     2.071144693034    91.32831296   177.76908854
 C     55  54  53     1.629173599158   109.91852848     4.34582572
 H     55  54  53     1.275448619325   120.85312307   181.23294369
 C     56  55  54     1.641142080096   114.89816748   357.49014581
 S     19  17   7     1.329295246813   119.76466537    64.61896162
 C     56  55  54     1.736403939944   136.71640845   176.48215494
 C     60  56  55     1.687918334258   116.41053961   183.76760349
 F     60  56  55     1.561272403164   121.85308500     2.64285161
 C     61  60  56     1.781652991960   130.51405703   180.39522725
 O     63  61  60     1.454828933880   126.26805509   180.92708055
 O     63  61  60     1.612636502194   111.35095839     1.12077107
 C     65  63  61     1.758226572052   113.67290319   179.47960987
 H     66  65  63     1.294147056657   107.76231459   179.60041919
 H     66  65  63     1.302734086287   117.48995581    57.25977698
 H     66  65  63     1.169930534142   107.64605557   299.09156658
 C     39  38  37     1.511807676473   141.32322496   177.33709109
 S     70  39  38     1.861996709248   102.54597277   189.64710332
 C     70  39  38     1.522893124753   148.94874006     5.07548514
 C     72  70  39     1.672084080090   111.55992877   173.48705285
 H     72  70  39     1.178655405606   124.46841716   356.98654061
 C     73  72  70     1.554126639997   107.00550220   356.92145398
 C     75  73  72     1.563676576558   131.23936755   193.54903815
 C     73  72  70     1.635022182607   140.47823560   176.49684085
 C     77  73  72     1.645363493526   117.65371684   185.69397292
 C     78  77  73     1.596270980684   124.96105264   342.85146548
 S     78  77  73     1.982544158112   128.09197786   155.24964050
 C     80  78  77     1.908463676272    95.53609060   170.90383693
 C     81  80  78     1.530194520883   109.37626874     7.69939916
 H     82  81  80     1.213031410649   120.09981254   179.38693838
 H     81  80  78     1.235863180346   121.98712461   185.73487757
 C     76  75  73     1.833885500890   111.87068473   191.64946927
 S     83  82  81     2.138655429875   128.96374166   181.12008008
 C     86  83  82     2.726008543705   119.99851680    84.44716299
 C     87  86  83     2.493480048555   137.14033782   306.73144126
 C     88  87  86     1.568395008856   102.92917091   337.47856695
 H     88  87  86     1.837973531907   145.05779025   163.43834646
 H     89  88  87     1.862848068418   108.19159499   182.23955108
 C     87  86  83     1.741686186708    95.35027022   123.75176826
 H     92  87  86     2.059832439834   115.57488478    26.62845457
 H     92  87  86     2.045350021959   102.40825488   264.88038633
 H     92  87  86     2.056232329308    89.04722552   140.08911059
 C     77  73  72     1.691546754728   123.44073462   355.82218314
 S     96  77  73     1.971530599741   122.50339298   156.09375536
 C     97  96  77     1.874067067279    94.45499332   169.18710964
 C     98  97  96     1.539506983199   108.24454506    19.04592389
 C     96  77  73     1.529714946243   130.34523199   347.10853911
 H    100  96  77     1.213902530196   122.67040408   359.23994775
 H     99  98  97     1.196455155065   122.34203650   170.49429439
 C     98  97  96     1.684731649746   121.23945264   196.16760463
 H    103  98  97     1.224198826365   111.92425219    29.68015977
 H    103  98  97     1.172684018022   114.75135904   265.95026468
 H    103  98  97     1.149051816059   109.80293807   150.33164973

---------------------------
INTERNAL COORDINATES (A.U.)
---------------------------
 C      0   0   0     0.000000000000     0.00000000     0.00000000
 C      1   0   0     2.763897780603     0.00000000     0.00000000
 C      1   2   0     2.510098879595   124.83683633     0.00000000
 C      2   1   3     2.886615782720   116.33098373    17.26454932
 C      3   1   2     2.649418902712   121.03732787   348.39858362
 C      5   3   1     2.768908989044   121.31792529   357.16088971
 S      1   2   3     3.317738889666   117.57476214   175.52559477
 C      7   1   2     3.359221738388    88.48312065   333.82585259
 C      8   7   1     2.843917266910   110.69747030    23.53400872
 H      9   8   7     2.150081418984   120.94225163   177.31714869
 C      5   3   1     2.610888945405   124.23844469   179.70609049
 C     11   5   3     2.581111744480   118.72613895   165.30393003
 H     11   5   3     2.056001079656   117.89767980   349.10860636
 S     12  11   5     3.381825694277   107.78603826     9.78957898
 C      3   1   2     2.816843500390   104.43310147   169.58288243
 S     13  11   5     5.172547987511   172.75451368   305.22803759
 C      7   1   2     2.338356854769   136.07853251   151.57579497
 C     16  13  11     4.874883437824    99.51789910    48.73214060
 C     17   7   1     3.187113950077   116.48927426    88.29796988
 H     19  17   7     3.387928849502    83.73577866   115.32042124
 H     17   7   1     4.745828000442    89.08426359   228.16676394
 C     18  16  13     4.160232335136    98.09641954   216.07856080
 H     22  18  16     4.015754399271   127.55212317    64.82525387
 H     22  18  16     3.913712499051   100.88757016   299.36523819
 H     22  18  16     3.690802273264    84.09578052   161.81391653
 C      4   2   1     2.918849425629   119.07005740   171.61286825
 C     26   4   2     2.747163582987   130.06509879     2.32763445
 C     27  26   4     2.771816768350   115.15979486   179.53106763
 H     27  26   4     2.111290959526   125.29885001   358.34431953
 C     28  27  26     2.692473643891   111.06711451     4.58973277
 H     28  27  26     2.142064941309   124.67748005   180.58323373
 S     26   4   2     3.361604258917   121.65569067   181.63614031
 C     30  28  27     2.912806658570   127.60398251   172.37121863
 H     33  30  28     2.159763720676   110.64953911    12.44696742
 H     33  30  28     2.149160274130   111.96680927   253.48241478
 H     33  30  28     2.116150807167   110.13212176   133.69848238
 C     12  11   5     2.790701233297   111.64432529   188.46598043
 S     37  12  11     3.442314634392   136.77227642   185.76698353
 C     38  37  12     3.399166401869    92.37765639   175.86474758
 C     37  12  11     2.647015744354   117.02616445     3.46925256
 C     40  37  12     2.602735232545   117.41455870   188.24792409
 C     40  37  12     2.789220602786   136.71023888    10.36986290
 S     41  40  37     3.516340143340   115.50081533   169.53673177
 C     42  40  37     2.632749335807   117.17984930   186.06222163
 F     13  11   5     2.411338043391   134.62733759    72.72175588
 C     44  42  40     2.810135664162   127.76395023   179.13992760
 O     46  44  42     2.394680728239   126.22159252   173.62361389
 O     46  44  42     2.686304805071   106.06974970   354.44382198
 C     48  46  44     2.842010414380   122.46100501   181.43625351
 H     49  48  46     2.230959583796   107.70446583   180.98725290
 H     49  48  46     2.159630762825   111.38052101    58.75768216
 H     49  48  46     2.090822958349   110.73257505   297.80007227
 C      8   7   1     2.990998362490   111.46993498   202.70964831
 S     53   8   7     3.872323285189   130.37718164   195.62557160
 C     54  53   8     3.913896253558    91.32831296   177.76908854
 C     55  54  53     3.078691927024   109.91852848     4.34582572
 H     55  54  53     2.410248588412   120.85312307   181.23294369
 C     56  55  54     3.101309078235   114.89816748   357.49014581
 S     19  17   7     2.512003967600   119.76466537    64.61896162
 C     56  55  54     3.281327904356   136.71640845   176.48215494
 C     60  56  55     3.189703388173   116.41053961   183.76760349
 F     60  56  55     2.950377262429   121.85308500     2.64285161
 C     61  60  56     3.366836220485   130.51405703   180.39522725
 O     63  61  60     2.749228256737   126.26805509   180.92708055
 O     63  61  60     3.047441342712   111.35095839     1.12077107
 C     65  63  61     3.322566702561   113.67290319   179.47960987
 H     66  65  63     2.445583514102   107.76231459   179.60041919
 H     66  65  63     2.461810648406   117.48995581    57.25977698
 H     66  65  63     2.210848305241   107.64605557   299.09156658
 C     39  38  37     2.856902475693   141.32322496   177.33709109
 S     70  39  38     3.518663842741   102.54597277   189.64710332
 C     70  39  38     2.877850937014   148.94874006     5.07548514
 C     72  70  39     3.159780984260   111.55992877   173.48705285
 H     72  70  39     2.227335922862   124.46841716   356.98654061
 C     73  72  70     2.936873727026   107.00550220   356.92145398
 C     75  73  72     2.954920491722   131.23936755   193.54903815
 C     73  72  70     3.089744148012   140.47823560   176.49684085
 C     77  73  72     3.109286393517   117.65371684   185.69397292
 C     78  77  73     3.016514989019   124.96105264   342.85146548
 S     78  77  73     3.746465507237   128.09197786   155.24964050
 C     80  78  77     3.606473684691    95.53609060   170.90383693
 C     81  80  78     2.891648576095   109.37626874     7.69939916
 H     82  81  80     2.292297157970   120.09981254   179.38693838
 H     81  80  78     2.335442949852   121.98712461   185.73487757
 C     76  75  73     3.465541357651   111.87068473   191.64946927
 S     83  82  81     4.041473057287   128.96374166   181.12008008
 C     86  83  82     5.151409586332   119.99851680    84.44716299
 C     87  86  83     4.711994412165   137.14033782   306.73144126
 C     88  87  86     2.963837036547   102.92917091   337.47856695
 H     88  87  86     3.473266616699   145.05779025   163.43834646
 H     89  88  87     3.520272678414   108.19159499   182.23955108
 C     87  86  83     3.291309904112    95.35027022   123.75176826
 H     92  87  86     3.892519193053   115.57488478    26.62845457
 H     92  87  86     3.865151389513   102.40825488   264.88038633
 H     92  87  86     3.885715970106    89.04722552   140.08911059
 C     77  73  72     3.196560109160   123.44073462   355.82218314
 S     96  77  73     3.725652898156   122.50339298   156.09375536
 C     97  96  77     3.541473513759    94.45499332   169.18710964
 C     98  97  96     2.909246579505   108.24454506    19.04592389
 C     96  77  73     2.890742311366   130.34523199   347.10853911
 H    100  96  77     2.293943335344   122.67040408   359.23994775
 H     99  98  97     2.260972574591   122.34203650   170.49429439
 C     98  97  96     3.183681427169   121.23945264   196.16760463
 H    103  98  97     2.313400515299   111.92425219    29.68015977
 H    103  98  97     2.216051635688   114.75135904   265.95026468
 H    103  98  97     2.171393246037   109.80293807   150.33164973

 One Electron integrals                  ... done
 Pre-screening matrix                    ... done

Diagonalization of the overlap matrix:
Smallest eigenvalue                        ... 3.094e-04
Time for diagonalization                   ...    0.267 sec
Threshold for overlap eigenvalues          ... 1.000e-08
Number of eigenvalues below threshold      ... 0
Time for construction of square roots      ...    0.755 sec
Total time needed                          ...    1.025 sec

-------------------
DFT GRID GENERATION
-------------------

General Integration Accuracy     IntAcc      ...  4.340
Radial Grid Type                 RadialGrid  ... Gauss-Chebyshev
Angular Grid (max. acc.)         AngularGrid ... Lebedev-194
Angular grid pruning method      GridPruning ... 3 (G Style)
Weight generation scheme         WeightScheme... Becke
Basis function cutoff            BFCut       ...    1.0000e-11
Integration weight cutoff        WCut        ...    1.0000e-14
Grids for H and He will be reduced by one unit

# of grid points (after initial pruning)     ... 295724 (   0.4 sec)
# of grid points (after weights+screening)   ... 257586 (   9.6 sec)
nearest neighbour list constructed           ...    0.0 sec
Grid point re-assignment to atoms done       ...    0.0 sec
Grid point division into batches done        ...    0.4 sec
Reduced shell lists constructed in    3.7 sec

Total number of grid points                  ...   257586
Total number of batches                      ...     4083
Average number of points per batch           ...       63
Average number of grid points per atom       ...     2430
Average number of shells per batch           ...    97.14 (17.22%)
Average number of basis functions per batch  ...   201.83 (16.22%)
Average number of large shells per batch     ...    55.00 (56.62%)
Average number of large basis fcns per batch ...   116.84 (57.89%)
Maximum spatial batch extension              ...  20.26, 20.78, 22.17 au
Average spatial batch extension              ...   2.59,  2.66,  3.00 au

Time for grid setup =   13.818 sec

--------------
SCF ITERATIONS
--------------
ITER       Energy         Delta-E        Max-DP      RMS-DP      [F,P]     Damp
               ***  Starting incremental Fock matrix formation  ***
  0  -7419.8240841054   0.000000000000 0.30194722  0.00147586  0.1997091 0.7000
  1  -7421.0518059228  -1.227721817399 0.21370644  0.00133837  0.1286598 0.7000
                               ***Turning on DIIS***
  2  -7421.9582333154  -0.906427392560 0.54532874  0.00363695  0.0945744 0.0000
  3  -7424.1594301619  -2.201196846539 0.21552034  0.00088732  0.0438084 0.0000
  4  -7424.2175465905  -0.058116428561 0.06669033  0.00047594  0.0440546 0.0000
  5  -7424.2628574030  -0.045310812520 0.02513007  0.00028052  0.0226348 0.0000
  6  -7424.2828932795  -0.020035876460 0.01898543  0.00020113  0.0084614 0.0000
  7  -7424.2936030578  -0.010709778375 0.01360151  0.00015393  0.0102257 0.0000
  8  -7424.3006228287  -0.007019770856 0.00935127  0.00012884  0.0073077 0.0000
  9  -7424.3059472575  -0.005324428848 0.00975438  0.00011196  0.0039234 0.0000
 10  -7424.3097557332  -0.003808475642 0.00696675  0.00009657  0.0036518 0.0000
 11  -7424.3127812632  -0.003025530003 0.00783518  0.00008717  0.0031743 0.0000
 12  -7424.3152615736  -0.002480310395 0.00631137  0.00007701  0.0036807 0.0000
 13  -7424.3172332419  -0.001971668367 0.00550931  0.00006892  0.0027447 0.0000
 14  -7424.3189341254  -0.001700883431 0.00562671  0.00006421  0.0041248 0.0000
 15  -7424.3203272353  -0.001393109942 0.00436627  0.00005941  0.0022761 0.0000
 16  -7424.3215225203  -0.001195284951 0.00446082  0.00005243  0.0026163 0.0000
 17  -7424.3225501813  -0.001027661046 0.00390450  0.00005020  0.0017145 0.0000
 18  -7424.3234095931  -0.000859411835 0.00377504  0.00004636  0.0029773 0.0000
                      *** Initiating the SOSCF procedure ***
                           *** Shutting down DIIS ***
                      *** Re-Reading the Fockian *** 
                      *** Removing any level shift *** 
ITER      Energy       Delta-E        Grad      Rot      Max-DP    RMS-DP
 19  -7424.32420664  -0.0007970513  0.003290  0.003290  0.003444  0.000043
               *** Restarting incremental Fock matrix formation ***
 20  -7424.32488893  -0.0006822872  0.002983  0.059651  0.015067  0.000205
 21  -7424.32663535  -0.0017464171  0.003409  0.393580  0.083693  0.001226
 22  -7424.29177605   0.0348593020  0.023362  0.176235  0.048913  0.000665
 23  -7424.31776086  -0.0259848144  0.008430  0.462063  0.128923  0.001632
 24  -7424.14709441   0.1706664480  0.043354  0.394772  0.138205  0.001370
 25  -7424.30971675  -0.1626223372  0.017007  0.521223  0.274398  0.002160
 26  -7423.46299128   0.8467254706  0.103247  0.246595  0.086806  0.000416
 27  -7423.81936339  -0.3563721121  0.066744  2.204072  0.471337  0.005177

                    ****Warning: large step in SOSCF, scaling down***
 28  -7420.21540063   3.6039627588  0.148008 29.902476  1.660039  0.007789

          ************************************************************
          *                     SERIOUS PROBLEM IN SOSCF             *
          *                     ------------------------             *
          *            HUGE, UNRELIABLE STEP WAS ABOUT TO BE TAKEN   *
          *                         ABORTING THE RUN                 *
          ************************************************************
[file orca_scf/scf2.cpp, line 1476]: 


ORCA finished by error termination in SCF
Calling Command: /home/andrewk/orca_4_2_0_linux_x86-64_openmpi314/orca_scf PTB7-Th_Optimize_Monomer.gbw b 
[file orca_tools/qcmsg.cpp, line 458]: 
  .... aborting the run

