
                                 *****************
                                 * O   R   C   A *
                                 *****************

           --- An Ab Initio, DFT and Semiempirical electronic structure package ---

                  #######################################################
                  #                        -***-                        #
                  #          Department of theory and spectroscopy      #
                  #               Directorship: Frank Neese             #
                  #        Max Planck Institute fuer Kohlenforschung    #
                  #                Kaiser Wilhelm Platz 1               #
                  #                 D-45470 Muelheim/Ruhr               #
                  #                      Germany                        #
                  #                                                     #
                  #                  All rights reserved                #
                  #                        -***-                        #
                  #######################################################


                         Program Version 4.2.0 -  RELEASE  -


 With contributions from (in alphabetic order):
   Daniel Aravena         : Magnetic Suceptibility
   Michael Atanasov       : Ab Initio Ligand Field Theory (pilot matlab implementation)
   Alexander A. Auer      : GIAO ZORA, VPT2
   Ute Becker             : Parallelization
   Giovanni Bistoni       : ED, misc. LED, open-shell LED, HFLED
   Martin Brehm           : Molecular dynamics
   Dmytro Bykov           : SCF Hessian
   Vijay G. Chilkuri      : MRCI spin determinant printing, contributions to CSF-ICE
   Dipayan Datta          : RHF DLPNO-CCSD density
   Achintya Kumar Dutta   : EOM-CC, STEOM-CC
   Dmitry Ganyushin       : Spin-Orbit,Spin-Spin,Magnetic field MRCI
   Miquel Garcia          : C-PCM Hessian, Gaussian charge scheme
   Yang Guo               : DLPNO-NEVPT2, CIM, IAO-localization
   Andreas Hansen         : Spin unrestricted coupled pair/coupled cluster methods
   Benjamin Helmich-Paris : CASSCF linear response (MC-RPA)
   Lee Huntington         : MR-EOM, pCC
   Robert Izsak           : Overlap fitted RIJCOSX, COSX-SCS-MP3, EOM
   Christian Kollmar      : KDIIS, OOCD, Brueckner-CCSD(T), CCSD density
   Simone Kossmann        : Meta GGA functionals, TD-DFT gradient, OOMP2, MP2 Hessian
   Martin Krupicka        : AUTO-CI
   Lucas Lang             : DCDCAS
   Dagmar Lenk            : GEPOL surface, SMD
   Dimitrios Liakos       : Extrapolation schemes; Compound Job, initial MDCI parallelization
   Dimitrios Manganas     : Further ROCIS development; embedding schemes
   Dimitrios Pantazis     : SARC Basis sets
   Taras Petrenko         : DFT Hessian,TD-DFT gradient, ASA, ECA, R-Raman, ABS, FL, XAS/XES, NRVS
   Peter Pinski           : DLPNO-MP2, DLPNO-MP2 Gradient
   Christoph Reimann      : Effective Core Potentials
   Marius Retegan         : Local ZFS, SOC
   Christoph Riplinger    : Optimizer, TS searches, QM/MM, DLPNO-CCSD(T), (RO)-DLPNO pert. Triples
   Tobias Risthaus        : Range-separated hybrids, TD-DFT gradient, RPA, STAB
   Michael Roemelt        : Original ROCIS implementation
   Masaaki Saitow         : Open-shell DLPNO-CCSD energy and density
   Barbara Sandhoefer     : DKH picture change effects
   Avijit Sen             : IP-ROCIS
   Kantharuban Sivalingam : CASSCF convergence, NEVPT2, FIC-MRCI
   Bernardo de Souza      : ESD, SOC TD-DFT
   Georgi Stoychev        : AutoAux, RI-MP2 NMR
   Willem Van den Heuvel  : Paramagnetic NMR
   Boris Wezisla          : Elementary symmetry handling
   Frank Wennmohs         : Technical directorship


 We gratefully acknowledge several colleagues who have allowed us to
 interface, adapt or use parts of their codes:
   Stefan Grimme, W. Hujo, H. Kruse,             : VdW corrections, initial TS optimization,
                  C. Bannwarth                     DFT functionals, gCP, sTDA/sTD-DF
   Ed Valeev, F. Pavosevic, A. Kumar             : LibInt (2-el integral package), F12 methods
   Garnet Chan, S. Sharma, J. Yang, R. Olivares  : DMRG
   Ulf Ekstrom                                   : XCFun DFT Library
   Mihaly Kallay                                 : mrcc  (arbitrary order and MRCC methods)
   Andreas Klamt, Michael Diedenhofen            : otool_cosmo (COSMO solvation model)
   Jiri Pittner, Ondrej Demel                    : Mk-CCSD
   Frank Weinhold                                : gennbo (NPA and NBO analysis)
   Christopher J. Cramer and Donald G. Truhlar   : smd solvation model
   Lars Goerigk                                  : TD-DFT with DH, B97 family of functionals
   V. Asgeirsson, H. Jonsson                     : NEB implementation
   FAccTs GmbH                                   : IRC, NEB, NEB-TS, Multilevel, MM, QM/MM, CI optimization
   S Lehtola, MJT Oliveira, MAL Marques          : LibXC Library


 Your calculation uses the libint2 library for the computation of 2-el integrals
 For citations please refer to: http://libint.valeyev.net

 Your ORCA version has been built with support for libXC version: 4.2.3
 For citations please refer to: https://tddft.org/programs/libxc/

 This ORCA versions uses:
   CBLAS   interface :  Fast vector & matrix operations
   LAPACKE interface :  Fast linear algebra routines
   SCALAPACK package :  Parallel linear algebra routines


Your calculation utilizes the atom-pairwise dispersion correction
with the Becke-Johnson damping scheme (D3BJ)
Cite in your paper:
S.Grimme, S.Ehrlich, L.Goerigk, J Comput Chem, (2011), 32, 1456–1465 
S.Grimme, J.Antony, S.Ehrlich and H.Krieg, J.Chem.Phys., 132, (2010), 154104 
   

----- Orbital basis set information -----
Your calculation utilizes the basis: def2-SVP
   F. Weigend and R. Ahlrichs, Phys. Chem. Chem. Phys. 7, 3297 (2005).

----- AuxJ basis set information -----
Your calculation utilizes the auxiliary basis: def2/J
   F. Weigend, Phys. Chem. Chem. Phys. 8, 1057 (2006).

================================================================================
                                        WARNINGS
                       Please study these warnings very carefully!
================================================================================


WARNING: Geometry Optimization
  ===> : Switching off AutoStart
         For restart on a previous wavefunction, please use MOREAD

INFO   : the flag for use of LIBINT has been found!

================================================================================
                                       INPUT FILE
================================================================================
NAME = PTB7_S_Optimize_Monomer.inp
|  1> ! RI BP86 def2-SVP def2/J D3BJ TIGHTSCF  Opt Grid3 FinalGrid5
|  2> %maxcore 3000
|  3> %geom
|  4> Constraints
|  5> {D 6 7 66 67 0.0 C}
|  6> {D 8 7 66 68 0.0 C}
|  7> {D 68 70 103 104 0.0 C}
|  8> {D 69 70 103 107 0.0 C}
|  9> {D 10 11 167 168 0.0 C}
| 10> {D 12 11 167 170 0.0 C}
| 11> end
| 12> end
| 13> 
| 14> *xyz 0 1
| 15> C	-3.548422	1.508709	-0.665188
| 16> C	-2.287902	0.913959	-0.611488
| 17> C	-2.098792	-0.338931	-0.027608
| 18> C	-3.269932	-1.061061	0.368842
| 19> C	-4.531402	-0.404281	0.359002
| 20> C	-4.685352	0.874979	-0.158538
| 21> S	-0.820462	1.585509	-1.208968
| 22> C	0.127788	0.433079	-0.398528
| 23> C	-0.667922	-0.578701	0.105762
| 24> H	-0.242852	-1.427391	0.625232
| 25> S	-6.053862	-0.966071	0.965612
| 26> C	-6.895852	0.484679	0.580672
| 27> C	-6.041322	1.346239	-0.063158
| 28> H	-6.350602	2.310779	-0.435748
| 29> O	-3.673192	2.789939	-1.176398
| 30> C	-3.492192	3.736679	-0.112118
| 31> C	-3.431012	5.142969	-0.719568
| 32> H	-2.570132	3.505199	0.428352
| 33> H	-4.322572	3.668469	0.602632
| 34> C	-2.748892	6.132589	0.248102
| 35> C	-1.281262	5.826999	0.518502
| 36> H	-3.292492	6.168539	1.200232
| 37> H	-2.793972	7.135909	-0.185318
| 38> H	-1.160132	4.931789	1.133622
| 39> H	-0.820692	6.656389	1.064872
| 40> H	-0.729002	5.687889	-0.415988
| 41> C	-4.846732	5.664389	-1.060378
| 42> H	-2.852112	5.108869	-1.651768
| 43> C	-5.599822	4.875829	-2.137108
| 44> H	-4.765552	6.697559	-1.408788
| 45> H	-5.447692	5.691129	-0.141268
| 46> C	-7.001142	5.446249	-2.338748
| 47> H	-5.700182	3.830529	-1.847688
| 48> H	-5.044682	4.901559	-3.081308
| 49> C	-7.883792	4.539359	-3.178198
| 50> H	-6.941682	6.438449	-2.799258
| 51> H	-7.471392	5.567459	-1.361958
| 52> H	-7.464052	4.393489	-4.177328
| 53> H	-8.881232	4.978589	-3.283338
| 54> H	-7.999662	3.559099	-2.703518
| 55> O	-3.278112	-2.372201	0.845372
| 56> C	-2.216942	-3.233581	0.439932
| 57> C	-2.655862	-4.696901	0.190862
| 58> H	-1.472822	-3.215101	1.244122
| 59> H	-1.755092	-2.890561	-0.492218
| 60> C	-3.796732	-5.180811	1.108752
| 61> C	-5.173272	-4.929121	0.506892
| 62> H	-3.724942	-4.708881	2.095132
| 63> H	-3.714472	-6.262321	1.275082
| 64> H	-5.338162	-3.871951	0.295742
| 65> H	-5.954842	-5.267181	1.194372
| 66> H	-5.292072	-5.481781	-0.431418
| 67> C	-1.446472	-5.657701	0.319552
| 68> H	-3.009872	-4.759111	-0.847598
| 69> C	-0.243872	-5.282371	-0.553568
| 70> H	-1.771882	-6.670971	0.049512
| 71> H	-1.128332	-5.700211	1.369442
| 72> C	0.877598	-6.315021	-0.424918
| 73> H	0.146798	-4.302481	-0.256988
| 74> H	-0.557472	-5.205901	-1.601328
| 75> C	2.095938	-5.916271	-1.242198
| 76> H	0.522488	-7.296151	-0.760628
| 77> H	1.170868	-6.417911	0.626522
| 78> H	1.848868	-5.841251	-2.305698
| 79> H	2.889068	-6.661961	-1.128528
| 80> H	2.488628	-4.949041	-0.912238
| 81> C	1.553778	0.585709	-0.324858
| 82> C	2.224578	1.676789	0.166752
| 83> S	2.673798	-0.604721	-0.859858
| 84> C	3.605418	1.490769	0.108462
| 85> C	4.073138	0.343709	-0.448958
| 86> S	1.652808	3.248469	0.882792
| 87> C	3.359538	3.652759	1.053112
| 88> C	4.215208	2.603149	0.727432
| 89> F	5.491538	2.624279	0.993582
| 90> C	3.687468	4.986809	1.532182
| 91> O	3.071188	5.616859	2.376712
| 92> O	4.659468	5.575149	0.763242
| 93> C	5.999398	5.306319	1.179952
| 94> C	6.972088	6.454899	0.874302
| 95> H	6.336618	4.466679	0.572002
| 96> H	6.033728	5.030929	2.240832
| 97> C	8.404098	6.090799	1.356182
| 98> C	8.859468	4.661429	1.085392
| 99> H	8.484268	6.261379	2.436932
|100> H	9.112208	6.777109	0.875302
|101> H	8.315668	3.944929	1.710432
|102> H	9.922928	4.551069	1.318992
|103> H	8.715518	4.386809	0.040502
|104> C	6.545658	7.794549	1.519382
|105> H	7.003688	6.580619	-0.216438
|106> C	6.014168	8.851179	0.542232
|107> H	7.420188	8.250829	2.001962
|108> H	5.818918	7.625689	2.322912
|109> C	4.576688	8.613839	0.086652
|110> H	6.676268	8.928579	-0.328918
|111> H	6.061688	9.822269	1.051882
|112> C	4.018428	9.830969	-0.637408
|113> H	3.939728	8.397099	0.951742
|114> H	4.532068	7.751739	-0.586108
|115> H	4.032338	10.713559	0.010952
|116> H	2.981698	9.651299	-0.938638
|117> H	4.601808	10.056099	-1.535628
|118> C	5.437698	-0.085721	-0.686328
|119> S	5.849688	-1.734881	-0.808488
|120> C	7.543188	-1.423411	-0.833748
|121> C	7.810288	-0.056961	-0.917998
|122> C	6.573288	0.691619	-0.851738
|123> H	6.559508	1.773969	-0.880348
|124> C	8.580728	-2.364411	-0.797508
|125> C	9.165808	0.360429	-1.021888
|126> C	10.202718	-0.596201	-0.915558
|127> C	9.923808	-1.963491	-0.857588
|128> S	11.908018	-0.347491	-0.793828
|129> C	12.269038	-2.000011	-0.863518
|130> C	11.125778	-2.753421	-0.898518
|131> H	13.293388	-2.346871	-0.862678
|132> H	11.138388	-3.833041	-0.940298
|133> O	8.305978	-3.726021	-0.763508
|134> C	7.973548	-4.167061	0.567242
|135> C	7.532168	-5.642401	0.468762
|136> H	7.174708	-3.547241	0.979292
|137> H	8.839778	-4.051031	1.229352
|138> C	6.375538	-5.980411	1.434592
|139> C	5.083848	-5.229701	1.137902
|140> H	5.147278	-4.180491	1.438602
|141> H	4.254198	-5.675411	1.696332
|142> H	4.838778	-5.271841	0.072832
|143> H	6.676908	-5.786081	2.470872
|144> H	6.159878	-7.054121	1.363502
|145> C	8.690968	-6.636431	0.734802
|146> H	7.178268	-5.831671	-0.554598
|147> C	9.992048	-6.320031	-0.001788
|148> H	8.354268	-7.642881	0.453922
|149> H	8.901748	-6.668811	1.811732
|150> C	11.024198	-7.436291	0.154152
|151> H	10.418358	-5.403351	0.414942
|152> H	9.794308	-6.147841	-1.066058
|153> C	12.376278	-7.015131	-0.402318
|154> H	10.678578	-8.335961	-0.367368
|155> H	11.140288	-7.696281	1.212612
|156> H	12.301668	-6.747411	-1.460978
|157> H	13.098658	-7.831251	-0.304988
|158> H	12.769388	-6.149811	0.142152
|159> O	9.455798	1.731749	-1.121648
|160> C	9.879858	2.117189	-2.455408
|161> C	8.664088	2.597709	-3.285948
|162> C	8.208258	4.031429	-3.032728
|163> H	7.810558	1.935149	-3.118878
|164> H	8.920248	2.518159	-4.349568
|165> H	8.011418	4.213359	-1.976008
|166> H	7.285688	4.235419	-3.585548
|167> H	8.952368	4.756359	-3.379948
|168> C	10.958798	3.230709	-2.379488
|169> H	10.307918	1.254309	-2.982488
|170> C	12.357008	2.722999	-2.024078
|171> H	10.669628	3.987389	-1.640078
|172> H	11.028528	3.722669	-3.357238
|173> C	13.444408	3.778049	-2.237768
|174> H	12.591878	1.854259	-2.649108
|175> H	12.375988	2.418359	-0.973478
|176> C	14.832138	3.177339	-2.053698
|177> H	13.306608	4.603759	-1.530818
|178> H	13.372568	4.195849	-3.248298
|179> H	14.951048	2.754909	-1.050858
|180> H	15.601708	3.942319	-2.196078
|181> H	15.012108	2.379879	-2.782958
|182> C	-8.293932	0.716029	0.895472
|183> S	-9.362042	-0.613941	1.239382
|184> C	-10.720592	0.386979	1.493812
|185> C	-9.039302	1.864369	0.974432
|186> C	-10.384932	1.695729	1.320022
|187> H	-11.694702	-0.004581	1.754352
|188> S	-11.421702	3.143689	1.473372
|189> C	-8.831432	3.289259	0.804782
|190> C	-9.988922	4.076249	1.007752
|191> H	-7.884862	3.740339	0.534572
|192> C	-10.226222	5.517519	0.871952
|193> O	-11.262152	6.087029	1.194052
|194> O	-9.191712	6.158599	0.243632
|195> C	-9.550562	7.413669	-0.394198
|196> C	-9.332112	8.656239	0.498522
|197> H	-10.578472	7.350099	-0.770058
|198> H	-8.931582	7.480759	-1.294738
|199> C	-10.568742	9.599829	0.492112
|200> C	-11.835222	9.039619	1.111902
|201> H	-10.789222	9.914069	-0.536588
|202> H	-10.319402	10.514849	1.045682
|203> H	-12.276832	8.260209	0.486832
|204> H	-12.583062	9.834769	1.204672
|205> H	-11.643712	8.640509	2.111782
|206> C	-8.164112	9.546439	-0.003998
|207> H	-9.121832	8.346749	1.529332
|208> C	-6.763832	8.934779	-0.013628
|209> H	-8.125192	10.445449	0.626832
|210> H	-8.395972	9.898429	-1.018978
|211> C	-5.755152	10.020759	-0.421348
|212> H	-6.717682	8.101039	-0.719838
|213> H	-6.514252	8.546129	0.979952
|214> C	-4.328002	9.516949	-0.500898
|215> H	-5.793302	10.843809	0.302332
|216> H	-6.034112	10.439699	-1.395898
|217> H	-4.025182	9.044169	0.437442
|218> H	-3.643172	10.347769	-0.699508
|219> H	-4.213972	8.800609	-1.317728
|220> **                         ****END OF INPUT****
================================================================================

                       *****************************
                       * Geometry Optimization Run *
                       *****************************

Geometry optimization settings:
Update method            Update   .... BFGS
Choice of coordinates    CoordSys .... Z-matrix Internals
Initial Hessian          InHess   .... Almoef's Model

Convergence Tolerances:
Energy Change            TolE     ....  5.0000e-06 Eh
Max. Gradient            TolMAXG  ....  3.0000e-04 Eh/bohr
RMS Gradient             TolRMSG  ....  1.0000e-04 Eh/bohr
Max. Displacement        TolMAXD  ....  4.0000e-03 bohr
RMS Displacement         TolRMSD  ....  2.0000e-03 bohr
Strict Convergence                ....  False
------------------------------------------------------------------------------
                        ORCA OPTIMIZATION COORDINATE SETUP
------------------------------------------------------------------------------

The optimization will be done in new redundant internal coordinates
Making redundant internal coordinates   ...  (new redundants) done
Evaluating the initial hessian          ...  (Almloef) done
Evaluating the coordinates              ...  done
Calculating the B-matrix                .... done
Calculating the G-matrix                .... done
Diagonalizing the G-matrix              .... done
Imposing constraints:
 Iter   0:  RMS(Cart)=    1.2498904682 RMS(Int)=    0.3745341335
 Iter   1:  RMS(Cart)=    0.5940870747 RMS(Int)=    0.2354343025
 Iter   2:  RMS(Cart)=    0.3150002041 RMS(Int)=    0.1505322276
 Iter   3:  RMS(Cart)=    0.1935316927 RMS(Int)=    0.0908422143
 Iter   4:  RMS(Cart)=    0.1151039201 RMS(Int)=    0.0557608842
 Iter   5:  RMS(Cart)=    0.0698675957 RMS(Int)=    0.0346355395
 Iter   6:  RMS(Cart)=    0.0430238682 RMS(Int)=    0.0216979376
 Iter   7:  RMS(Cart)=    0.0267758683 RMS(Int)=    0.0136784538
 Iter   8:  RMS(Cart)=    0.0167980798 RMS(Int)=    0.0086633850
 Iter   9:  RMS(Cart)=    0.0106037247 RMS(Int)=    0.0055064847
 Iter  10:  RMS(Cart)=    0.0067258586 RMS(Int)=    0.0035094221
 Iter  11:  RMS(Cart)=    0.0042822993 RMS(Int)=    0.0022413212
 Iter  12:  RMS(Cart)=    0.0027346193 RMS(Int)=    0.0014337751
 Iter  13:  RMS(Cart)=    0.0017503798 RMS(Int)=    0.0009183690
 Iter  14:  RMS(Cart)=    0.0011224437 RMS(Int)=    0.0005888435
 Iter  15:  RMS(Cart)=    0.0007208059 RMS(Int)=    0.0003778706
 Iter  16:  RMS(Cart)=    0.0004633964 RMS(Int)=    0.0002426505
 Iter  17:  RMS(Cart)=    0.0002981630 RMS(Int)=    0.0001559062
 Iter  18:  RMS(Cart)=    0.0001919687 RMS(Int)=    0.0001002191
 Iter  19:  RMS(Cart)=    0.0001236543 RMS(Int)=    0.0000644483
 Iter  20:  RMS(Cart)=    0.0000796767 RMS(Int)=    0.0000414594
 Iter  21:  RMS(Cart)=    0.0000513512 RMS(Int)=    0.0000266787
 Iter  22:  RMS(Cart)=    0.0000331001 RMS(Int)=    0.0000171720
 Iter  23:  RMS(Cart)=    0.0000213374 RMS(Int)=    0.0000110556
 Iter  24:  RMS(Cart)=    0.0000137551 RMS(Int)=    0.0000071192
 Iter  25:  RMS(Cart)=    0.0000088671 RMS(Int)=    0.0000045853
 Iter  26:  RMS(Cart)=    0.0000057158 RMS(Int)=    0.0000029538
 Iter  27:  RMS(Cart)=    0.0000036843 RMS(Int)=    0.0000019031
 Iter  28:  RMS(Cart)=    0.0000023746 RMS(Int)=    0.0000012264
 Iter  29:  RMS(Cart)=    0.0000015304 RMS(Int)=    0.0000007904
 Iter  30:  RMS(Cart)=    0.0000009862 RMS(Int)=    0.0000005094
 Iter  31:  RMS(Cart)=    0.0000006355 RMS(Int)=    0.0000003284
 Iter  32:  RMS(Cart)=    0.0000004095 RMS(Int)=    0.0000002117
 Iter  33:  RMS(Cart)=    0.0000002638 RMS(Int)=    0.0000001365
 Iter  34:  RMS(Cart)=    0.0000001699 RMS(Int)=    0.0000000880
 Iter  35:  RMS(Cart)=    0.0000001095 RMS(Int)=    0.0000000568
 Iter  36:  RMS(Cart)=    0.0000000705 RMS(Int)=    0.0000000366
CONVERGED
Small eigenvalue found = 1.503e-04
Small eigenvalue found = 1.635e-04
Small eigenvalue found = 3.263e-04
Small eigenvalue found = 4.202e-04
Small eigenvalue found = 4.737e-04
Small eigenvalue found = 6.207e-04
Small eigenvalue found = 6.547e-04
Small eigenvalue found = 1.000e-03
Small eigenvalue found = 1.113e-03
Small eigenvalue found = 1.183e-03
Small eigenvalue found = 1.427e-03
Small eigenvalue found = 1.687e-03
Small eigenvalue found = 1.873e-03
Small eigenvalue found = 1.976e-03
Small eigenvalue found = 2.581e-03
Small eigenvalue found = 3.385e-03
Small eigenvalue found = 4.104e-03
Small eigenvalue found = 4.388e-03
Small eigenvalue found = 5.190e-03
Small eigenvalue found = 5.522e-03
Small eigenvalue found = 6.922e-03
Small eigenvalue found = 7.736e-03
Small eigenvalue found = 8.083e-03
Small eigenvalue found = 8.230e-03
Small eigenvalue found = 8.879e-03
Small eigenvalue found = 9.686e-03
Small eigenvalue found = 1.050e-02
Small eigenvalue found = 1.185e-02
Small eigenvalue found = 1.252e-02
Small eigenvalue found = 1.295e-02
Small eigenvalue found = 1.362e-02
Small eigenvalue found = 1.563e-02
Small eigenvalue found = 1.626e-02
Small eigenvalue found = 1.652e-02
Small eigenvalue found = 1.917e-02
Small eigenvalue found = 1.953e-02
Small eigenvalue found = 1.997e-02
Small eigenvalue found = 2.082e-02
Small eigenvalue found = 2.246e-02
Small eigenvalue found = 2.384e-02
Small eigenvalue found = 2.447e-02
Small eigenvalue found = 2.486e-02
Small eigenvalue found = 2.588e-02
Small eigenvalue found = 2.689e-02
Small eigenvalue found = 2.835e-02
The first mode is                       ....  302
The number of degrees of freedom        ....  609
Storing new coordinates                 .... done

    -----------------------------------------------------------------
                    Redundant Internal Coordinates


    -----------------------------------------------------------------
         Definition                    Initial Value    Approx d2E/dq
    -----------------------------------------------------------------
      1. B(C   1,C   0)                  1.4352         0.613831   
      2. B(C   2,C   1)                  1.5406         0.613113   
      3. B(C   3,C   2)                  1.4911         0.535746   
      4. B(C   4,C   3)                  1.4610         0.555013   
      5. B(C   5,C   0)                  1.4596         0.609488   
      6. B(C   5,C   4)                  1.5291         0.628147   
      7. B(S   6,C   1)                  1.7871         0.499630   
      8. B(C   7,S   6)                  1.8211         0.542872   
      9. B(C   8,C   2)                  1.4641         0.488590   
     10. B(C   8,C   7)                  1.4829         0.642374   
     11. B(H   9,C   8)                  1.1765         0.370787   
     12. B(S  10,C   4)                  1.7923         0.478751   
     13. B(C  11,S  10)                  1.8612         0.499385   
     14. B(C  12,C   5)                  1.4692         0.522458   
     15. B(C  12,C  11)                  1.4739         0.663377   
     16. B(H  13,C  12)                  1.1829         0.374584   
     17. B(O  14,C   0)                  1.5283         0.569798   
     18. B(C  15,O  14)                  1.5563         0.472788   
     19. B(C  16,C  15)                  1.6692         0.369347   
     20. B(H  17,C  15)                  1.1051         0.355414   
     21. B(H  18,C  15)                  1.1657         0.349995   
     22. B(C  19,C  16)                  1.6290         0.356080   
     23. B(C  20,C  19)                  1.5256         0.382885   
     24. B(H  21,C  19)                  1.1856         0.350996   
     25. B(H  22,C  19)                  1.1848         0.355026   
     26. B(H  23,C  20)                  1.1744         0.356275   
     27. B(H  24,C  20)                  1.1618         0.353838   
     28. B(H  25,C  20)                  1.1796         0.354384   
     29. B(C  26,C  16)                  1.5630         0.351340   
     30. B(H  27,C  16)                  1.1875         0.349858   
     31. B(C  28,C  26)                  1.6089         0.370265   
     32. B(H  29,C  26)                  1.1865         0.355692   
     33. B(H  30,C  26)                  1.1829         0.349071   
     34. B(C  31,C  28)                  1.5488         0.378622   
     35. B(H  32,C  28)                  1.1842         0.361080   
     36. B(H  33,C  28)                  1.1845         0.352758   
     37. B(C  34,C  31)                  1.5858         0.389528   
     38. B(H  35,C  31)                  1.1906         0.352929   
     39. B(H  36,C  31)                  1.1823         0.358982   
     40. B(H  37,C  34)                  1.1871         0.355513   
     41. B(H  38,C  34)                  1.1136         0.353642   
     42. B(H  39,C  34)                  1.1907         0.353172   
     43. B(H  39,H  13)                  3.1885         0.000048   
     44. B(O  40,C   3)                  1.5378         0.549260   
     45. B(C  41,O  40)                  1.4910         0.490931   
     46. B(C  42,C  41)                  1.6759         0.349800   
     47. B(H  43,C  41)                  1.1473         0.352508   
     48. B(H  44,C  41)                  1.1785         0.353044   
     49. B(C  45,C  42)                  1.6015         0.357246   
     50. B(C  46,C  45)                  1.5520         0.382882   
     51. B(H  47,C  45)                  1.1917         0.352485   
     52. B(H  48,C  45)                  1.1937         0.350554   
     53. B(H  49,C  46)                  1.1854         0.359323   
     54. B(H  50,C  46)                  1.1401         0.354294   
     55. B(H  51,C  46)                  1.1913         0.352985   
     56. B(C  52,C  42)                  1.6098         0.347185   
     57. B(H  53,C  42)                  1.1877         0.348510   
     58. B(C  54,C  52)                  1.5756         0.369760   
     59. B(H  55,C  52)                  1.1892         0.349715   
     60. B(H  56,C  52)                  1.1926         0.349855   
     61. B(C  57,C  54)                  1.5929         0.373704   
     62. B(H  58,C  54)                  1.1815         0.352515   
     63. B(H  59,C  54)                  1.1868         0.351791   
     64. B(C  60,C  57)                  1.5557         0.387132   
     65. B(H  61,C  57)                  1.1848         0.352129   
     66. B(H  62,C  57)                  1.1894         0.351717   
     67. B(H  63,C  60)                  1.1874         0.354331   
     68. B(H  64,C  60)                  1.1392         0.354137   
     69. B(H  65,C  60)                  1.1817         0.353791   
     70. B(C  66,C   7)                  1.4401         0.527603   
     71. B(C  67,C  66)                  1.5090         0.667754   
     72. B(S  68,C  66)                  1.9099         0.501526   
     73. B(S  68,H  65)                  5.3515         0.000006   
     74. B(C  69,C  67)                  1.4202         0.614480   
     75. B(C  70,S  68)                  1.8097         0.466233   
     76. B(C  70,C  69)                  1.5646         0.701728   
     77. B(S  71,C  67)                  2.0888         0.348019   
     78. B(S  71,H  23)                  5.0269         0.000303   
     79. B(C  72,S  71)                  1.7595         0.429208   
     80. B(C  73,C  69)                  1.5591         0.577328   
     81. B(C  73,C  72)                  1.5532         0.618380   
     82. B(F  74,C  73)                  1.3165         0.713255   
     83. B(C  75,C  72)                  1.6311         0.492259   
     84. B(O  76,C  75)                  1.3766         1.042454   
     85. B(O  77,C  75)                  1.4437         0.598001   
     86. B(C  78,O  77)                  1.5497         0.485345   
     87. B(C  79,C  78)                  1.5912         0.365654   
     88. B(H  80,C  78)                  1.2836         0.359969   
     89. B(H  81,C  78)                  1.2905         0.351502   
     90. B(C  82,C  79)                  1.7254         0.341840   
     91. B(C  83,C  82)                  1.8166         0.381343   
     92. B(H  84,C  82)                  1.3049         0.350878   
     93. B(H  85,C  82)                  1.1652         0.350795   
     94. B(H  86,C  83)                  1.2042         0.353107   
     95. B(H  87,C  83)                  1.1862         0.354336   
     96. B(H  88,C  83)                  1.2888         0.360201   
     97. B(C  89,C  79)                  1.8183         0.351198   
     98. B(H  90,C  79)                  1.3076         0.349137   
     99. B(C  91,C  89)                  1.8223         0.367855   
    100. B(H  92,C  89)                  1.1239         0.349511   
    101. B(H  93,C  89)                  1.2420         0.351596   
    102. B(C  94,C  91)                  1.5782         0.378395   
    103. B(H  95,C  91)                  1.2628         0.351040   
    104. B(H  96,C  91)                  1.2452         0.350015   
    105. B(C  97,C  94)                  1.8075         0.384328   
    106. B(H  98,C  94)                  1.2526         0.352333   
    107. B(H  99,C  94)                  1.2489         0.354265   
    108. B(H 100,C  97)                  1.2531         0.353247   
    109. B(H 101,C  97)                  1.1289         0.354256   
    110. B(H 102,C  97)                  1.2586         0.354265   
    111. B(C 103,C  70)                  1.5004         0.501025   
    112. B(S 104,C 103)                  1.7413         0.531102   
    113. B(C 105,S 104)                  1.7725         0.497368   
    114. B(C 106,C 105)                  1.4247         0.613747   
    115. B(C 107,C 103)                  1.4241         0.633889   
    116. B(C 107,C 106)                  1.4991         0.506034   
    117. B(H 108,H  86)                  4.2141         0.000003   
    118. B(H 108,C 107)                  1.1096         0.369730   
    119. B(C 109,C 105)                  1.4538         0.599672   
    120. B(C 110,C 106)                  1.4627         0.555244   
    121. B(C 111,C 110)                  1.4710         0.570412   
    122. B(C 112,C 109)                  1.4421         0.595814   
    123. B(C 112,C 111)                  1.4296         0.609716   
    124. B(S 113,C 111)                  1.7744         0.487339   
    125. B(C 114,S 113)                  1.7421         0.553605   
    126. B(C 115,C 112)                  1.4960         0.522086   
    127. B(C 115,C 114)                  1.3964         0.673337   
    128. B(H 116,C 114)                  1.1225         0.371545   
    129. B(H 117,C 115)                  1.1063         0.372887   
    130. B(O 118,C 109)                  1.4201         0.560689   
    131. B(C 119,O 118)                  1.4918         0.464321   
    132. B(C 120,C 119)                  1.5702         0.356029   
    133. B(H 121,C 119)                  1.1313         0.357678   
    134. B(H 122,C 119)                  1.1132         0.351665   
    135. B(C 123,C 120)                  1.6064         0.354453   
    136. B(C 124,C 123)                  1.5826         0.383064   
    137. B(H 125,C 124)                  1.1087         0.355772   
    138. B(H 126,C 124)                  1.1362         0.353667   
    139. B(H 127,C 124)                  1.1118         0.355221   
    140. B(H 127,H  65)                  4.4486         0.000302   
    141. B(H 128,C 123)                  1.1085         0.351514   
    142. B(H 129,C 123)                  1.1179         0.350367   
    143. B(C 130,C 120)                  1.6115         0.347445   
    144. B(H 131,C 120)                  1.1108         0.348079   
    145. B(C 132,C 130)                  1.5878         0.376014   
    146. B(H 133,C 130)                  1.1089         0.349906   
    147. B(H 134,C 130)                  1.1193         0.349875   
    148. B(C 135,C 132)                  1.5882         0.375921   
    149. B(H 136,C 132)                  1.0991         0.355521   
    150. B(H 137,C 132)                  1.1228         0.352129   
    151. B(C 138,C 135)                  1.5772         0.385334   
    152. B(H 139,C 135)                  1.0995         0.352470   
    153. B(H 140,C 135)                  1.1270         0.352136   
    154. B(H 141,C 138)                  1.1262         0.354154   
    155. B(H 142,C 138)                  1.1368         0.354536   
    156. B(H 143,C 138)                  1.0979         0.353109   
    157. B(H 143,H 117)                  3.1543         0.000055   
    158. B(O 144,C 110)                  1.4418         0.529221   
    159. B(C 145,O 144)                  1.5711         0.446176   
    160. B(C 146,C 145)                  1.6862         0.348640   
    161. B(C 147,C 146)                  1.6469         0.379663   
    162. B(H 148,C 146)                  1.1144         0.355697   
    163. B(H 148,F  74)                  5.4149         0.000000   
    164. B(H 149,C 146)                  1.2099         0.351061   
    165. B(H 150,C 147)                  1.2018         0.359856   
    166. B(H 150,H  88)                  2.4406         0.001441   
    167. B(H 151,C 147)                  1.1863         0.353942   
    168. B(H 152,C 147)                  1.1327         0.353096   
    169. B(C 153,C 145)                  1.5643         0.344123   
    170. B(H 154,C 145)                  1.1726         0.349667   
    171. B(C 155,C 153)                  1.6357         0.374393   
    172. B(H 156,C 153)                  1.1541         0.351251   
    173. B(H 156,H  80)                  5.6206         0.000000   
    174. B(H 157,C 153)                  1.1836         0.351268   
    175. B(C 158,C 155)                  1.5608         0.373426   
    176. B(H 159,C 155)                  1.1501         0.352652   
    177. B(H 160,C 155)                  1.1821         0.354794   
    178. B(C 161,C 158)                  1.6369         0.382844   
    179. B(H 162,C 158)                  1.1435         0.352635   
    180. B(H 163,C 158)                  1.1850         0.352443   
    181. B(H 164,C 161)                  1.1834         0.353991   
    182. B(H 165,C 161)                  1.1154         0.354330   
    183. B(H 166,C 161)                  1.1475         0.352879   
    184. B(C 167,C  11)                  1.4829         0.498197   
    185. B(S 168,C 167)                  1.7761         0.465524   
    186. B(C 169,S 168)                  1.7488         0.526633   
    187. B(C 170,C 167)                  1.4094         0.669198   
    188. B(C 171,C 169)                  1.3924         0.691876   
    189. B(C 171,C 170)                  1.4320         0.603374   
    190. B(H 172,C 169)                  1.1045         0.371239   
    191. B(S 173,C 171)                  1.8341         0.391194   
    192. B(C 174,C 170)                  1.4876         0.501327   
    193. B(C 175,S 173)                  1.8111         0.414328   
    194. B(C 175,C 174)                  1.4534         0.571373   
    195. B(H 176,C 174)                  1.1050         0.369736   
    196. B(H 176,H  30)                  3.6602         0.000030   
    197. B(C 177,C 175)                  1.5118         0.470903   
    198. B(O 178,C 177)                  1.2649         1.024994   
    199. B(O 179,C 177)                  1.4175         0.603003   
    200. B(C 180,O 179)                  1.5101         0.444209   
    201. B(C 181,C 180)                  1.5752         0.352864   
    202. B(H 182,C 180)                  1.1143         0.351840   
    203. B(H 183,C 180)                  1.1348         0.353792   
    204. B(H 183,H  36)                  2.8747         0.000545   
    205. B(C 184,C 181)                  1.6183         0.340138   
    206. B(C 185,C 184)                  1.5808         0.391537   
    207. B(H 186,C 184)                  1.1151         0.349684   
    208. B(H 187,C 184)                  1.1201         0.349514   
    209. B(H 188,C 185)                  1.1054         0.357015   
    210. B(H 189,C 185)                  1.1425         0.352889   
    211. B(H 190,C 185)                  1.1143         0.355510   
    212. B(C 191,C 181)                  1.6212         0.344366   
    213. B(H 192,C 181)                  1.1137         0.351451   
    214. B(C 193,C 191)                  1.5977         0.376230   
    215. B(H 194,C 191)                  1.1285         0.348459   
    216. B(H 195,C 191)                  1.1202         0.348366   
    217. B(C 196,C 193)                  1.6191         0.363806   
    218. B(H 197,C 193)                  1.1241         0.355355   
    219. B(H 198,C 193)                  1.1185         0.352649   
    220. B(C 199,C 196)                  1.5952         0.393933   
    221. B(H 200,C 196)                  1.1283         0.351446   
    222. B(H 201,C 196)                  1.1225         0.351153   
    223. B(H 202,C 199)                  1.1223         0.355523   
    224. B(H 203,C 199)                  1.1535         0.353739   
    225. B(H 204,C 199)                  1.1232         0.356927   
    226. B(H 204,H  29)                  2.9832         0.001276   
    227. A(C   1,C   0,C   5)          117.5190         0.431956   
    228. A(C   5,C   0,O  14)          120.7088         0.423451   
    229. A(C   1,C   0,O  14)          121.7200         0.423989   
    230. A(C   0,C   1,C   2)          122.2573         0.432417   
    231. A(C   0,C   1,S   6)          122.5395         0.439888   
    232. A(C   2,C   1,S   6)          115.2009         0.439794   
    233. A(C   3,C   2,C   8)          130.2484         0.405323   
    234. A(C   1,C   2,C   8)          108.9484         0.415130   
    235. A(C   1,C   2,C   3)          120.7005         0.422002   
    236. A(C   2,C   3,O  40)          128.4190         0.411143   
    237. A(C   2,C   3,C   4)          114.9083         0.414582   
    238. A(C   4,C   3,O  40)          116.5716         0.413729   
    239. A(C   3,C   4,C   5)          123.2160         0.426521   
    240. A(C   3,C   4,S  10)          124.6536         0.428681   
    241. A(C   5,C   4,S  10)          112.1206         0.438332   
    242. A(C   4,C   5,C  12)          113.0172         0.421935   
    243. A(C   0,C   5,C  12)          126.3372         0.419670   
    244. A(C   0,C   5,C   4)          120.6397         0.433750   
    245. A(C   1,S   6,C   7)           87.5817         0.454224   
    246. A(S   6,C   7,C  66)          118.1417         0.434499   
    247. A(C   8,C   7,C  66)          126.3206         0.424370   
    248. A(S   6,C   7,C   8)          115.5349         0.450239   
    249. A(C   2,C   8,C   7)          110.9941         0.418589   
    250. A(C   7,C   8,H   9)          126.0660         0.356802   
    251. A(C   2,C   8,H   9)          122.7337         0.340718   
    252. A(C   4,S  10,C  11)           90.4270         0.443940   
    253. A(C  12,C  11,C 167)          125.1358         0.422464   
    254. A(S  10,C  11,C  12)          113.4051         0.446067   
    255. A(S  10,C  11,C 167)          121.4560         0.423659   
    256. A(C  11,C  12,H  13)          126.6471         0.359382   
    257. A(C   5,C  12,H  13)          122.4524         0.345156   
    258. A(C   5,C  12,C  11)          110.8626         0.426073   
    259. A(C   0,O  14,C  15)          111.2030         0.402170   
    260. A(C  16,C  15,H  18)          111.0586         0.322206   
    261. A(C  16,C  15,H  17)          112.2826         0.323019   
    262. A(O  14,C  15,C  16)          108.0814         0.375254   
    263. A(O  14,C  15,H  17)          108.5768         0.334433   
    264. A(H  17,C  15,H  18)          104.0331         0.288950   
    265. A(O  14,C  15,H  18)          112.8178         0.333581   
    266. A(C  15,C  16,C  26)          112.2966         0.358871   
    267. A(C  19,C  16,C  26)          104.9257         0.356646   
    268. A(C  19,C  16,H  27)          110.8162         0.320263   
    269. A(C  26,C  16,H  27)          106.6609         0.319562   
    270. A(C  15,C  16,C  19)          112.4130         0.359691   
    271. A(C  15,C  16,H  27)          109.5197         0.322185   
    272. A(C  20,C  19,H  22)          106.8901         0.324875   
    273. A(C  20,C  19,H  21)          108.6135         0.324266   
    274. A(C  16,C  19,C  20)          111.2014         0.361906   
    275. A(H  21,C  19,H  22)          107.4751         0.289029   
    276. A(C  16,C  19,H  22)          110.2058         0.321032   
    277. A(C  16,C  19,H  21)          112.2397         0.320433   
    278. A(C  19,C  20,H  25)          110.8378         0.324778   
    279. A(C  19,C  20,H  23)          110.4095         0.325062   
    280. A(H  23,C  20,H  24)          108.9994         0.289554   
    281. A(C  19,C  20,H  24)          107.0415         0.324696   
    282. A(H  23,C  20,H  25)          109.6428         0.289624   
    283. A(H  24,C  20,H  25)          109.8591         0.289313   
    284. A(C  16,C  26,H  29)          110.0502         0.320427   
    285. A(C  16,C  26,C  28)          112.1507         0.359023   
    286. A(C  16,C  26,H  30)          107.6572         0.319445   
    287. A(C  28,C  26,H  29)          107.9539         0.323192   
    288. A(C  28,C  26,H  30)          112.3956         0.322198   
    289. A(H  29,C  26,H  30)          106.4822         0.288865   
    290. A(C  31,C  28,H  33)          109.1483         0.323937   
    291. A(C  26,C  28,H  32)          111.2181         0.323990   
    292. A(H  32,C  28,H  33)          107.3652         0.290024   
    293. A(C  26,C  28,C  31)          106.6374         0.363632   
    294. A(C  26,C  28,H  33)          112.7620         0.322753   
    295. A(C  31,C  28,H  32)          109.6880         0.325180   
    296. A(C  34,C  31,H  36)          110.2415         0.326390   
    297. A(C  28,C  31,H  36)          108.3721         0.324869   
    298. A(H  35,C  31,H  36)          107.4994         0.289781   
    299. A(C  28,C  31,H  35)          111.2104         0.323963   
    300. A(C  28,C  31,C  34)          108.4848         0.366803   
    301. A(C  34,C  31,H  35)          111.0010         0.325478   
    302. A(C  31,C  34,H  37)          113.1273         0.325868   
    303. A(C  31,C  34,H  39)          111.7887         0.325514   
    304. A(H  37,C  34,H  39)          108.5099         0.289372   
    305. A(H  38,C  34,H  39)          108.9999         0.289132   
    306. A(C  31,C  34,H  38)          105.7899         0.325586   
    307. A(H  37,C  34,H  38)          108.4899         0.289432   
    308. A(C   3,O  40,C  41)          121.0847         0.402237   
    309. A(O  40,C  41,C  42)          116.3892         0.374173   
    310. A(O  40,C  41,H  43)          103.0813         0.336074   
    311. A(C  42,C  41,H  43)          108.3065         0.319727   
    312. A(C  42,C  41,H  44)          105.4622         0.319806   
    313. A(H  43,C  41,H  44)          113.6777         0.288971   
    314. A(O  40,C  41,H  44)          110.1918         0.336159   
    315. A(C  41,C  42,C  45)          112.9545         0.356578   
    316. A(C  41,C  42,C  52)          115.1452         0.354853   
    317. A(C  45,C  42,C  52)          104.7736         0.356124   
    318. A(C  41,C  42,H  53)          106.5708         0.319132   
    319. A(C  45,C  42,H  53)          111.1848         0.320232   
    320. A(C  52,C  42,H  53)          106.0746         0.318742   
    321. A(C  42,C  45,C  46)          107.9851         0.362107   
    322. A(C  42,C  45,H  47)          112.1047         0.320826   
    323. A(C  42,C  45,H  48)          111.5529         0.320538   
    324. A(C  46,C  45,H  47)          110.9471         0.324491   
    325. A(C  46,C  45,H  48)          107.6732         0.324199   
    326. A(H  47,C  45,H  48)          106.5131         0.288648   
    327. A(C  45,C  46,H  50)          105.8175         0.324764   
    328. A(C  45,C  46,H  49)          112.3761         0.325518   
    329. A(H  49,C  46,H  50)          110.0419         0.290000   
    330. A(C  45,C  46,H  51)          111.2428         0.324567   
    331. A(H  49,C  46,H  51)          108.0197         0.289832   
    332. A(H  50,C  46,H  51)          109.3138         0.289192   
    333. A(C  42,C  52,C  54)          111.5453         0.358214   
    334. A(C  42,C  52,H  55)          111.6973         0.318921   
    335. A(C  54,C  52,H  55)          107.2709         0.322223   
    336. A(C  42,C  52,H  56)          108.3033         0.318942   
    337. A(C  54,C  52,H  56)          111.8663         0.322244   
    338. A(H  55,C  52,H  56)          106.0533         0.288201   
    339. A(C  52,C  54,C  57)          106.4870         0.362736   
    340. A(C  52,C  54,H  58)          109.1058         0.322644   
    341. A(C  57,C  54,H  58)          112.0347         0.323206   
    342. A(C  52,C  54,H  59)          112.6862         0.322536   
    343. A(C  57,C  54,H  59)          109.5329         0.323097   
    344. A(H  58,C  54,H  59)          107.0731         0.288811   
    345. A(C  54,C  57,C  60)          107.8908         0.365596   
    346. A(C  54,C  57,H  61)          112.6483         0.323148   
    347. A(C  60,C  57,H  61)          108.3899         0.325026   
    348. A(C  54,C  57,H  62)          109.6604         0.323086   
    349. A(C  60,C  57,H  62)          111.3255         0.324964   
    350. A(H  61,C  57,H  62)          106.9600         0.288752   
    351. A(H  64,C  60,H  65)          110.7865         0.289275   
    352. A(C  57,C  60,H  65)          110.0616         0.325278   
    353. A(H  63,C  60,H  65)          108.3459         0.289300   
    354. A(C  57,C  60,H  63)          113.2794         0.325360   
    355. A(C  57,C  60,H  64)          106.0319         0.325330   
    356. A(H  63,C  60,H  64)          108.3257         0.289344   
    357. A(C   7,C  66,C  67)          123.0626         0.427324   
    358. A(C   7,C  66,S  68)          119.3915         0.428360   
    359. A(C  67,C  66,S  68)          117.5430         0.446946   
    360. A(C  66,C  67,C  69)          105.5675         0.439200   
    361. A(C  66,C  67,S  71)          136.9753         0.418533   
    362. A(C  69,C  67,S  71)          117.4447         0.412390   
    363. A(C  66,S  68,C  70)           87.1133         0.442160   
    364. A(C  67,C  69,C  70)          118.0617         0.443156   
    365. A(C  67,C  69,C  73)          101.6062         0.427855   
    366. A(C  70,C  69,C  73)          140.2165         0.438192   
    367. A(S  68,C  70,C  69)          111.4949         0.445059   
    368. A(S  68,C  70,C 103)          114.2245         0.418919   
    369. A(C  69,C  70,C 103)          134.2605         0.427166   
    370. A(C  67,S  71,C  72)           87.7399         0.408095   
    371. A(S  71,C  72,C  73)          110.3478         0.428594   
    372. A(S  71,C  72,C  75)          113.9466         0.411507   
    373. A(C  73,C  72,C  75)          135.6823         0.416315   
    374. A(C  69,C  73,C  72)          121.8445         0.428340   
    375. A(C  69,C  73,F  74)          118.0301         0.434657   
    376. A(C  72,C  73,F  74)          120.0813         0.440073   
    377. A(O  76,C  75,O  77)          121.1818         0.467661   
    378. A(C  72,C  75,O  76)          129.6066         0.454352   
    379. A(C  72,C  75,O  77)          108.8419         0.411169   
    380. A(C  75,O  77,C  78)          103.3648         0.407497   
    381. A(O  77,C  78,C  79)          106.4219         0.376304   
    382. A(O  77,C  78,H  80)          109.9518         0.336606   
    383. A(C  79,C  78,H  80)          104.2102         0.323161   
    384. A(O  77,C  78,H  81)          112.6103         0.335276   
    385. A(C  79,C  78,H  81)          113.8385         0.321903   
    386. A(H  80,C  78,H  81)          109.4353         0.289722   
    387. A(C  78,C  79,C  82)          101.5494         0.356593   
    388. A(C  78,C  79,C  89)          112.1139         0.358234   
    389. A(C  82,C  79,C  89)          113.8952         0.354161   
    390. A(C  78,C  79,H  90)          110.7410         0.321547   
    391. A(C  82,C  79,H  90)          109.3173         0.318029   
    392. A(C  89,C  79,H  90)          109.0443         0.319434   
    393. A(C  79,C  82,C  83)          123.8013         0.359149   
    394. A(C  79,C  82,H  84)          107.7050         0.318287   
    395. A(C  83,C  82,H  84)          106.2230         0.324033   
    396. A(C  79,C  82,H  85)           99.9205         0.318275   
    397. A(C  83,C  82,H  85)          106.2548         0.324021   
    398. A(H  84,C  82,H  85)          112.9818         0.288472   
    399. A(C  82,C  83,H  86)          109.9431         0.324371   
    400. A(C  82,C  83,H  87)          117.1549         0.324556   
    401. A(H  86,C  83,H  87)           98.1956         0.289213   
    402. A(C  82,C  83,H  88)          110.9731         0.325433   
    403. A(H  86,C  83,H  88)          115.3138         0.289958   
    404. A(H  87,C  83,H  88)          104.8519         0.290116   
    405. A(C  79,C  89,C  91)          115.5497         0.358599   
    406. A(C  79,C  89,H  92)          107.1650         0.319490   
    407. A(C  91,C  89,H  92)          108.0003         0.321920   
    408. A(C  79,C  89,H  93)          114.9386         0.319800   
    409. A(C  91,C  89,H  93)          111.2064         0.322233   
    410. A(H  92,C  89,H  93)           98.1986         0.288399   
    411. A(H  95,C  91,H  96)          112.4336         0.288393   
    412. A(C  89,C  91,C  94)          117.8757         0.363190   
    413. A(C  89,C  91,H  95)          110.9427         0.322150   
    414. A(C  94,C  91,H  95)          105.1997         0.323645   
    415. A(C  89,C  91,H  96)          108.3014         0.321996   
    416. A(C  94,C  91,H  96)          101.8582         0.323490   
    417. A(C  91,C  94,C  97)          115.6291         0.365922   
    418. A(C  91,C  94,H  98)          104.4166         0.323841   
    419. A(C  97,C  94,H  98)          108.9912         0.324669   
    420. A(C  91,C  94,H  99)          104.3785         0.324132   
    421. A(C  97,C  94,H  99)          109.1441         0.324961   
    422. A(H  98,C  94,H  99)          114.3576         0.289105   
    423. A(C  94,C  97,H 100)          111.3640         0.324807   
    424. A(C  94,C  97,H 101)          114.5382         0.324960   
    425. A(H 100,C  97,H 101)          102.0150         0.289221   
    426. A(C  94,C  97,H 102)          111.3632         0.324961   
    427. A(H 100,C  97,H 102)          114.0796         0.289222   
    428. A(H 101,C  97,H 102)          102.9686         0.289351   
    429. A(C  70,C 103,S 104)          120.5956         0.428791   
    430. A(C  70,C 103,C 107)          130.7340         0.419473   
    431. A(S 104,C 103,C 107)          108.6507         0.447371   
    432. A(C 103,S 104,C 105)           94.8439         0.452043   
    433. A(S 104,C 105,C 106)          110.5460         0.439517   
    434. A(S 104,C 105,C 109)          128.0002         0.437681   
    435. A(C 106,C 105,C 109)          121.4453         0.430687   
    436. A(C 105,C 106,C 107)          110.0199         0.417806   
    437. A(C 105,C 106,C 110)          117.6129         0.424786   
    438. A(C 107,C 106,C 110)          132.3283         0.410435   
    439. A(C 103,C 107,C 106)          114.9243         0.420218   
    440. A(C 103,C 107,H 108)          122.9703         0.355825   
    441. A(C 106,C 107,H 108)          122.0811         0.342561   
    442. A(C 105,C 109,C 112)          121.7181         0.428402   
    443. A(C 105,C 109,O 118)          120.9289         0.421011   
    444. A(C 112,C 109,O 118)          117.2964         0.420527   
    445. A(C 106,C 110,O 144)          117.4559         0.411039   
    446. A(C 111,C 110,O 144)          122.5335         0.413010   
    447. A(C 106,C 110,C 111)          119.9520         0.419267   
    448. A(C 110,C 111,C 112)          121.5832         0.426337   
    449. A(C 110,C 111,S 113)          129.9441         0.432169   
    450. A(C 112,C 111,S 113)          108.4527         0.437384   
    451. A(C 109,C 112,C 111)          117.2673         0.429680   
    452. A(C 109,C 112,C 115)          130.6548         0.417923   
    453. A(C 111,C 112,C 115)          112.0552         0.419645   
    454. A(C 111,S 113,C 114)           95.2477         0.453783   
    455. A(S 113,C 114,C 115)          109.9904         0.455730   
    456. A(S 113,C 114,H 116)          122.0240         0.366244   
    457. A(C 115,C 114,H 116)          127.9808         0.359796   
    458. A(C 112,C 115,C 114)          113.7086         0.427157   
    459. A(C 112,C 115,H 117)          124.6101         0.344852   
    460. A(C 114,C 115,H 117)          121.6788         0.360017   
    461. A(C 109,O 118,C 119)          113.2397         0.399756   
    462. A(O 118,C 119,C 120)          109.0436         0.371726   
    463. A(O 118,C 119,H 121)          109.7864         0.333783   
    464. A(C 120,C 119,H 121)          110.3749         0.321415   
    465. A(O 118,C 119,H 122)          109.4302         0.332845   
    466. A(C 120,C 119,H 122)          109.6637         0.320525   
    467. A(H 121,C 119,H 122)          108.5275         0.289453   
    468. A(C 119,C 120,C 123)          113.0396         0.357172   
    469. A(C 130,C 120,H 131)          107.3118         0.318716   
    470. A(C 119,C 120,C 130)          113.4227         0.355963   
    471. A(C 123,C 120,C 130)          108.2177         0.355695   
    472. A(C 119,C 120,H 131)          106.3148         0.319988   
    473. A(C 123,C 120,H 131)          108.2581         0.319757   
    474. A(C 120,C 123,C 124)          114.0061         0.361652   
    475. A(C 120,C 123,H 128)          110.9212         0.320270   
    476. A(C 124,C 123,H 128)          109.1764         0.324369   
    477. A(C 120,C 123,H 129)          109.0451         0.320099   
    478. A(C 124,C 123,H 129)          108.5701         0.324195   
    479. A(H 128,C 123,H 129)          104.6804         0.288499   
    480. A(H 125,C 124,H 127)          106.5629         0.289667   
    481. A(H 126,C 124,H 127)          109.3013         0.289398   
    482. A(C 123,C 124,H 125)          112.9535         0.325012   
    483. A(C 123,C 124,H 126)          109.9074         0.324695   
    484. A(H 125,C 124,H 126)          106.7906         0.289468   
    485. A(C 123,C 124,H 127)          111.1498         0.324929   
    486. A(C 120,C 130,C 132)          114.8950         0.359283   
    487. A(C 120,C 130,H 133)          108.9764         0.318988   
    488. A(C 132,C 130,H 133)          109.1363         0.323139   
    489. A(C 120,C 130,H 134)          109.6742         0.318984   
    490. A(C 132,C 130,H 134)          109.2751         0.323134   
    491. A(H 133,C 130,H 134)          104.3553         0.288229   
    492. A(C 130,C 132,C 135)          112.1186         0.364145   
    493. A(C 130,C 132,H 136)          108.8125         0.323984   
    494. A(C 135,C 132,H 136)          108.2073         0.323971   
    495. A(C 130,C 132,H 137)          111.0638         0.323475   
    496. A(C 135,C 132,H 137)          110.2680         0.323462   
    497. A(H 136,C 132,H 137)          106.1388         0.289239   
    498. A(C 132,C 135,C 138)          111.3609         0.365675   
    499. A(C 132,C 135,H 139)          109.9942         0.323513   
    500. A(C 138,C 135,H 139)          108.9949         0.324829   
    501. A(C 132,C 135,H 140)          110.6192         0.323463   
    502. A(C 138,C 135,H 140)          109.9415         0.324779   
    503. A(H 139,C 135,H 140)          105.7668         0.288849   
    504. A(C 135,C 138,H 141)          112.1473         0.325084   
    505. A(C 135,C 138,H 142)          110.6106         0.325142   
    506. A(H 141,C 138,H 142)          108.8181         0.289373   
    507. A(C 135,C 138,H 143)          110.4055         0.324926   
    508. A(H 141,C 138,H 143)          106.6827         0.289190   
    509. A(H 142,C 138,H 143)          108.0129         0.289239   
    510. A(C 110,O 144,C 145)          111.0720         0.392965   
    511. A(O 144,C 145,C 146)          115.6415         0.367860   
    512. A(C 146,C 145,H 154)          108.9818         0.319132   
    513. A(O 144,C 145,C 153)          109.5282         0.367038   
    514. A(C 146,C 145,C 153)          107.4677         0.354122   
    515. A(O 144,C 145,H 154)          109.9057         0.330343   
    516. A(C 153,C 145,H 154)          104.7327         0.318453   
    517. A(C 145,C 146,C 147)          122.3632         0.360085   
    518. A(C 145,C 146,H 148)          108.1091         0.320024   
    519. A(C 147,C 146,H 148)          103.6174         0.324525   
    520. A(C 145,C 146,H 149)          106.8149         0.319339   
    521. A(C 147,C 146,H 149)          106.2853         0.323826   
    522. A(H 148,C 146,H 149)          109.1925         0.289123   
    523. A(C 146,C 147,H 150)          111.3101         0.325145   
    524. A(C 146,C 147,H 151)          114.6555         0.324261   
    525. A(H 150,C 147,H 151)          106.4181         0.290022   
    526. A(C 146,C 147,H 152)          108.0814         0.324134   
    527. A(H 150,C 147,H 152)          112.9693         0.289913   
    528. A(H 151,C 147,H 152)          103.2538         0.289161   
    529. A(C 145,C 153,C 155)          112.4271         0.358433   
    530. A(C 145,C 153,H 156)          107.1133         0.318688   
    531. A(C 155,C 153,H 156)          110.3584         0.323113   
    532. A(C 145,C 153,H 157)          110.1069         0.318691   
    533. A(C 155,C 153,H 157)          107.9591         0.323116   
    534. A(H 156,C 153,H 157)          108.8338         0.288581   
    535. A(C 153,C 155,C 158)          111.2921         0.363463   
    536. A(C 153,C 155,H 159)          112.2924         0.323324   
    537. A(C 158,C 155,H 159)          104.8620         0.323187   
    538. A(C 153,C 155,H 160)          109.0638         0.323646   
    539. A(C 158,C 155,H 160)          110.6593         0.323508   
    540. A(H 159,C 155,H 160)          108.5983         0.289213   
    541. A(C 155,C 158,C 161)          109.9421         0.364853   
    542. A(C 155,C 158,H 162)          106.0994         0.323184   
    543. A(C 161,C 158,H 162)          112.3793         0.324509   
    544. A(C 155,C 158,H 163)          112.2369         0.323156   
    545. A(C 161,C 158,H 163)          108.6595         0.324480   
    546. A(H 162,C 158,H 163)          107.5343         0.288910   
    547. A(C 158,C 161,H 164)          111.0824         0.324713   
    548. A(C 158,C 161,H 165)          109.3343         0.324764   
    549. A(H 164,C 161,H 165)          110.3113         0.289326   
    550. A(C 158,C 161,H 166)          113.6609         0.324545   
    551. A(H 164,C 161,H 166)          108.1037         0.289140   
    552. A(H 165,C 161,H 166)          104.1223         0.289183   
    553. A(C  11,C 167,S 168)          119.9866         0.418383   
    554. A(C  11,C 167,C 170)          132.7837         0.423124   
    555. A(S 168,C 167,C 170)          107.2269         0.441133   
    556. A(C 167,S 168,C 169)           93.9372         0.445963   
    557. A(S 168,C 169,C 171)          110.6044         0.453844   
    558. A(S 168,C 169,H 172)          122.7331         0.363076   
    559. A(C 171,C 169,H 172)          126.6625         0.361415   
    560. A(C 167,C 170,C 171)          115.7790         0.437928   
    561. A(C 167,C 170,C 174)          138.0193         0.423598   
    562. A(C 171,C 170,C 174)          106.1991         0.415848   
    563. A(C 169,C 171,C 170)          112.4412         0.440570   
    564. A(C 169,C 171,S 173)          128.5497         0.430101   
    565. A(C 170,C 171,S 173)          119.0090         0.419696   
    566. A(C 171,S 173,C 175)           86.3155         0.414048   
    567. A(C 170,C 174,C 175)          114.6255         0.411841   
    568. A(C 170,C 174,H 176)          124.1271         0.342026   
    569. A(C 175,C 174,H 176)          121.2443         0.349628   
    570. A(S 173,C 175,C 174)          113.8221         0.419918   
    571. A(S 173,C 175,C 177)          113.4646         0.405746   
    572. A(C 174,C 175,C 177)          132.6946         0.407299   
    573. A(C 175,C 177,O 178)          124.2066         0.449323   
    574. A(C 175,C 177,O 179)          113.4313         0.408553   
    575. A(O 178,C 177,O 179)          122.2112         0.466928   
    576. A(C 177,O 179,C 180)          113.8796         0.401765   
    577. A(O 179,C 180,C 181)          115.7928         0.368341   
    578. A(O 179,C 180,H 182)          108.8712         0.330440   
    579. A(C 181,C 180,H 182)          109.9813         0.320084   
    580. A(O 179,C 180,H 183)          105.6953         0.330743   
    581. A(C 181,C 180,H 183)          109.5868         0.320373   
    582. A(H 182,C 180,H 183)          106.4462         0.288981   
    583. A(C 180,C 181,C 184)          113.1266         0.354145   
    584. A(C 180,C 181,C 191)          112.8404         0.354888   
    585. A(C 184,C 181,C 191)          103.5990         0.352686   
    586. A(C 180,C 181,H 192)          108.1085         0.320026   
    587. A(C 184,C 181,H 192)          108.6242         0.318113   
    588. A(C 191,C 181,H 192)          110.4503         0.318755   
    589. A(C 181,C 184,C 185)          115.8251         0.360460   
    590. A(C 181,C 184,H 186)          109.2765         0.317852   
    591. A(C 185,C 184,H 186)          109.9156         0.325259   
    592. A(C 181,C 184,H 187)          110.3391         0.317827   
    593. A(C 185,C 184,H 187)          106.7322         0.325233   
    594. A(H 186,C 184,H 187)          104.0899         0.288153   
    595. A(C 184,C 185,H 188)          111.4769         0.326371   
    596. A(C 184,C 185,H 189)          109.6065         0.325747   
    597. A(H 188,C 185,H 189)          107.8739         0.289526   
    598. A(C 184,C 185,H 190)          112.4913         0.326144   
    599. A(H 188,C 185,H 190)          107.2725         0.289863   
    600. A(H 189,C 185,H 190)          107.9426         0.289335   
    601. A(C 181,C 191,C 193)          118.2708         0.358774   
    602. A(C 181,C 191,H 194)          107.1529         0.318310   
    603. A(C 193,C 191,H 194)          109.0482         0.322950   
    604. A(C 181,C 191,H 195)          110.6195         0.318296   
    605. A(C 193,C 191,H 195)          107.1631         0.322936   
    606. A(H 194,C 191,H 195)          103.6141         0.287847   
    607. A(C 191,C 193,C 196)          107.6246         0.362148   
    608. A(C 191,C 193,H 197)          112.7833         0.323990   
    609. A(C 196,C 193,H 197)          109.5105         0.322210   
    610. A(C 191,C 193,H 198)          109.3590         0.323584   
    611. A(C 196,C 193,H 198)          112.1723         0.321807   
    612. A(H 197,C 193,H 198)          105.4631         0.289284   
    613. A(C 193,C 196,C 199)          113.5304         0.365006   
    614. A(C 193,C 196,H 200)          108.6100         0.321627   
    615. A(C 199,C 196,H 200)          110.6474         0.325854   
    616. A(C 193,C 196,H 201)          111.9200         0.321583   
    617. A(C 199,C 196,H 201)          107.5472         0.325810   
    618. A(H 200,C 196,H 201)          104.1938         0.288591   
    619. A(C 196,C 199,H 202)          110.2331         0.326473   
    620. A(C 196,C 199,H 203)          109.6617         0.326203   
    621. A(H 202,C 199,H 203)          110.5481         0.289446   
    622. A(C 196,C 199,H 204)          113.4985         0.326685   
    623. A(H 202,C 199,H 204)          106.7492         0.289853   
    624. A(H 203,C 199,H 204)          106.0459         0.289625   
    625. D(C   2,C   1,C   0,C   5)     -0.9758         0.026042   
    626. D(C   2,C   1,C   0,O  14)    176.4126         0.026042   
    627. D(S   6,C   1,C   0,C   5)    179.5954         0.026042   
    628. D(C   3,C   2,C   1,S   6)   -172.6154         0.025977   
    629. D(C   8,C   2,C   1,C   0)   -168.7614         0.025977   
    630. D(C   3,C   2,C   1,C   0)      7.9168         0.025977   
    631. D(C   4,C   3,C   2,C   1)    -10.4085         0.019603   
    632. D(C   4,C   3,C   2,C   8)    165.4740         0.019603   
    633. D(O  40,C   3,C   2,C   1)    173.4111         0.019603   
    634. D(C   5,C   4,C   3,O  40)   -176.3047         0.021086   
    635. D(C   5,C   4,C   3,C   2)      7.0407         0.021086   
    636. D(S  10,C   4,C   3,C   2)   -171.7276         0.021086   
    637. D(C   0,C   5,C   4,S  10)    178.3262         0.027347   
    638. D(C   4,C   5,C   0,C   1)     -2.6073         0.025653   
    639. D(C   4,C   5,C   0,O  14)    179.9765         0.025653   
    640. D(C   0,C   5,C   4,C   3)     -0.5801         0.027347   
    641. D(C  12,C   5,C   0,C   1)    176.4427         0.025653   
    642. D(C  12,C   5,C   4,C   3)   -179.7487         0.027347   
    643. D(C   7,S   6,C   1,C   0)    167.0880         0.005200   
    644. D(C   7,S   6,C   1,C   2)    -12.3781         0.005200   
    645. D(C  66,C   7,S   6,C   1)   -169.1893         0.005905   
    646. D(C   8,C   7,S   6,C   1)     11.3772         0.005905   
    647. D(H   9,C   8,C   2,C   1)    173.2141         0.016254   
    648. D(C   7,C   8,C   2,C   3)   -178.1126         0.016254   
    649. D(C   2,C   8,C   7,C  66)    173.1701         0.028684   
    650. D(C   2,C   8,C   7,S   6)     -7.4499         0.028684   
    651. D(C   7,C   8,C   2,C   1)     -1.8553         0.016254   
    652. D(H   9,C   8,C   7,S   6)    177.6816         0.028684   
    653. D(C  11,S  10,C   4,C   5)     -1.4335         0.004883   
    654. D(C  11,S  10,C   4,C   3)    177.4542         0.004883   
    655. D(C 167,C  11,S  10,C   4)   -177.1597         0.005196   
    656. D(C  12,C  11,S  10,C   4)      3.4486         0.005196   
    657. D(C  11,C  12,C   5,C   4)      3.3906         0.018619   
    658. D(C  11,C  12,C   5,C   0)   -175.7213         0.018619   
    659. D(H  13,C  12,C   5,C   0)      2.1748         0.018619   
    660. D(C   5,C  12,C  11,S  10)     -4.4996         0.030731   
    661. D(C   5,C  12,C  11,C 167)    176.1349         0.030731   
    662. D(H  13,C  12,C  11,S  10)    177.7131         0.030731   
    663. D(C  15,O  14,C   0,C   5)     84.1988         0.023566   
    664. D(C  15,O  14,C   0,C   1)    -93.1073         0.023566   
    665. D(C  16,C  15,O  14,C   0)    173.0294         0.017623   
    666. D(H  17,C  15,O  14,C   0)     50.9882         0.017623   
    667. D(C  19,C  16,C  15,O  14)   -160.9747         0.010908   
    668. D(C  26,C  16,C  15,O  14)     80.9747         0.010908   
    669. D(C  19,C  16,C  15,H  17)    -41.2417         0.010908   
    670. D(C  20,C  19,C  16,C  15)     65.7740         0.010188   
    671. D(C  20,C  19,C  16,C  26)   -171.9043         0.010188   
    672. D(H  21,C  19,C  16,C  15)    -56.1291         0.010188   
    673. D(H  23,C  20,C  19,C  16)    -71.4156         0.011675   
    674. D(H  23,C  20,C  19,H  21)     52.5719         0.011675   
    675. D(H  24,C  20,C  19,C  16)    170.0707         0.011675   
    676. D(C  28,C  26,C  16,C  19)    173.0749         0.009939   
    677. D(H  29,C  26,C  16,C  15)    175.2828         0.009939   
    678. D(C  28,C  26,C  16,C  15)    -64.5278         0.009939   
    679. D(C  31,C  28,C  26,C  16)    177.5227         0.010959   
    680. D(C  31,C  28,C  26,H  29)    -61.0767         0.010959   
    681. D(H  32,C  28,C  26,C  16)     57.9714         0.010959   
    682. D(C  34,C  31,C  28,H  32)    -47.6473         0.011430   
    683. D(C  34,C  31,C  28,C  26)   -168.1852         0.011430   
    684. D(H  35,C  31,C  28,C  26)     69.4658         0.011430   
    685. D(H  37,C  34,C  31,C  28)    -62.2785         0.012064   
    686. D(H  37,C  34,C  31,H  35)     60.1978         0.012064   
    687. D(H  38,C  34,C  31,C  28)    179.0916         0.012064   
    688. D(C  41,O  40,C   3,C   4)    157.0345         0.021817   
    689. D(C  41,O  40,C   3,C   2)    -26.8390         0.021817   
    690. D(H  43,C  41,O  40,C   3)     99.3935         0.019033   
    691. D(C  42,C  41,O  40,C   3)   -142.2295         0.019033   
    692. D(C  52,C  42,C  41,O  40)   -154.1765         0.009859   
    693. D(C  45,C  42,C  41,H  43)     81.6224         0.009859   
    694. D(C  45,C  42,C  41,O  40)    -33.8633         0.009859   
    695. D(C  46,C  45,C  42,C  41)     90.2319         0.010250   
    696. D(C  46,C  45,C  42,C  52)   -143.6873         0.010250   
    697. D(H  47,C  45,C  42,C  41)    -32.2846         0.010250   
    698. D(H  49,C  46,C  45,C  42)    -58.7440         0.011675   
    699. D(H  49,C  46,C  45,H  47)     64.4791         0.011675   
    700. D(H  50,C  46,C  45,C  42)   -178.8651         0.011675   
    701. D(C  54,C  52,C  42,C  41)    -54.7968         0.009724   
    702. D(C  54,C  52,C  42,C  45)   -179.5015         0.009724   
    703. D(H  55,C  52,C  42,C  41)   -174.8385         0.009724   
    704. D(C  57,C  54,C  52,C  42)   -177.4373         0.010930   
    705. D(C  57,C  54,C  52,H  55)    -54.8219         0.010930   
    706. D(H  58,C  54,C  52,C  42)     61.4593         0.010930   
    707. D(C  60,C  57,C  54,C  52)   -177.0065         0.011151   
    708. D(C  60,C  57,C  54,H  58)    -57.7951         0.011151   
    709. D(H  61,C  57,C  54,C  52)     63.3958         0.011151   
    710. D(H  63,C  60,C  57,C  54)    -61.9617         0.011923   
    711. D(H  63,C  60,C  57,H  61)     60.2967         0.011923   
    712. D(H  64,C  60,C  57,C  54)    179.3683         0.011923   
    713. D(C  67,C  66,C   7,S   6)      0.0000         0.018996 C 
    714. D(C  67,C  66,C   7,C   8)    179.3656         0.018996   
    715. D(S  68,C  66,C   7,S   6)   -179.3655         0.018996   
    716. D(S  68,C  66,C   7,C   8)     -0.0000         0.018996 C 
    717. D(C  69,C  67,C  66,C   7)    179.7332         0.031169   
    718. D(C  69,C  67,C  66,S  68)     -0.8903         0.031169   
    719. D(S  71,C  67,C  66,C   7)      1.1221         0.031169   
    720. D(C  70,S  68,C  66,C   7)    177.6383         0.005638   
    721. D(C  70,S  68,C  66,C  67)     -1.7620         0.005638   
    722. D(C  70,C  69,C  67,C  66)      3.8874         0.026100   
    723. D(C  70,C  69,C  67,S  71)   -177.1804         0.026100   
    724. D(C  73,C  69,C  67,C  66)   -172.9823         0.026100   
    725. D(C  69,C  70,S  68,C  66)      3.6324         0.005051   
    726. D(C 103,C  70,S  68,C  66)   -174.9762         0.005051   
    727. D(S  68,C  70,C  69,C  67)     -5.4796         0.034696   
    728. D(S  68,C  70,C  69,C  73)    169.7253         0.034696   
    729. D(C 103,C  70,C  69,C  67)    172.7486         0.034696   
    730. D(C  72,S  71,C  67,C  66)    177.7900         0.003434   
    731. D(C  72,S  71,C  67,C  69)     -0.7024         0.003434   
    732. D(C  73,C  72,S  71,C  67)     -5.1553         0.004488   
    733. D(C  75,C  72,S  71,C  67)    176.3232         0.004488   
    734. D(C  72,C  73,C  69,C  67)    -10.8485         0.022890   
    735. D(C  72,C  73,C  69,C  70)    173.4703         0.022890   
    736. D(F  74,C  73,C  69,C  67)    166.7388         0.022890   
    737. D(C  69,C  73,C  72,S  71)     11.1996         0.026452   
    738. D(C  69,C  73,C  72,C  75)   -170.7346         0.026452   
    739. D(F  74,C  73,C  72,S  71)   -166.3392         0.026452   
    740. D(O  76,C  75,C  72,S  71)     38.1401         0.016501   
    741. D(O  76,C  75,C  72,C  73)   -139.8756         0.016501   
    742. D(O  77,C  75,C  72,S  71)   -134.8123         0.016501   
    743. D(C  78,O  77,C  75,C  72)    -83.8990         0.026107   
    744. D(C  78,O  77,C  75,O  76)    102.4447         0.026107   
    745. D(C  79,C  78,O  77,C  75)   -149.5827         0.018592   
    746. D(H  80,C  78,O  77,C  75)     98.1299         0.018592   
    747. D(C  82,C  79,C  78,O  77)    178.7744         0.010704   
    748. D(C  82,C  79,C  78,H  80)    -65.0194         0.010704   
    749. D(C  89,C  79,C  78,O  77)     56.8162         0.010704   
    750. D(C  83,C  82,C  79,C  78)     45.3609         0.009452   
    751. D(C  83,C  82,C  79,C  89)    166.0770         0.009452   
    752. D(H  84,C  82,C  79,C  78)    -79.1554         0.009452   
    753. D(H  86,C  83,C  82,C  79)    -78.1545         0.011586   
    754. D(H  86,C  83,C  82,H  84)     47.0113         0.011586   
    755. D(H  87,C  83,C  82,C  79)    170.9571         0.011586   
    756. D(C  91,C  89,C  79,C  78)   -112.8915         0.009932   
    757. D(C  91,C  89,C  79,C  82)    132.5013         0.009932   
    758. D(H  92,C  89,C  79,C  78)    126.7014         0.009932   
    759. D(C  94,C  91,C  89,C  79)     81.3928         0.010825   
    760. D(C  94,C  91,C  89,H  92)   -158.6553         0.010825   
    761. D(H  95,C  91,C  89,C  79)    -39.9402         0.010825   
    762. D(C  97,C  94,C  91,C  89)    167.7689         0.011417   
    763. D(C  97,C  94,C  91,H  95)    -67.9873         0.011417   
    764. D(H  98,C  94,C  91,C  89)     48.0335         0.011417   
    765. D(H 100,C  97,C  94,C  91)    -63.5229         0.011759   
    766. D(H 100,C  97,C  94,H  98)     53.6799         0.011759   
    767. D(H 101,C  97,C  94,C  91)   -178.6293         0.011759   
    768. D(S 104,C 103,C  70,S  68)     -0.0000         0.017099 C 
    769. D(S 104,C 103,C  70,C  69)   -178.1922         0.017099   
    770. D(C 107,C 103,C  70,C  69)     -0.0000         0.017099 C 
    771. D(C 107,C 103,C  70,S  68)    178.1922         0.017099   
    772. D(C 105,S 104,C 103,C  70)   -172.3102         0.005707   
    773. D(C 105,S 104,C 103,C 107)      9.1355         0.005707   
    774. D(C 106,C 105,S 104,C 103)     -9.2224         0.005165   
    775. D(C 109,C 105,S 104,C 103)    171.8380         0.005165   
    776. D(C 107,C 106,C 105,S 104)      6.4147         0.026034   
    777. D(C 107,C 106,C 105,C 109)   -174.5647         0.026034   
    778. D(C 110,C 106,C 105,S 104)   -175.5753         0.026034   
    779. D(C 106,C 107,C 103,C  70)    174.6258         0.027882   
    780. D(C 106,C 107,C 103,S 104)     -7.0165         0.027882   
    781. D(H 108,C 107,C 103,C  70)     -3.6159         0.027882   
    782. D(C 103,C 107,C 106,C 105)      0.3709         0.017447   
    783. D(C 103,C 107,C 106,C 110)   -177.2437         0.017447   
    784. D(H 108,C 107,C 106,C 105)    178.6299         0.017447   
    785. D(C 112,C 109,C 105,S 104)    178.3042         0.024789   
    786. D(C 112,C 109,C 105,C 106)     -0.5319         0.024789   
    787. D(O 118,C 109,C 105,S 104)      1.1129         0.024789   
    788. D(C 111,C 110,C 106,C 105)     -6.9350         0.021104   
    789. D(C 111,C 110,C 106,C 107)    170.5355         0.021104   
    790. D(O 144,C 110,C 106,C 105)    175.7795         0.021104   
    791. D(C 112,C 111,C 110,C 106)      7.8189         0.022321   
    792. D(C 112,C 111,C 110,O 144)   -175.0384         0.022321   
    793. D(S 113,C 111,C 110,C 106)   -170.3568         0.022321   
    794. D(C 111,C 112,C 109,C 105)      1.0885         0.024454   
    795. D(C 111,C 112,C 109,O 118)    178.3774         0.024454   
    796. D(C 115,C 112,C 109,C 105)   -177.0250         0.024454   
    797. D(C 109,C 112,C 111,C 110)     -4.7149         0.025674   
    798. D(C 109,C 112,C 111,S 113)    173.8108         0.025674   
    799. D(C 115,C 112,C 111,C 110)    173.7410         0.025674   
    800. D(C 114,S 113,C 111,C 110)   -175.0872         0.005011   
    801. D(C 114,S 113,C 111,C 112)      6.5510         0.005011   
    802. D(C 115,C 114,S 113,C 111)     -3.4846         0.006091   
    803. D(H 116,C 114,S 113,C 111)    177.2568         0.006091   
    804. D(C 114,C 115,C 112,C 109)   -176.2385         0.018592   
    805. D(C 114,C 115,C 112,C 111)      5.5708         0.018592   
    806. D(H 117,C 115,C 112,C 109)      3.1909         0.018592   
    807. D(C 112,C 115,C 114,S 113)     -0.5084         0.031732   
    808. D(C 112,C 115,C 114,H 116)    178.6942         0.031732   
    809. D(H 117,C 115,C 114,S 113)   -179.9565         0.031732   
    810. D(C 119,O 118,C 109,C 105)    -79.4330         0.022780   
    811. D(C 119,O 118,C 109,C 112)    103.2555         0.022780   
    812. D(C 120,C 119,O 118,C 109)    173.3580         0.016988   
    813. D(H 121,C 119,O 118,C 109)     52.3198         0.016988   
    814. D(C 123,C 120,C 119,O 118)   -142.8349         0.010186   
    815. D(C 123,C 120,C 119,H 121)    -22.1567         0.010186   
    816. D(C 130,C 120,C 119,O 118)     93.4905         0.010186   
    817. D(C 124,C 123,C 120,C 119)     62.4436         0.010102   
    818. D(C 124,C 123,C 120,C 130)   -171.0625         0.010102   
    819. D(H 128,C 123,C 120,C 119)    -61.2818         0.010102   
    820. D(H 125,C 124,C 123,C 120)    -73.3757         0.011685   
    821. D(H 125,C 124,C 123,H 128)     51.2870         0.011685   
    822. D(H 126,C 124,C 123,C 120)    167.4792         0.011685   
    823. D(C 132,C 130,C 120,C 119)    -45.8730         0.009738   
    824. D(C 132,C 130,C 120,C 123)   -172.1437         0.009738   
    825. D(H 133,C 130,C 120,C 119)   -168.6758         0.009738   
    826. D(C 135,C 132,C 130,C 120)   -172.5169         0.011281   
    827. D(C 135,C 132,C 130,H 133)    -49.8000         0.011281   
    828. D(H 136,C 132,C 130,C 120)     67.8283         0.011281   
    829. D(C 138,C 135,C 132,C 130)   -171.6545         0.011276   
    830. D(C 138,C 135,C 132,H 136)    -51.6463         0.011276   
    831. D(H 139,C 135,C 132,C 130)     67.4005         0.011276   
    832. D(H 141,C 138,C 135,C 132)    -57.0680         0.011818   
    833. D(H 141,C 138,C 135,H 139)     64.4604         0.011818   
    834. D(H 142,C 138,C 135,C 132)   -178.7464         0.011818   
    835. D(C 145,O 144,C 110,C 106)   -111.8034         0.020191   
    836. D(C 145,O 144,C 110,C 111)     70.9864         0.020191   
    837. D(C 146,C 145,O 144,C 110)     92.9944         0.015677   
    838. D(C 153,C 145,O 144,C 110)   -145.4365         0.015677   
    839. D(C 147,C 146,C 145,O 144)     76.8015         0.009799   
    840. D(C 147,C 146,C 145,C 153)    -45.8659         0.009799   
    841. D(H 148,C 146,C 145,O 144)    -43.2318         0.009799   
    842. D(H 150,C 147,C 146,C 145)    -53.7628         0.011489   
    843. D(H 150,C 147,C 146,H 148)     68.3878         0.011489   
    844. D(H 151,C 147,C 146,C 145)   -174.6183         0.011489   
    845. D(C 155,C 153,C 145,O 144)     76.0386         0.009568   
    846. D(C 155,C 153,C 145,C 146)   -157.5943         0.009568   
    847. D(H 156,C 153,C 145,O 144)    -45.3518         0.009568   
    848. D(C 158,C 155,C 153,C 145)    167.8260         0.011190   
    849. D(C 158,C 155,C 153,H 156)    -72.6559         0.011190   
    850. D(H 159,C 155,C 153,C 145)     50.6131         0.011190   
    851. D(C 161,C 158,C 155,C 153)   -172.5197         0.011135   
    852. D(C 161,C 158,C 155,H 159)    -50.8760         0.011135   
    853. D(H 162,C 158,C 155,C 153)     65.7261         0.011135   
    854. D(H 164,C 161,C 158,C 155)    -57.2876         0.011673   
    855. D(H 164,C 161,C 158,H 162)     60.6437         0.011673   
    856. D(H 165,C 161,C 158,C 155)   -179.2608         0.011673   
    857. D(S 168,C 167,C  11,S  10)      0.0000         0.016905 C 
    858. D(S 168,C 167,C  11,C  12)    179.3174         0.016905   
    859. D(C 170,C 167,C  11,S  10)   -179.3174         0.016905   
    860. D(C 170,C 167,C  11,C  12)      0.0000         0.016905 C 
    861. D(C 169,S 168,C 167,C  11)    179.8506         0.004690   
    862. D(C 169,S 168,C 167,C 170)     -0.6739         0.004690   
    863. D(C 171,C 169,S 168,C 167)      0.0866         0.005632   
    864. D(H 172,C 169,S 168,C 167)   -179.8717         0.005632   
    865. D(C 171,C 170,C 167,C  11)   -179.4925         0.031314   
    866. D(C 171,C 170,C 167,S 168)      1.1265         0.031314   
    867. D(C 174,C 170,C 167,C  11)     -0.1896         0.031314   
    868. D(C 170,C 171,C 169,S 168)      0.5361         0.033649   
    869. D(C 170,C 171,C 169,H 172)   -179.5075         0.033649   
    870. D(S 173,C 171,C 169,S 168)   -179.6295         0.033649   
    871. D(C 169,C 171,C 170,C 167)     -1.1242         0.025113   
    872. D(C 169,C 171,C 170,C 174)    179.3614         0.025113   
    873. D(S 173,C 171,C 170,C 167)    179.0240         0.025113   
    874. D(C 175,S 173,C 171,C 169)   -178.6138         0.003720   
[...]
 C    169 168  12     1.731219210510    93.97977076   180.49917380
 C    168  12  11     1.415824991592   131.86904516   180.35344961
 C    170 169 168     1.383111156563   110.01772128   359.57550475
 H    170 169 168     1.095434447343   121.01385692   180.06295543
 S    172 170 169     1.750778725764   132.49312136   180.96399450
 C    171 168  12     1.438859376760   137.21234511   358.38230554
 C    175 171 168     1.383755917402   112.24587644   181.31463873
 H    175 171 168     1.095529003593   125.63047884     1.46544785
 C    176 175 171     1.476761256688   133.28734757   180.06694091
 O    178 176 175     1.223726596105   121.01269567   183.17152172
 O    178 176 175     1.355100023557   115.18157780     2.82800078
 C    180 178 176     1.458284454707   115.12453951   166.25099216
 C    181 180 178     1.550242355293   114.25588998    86.88089560
 H    181 180 178     1.107897475701   107.96319263   323.38380556
 H    181 180 178     1.105334656429   104.22372695   207.89558587
 C    182 181 180     1.551391691918   112.48189352   228.62964349
 C    185 182 181     1.530893754683   118.12319242    65.43035829
 H    185 182 181     1.114769408069   107.82584978   300.57024395
 H    185 182 181     1.111786132949   106.97947468   188.14678949
 H    186 185 182     1.105894896154   112.67231441   291.77636863
 H    186 185 182     1.109760444077   109.74986662   171.69699645
 H    186 185 182     1.107668854383   111.57566370    51.92023188
 C    182 181 180     1.543340146640   112.33159835   107.26745645
 H    182 181 180     1.112350799440   107.21606479   347.66120283
 C    192 182 181     1.533615061784   118.40990894   299.08063226
 H    192 182 181     1.111991137543   107.30227997   176.23222907
 H    192 182 181     1.114943444563   108.28731008    63.30544752
 C    194 192 182     1.538348187897   110.64183025   186.88536087
 H    194 192 182     1.113253822938   110.77112781    64.86432047
 H    194 192 182     1.113212091489   109.91304511   308.23456915
 C    197 194 192     1.531371181321   115.29139134   182.22542872
 H    197 194 192     1.113184619143   108.20797036    59.22423563
 H    197 194 192     1.113316876761   108.95550156   305.36507811
 H    200 197 194     1.110011316271   111.65314877   307.53577874
 H    200 197 194     1.109140493741   111.06142159   186.82370314
 H    200 197 194     1.108567407920   111.33507620    68.08345333

---------------------------
INTERNAL COORDINATES (A.U.)
---------------------------
 C      0   0   0     0.000000000000     0.00000000     0.00000000
 C      1   0   0     2.632572843904     0.00000000     0.00000000
 C      2   1   0     2.727033790037   124.04951450     0.00000000
 C      3   2   1     2.696817722374   117.98746061     6.54959137
 C      4   3   2     2.657325877738   117.21282676   351.45401758
 C      1   2   3     2.679337893879   117.67623890   359.02918016
 S      2   1   3     3.321220059564   123.58344159   183.50324406
 C      7   2   1     3.356190364625    90.48726033   170.22929124
 C      8   7   2     2.626501966882   112.15001398     6.15332119
 H      9   8   7     2.071468484771   122.11861593   179.78826792
 S      5   4   3     3.315490423419   124.91462665   185.34029238
 C     11   5   4     3.364934149900    91.32850437   178.87037493
 C     12  11   5     2.624553999493   111.65594201     1.97072690
 H     13  12  11     2.070115704750   123.94640249   177.91659461
 O      1   2   3     2.586808806730   120.36822511   180.33633093
 C     15   1   2     2.730034042725   115.26267275   264.83314443
 C     16  15   1     2.888346192268   108.19720551   174.75336013
 H     16  15   1     2.100945239960   108.14733437    53.17142466
 H     16  15   1     2.107959326137   110.12734078   296.03838832
 C     17  16  15     2.919037176403   110.91269427   200.48272834
 C     20  17  16     2.902341602281   115.24133698    64.63531080
 H     20  17  16     2.104138942684   109.02982560   301.12657481
 H     20  17  16     2.098886042153   107.65907375   186.82190277
 H     21  20  17     2.095418531734   112.00677325   289.50591842
 H     21  20  17     2.094654916248   110.64378678   170.27898674
 H     21  20  17     2.096278539038   111.47959308    50.34019469
 C     17  16  15     2.916654249381   111.87469391    77.58109033
 H     17  16  15     2.103178170452   106.39150242   318.36083505
 C     27  17  16     2.900045115693   117.13676506   299.70534906
 H     27  17  16     2.098556312974   107.50727911   177.71213090
 H     27  17  16     2.104244196172   108.12577428    64.71756468
 C     29  27  17     2.900314430033   113.32081331   178.44798229
 H     29  27  17     2.096726234170   109.71638486    56.82304852
 H     29  27  17     2.100875722325   109.76635594   301.97713565
 C     32  29  27     2.899990601980   113.25028669   189.88396577
 H     32  29  27     2.103125356576   109.73235635    67.10138985
 H     32  29  27     2.098850071776   108.97933258   310.94003884
 H     35  32  29     2.097406275297   111.46479386   298.49761134
 H     35  32  29     2.095925541189   111.23721288   178.45062813
 H     35  32  29     2.095978550985   111.08301806    58.41605896
 O      4   3   2     2.574396151148   126.12194278   176.33628275
 C     41   4   3     2.715849679791   120.73265471   329.79905928
 C     42  41   4     2.914646950193   110.72115125   214.97622924
 H     42  41   4     2.107089758262   107.88198227    96.47144575
 H     42  41   4     2.094025065483   110.10334482   337.26769637
 C     43  42  41     2.929086327309   112.85561890   323.11769667
 C     46  43  42     2.894428821165   114.23942485    92.60157665
 H     46  43  42     2.100354811010   109.41445543   328.67551056
 H     46  43  42     2.100402088361   108.39589879   213.88952044
 H     47  46  43     2.088230035634   111.46238178   301.52504176
 H     47  46  43     2.095554006724   111.07884489   181.05130875
 H     47  46  43     2.098063371949   110.79184186    61.26845147
 C     43  42  41     2.913247154954   110.27260941   198.95642263
 H     43  42  41     2.104974490852   107.21155053    81.87059153
 C     53  43  42     2.902519936863   116.81945904   303.43343986
 H     53  43  42     2.101031655995   107.40762355   181.91956779
 H     53  43  42     2.105867213658   108.62386900    67.67911654
 C     55  53  43     2.903511071107   112.08090779   185.01697564
 H     55  53  43     2.103871477356   110.30366863    63.05410183
 H     55  53  43     2.103926941701   109.68556743   306.82336866
 C     58  55  53     2.897571387853   114.32728985   180.64649800
 H     58  55  53     2.103148151566   108.66933637    59.02996490
 H     58  55  53     2.102230671690   108.98285261   303.91071154
 H     61  58  55     2.097135235470   111.26053590   299.15524336
 H     61  58  55     2.095349358161   110.93095689   179.64472044
 H     61  58  55     2.093671276632   111.76918162    59.41105075
 C      8   7   2     2.709374368471   119.81190924   186.64150126
 C     67   8   7     2.637430887685   130.76614278     0.00000000
 S     67   8   7     3.321581733058   120.86417089   179.42592827
 C     68  67   8     2.722870236409   115.44525803   179.09309309
 C     70  68  67     2.673281073540   113.01232264     2.81825586
 S     68  67   8     3.328620896866   131.74399582     1.03925052
 C     72  68  67     3.354816021827    90.37703607   178.42204076
 C     73  72  68     2.613272414926   111.83036574   356.12375995
 F     74  73  72     2.542233659834   123.33637791   189.29845063
 C     73  72  68     2.818738968731   115.32705475   176.89366152
 O     76  73  72     2.292466405410   122.72651046    35.07733480
 O     76  73  72     2.587969379160   114.47754920   222.32817325
 C     78  76  73     2.737466494903   118.53170250   275.52170997
 C     79  78  76     2.882464030079   110.24192532   211.38649756
 H     79  78  76     2.080891514923   107.01310627    92.19103129
 H     79  78  76     2.101746046683   109.67813865   333.61095176
 C     80  79  78     2.932328265759   108.98060740   180.45624582
 C     83  80  79     2.915174435053   116.55692903    45.97638921
 H     83  80  79     2.103053979218   108.02659884   283.75624735
 H     83  80  79     2.098265139901   107.31079978   169.10388061
 H     84  83  80     2.093779531753   111.41107423   285.56359603
 H     84  83  80     2.096518434995   110.49601910   168.41447984
 H     84  83  80     2.099953539945   112.77633540    48.15094211
 C     80  79  78     2.942646586111   112.62649886    57.04034073
 H     80  79  78     2.105025252007   107.23677709   297.49447626
 C     90  80  79     2.916348362628   115.25743026   249.79673363
 H     90  80  79     2.099186262836   108.29997696   128.26872314
 H     90  80  79     2.100735928497   109.76757818    13.37938713
 C     92  90  80     2.904788896920   115.12463600    79.06671553
 H     92  90  80     2.105065146200   108.72377890   316.01300017
 H     92  90  80     2.102125543775   108.12952656   200.29768547
 C     95  92  90     2.903334936120   112.56326588   170.36121406
 H     95  92  90     2.099509457675   108.35302348    49.43508024
 H     95  92  90     2.095742785578   109.91132827   293.50226176
 H     98  95  92     2.098598848325   110.87960281   296.81566916
 H     98  95  92     2.097274640027   111.39920560   178.31806157
 H     98  95  92     2.097952275889   111.56057500    58.06285529
 C     71  70  68     2.727119380596   135.16492642   175.70212445
 S    104  71  70     3.367436537355   115.61448904   180.56106496
 C    105 104  71     3.301263001467    91.25263288   185.87909009
 C    106 105 104     2.722658103889   112.04342277   353.65932370
 C    104  71  70     2.639268853234   132.96577043     0.00000000
 H    108 104  71     2.069499852541   123.18554133   358.32447489
 C    106 105 104     2.637276843127   123.74215847   173.68058217
 C    107 106 105     2.701586535052   118.22281801   182.90232797
 C    111 107 106     2.667901194085   117.24782549   353.98835137
 C    110 106 105     2.667472178440   117.46484457   179.93850051
 S    112 111 107     3.332935309170   126.61569028   186.32542995
 C    114 112 111     3.306930777107    91.32009164   182.77004741
 C    115 114 112     2.593904754330   113.44132482   358.90532433
 H    115 114 112     2.073593364884   119.17123585   178.94609834
 H    116 115 114     2.072125406597   124.08963128   179.86461556
 O    110 106 105     2.596585004343   121.21685422     1.59943711
 C    119 110 106     2.734074308733   114.42290632   282.75786352
 C    120 119 110     2.899570536242   108.53590771   171.91977958
 H    120 119 110     2.099431649591   108.86453533    51.32011744
 H    120 119 110     2.105790881207   109.46302305   294.13121684
 C    121 120 119     2.916895288081   111.63683427   217.43291946
 C    124 121 120     2.901423095637   114.94922585    63.66266705
 H    125 124 121     2.095444721970   112.74649865   288.69050476
 H    125 124 121     2.095388188647   110.74041401   168.90764459
 H    125 124 121     2.097911587749   111.14486423    49.25687661
 H    124 121 120     2.104549523424   109.20686563   299.60470026
 H    124 121 120     2.100543597744   107.69461334   185.60386246
 C    121 120 119     2.914503000439   113.13539527    91.61052665
 H    121 120 119     2.104508262962   105.00881094   333.76919228
 C    131 121 120     2.899894769336   115.82339804   312.24013299
 H    131 121 120     2.102681075906   108.15858271   189.54988791
 H    131 121 120     2.106053372517   108.89694929    75.20162788
 C    133 131 121     2.901150928149   113.00507153   187.83031083
 H    133 131 121     2.102129680035   109.21017280    66.86011729
 H    133 131 121     2.100680632774   110.06055541   311.07404973
 C    136 133 131     2.897341727509   113.36491560   187.48789202
 H    136 133 131     2.103287398400   109.12697768    65.28097576
 H    136 133 131     2.103122391080   109.30341469   309.92406731
 H    139 136 133     2.098046658343   111.30741714   302.56567508
 H    139 136 133     2.095458338087   111.63376041   182.07170381
 H    139 136 133     2.098861195419   111.14127829    62.19398360
 O    111 107 106     2.588586183631   120.81102999   177.50003898
 C    145 111 107     2.775254886665   116.63743842   241.89718906
 C    146 145 111     2.902149257759   110.31196054    84.74989638
 C    147 146 145     2.905229696656   115.43009791    72.73441428
 H    147 146 145     2.098016730482   108.21822592   308.46237282
 H    147 146 145     2.100981958415   106.87033896   194.34955931
 H    148 147 146     2.096899789553   112.11066356   305.57005047
 H    148 147 146     2.094670160597   110.77569362   185.61626218
 H    148 147 146     2.094321712650   111.47313688    66.67486622
 C    146 145 111     2.894303913564   107.93993357   210.35084917
 H    146 145 111     2.102494580189   107.39708137   327.67731477
 C    154 146 145     2.896074593774   115.26861065    76.14947228
 H    154 146 145     2.091605756455   108.53114943   313.71145725
 H    154 146 145     2.100336785582   107.79260820   197.99758569
 C    156 154 146     2.901318133935   113.45539865   170.98533713
 H    156 154 146     2.101573474595   109.13548039    50.12780401
 H    156 154 146     2.098977882963   109.59158008   294.47098854
 C    159 156 154     2.897567345116   112.81895310   186.18386186
 H    159 156 154     2.103152217768   109.16536291    64.11099564
 H    159 156 154     2.102626088357   109.42168229   308.24369658
 H    162 159 156     2.096951678906   111.11086247   300.92090205
 H    162 159 156     2.095655767642   111.57242025   180.37215827
 H    162 159 156     2.098145052930   111.18172101    60.54291462
 C     12  11   5     2.721561582064   118.85601912   181.67723119
 S    168  12  11     3.326841805403   118.53911946     0.00000000
 C    169 168  12     3.271530185648    93.97977076   180.49917380
 C    168  12  11     2.675521487671   131.86904516   180.35344961
 C    170 169 168     2.613701298675   110.01772128   359.57550475
 H    170 169 168     2.070071103141   121.01385692   180.06295543
 S    172 170 169     3.308492312789   132.49312136   180.96399450
 C    171 168  12     2.719050167301   137.21234511   358.38230554
 C    175 171 168     2.614919720083   112.24587644   181.31463873
 H    175 171 168     2.070249788559   125.63047884     1.46544785
 C    176 175 171     2.790674340327   133.28734757   180.06694091
 O    178 176 175     2.312508129433   121.01269567   183.17152172
 O    178 176 175     2.560767928593   115.18157780     2.82800078
 C    180 178 176     2.755758244752   115.12453951   166.25099216
 C    181 180 178     2.929533492709   114.25588998    86.88089560
 H    181 180 178     2.093622813537   107.96319263   323.38380556
 H    181 180 178     2.088779786983   104.22372695   207.89558587
 C    182 181 180     2.931705424167   112.48189352   228.62964349
 C    185 182 181     2.892969936482   118.12319242    65.43035829
 H    185 182 181     2.106608883724   107.82584978   300.57024395
 H    185 182 181     2.100971310766   106.97947468   188.14678949
 H    186 185 182     2.089838486632   112.67231441   291.77636863
 H    186 185 182     2.097143313565   109.74986662   171.69699645
 H    186 185 182     2.093190781858   111.57566370    51.92023188
 C    182 181 180     2.916490208636   112.33159835   107.26745645
 H    182 181 180     2.102038375790   107.21606479   347.66120283
 C    192 182 181     2.898112461628   118.40990894   299.08063226
 H    192 182 181     2.101358713304   107.30227997   176.23222907
 H    192 182 181     2.106937765034   108.28731008    63.30544752
 C    194 192 182     2.907056773740   110.64183025   186.88536087
 H    194 192 182     2.103744842894   110.77112781    64.86432047
 H    194 192 182     2.103665981883   109.91304511   308.23456915
 C    197 194 192     2.893872142077   115.29139134   182.22542872
 H    197 194 192     2.103614066673   108.20797036    59.22423563
 H    197 194 192     2.103863997351   108.95550156   305.36507811
 H    200 197 194     2.097617393306   111.65314877   307.53577874
 H    200 197 194     2.095971777212   111.06142159   186.82370314
 H    200 197 194     2.094888801961   111.33507620    68.08345333

 One Electron integrals                  ... done
 Pre-screening matrix                    ... done

Diagonalization of the overlap matrix:
Smallest eigenvalue                        ... 1.679e-04
Time for diagonalization                   ...    1.587 sec
Threshold for overlap eigenvalues          ... 1.000e-08
Number of eigenvalues below threshold      ... 0
Time for construction of square roots      ...    0.679 sec
Total time needed                          ...    2.277 sec

-------------------
DFT GRID GENERATION
-------------------

General Integration Accuracy     IntAcc      ...  4.340
Radial Grid Type                 RadialGrid  ... Gauss-Chebyshev
Angular Grid (max. acc.)         AngularGrid ... Lebedev-194
Angular grid pruning method      GridPruning ... 3 (G Style)
Weight generation scheme         WeightScheme... Becke
Basis function cutoff            BFCut       ...    1.0000e-11
Integration weight cutoff        WCut        ...    1.0000e-14
Grids for H and He will be reduced by one unit

# of grid points (after initial pruning)     ... 487954 (   1.5 sec)
# of grid points (after weights+screening)   ... 414292 (  66.8 sec)
nearest neighbour list constructed           ...    0.0 sec
Grid point re-assignment to atoms done       ...    0.1 sec
Grid point division into batches done        ...    0.8 sec
Reduced shell lists constructed in   10.5 sec

Total number of grid points                  ...   414292
Total number of batches                      ...     6585
Average number of points per batch           ...       62
Average number of grid points per atom       ...     2021
Average number of shells per batch           ...   119.58 (12.93%)
Average number of basis functions per batch  ...   225.95 (11.65%)
Average number of large shells per batch     ...    66.36 (55.50%)
Average number of large basis fcns per batch ...   128.28 (56.77%)
Maximum spatial batch extension              ...  21.57, 21.21, 24.23 au
Average spatial batch extension              ...   2.32,  2.34,  2.59 au

Time for grid setup =   78.762 sec

--------------
SCF ITERATIONS
--------------
ITER       Energy         Delta-E        Max-DP      RMS-DP      [F,P]     Damp
               ***  Starting incremental Fock matrix formation  ***
  0  -7034.7416580327   0.000000000000 0.00715795  0.00005045  0.0364664 0.7000
                      *** Initiating the SOSCF procedure ***
                      *** Re-Reading the Fockian *** 
                      *** Removing any level shift *** 
ITER      Energy       Delta-E        Grad      Rot      Max-DP    RMS-DP
  1  -7034.75298573  -0.0113276990  0.001466  0.001466  0.022698  0.000157
               *** Restarting incremental Fock matrix formation ***
  2  -7034.78180018  -0.0288144500  0.000834  0.004237  0.008645  0.000039
  3  -7034.78191948  -0.0001193006  0.001491  0.004404  0.009145  0.000029
  4  -7034.78195089  -0.0000314055  0.001148  0.005100  0.004123  0.000025
  5  -7034.78207656  -0.0001256693  0.000624  0.005094  0.005416  0.000018
  6  -7034.78206223   0.0000143316  0.000677  0.003876  0.003242  0.000015
  7  -7034.78212215  -0.0000599245  0.000425  0.004942  0.002508  0.000015
  8  -7034.78208541   0.0000367365  0.000782  0.004816  0.002874  0.000011
  9  -7034.78214084  -0.0000554231  0.000335  0.002360  0.002637  0.000011
 10  -7034.78211159   0.0000292512  0.000317  0.001130  0.001640  0.000008
 11  -7034.78215337  -0.0000417867  0.000103  0.000897  0.000836  0.000006
 12  -7034.78214071   0.0000126655  0.000208  0.000697  0.000676  0.000004
 13  -7034.78215603  -0.0000153217  0.000042  0.000318  0.000557  0.000003
 14  -7034.78215289   0.0000031391  0.000125  0.000328  0.000440  0.000002
