
                                 *****************
                                 * O   R   C   A *
                                 *****************

           --- An Ab Initio, DFT and Semiempirical electronic structure package ---

                  #######################################################
                  #                        -***-                        #
                  #          Department of theory and spectroscopy      #
                  #               Directorship: Frank Neese             #
                  #        Max Planck Institute fuer Kohlenforschung    #
                  #                Kaiser Wilhelm Platz 1               #
                  #                 D-45470 Muelheim/Ruhr               #
                  #                      Germany                        #
                  #                                                     #
                  #                  All rights reserved                #
                  #                        -***-                        #
                  #######################################################


                         Program Version 4.2.0 -  RELEASE  -


 With contributions from (in alphabetic order):
   Daniel Aravena         : Magnetic Suceptibility
   Michael Atanasov       : Ab Initio Ligand Field Theory (pilot matlab implementation)
   Alexander A. Auer      : GIAO ZORA, VPT2
   Ute Becker             : Parallelization
   Giovanni Bistoni       : ED, misc. LED, open-shell LED, HFLED
   Martin Brehm           : Molecular dynamics
   Dmytro Bykov           : SCF Hessian
   Vijay G. Chilkuri      : MRCI spin determinant printing, contributions to CSF-ICE
   Dipayan Datta          : RHF DLPNO-CCSD density
   Achintya Kumar Dutta   : EOM-CC, STEOM-CC
   Dmitry Ganyushin       : Spin-Orbit,Spin-Spin,Magnetic field MRCI
   Miquel Garcia          : C-PCM Hessian, Gaussian charge scheme
   Yang Guo               : DLPNO-NEVPT2, CIM, IAO-localization
   Andreas Hansen         : Spin unrestricted coupled pair/coupled cluster methods
   Benjamin Helmich-Paris : CASSCF linear response (MC-RPA)
   Lee Huntington         : MR-EOM, pCC
   Robert Izsak           : Overlap fitted RIJCOSX, COSX-SCS-MP3, EOM
   Christian Kollmar      : KDIIS, OOCD, Brueckner-CCSD(T), CCSD density
   Simone Kossmann        : Meta GGA functionals, TD-DFT gradient, OOMP2, MP2 Hessian
   Martin Krupicka        : AUTO-CI
   Lucas Lang             : DCDCAS
   Dagmar Lenk            : GEPOL surface, SMD
   Dimitrios Liakos       : Extrapolation schemes; Compound Job, initial MDCI parallelization
   Dimitrios Manganas     : Further ROCIS development; embedding schemes
   Dimitrios Pantazis     : SARC Basis sets
   Taras Petrenko         : DFT Hessian,TD-DFT gradient, ASA, ECA, R-Raman, ABS, FL, XAS/XES, NRVS
   Peter Pinski           : DLPNO-MP2, DLPNO-MP2 Gradient
   Christoph Reimann      : Effective Core Potentials
   Marius Retegan         : Local ZFS, SOC
   Christoph Riplinger    : Optimizer, TS searches, QM/MM, DLPNO-CCSD(T), (RO)-DLPNO pert. Triples
   Tobias Risthaus        : Range-separated hybrids, TD-DFT gradient, RPA, STAB
   Michael Roemelt        : Original ROCIS implementation
   Masaaki Saitow         : Open-shell DLPNO-CCSD energy and density
   Barbara Sandhoefer     : DKH picture change effects
   Avijit Sen             : IP-ROCIS
   Kantharuban Sivalingam : CASSCF convergence, NEVPT2, FIC-MRCI
   Bernardo de Souza      : ESD, SOC TD-DFT
   Georgi Stoychev        : AutoAux, RI-MP2 NMR
   Willem Van den Heuvel  : Paramagnetic NMR
   Boris Wezisla          : Elementary symmetry handling
   Frank Wennmohs         : Technical directorship


 We gratefully acknowledge several colleagues who have allowed us to
 interface, adapt or use parts of their codes:
   Stefan Grimme, W. Hujo, H. Kruse,             : VdW corrections, initial TS optimization,
                  C. Bannwarth                     DFT functionals, gCP, sTDA/sTD-DF
   Ed Valeev, F. Pavosevic, A. Kumar             : LibInt (2-el integral package), F12 methods
   Garnet Chan, S. Sharma, J. Yang, R. Olivares  : DMRG
   Ulf Ekstrom                                   : XCFun DFT Library
   Mihaly Kallay                                 : mrcc  (arbitrary order and MRCC methods)
   Andreas Klamt, Michael Diedenhofen            : otool_cosmo (COSMO solvation model)
   Jiri Pittner, Ondrej Demel                    : Mk-CCSD
   Frank Weinhold                                : gennbo (NPA and NBO analysis)
   Christopher J. Cramer and Donald G. Truhlar   : smd solvation model
   Lars Goerigk                                  : TD-DFT with DH, B97 family of functionals
   V. Asgeirsson, H. Jonsson                     : NEB implementation
   FAccTs GmbH                                   : IRC, NEB, NEB-TS, Multilevel, MM, QM/MM, CI optimization
   S Lehtola, MJT Oliveira, MAL Marques          : LibXC Library


 Your calculation uses the libint2 library for the computation of 2-el integrals
 For citations please refer to: http://libint.valeyev.net

 Your ORCA version has been built with support for libXC version: 4.2.3
 For citations please refer to: https://tddft.org/programs/libxc/

 This ORCA versions uses:
   CBLAS   interface :  Fast vector & matrix operations
   LAPACKE interface :  Fast linear algebra routines
   SCALAPACK package :  Parallel linear algebra routines


Your calculation utilizes the atom-pairwise dispersion correction
with the Becke-Johnson damping scheme (D3BJ)
Cite in your paper:
S.Grimme, S.Ehrlich, L.Goerigk, J Comput Chem, (2011), 32, 1456–1465 
S.Grimme, J.Antony, S.Ehrlich and H.Krieg, J.Chem.Phys., 132, (2010), 154104 
   

----- Orbital basis set information -----
Your calculation utilizes the basis: def2-SVP
   F. Weigend and R. Ahlrichs, Phys. Chem. Chem. Phys. 7, 3297 (2005).

----- AuxJ basis set information -----
Your calculation utilizes the auxiliary basis: def2/J
   F. Weigend, Phys. Chem. Chem. Phys. 8, 1057 (2006).

================================================================================
                                        WARNINGS
                       Please study these warnings very carefully!
================================================================================


WARNING: Geometry Optimization
  ===> : Switching off AutoStart
         For restart on a previous wavefunction, please use MOREAD

INFO   : the flag for use of LIBINT has been found!

================================================================================
                                       INPUT FILE
================================================================================
NAME = PTB7_Input_Dimethoxy_Benzodithiophene_1_Optimize_Monomer_Hydrogenated.inp
|  1> ! RI BP86 def2-SVP def2/J D3BJ TIGHTSCF  Opt Grid3 FinalGrid5
|  2> %maxcore 3000
|  3> %geom
|  4> optimizehydrogens true
|  5> end
|  6> 
|  7> 
|  8> *xyz 0 1
|  9> C	-3.990044	-0.906755	0.082454
| 10> C	-3.410679	0.352843	0.034639
| 11> S	-2.751869	-2.185690	0.114116
| 12> C	-1.983506	0.332351	0.028728
| 13> H	-3.753299	0.851094	-0.882626
| 14> C	-1.440821	-0.999668	0.084005
| 15> C	-0.055494	-1.223867	0.061925
| 16> C	-1.142225	1.479179	-0.046577
| 17> C	0.245409	1.255057	-0.072986
| 18> C	0.787322	-0.078618	-0.014771
| 19> O	-1.798288	2.672697	-0.065582
| 20> O	0.593371	-2.425488	0.079984
| 21> C	-0.008924	-3.534707	0.735968
| 22> H	0.782560	-4.301500	0.837325
| 23> H	-0.844730	-3.970271	0.145818
| 24> H	-0.382451	-3.259243	1.745919
| 25> C	-1.148860	3.839564	-0.555154
| 26> H	-1.935540	4.611584	-0.651981
| 27> H	-0.686484	3.664762	-1.550323
| 28> H	-0.374152	4.213371	0.149006
| 29> C	2.214077	-0.095603	-0.023116
| 30> S	1.558273	2.442855	-0.115878
| 31> C	2.787608	1.167481	-0.078832
| 32> H	-3.729146	0.925259	0.916647
| 33> H	2.535577	-0.668609	-0.903399
| 34> H	2.557751	-0.590513	0.895333
| 35> H	-4.587850	-1.148875	-0.804110
| 36> H	3.403487	1.240145	-0.983204
| 37> H	-4.609284	-0.981338	0.984102
| 38> H	3.389428	1.409613	0.805284
| 39> **                         ****END OF INPUT****
================================================================================

                       *****************************
                       * Geometry Optimization Run *
                       *****************************

Geometry optimization settings:
Update method            Update   .... BFGS
Choice of coordinates    CoordSys .... Z-matrix Internals
Initial Hessian          InHess   .... Almoef's Model

Convergence Tolerances:
Energy Change            TolE     ....  5.0000e-06 Eh
Max. Gradient            TolMAXG  ....  3.0000e-04 Eh/bohr
RMS Gradient             TolRMSG  ....  1.0000e-04 Eh/bohr
Max. Displacement        TolMAXD  ....  4.0000e-03 bohr
RMS Displacement         TolRMSD  ....  2.0000e-03 bohr
Strict Convergence                ....  False
------------------------------------------------------------------------------
                        ORCA OPTIMIZATION COORDINATE SETUP
------------------------------------------------------------------------------

The optimization will be done in new redundant internal coordinates
Making redundant internal coordinates   ...  (new redundants) done
Evaluating the initial hessian          ...  (Almloef) done
Evaluating the coordinates              ...  done
Calculating the B-matrix                .... done
Calculating the G-matrix                .... done
Diagonalizing the G-matrix              .... done
Imposing constraints:
 Iter   0:  RMS(Cart)=    0.0000000000 RMS(Int)=    0.0000000000
CONVERGED
Small eigenvalue found = 1.208e-02
Small eigenvalue found = 1.335e-02
Small eigenvalue found = 2.834e-02
The first mode is                       ....   80
The number of degrees of freedom        ....   84
Storing new coordinates                 .... done

    -----------------------------------------------------------------
                    Redundant Internal Coordinates


    -----------------------------------------------------------------
         Definition                    Initial Value    Approx d2E/dq
    -----------------------------------------------------------------
      1. B(C   1,C   0)                  1.3873         0.631078 C 
      2. B(S   2,C   0)                  1.7804         0.401494 C 
      3. B(C   3,C   1)                  1.4273         0.544725 C 
      4. B(H   4,C   1)                  1.0986         0.348845   
      5. B(C   5,S   2)                  1.7682         0.419924 C 
      6. B(C   5,C   3)                  1.4394         0.521127 C 
      7. B(C   6,C   5)                  1.4035         0.594511 C 
      8. B(C   7,C   3)                  1.4243         0.550821 C 
      9. B(C   8,C   7)                  1.4059         0.589423 C 
     10. B(C   9,C   6)                  1.4240         0.551406 C 
     11. B(C   9,C   8)                  1.4407         0.518534 C 
     12. B(O  10,C   7)                  1.3621         0.620038 C 
     13. B(O  11,C   6)                  1.3657         0.611760 C 
     14. B(C  12,O  11)                  1.4225         0.496661 C 
     15. B(H  13,C  12)                  1.1067         0.338724   
     16. B(H  14,C  12)                  1.1120         0.332130   
     17. B(H  15,C  12)                  1.1115         0.332768   
     18. B(C  16,O  10)                  1.4223         0.496934 C 
     19. B(H  17,C  16)                  1.1065         0.338970   
     20. B(H  18,C  16)                  1.1112         0.333151   
     21. B(H  19,C  16)                  1.1116         0.332580   
     22. B(C  20,C   9)                  1.4269         0.545630 C 
     23. B(S  21,C   8)                  1.7710         0.415625 C 
     24. B(C  22,C  20)                  1.3883         0.628672 C 
     25. B(C  22,S  21)                  1.7718         0.414377 C 
     26. B(H  23,C   1)                  1.0986         0.348844   
     27. B(H  24,C  20)                  1.0985         0.349091   
     28. B(H  25,C  20)                  1.0985         0.349091   
     29. B(H  26,C   0)                  1.0964         0.351793   
     30. B(H  27,C  22)                  1.0966         0.351507   
     31. B(H  28,C   0)                  1.0964         0.351793   
     32. B(H  29,C  22)                  1.0966         0.351507   
     33. A(S   2,C   0,H  28)          109.2270         0.343632   
     34. A(S   2,C   0,H  26)          103.5886         0.343632   
     35. A(C   1,C   0,S   2)          111.2481         0.425044 C 
     36. A(C   1,C   0,H  26)          113.6009         0.352573   
     37. A(C   1,C   0,H  28)          109.0260         0.352573   
     38. A(H  26,C   0,H  28)          110.0010         0.288718   
     39. A(C   0,C   1,C   3)          113.8716         0.425449 C 
     40. A(H   4,C   1,H  23)          110.0955         0.287959   
     41. A(C   0,C   1,H  23)          108.9255         0.352071   
     42. A(C   3,C   1,H   4)          108.3533         0.343454   
     43. A(C   3,C   1,H  23)          107.4964         0.343454   
     44. A(C   0,C   1,H   4)          108.0780         0.352071   
     45. A(C   0,S   2,C   5)           91.9207         0.416960 C 
     46. A(C   5,C   3,C   7)          121.6319         0.411995 C 
     47. A(C   1,C   3,C   5)          112.9613         0.411183 C 
     48. A(C   1,C   3,C   7)          125.3981         0.415249 C 
     49. A(C   3,C   5,C   6)          121.2891         0.417624 C 
     50. A(S   2,C   5,C   6)          128.6807         0.423920 C 
     51. A(S   2,C   5,C   3)          109.9884         0.414080 C 
     52. A(C   9,C   6,O  11)          115.2846         0.421256 C 
     53. A(C   5,C   6,O  11)          127.5373         0.426965 C 
     54. A(C   5,C   6,C   9)          117.1656         0.421851 C 
     55. A(C   8,C   7,O  10)          127.9406         0.427336 C 
     56. A(C   3,C   7,O  10)          114.9469         0.422189 C 
     57. A(C   3,C   7,C   8)          117.1057         0.421125 C 
     58. A(C   7,C   8,S  21)          128.7002         0.422491 C 
     59. A(C   9,C   8,S  21)          110.0599         0.412958 C 
     60. A(C   7,C   8,C   9)          121.2028         0.416615 C 
     61. A(C   6,C   9,C  20)          125.6300         0.415450 C 
     62. A(C   8,C   9,C  20)          112.7607         0.410940 C 
     63. A(C   6,C   9,C   8)          121.6030         0.411708 C 
     64. A(C   7,O  10,C  16)          120.2480         0.411836 C 
     65. A(C   6,O  11,C  12)          119.4069         0.410815 C 
     66. A(O  11,C  12,H  14)          112.2680         0.333408   
     67. A(H  13,C  12,H  14)          108.3467         0.284453   
     68. A(O  11,C  12,H  15)          111.5963         0.333514   
     69. A(H  13,C  12,H  15)          109.1991         0.284538   
     70. A(O  11,C  12,H  13)          106.2431         0.334497   
     71. A(H  14,C  12,H  15)          109.0692         0.283670   
     72. A(H  17,C  16,H  19)          108.4392         0.284545   
     73. A(H  18,C  16,H  19)          109.2820         0.283780   
     74. A(O  10,C  16,H  18)          111.6668         0.333608   
     75. A(O  10,C  16,H  17)          106.1353         0.334568   
     76. A(H  17,C  16,H  18)          109.1014         0.284621   
     77. A(O  10,C  16,H  19)          112.0886         0.333513   
     78. A(C   9,C  20,C  22)          113.7334         0.425285 C 
     79. A(C   9,C  20,H  24)          107.6713         0.343590   
     80. A(C  22,C  20,H  24)          108.7549         0.351886   
     81. A(C   9,C  20,H  25)          108.2592         0.343590   
     82. A(C  22,C  20,H  25)          108.3134         0.351886   
     83. A(H  24,C  20,H  25)          110.0878         0.288022   
     84. A(C   8,S  21,C  22)           91.7802         0.418544 C 
     85. A(C  20,C  22,S  21)          111.6600         0.427163 C 
     86. A(C  20,C  22,H  27)          108.9901         0.352297   
     87. A(S  21,C  22,H  27)          108.9501         0.345412   
     88. A(C  20,C  22,H  29)          113.2820         0.352297   
     89. A(S  21,C  22,H  29)          103.8103         0.345412   
     90. A(H  27,C  22,H  29)          110.0028         0.288645   
     91. D(H  23,C   1,C   0,S   2)   -120.2427         0.032274   
     92. D(H  23,C   1,C   0,H  28)      0.2770         0.032274   
     93. D(H   4,C   1,C   0,H  26)      3.7308         0.032274   
     94. D(C   3,C   1,C   0,H  28)    120.2304         0.032274   
     95. D(H   4,C   1,C   0,S   2)    120.1531         0.032274   
     96. D(C   3,C   1,C   0,S   2)     -0.2893         0.032274 C 
     97. D(H   4,C   1,C   0,H  28)   -119.3272         0.032274   
     98. D(C   3,C   1,C   0,H  26)   -116.7116         0.032274   
     99. D(H  23,C   1,C   0,H  26)    123.3350         0.032274   
    100. D(C   5,S   2,C   0,H  26)    123.1192         0.004100   
    101. D(C   5,S   2,C   0,H  28)   -119.6886         0.004100   
    102. D(C   5,S   2,C   0,C   1)      0.7125         0.004100 C 
    103. D(C   5,C   3,C   1,H  23)    120.3203         0.022011   
    104. D(C   5,C   3,C   1,C   0)     -0.4360         0.022011 C 
    105. D(C   5,C   3,C   1,H   4)   -120.7237         0.022011   
    106. D(C   7,C   3,C   1,H  23)    -60.7387         0.022011   
    107. D(C   7,C   3,C   1,C   0)    178.5050         0.022011 C 
    108. D(C   7,C   3,C   1,H   4)     58.2173         0.022011   
    109. D(C   3,C   5,S   2,C   0)     -0.9347         0.004073 C 
    110. D(C   6,C   5,S   2,C   0)   -178.5740         0.004073 C 
    111. D(S   2,C   5,C   3,C   1)      0.9528         0.018522 C 
    112. D(S   2,C   5,C   3,C   7)   -178.0334         0.018522 C 
    113. D(C   6,C   5,C   3,C   1)    178.7964         0.018522 C 
    114. D(C   6,C   5,C   3,C   7)     -0.1898         0.018522 C 
    115. D(C   9,C   6,C   5,S   2)    177.5206         0.024342 C 
    116. D(C   9,C   6,C   5,C   3)      0.1169         0.024342 C 
    117. D(O  11,C   6,C   5,S   2)     -1.1201         0.024342 C 
    118. D(O  11,C   6,C   5,C   3)   -178.5239         0.024342 C 
    119. D(C   8,C   7,C   3,C   1)   -178.4774         0.020758 C 
    120. D(C   8,C   7,C   3,C   5)      0.3774         0.020758 C 
    121. D(O  10,C   7,C   3,C   1)      2.3927         0.020758 C 
    122. D(O  10,C   7,C   3,C   5)   -178.7525         0.020758 C 
    123. D(C   9,C   8,C   7,C   3)     -0.5072         0.023906 C 
    124. D(C   9,C   8,C   7,O  10)    178.4924         0.023906 C 
    125. D(S  21,C   8,C   7,C   3)   -178.0622         0.023906 C 
    126. D(S  21,C   8,C   7,O  10)      0.9374         0.023906 C 
    127. D(C   8,C   9,C   6,C   5)     -0.2495         0.020803 C 
    128. D(C  20,C   9,C   8,C   7)   -178.6722         0.018335 C 
    129. D(C  20,C   9,C   6,C   5)    178.7689         0.020803 C 
    130. D(C  20,C   9,C   6,O  11)     -2.4231         0.020803 C 
    131. D(C   6,C   9,C   8,C   7)      0.4626         0.018335 C 
    132. D(C   8,C   9,C   6,O  11)    178.5585         0.020803 C 
    133. D(C   6,C   9,C   8,S  21)    178.4313         0.018335 C 
    134. D(C  20,C   9,C   8,S  21)     -0.7035         0.018335 C 
    135. D(C  16,O  10,C   7,C   3)   -159.9942         0.028206 C 
    136. D(C  16,O  10,C   7,C   8)     20.9880         0.028206 C 
    137. D(C  12,O  11,C   6,C   5)    -29.7442         0.027406 C 
    138. D(C  12,O  11,C   6,C   9)    151.5932         0.027406 C 
    139. D(H  13,C  12,O  11,C   6)   -166.5054         0.019493   
    140. D(H  14,C  12,O  11,C   6)     75.2282         0.019493   
    141. D(H  15,C  12,O  11,C   6)    -47.5771         0.019493   
    142. D(H  17,C  16,O  10,C   7)    169.1806         0.019515   
    143. D(H  18,C  16,O  10,C   7)     50.3977         0.019515   
    144. D(H  19,C  16,O  10,C   7)    -72.6060         0.019515   
    145. D(C  22,C  20,C   9,C   6)   -178.8064         0.022087 C 
    146. D(C  22,C  20,C   9,C   8)      0.2870         0.022087 C 
    147. D(H  24,C  20,C   9,C   6)     60.6170         0.022087   
    148. D(H  24,C  20,C   9,C   8)   -120.2896         0.022087   
    149. D(H  25,C  20,C   9,C   6)    -58.3754         0.022087   
    150. D(H  25,C  20,C   9,C   8)    120.7180         0.022087   
    151. D(C  22,S  21,C   8,C   7)    178.4904         0.004018 C 
    152. D(C  22,S  21,C   8,C   9)      0.7167         0.004018 C 
    153. D(S  21,C  22,C  20,C   9)      0.2693         0.032010 C 
    154. D(S  21,C  22,C  20,H  24)    120.2350         0.032010   
    155. D(S  21,C  22,C  20,H  25)   -120.1312         0.032010   
    156. D(H  27,C  22,C  20,C   9)   -120.1416         0.032010   
    157. D(H  27,C  22,C  20,H  24)     -0.1759         0.032010   
    158. D(H  27,C  22,C  20,H  25)    119.4578         0.032010   
    159. D(H  29,C  22,C  20,C   9)    117.0450         0.032010   
    160. D(H  29,C  22,C  20,H  24)   -122.9893         0.032010   
    161. D(H  29,C  22,C  20,H  25)     -3.3555         0.032010   
    162. D(C  20,C  22,S  21,C   8)     -0.5731         0.004277 C 
    163. D(H  27,C  22,S  21,C   8)    119.8612         0.004277   
    164. D(H  29,C  22,S  21,C   8)   -122.9556         0.004277   
    -----------------------------------------------------------------

Number of atoms                         .... 30
Number of degrees of freedom            .... 164

         *************************************************************
         *                GEOMETRY OPTIMIZATION CYCLE   1            *
         *************************************************************
---------------------------------
CARTESIAN COORDINATES (ANGSTROEM)
---------------------------------
  C     -3.990044   -0.906755    0.082454
  C     -3.410679    0.352843    0.034639
  S     -2.751869   -2.185690    0.114116
  C     -1.983506    0.332351    0.028728
  H     -3.753299    0.851094   -0.882626
  C     -1.440821   -0.999668    0.084005
  C     -0.055494   -1.223867    0.061925
  C     -1.142225    1.479179   -0.046577
  C      0.245409    1.255057   -0.072986
  C      0.787322   -0.078618   -0.014771
  O     -1.798288    2.672697   -0.065582
  O      0.593371   -2.425488    0.079984
  C     -0.008924   -3.534707    0.735968
  H      0.782560   -4.301500    0.837325
  H     -0.844730   -3.970271    0.145818
  H     -0.382451   -3.259243    1.745919
  C     -1.148860    3.839564   -0.555154
  H     -1.935540    4.611584   -0.651981
  H     -0.686484    3.664762   -1.550323
  H     -0.374152    4.213371    0.149006
  C      2.214077   -0.095603   -0.023116
  S      1.558273    2.442855   -0.115878
  C      2.787608    1.167481   -0.078832
  H     -3.729146    0.925259    0.916647
  H      2.535577   -0.668609   -0.903399
  H      2.557751   -0.590513    0.895333
  H     -4.587850   -1.148875   -0.804110
  H      3.403487    1.240145   -0.983204
  H     -4.609284   -0.981338    0.984102
  H      3.389428    1.409613    0.805284

----------------------------
CARTESIAN COORDINATES (A.U.)
----------------------------
  NO LB      ZA    FRAG     MASS         X           Y           Z
   0 C     6.0000    0    12.011   -7.540090   -1.713519    0.155815
   1 C     6.0000    0    12.011   -6.445249    0.666777    0.065458
   2 S    16.0000    0    32.060   -5.200279   -4.130356    0.215648
   3 C     6.0000    0    12.011   -3.748283    0.628052    0.054288
   4 H     1.0000    0     1.008   -7.092707    1.608335   -1.667921
   5 C     6.0000    0    12.011   -2.722757   -1.889099    0.158746
   6 C     6.0000    0    12.011   -0.104868   -2.312773    0.117021
   7 C     6.0000    0    12.011   -2.158492    2.795243   -0.088018
   8 C     6.0000    0    12.011    0.463756    2.371714   -0.137924
   9 C     6.0000    0    12.011    1.487823   -0.148566   -0.027913
  10 O     8.0000    0    15.999   -3.398272    5.050665   -0.123932
  11 O     8.0000    0    15.999    1.121309   -4.583508    0.151148
  12 C     6.0000    0    12.011   -0.016864   -6.679628    1.390778
  13 H     1.0000    0     1.008    1.478824   -8.128657    1.582315
  14 H     1.0000    0     1.008   -1.596308   -7.502725    0.275556
  15 H     1.0000    0     1.008   -0.722728   -6.159077    3.299309
  16 C     6.0000    0    12.011   -2.171031    7.255724   -1.049089
  17 H     1.0000    0     1.008   -3.657641    8.714631   -1.232066
  18 H     1.0000    0     1.008   -1.297267    6.925397   -2.929686
  19 H     1.0000    0     1.008   -0.707045    7.962117    0.281581
  20 C     6.0000    0    12.011    4.183999   -0.180663   -0.043683
  21 S    16.0000    0    32.060    2.944709    4.616327   -0.218978
  22 C     6.0000    0    12.011    5.267816    2.206219   -0.148971
  23 H     1.0000    0     1.008   -7.047065    1.748486    1.732212
  24 H     1.0000    0     1.008    4.791546   -1.263488   -1.707177
  25 H     1.0000    0     1.008    4.833449   -1.115908    1.691934
  26 H     1.0000    0     1.008   -8.669780   -2.171059   -1.519548
  27 H     1.0000    0     1.008    6.431658    2.343534   -1.857986
  28 H     1.0000    0     1.008   -8.710284   -1.854460    1.859683
  29 H     1.0000    0     1.008    6.405091    2.663783    1.521766

--------------------------------
INTERNAL COORDINATES (ANGSTROEM)
--------------------------------
 C      0   0   0     0.000000000000     0.00000000     0.00000000
 C      1   0   0     1.387276900642     0.00000000     0.00000000
 S      1   2   0     1.780380450099   111.24810642     0.00000000
 C      2   1   3     1.427332348794   113.87158423   359.71072838
 H      2   1   3     1.098643528915   108.07800882   120.15305630
 C      4   2   1     1.439387776909   112.96132380   359.56398127
 C      6   4   2     1.403525423685   121.28909628   178.79640488
 C      4   2   1     1.424302996406   125.39813400   178.50502555
 C      8   4   2     1.405864938079   117.10567417   181.52257643
 C      7   6   4     1.424014170671   117.16555884     0.11686593
 O      8   4   2     1.362081152618   114.94694039     2.39273782
 O      7   6   4     1.365739705561   127.53727488   181.47612964
 C     12   7   6     1.422477087774   119.40690525   330.25578033
 H     13  12   7     1.106657882344   106.24308165   193.49464913
 H     13  12   7     1.112009303123   112.26797864    75.22823625
 H     13  12   7     1.111487227739   111.59634999   312.42285396
 C     11   8   4     1.422327692923   120.24798375   200.00578432
 H     17  11   8     1.106460921465   106.13533842   169.18060049
 H     17  11   8     1.111174443164   111.66677252    50.39768282
 H     17  11   8     1.111640888108   112.08859132   287.39400086
 C     10   7   6     1.426880499297   125.63001708   178.76893151
 S      9   8   4     1.770964622731   128.70017622   181.93784182
 C     21  10   7     1.388316704384   113.73337316   181.19361251
 H      2   1   3     1.098644355198   108.92550827   239.75729190
 H     21  10   7     1.098451767774   107.67126632    60.61701653
 H     21  10   7     1.098451770437   108.25923628   301.62464969
 H      1   2   3     1.096352969683   113.60089471   243.57771888
 H     23  21  10     1.096574536418   108.99012208   239.85836287
 H      1   2   3     1.096353007654   109.02596122   120.51972121
 H     23  21  10     1.096574812441   113.28198433   117.04502111

---------------------------
INTERNAL COORDINATES (A.U.)
---------------------------
 C      0   0   0     0.000000000000     0.00000000     0.00000000
 C      1   0   0     2.621573414128     0.00000000     0.00000000
 S      1   2   0     3.364431464874   111.24810642     0.00000000
 C      2   1   3     2.697267241307   113.87158423   359.71072838
 H      2   1   3     2.076135388453   108.07800882   120.15305630
 C      4   2   1     2.720048698872   112.96132380   359.56398127
 C      6   4   2     2.652278672760   121.28909628   178.79640488
 C      4   2   1     2.691542594930   125.39813400   178.50502555
 C      8   4   2     2.656699714252   117.10567417   181.52257643
 C      7   6   4     2.690996793392   117.16555884     0.11686593
 O      8   4   2     2.573960350624   114.94694039     2.39273782
 O      7   6   4     2.580874013733   127.53727488   181.47612964
 C     12   7   6     2.688092127671   119.40690525   330.25578033
 H     13  12   7     2.091280321575   106.24308165   193.49464913
 H     13  12   7     2.101393041275   112.26797864    75.22823625
 H     13  12   7     2.100406461777   111.59634999   312.42285396
 C     11   8   4     2.687809812317   120.24798375   200.00578432
 H     17  11   8     2.090908119455   106.13533842   169.18060049
 H     17  11   8     2.099815384593   111.66677252    50.39768282
 H     17  11   8     2.100696837793   112.08859132   287.39400086
 C     10   7   6     2.696413369505   125.63001708   178.76893151
 S      9   8   4     3.346638129824   128.70017622   181.93784182
 C     21  10   7     2.623538358435   113.73337316   181.19361251
 H      2   1   3     2.076136949903   108.92550827   239.75729190
 H     21  10   7     2.075773012414   107.67126632    60.61701653
 H     21  10   7     2.075773017448   108.25923628   301.62464969
 H      1   2   3     2.071806858812   113.60089471   243.57771888
 H     23  21  10     2.072225559262   108.99012208   239.85836287
 H      1   2   3     2.071806930568   109.02596122   120.51972121
 H     23  21  10     2.072226080870   113.28198433   117.04502111

---------------------
BASIS SET INFORMATION
---------------------
There are 4 groups of distinct atoms

 Group   1 Type C   : 7s4p1d contracted to 3s2p1d pattern {511/31/1}
 Group   2 Type S   : 10s7p1d contracted to 4s3p1d pattern {5311/511/1}
 Group   3 Type H   : 4s1p contracted to 2s1p pattern {31/1}
 Group   4 Type O   : 7s4p1d contracted to 3s2p1d pattern {511/31/1}

Atom   0C    basis set group =>   1
Atom   1C    basis set group =>   1
Atom   2S    basis set group =>   2
Atom   3C    basis set group =>   1
Atom   4H    basis set group =>   3
Atom   5C    basis set group =>   1
Atom   6C    basis set group =>   1
Atom   7C    basis set group =>   1
Atom   8C    basis set group =>   1
Atom   9C    basis set group =>   1
Atom  10O    basis set group =>   4
Atom  11O    basis set group =>   4
Atom  12C    basis set group =>   1
Atom  13H    basis set group =>   3
Atom  14H    basis set group =>   3
Atom  15H    basis set group =>   3
Atom  16C    basis set group =>   1
Atom  17H    basis set group =>   3
Atom  18H    basis set group =>   3
Atom  19H    basis set group =>   3
Atom  20C    basis set group =>   1
Atom  21S    basis set group =>   2
Atom  22C    basis set group =>   1
Atom  23H    basis set group =>   3
Atom  24H    basis set group =>   3
Atom  25H    basis set group =>   3
Atom  26H    basis set group =>   3
Atom  27H    basis set group =>   3
Atom  28H    basis set group =>   3
Atom  29H    basis set group =>   3
---------------------------------
AUXILIARY/J BASIS SET INFORMATION
---------------------------------
There are 4 groups of distinct atoms

 Group   1 Type C   : 12s5p4d2f1g contracted to 6s4p3d1f1g pattern {711111/2111/211/2/1}
 Group   2 Type S   : 14s5p5d2f1g contracted to 8s4p3d1f1g pattern {71111111/2111/311/2/1}
 Group   3 Type H   : 5s2p1d contracted to 3s1p1d pattern {311/2/1}
 Group   4 Type O   : 12s5p4d2f1g contracted to 6s4p3d1f1g pattern {711111/2111/211/2/1}

Atom   0C    basis set group =>   1
Atom   1C    basis set group =>   1
Atom   2S    basis set group =>   2
Atom   3C    basis set group =>   1
Atom   4H    basis set group =>   3
Atom   5C    basis set group =>   1
Atom   6C    basis set group =>   1
Atom   7C    basis set group =>   1
Atom   8C    basis set group =>   1
Atom   9C    basis set group =>   1
Atom  10O    basis set group =>   4
Atom  11O    basis set group =>   4
Atom  12C    basis set group =>   1
Atom  13H    basis set group =>   3
Atom  14H    basis set group =>   3
Atom  15H    basis set group =>   3
Atom  16C    basis set group =>   1
Atom  17H    basis set group =>   3
Atom  18H    basis set group =>   3
Atom  19H    basis set group =>   3
Atom  20C    basis set group =>   1
Atom  21S    basis set group =>   2
Atom  22C    basis set group =>   1
Atom  23H    basis set group =>   3
Atom  24H    basis set group =>   3
Atom  25H    basis set group =>   3
Atom  26H    basis set group =>   3
Atom  27H    basis set group =>   3
Atom  28H    basis set group =>   3
Atom  29H    basis set group =>   3
------------------------------------------------------------------------------
                           ORCA GTO INTEGRAL CALCULATION
                           -- RI-GTO INTEGRALS CHOSEN --
------------------------------------------------------------------------------

                         BASIS SET STATISTICS AND STARTUP INFO

Gaussian basis set:
 # of primitive gaussian shells          ...  274
 # of primitive gaussian functions       ...  506
 # of contracted shells                  ...  142
 # of contracted basis functions         ...  302
 Highest angular momentum                ...    2
 Maximum contraction depth               ...    5
Auxiliary gaussian basis set:
 # of primitive gaussian shells          ...  502
 # of primitive gaussian functions       ... 1358
 # of contracted shells                  ...  314
 # of contracted aux-basis functions     ...  942
 Highest angular momentum                ...    4
 Maximum contraction depth               ...    7
Ratio of auxiliary to basis functions    ...  3.12
Integral package used                  ... LIBINT
 One Electron integrals                  ... done
 Ordering auxiliary basis shells         ... done
 Integral threshhold             Thresh  ...  2.500e-11
 Primitive cut-off               TCut    ...  2.500e-12
 Pre-screening matrix                    ... done
 Shell pair data                         ... 
 Ordering of the shell pairs             ... done (   0.001 sec) 8375 of 10153 pairs
 Determination of significant pairs      ... done (   0.000 sec)
 Creation of shell pair data             ... done (   0.001 sec)
 Storage of shell pair data              ... done (   0.025 sec)
 Shell pair data done in (   0.028 sec)
 Computing two index integrals           ... done
 Cholesky decomposition of the V-matrix  ... done


Timings:
 Total evaluation time                   ...   0.363 sec (  0.006 min)
 One electron matrix time                ...   0.086 sec (  0.001 min) = 23.8%
 Schwartz matrix evaluation time         ...   0.145 sec (  0.002 min) = 39.8%
 Two index repulsion integral time       ...   0.034 sec (  0.001 min) =  9.3%
 Cholesky decomposition of V             ...   0.042 sec (  0.001 min) = 11.7%
 Three index repulsion integral time     ...   0.000 sec (  0.000 min) =  0.0%

-------------------------------------------------------------------------------
                                 ORCA SCF
-------------------------------------------------------------------------------

------------
SCF SETTINGS
------------
Hamiltonian:
 Density Functional     Method          .... DFT(GTOs)
 Exchange Functional    Exchange        .... B88
   X-Alpha parameter    XAlpha          ....  0.666667
   Becke's b parameter  XBeta           ....  0.004200
 Correlation Functional Correlation     .... P86
 LDA part of GGA corr.  LDAOpt          .... PW91-LDA
 Gradients option       PostSCFGGA      .... off
   Density functional embedding theory  .... OFF
 RI-approximation to the Coulomb term is turned on
   Number of auxiliary basis functions  .... 942


General Settings:
 Integral files         IntName         .... PTB7_Input_Dimethoxy_Benzodithiophene_1_Optimize_Monomer_Hydrogenated
 Hartree-Fock type      HFTyp           .... RHF
 Total Charge           Charge          ....    0
 Multiplicity           Mult            ....    1
 Number of Electrons    NEL             ....  134
 Basis Dimension        Dim             ....  302
 Nuclear Repulsion      ENuc            ....   1386.8001900734 Eh

Convergence Acceleration:
 DIIS                   CNVDIIS         .... on
   Start iteration      DIISMaxIt       ....    12
   Startup error        DIISStart       ....  0.200000
   # of expansion vecs  DIISMaxEq       ....     5
   Bias factor          DIISBfac        ....   1.050
   Max. coefficient     DIISMaxC        ....  10.000
 Newton-Raphson         CNVNR           .... off
 SOSCF                  CNVSOSCF        .... on
   Start iteration      SOSCFMaxIt      ....   150
   Startup grad/error   SOSCFStart      ....  0.003300
 Level Shifting         CNVShift        .... on
   Level shift para.    LevelShift      ....    0.2500
   Turn off err/grad.   ShiftErr        ....    0.0010
 Zerner damping         CNVZerner       .... off
 Static damping         CNVDamp         .... on
   Fraction old density DampFac         ....    0.7000
   Max. Damping (<1)    DampMax         ....    0.9800
   Min. Damping (>=0)   DampMin         ....    0.0000
   Turn off err/grad.   DampErr         ....    0.1000
 Fernandez-Rico         CNVRico         .... off

SCF Procedure:
 Maximum # iterations   MaxIter         ....   125
 SCF integral mode      SCFMode         .... Direct
   Integral package                     .... LIBINT
 Reset frequency        DirectResetFreq ....    20
 Integral Threshold     Thresh          ....  2.500e-11 Eh
 Primitive CutOff       TCut            ....  2.500e-12 Eh

Convergence Tolerance:
 Convergence Check Mode ConvCheckMode   .... Total+1el-Energy
 Convergence forced     ConvForced      .... 0
 Energy Change          TolE            ....  1.000e-08 Eh
 1-El. energy change                    ....  1.000e-05 Eh
 Orbital Gradient       TolG            ....  1.000e-05
 Orbital Rotation angle TolX            ....  1.000e-05
 DIIS Error             TolErr          ....  5.000e-07


Diagonalization of the overlap matrix:
Smallest eigenvalue                        ... 1.547e-04
Time for diagonalization                   ...    0.025 sec
Threshold for overlap eigenvalues          ... 1.000e-08
Number of eigenvalues below threshold      ... 0
Time for construction of square roots      ...    0.038 sec
Total time needed                          ...    0.064 sec

-------------------
DFT GRID GENERATION
-------------------

General Integration Accuracy     IntAcc      ...  4.340
Radial Grid Type                 RadialGrid  ... Gauss-Chebyshev
Angular Grid (max. acc.)         AngularGrid ... Lebedev-194
Angular grid pruning method      GridPruning ... 3 (G Style)
Weight generation scheme         WeightScheme... Becke
Basis function cutoff            BFCut       ...    1.0000e-11
Integration weight cutoff        WCut        ...    1.0000e-14
Grids for H and He will be reduced by one unit

# of grid points (after initial pruning)     ...  74616 (   0.0 sec)
# of grid points (after weights+screening)   ...  66543 (   0.4 sec)
nearest neighbour list constructed           ...    0.0 sec
Grid point re-assignment to atoms done       ...    0.0 sec
Grid point division into batches done        ...    0.1 sec
Reduced shell lists constructed in    0.8 sec

Total number of grid points                  ...    66543
Total number of batches                      ...     1054
Average number of points per batch           ...       63
Average number of grid points per atom       ...     2218
Average number of shells per batch           ...    75.61 (53.25%)
Average number of basis functions per batch  ...   153.77 (50.92%)
Average number of large shells per batch     ...    51.92 (68.67%)
Average number of large basis fcns per batch ...   106.42 (69.20%)
Maximum spatial batch extension              ...  18.77, 24.08, 19.33 au
Average spatial batch extension              ...   2.76,  2.79,  2.93 au

Time for grid setup =    1.287 sec

------------------------------
INITIAL GUESS: MODEL POTENTIAL
------------------------------
Loading Hartree-Fock densities                     ... done
Calculating cut-offs                               ... done
Setting up the integral package                    ... done
Initializing the effective Hamiltonian             ... done
Starting the Coulomb interaction                   ... done (   0.6 sec)
Reading the grid                                   ... done
Mapping shells                                     ... done
Starting the XC term evaluation                    ... done (   1.2 sec)
  promolecular density results
     # of electrons  =    133.991066843
     EX              =   -132.495063055
     EC              =     -5.196336381
     EX+EC           =   -137.691399436
Transforming the Hamiltonian                       ... done (   0.0 sec)
Diagonalizing the Hamiltonian                      ... done (   0.0 sec)
Back transforming the eigenvectors                 ... done (   0.0 sec)
Now organizing SCF variables                       ... done
                      ------------------
                      INITIAL GUESS DONE (   3.1 sec)
                      ------------------
--------------
SCF ITERATIONS
--------------
ITER       Energy         Delta-E        Max-DP      RMS-DP      [F,P]     Damp
               ***  Starting incremental Fock matrix formation  ***
  0  -1411.5668660690   0.000000000000 0.07581972  0.00182931  0.1613340 0.7000
  1  -1411.7074078781  -0.140541809075 0.04267740  0.00126200  0.0739563 0.7000
                               ***Turning on DIIS***
  2  -1411.7535950926  -0.046187214490 0.07538732  0.00191439  0.0192375 0.0000
  3  -1411.8263621959  -0.072767103255 0.03110447  0.00100010  0.0434505 0.0000
  4  -1411.8472657931  -0.020903597286 0.01882975  0.00033162  0.0078266 0.0000
                      *** Initiating the SOSCF procedure ***
                           *** Shutting down DIIS ***
                      *** Re-Reading the Fockian *** 
                      *** Removing any level shift *** 
ITER      Energy       Delta-E        Grad      Rot      Max-DP    RMS-DP
  5  -1411.84845089  -0.0011850984  0.000743  0.000743  0.004866  0.000110
               *** Restarting incremental Fock matrix formation ***
  6  -1411.84853252  -0.0000816325  0.000317  0.001788  0.002209  0.000059
  7  -1411.84851969   0.0000128380  0.000712  0.001043  0.001078  0.000035
  8  -1411.84854184  -0.0000221516  0.000087  0.000501  0.000578  0.000015
  9  -1411.84854132   0.0000005178  0.000122  0.000278  0.000333  0.000007
 10  -1411.84854235  -0.0000010260  0.000013  0.000051  0.000104  0.000003
 11  -1411.84854231   0.0000000334  0.000020  0.000046  0.000069  0.000002
 12  -1411.84854237  -0.0000000598  0.000009  0.000042  0.000053  0.000001
 13  -1411.84854238  -0.0000000063  0.000015  0.000032  0.000038  0.000001
                  ***Gradient check signals convergence***
              ***Rediagonalizing the Fockian in SOSCF/NRSCF***

               *****************************************************
               *                     SUCCESS                       *
               *           SCF CONVERGED AFTER  14 CYCLES          *
               *****************************************************

Setting up the final grid:

General Integration Accuracy     IntAcc      ...  5.010
Radial Grid Type                 RadialGrid  ... Gauss-Chebyshev
Angular Grid (max. acc.)         AngularGrid ... Lebedev-434
Angular grid pruning method      GridPruning ... 3 (G Style)
Weight generation scheme         WeightScheme... Becke
Basis function cutoff            BFCut       ...    1.0000e-11
Integration weight cutoff        WCut        ...    1.0000e-14
Grids for H and He will be reduced by one unit

# of grid points (after initial pruning)     ... 267228 (   0.1 sec)
# of grid points (after weights+screening)   ... 235450 (   1.6 sec)
nearest neighbour list constructed           ...    0.0 sec
Grid point re-assignment to atoms done       ...    0.0 sec
Grid point division into batches done        ...    1.7 sec
Reduced shell lists constructed in    3.9 sec

Total number of grid points                  ...   235450
Total number of batches                      ...     3696
Average number of points per batch           ...       63
Average number of grid points per atom       ...     7848
Average number of shells per batch           ...    69.69 (49.08%)
Average number of basis functions per batch  ...   140.76 (46.61%)
Average number of large shells per batch     ...    46.94 (67.36%)
Average number of large basis fcns per batch ...    95.48 (67.83%)
Maximum spatial batch extension              ...  21.58, 20.02, 21.68 au
Average spatial batch extension              ...   1.86,  1.88,  1.89 au

Final grid set up in    5.7 sec
Final integration                            ... done (   4.5 sec)
Change in XC energy                          ...    -0.000492009
Integrated number of electrons               ...   133.999964350
Previous integrated no of electrons          ...   133.999224513

----------------
TOTAL SCF ENERGY
----------------

Total Energy       :        -1411.84903439 Eh          -38418.36538 eV

Components:
Nuclear Repulsion  :         1386.80019007 Eh           37736.75167 eV
Electronic Energy  :        -2798.64922447 Eh          -76155.11705 eV
One Electron Energy:        -4693.41320846 Eh         -127714.26627 eV
Two Electron Energy:         1894.76398399 Eh           51559.14922 eV

Virial components:
Potential Energy   :        -2815.84920435 Eh          -76623.15230 eV
Kinetic Energy     :         1404.00016996 Eh           38204.78692 eV
Virial Ratio       :            2.00559036


DFT components:
N(Alpha)           :       66.999982175078 electrons
N(Beta)            :       66.999982175078 electrons
N(Total)           :      133.999964350157 electrons
E(X)               :     -133.976534976629 Eh       
E(C)               :       -5.186375804700 Eh       
E(XC)              :     -139.162910781329 Eh       
DFET-embed. en.    :        0.000000000000 Eh       

---------------
SCF CONVERGENCE
---------------

  Last Energy change         ...   -4.4554e-09  Tolerance :   1.0000e-08
  Last MAX-Density change    ...    1.8215e-05  Tolerance :   1.0000e-07
  Last RMS-Density change    ...    5.7213e-07  Tolerance :   5.0000e-09
  Last Orbital Gradient      ...    2.0198e-06  Tolerance :   1.0000e-05
  Last Orbital Rotation      ...    9.7390e-06  Tolerance :   1.0000e-05

             **** THE GBW FILE WAS UPDATED (PTB7_Input_Dimethoxy_Benzodithiophene_1_Optimize_Monomer_Hydrogenated.gbw) ****
             **** DENSITY FILE WAS UPDATED (PTB7_Input_Dimethoxy_Benzodithiophene_1_Optimize_Monomer_Hydrogenated.scfp) ****
             **** ENERGY FILE WAS UPDATED (PTB7_Input_Dimethoxy_Benzodithiophene_1_Optimize_Monomer_Hydrogenated.en.tmp) ****
             **** THE GBW FILE WAS UPDATED (PTB7_Input_Dimethoxy_Benzodithiophene_1_Optimize_Monomer_Hydrogenated.gbw) ****
             **** DENSITY FILE WAS UPDATED (PTB7_Input_Dimethoxy_Benzodithiophene_1_Optimize_Monomer_Hydrogenated.scfp) ****
----------------
ORBITAL ENERGIES
----------------

  NO   OCC          E(Eh)            E(eV) 
   0   2.0000     -88.078660     -2396.7422 
   1   2.0000     -88.078537     -2396.7388 
   2   2.0000     -18.806163      -511.7417 
   3   2.0000     -18.804032      -511.6837 
   4   2.0000      -9.965843      -271.1844 
   5   2.0000      -9.965448      -271.1736 
   6   2.0000      -9.964226      -271.1404 
   7   2.0000      -9.964178      -271.1391 
   8   2.0000      -9.933711      -270.3100 
   9   2.0000      -9.933395      -270.3014 
  10   2.0000      -9.927510      -270.1413 
  11   2.0000      -9.926972      -270.1267 
  12   2.0000      -9.913035      -269.7474 
  13   2.0000      -9.912687      -269.7379 
  14   2.0000      -9.907148      -269.5872 
  15   2.0000      -9.907107      -269.5861 
  16   2.0000      -7.676174      -208.8793 
  17   2.0000      -7.676137      -208.8783 
  18   2.0000      -5.704625      -155.2307 
  19   2.0000      -5.704611      -155.2303 
  20   2.0000      -5.699843      -155.1006 
  21   2.0000      -5.699799      -155.0994 
  22   2.0000      -5.692475      -154.9001 
  23   2.0000      -5.692421      -154.8987 
  24   2.0000      -0.965347       -26.2684 
  25   2.0000      -0.962657       -26.1952 
  26   2.0000      -0.809472       -22.0268 
  27   2.0000      -0.797572       -21.7030 
  28   2.0000      -0.730073       -19.8663 
  29   2.0000      -0.701182       -19.0801 
  30   2.0000      -0.678336       -18.4585 
  31   2.0000      -0.660339       -17.9687 
  32   2.0000      -0.642528       -17.4841 
  33   2.0000      -0.637363       -17.3435 
  34   2.0000      -0.585975       -15.9452 
  35   2.0000      -0.566287       -15.4095 
  36   2.0000      -0.516396       -14.0518 
  37   2.0000      -0.515063       -14.0156 
  38   2.0000      -0.500490       -13.6190 
  39   2.0000      -0.476748       -12.9730 
  40   2.0000      -0.461237       -12.5509 
  41   2.0000      -0.451614       -12.2890 
  42   2.0000      -0.448568       -12.2061 
  43   2.0000      -0.444673       -12.1002 
  44   2.0000      -0.413682       -11.2568 
  45   2.0000      -0.411436       -11.1958 
  46   2.0000      -0.406093       -11.0503 
  47   2.0000      -0.396184       -10.7807 
  48   2.0000      -0.387944       -10.5565 
  49   2.0000      -0.366462        -9.9720 
  50   2.0000      -0.356646        -9.7048 
  51   2.0000      -0.350707        -9.5432 
  52   2.0000      -0.342111        -9.3093 
  53   2.0000      -0.333898        -9.0858 
  54   2.0000      -0.322148        -8.7661 
  55   2.0000      -0.317126        -8.6294 
  56   2.0000      -0.313953        -8.5431 
  57   2.0000      -0.300632        -8.1806 
  58   2.0000      -0.298721        -8.1286 
  59   2.0000      -0.281202        -7.6519 
  60   2.0000      -0.279858        -7.6153 
  61   2.0000      -0.276192        -7.5156 
  62   2.0000      -0.260565        -7.0903 
  63   2.0000      -0.250733        -6.8228 
  64   2.0000      -0.186137        -5.0650 
  65   2.0000      -0.172583        -4.6962 
  66   2.0000      -0.147799        -4.0218 
  67   0.0000      -0.034744        -0.9454 
  68   0.0000      -0.014450        -0.3932 
  69   0.0000       0.002484         0.0676 
  70   0.0000       0.012266         0.3338 
  71   0.0000       0.036338         0.9888 
  72   0.0000       0.037712         1.0262 
  73   0.0000       0.045834         1.2472 
  74   0.0000       0.051635         1.4051 
  75   0.0000       0.055278         1.5042 
  76   0.0000       0.067634         1.8404 
  77   0.0000       0.073813         2.0085 
  78   0.0000       0.080045         2.1781 
  79   0.0000       0.087699         2.3864 
  80   0.0000       0.099147         2.6979 
  81   0.0000       0.102132         2.7791 
  82   0.0000       0.104059         2.8316 
  83   0.0000       0.111460         3.0330 
  84   0.0000       0.121189         3.2977 
  85   0.0000       0.124203         3.3797 
  86   0.0000       0.133367         3.6291 
  87   0.0000       0.135869         3.6972 
  88   0.0000       0.168820         4.5938 
  89   0.0000       0.177689         4.8352 
  90   0.0000       0.199693         5.4339 
  91   0.0000       0.201803         5.4913 
  92   0.0000       0.216885         5.9017 
  93   0.0000       0.233141         6.3441 
  94   0.0000       0.234632         6.3847 
  95   0.0000       0.260243         7.0816 
  96   0.0000       0.281053         7.6478 
  97   0.0000       0.292648         7.9634 
  98   0.0000       0.301356         8.2003 
  99   0.0000       0.305510         8.3134 
 100   0.0000       0.340193         9.2571 
 101   0.0000       0.342357         9.3160 
 102   0.0000       0.343150         9.3376 
 103   0.0000       0.354793         9.6544 
 104   0.0000       0.374913        10.2019 
 105   0.0000       0.383080        10.4241 
 106   0.0000       0.389956        10.6113 
 107   0.0000       0.394823        10.7437 
 108   0.0000       0.401323        10.9206 
 109   0.0000       0.410119        11.1599 
 110   0.0000       0.416410        11.3311 
 111   0.0000       0.425742        11.5850 
 112   0.0000       0.436711        11.8835 
 113   0.0000       0.440137        11.9767 
 114   0.0000       0.449286        12.2257 
 115   0.0000       0.460234        12.5236 
 116   0.0000       0.463908        12.6236 
 117   0.0000       0.482126        13.1193 
 118   0.0000       0.492356        13.3977 
 119   0.0000       0.505026        13.7425 
 120   0.0000       0.505849        13.7649 
 121   0.0000       0.520982        14.1767 
 122   0.0000       0.525252        14.2928 
 123   0.0000       0.530457        14.4345 
 124   0.0000       0.541449        14.7336 
 125   0.0000       0.546207        14.8630 
 126   0.0000       0.553163        15.0523 
 127   0.0000       0.556861        15.1530 
 128   0.0000       0.573965        15.6184 
 129   0.0000       0.584556        15.9066 
 130   0.0000       0.589245        16.0342 
 131   0.0000       0.592344        16.1185 
 132   0.0000       0.601537        16.3687 
 133   0.0000       0.604055        16.4372 
 134   0.0000       0.607744        16.5376 
 135   0.0000       0.610146        16.6029 
 136   0.0000       0.615673        16.7533 
 137   0.0000       0.618660        16.8346 
 138   0.0000       0.621584        16.9142 
 139   0.0000       0.625589        17.0231 
 140   0.0000       0.628772        17.1098 
 141   0.0000       0.635811        17.3013 
 142   0.0000       0.638640        17.3783 
 143   0.0000       0.650649        17.7051 
 144   0.0000       0.651917        17.7396 
 145   0.0000       0.656938        17.8762 
 146   0.0000       0.659876        17.9561 
 147   0.0000       0.672546        18.3009 
 148   0.0000       0.673050        18.3146 
 149   0.0000       0.680358        18.5135 
 150   0.0000       0.683134        18.5890 
 151   0.0000       0.688944        18.7471 
 152   0.0000       0.691841        18.8260 
 153   0.0000       0.716946        19.5091 
 154   0.0000       0.728080        19.8121 
 155   0.0000       0.733969        19.9723 
 156   0.0000       0.742764        20.2116 
 157   0.0000       0.757200        20.6045 
 158   0.0000       0.794289        21.6137 
 159   0.0000       0.799604        21.7583 
 160   0.0000       0.816411        22.2157 
 161   0.0000       0.821704        22.3597 
 162   0.0000       0.839068        22.8322 
 163   0.0000       0.841585        22.9007 
 164   0.0000       0.880487        23.9593 
 165   0.0000       0.891553        24.2604 
 166   0.0000       0.901538        24.5321 
 167   0.0000       0.923602        25.1325 
 168   0.0000       0.926880        25.2217 
 169   0.0000       0.982219        26.7275 
 170   0.0000       0.998390        27.1676 
 171   0.0000       1.013004        27.5652 
 172   0.0000       1.033139        28.1131 
 173   0.0000       1.036513        28.2050 
 174   0.0000       1.050772        28.5930 
 175   0.0000       1.061999        28.8985 
 176   0.0000       1.067256        29.0415 
 177   0.0000       1.109201        30.1829 
 178   0.0000       1.116791        30.3894 
 179   0.0000       1.133026        30.8312 
 180   0.0000       1.150066        31.2949 
 181   0.0000       1.154207        31.4076 
 182   0.0000       1.177741        32.0480 
 183   0.0000       1.181376        32.1469 
 184   0.0000       1.216645        33.1066 
 185   0.0000       1.230676        33.4884 
 186   0.0000       1.252760        34.0893 
 187   0.0000       1.255803        34.1721 
 188   0.0000       1.283545        34.9270 
 189   0.0000       1.306588        35.5541 
 190   0.0000       1.313611        35.7452 
 191   0.0000       1.344893        36.5964 
 192   0.0000       1.351435        36.7744 
 193   0.0000       1.368385        37.2356 
 194   0.0000       1.390164        37.8283 
 195   0.0000       1.420089        38.6426 
 196   0.0000       1.428047        38.8591 
 197   0.0000       1.466199        39.8973 
 198   0.0000       1.470779        40.0219 
 199   0.0000       1.478894        40.2428 
 200   0.0000       1.487968        40.4897 
 201   0.0000       1.516249        41.2592 
 202   0.0000       1.522158        41.4200 
 203   0.0000       1.532730        41.7077 
 204   0.0000       1.541749        41.9531 
 205   0.0000       1.561266        42.4842 
 206   0.0000       1.614866        43.9427 
 207   0.0000       1.622352        44.1464 
 208   0.0000       1.640049        44.6280 
 209   0.0000       1.645907        44.7874 
 210   0.0000       1.649545        44.8864 
 211   0.0000       1.651689        44.9447 
 212   0.0000       1.654645        45.0252 
 213   0.0000       1.661620        45.2150 
 214   0.0000       1.687234        45.9120 
 215   0.0000       1.692460        46.0542 
 216   0.0000       1.698952        46.2308 
 217   0.0000       1.702250        46.3206 
 218   0.0000       1.705247        46.4021 
 219   0.0000       1.744827        47.4792 
 220   0.0000       1.756964        47.8094 
 221   0.0000       1.773879        48.2697 
 222   0.0000       1.777944        48.3803 
 223   0.0000       1.781359        48.4732 
 224   0.0000       1.795485        48.8576 
 225   0.0000       1.803408        49.0732 
 226   0.0000       1.810231        49.2589 
 227   0.0000       1.823220        49.6123 
 228   0.0000       1.825141        49.6646 
 229   0.0000       1.854223        50.4560 
 230   0.0000       1.856098        50.5070 
 231   0.0000       1.871452        50.9248 
 232   0.0000       1.871637        50.9298 
 233   0.0000       1.897181        51.6249 
 234   0.0000       1.899006        51.6746 
 235   0.0000       1.935491        52.6674 
 236   0.0000       1.943832        52.8944 
 237   0.0000       1.945844        52.9491 
 238   0.0000       1.953550        53.1588 
 239   0.0000       1.958682        53.2984 
 240   0.0000       1.969381        53.5896 
 241   0.0000       1.983819        53.9824 
 242   0.0000       1.988632        54.1134 
 243   0.0000       2.020026        54.9677 
 244   0.0000       2.026750        55.1507 
 245   0.0000       2.043115        55.5960 
 246   0.0000       2.067504        56.2596 
 247   0.0000       2.099933        57.1421 
 248   0.0000       2.137220        58.1567 
 249   0.0000       2.141358        58.2693 
 250   0.0000       2.160245        58.7833 
 251   0.0000       2.179103        59.2964 
 252   0.0000       2.186822        59.5065 
 253   0.0000       2.193092        59.6771 
 254   0.0000       2.213984        60.2456 
 255   0.0000       2.229292        60.6621 
 256   0.0000       2.235649        60.8351 
 257   0.0000       2.238071        60.9010 
 258   0.0000       2.247176        61.1488 
 259   0.0000       2.259078        61.4726 
 260   0.0000       2.296234        62.4837 
 261   0.0000       2.305575        62.7379 
 262   0.0000       2.362220        64.2793 
 263   0.0000       2.386504        64.9401 
 264   0.0000       2.405878        65.4673 
 265   0.0000       2.458864        66.9091 
 266   0.0000       2.482715        67.5581 
 267   0.0000       2.483375        67.5761 
 268   0.0000       2.521010        68.6002 
 269   0.0000       2.524074        68.6836 
 270   0.0000       2.554880        69.5218 
 271   0.0000       2.564513        69.7839 
 272   0.0000       2.592251        70.5387 
 273   0.0000       2.597942        70.6936 
 274   0.0000       2.619558        71.2818 
 275   0.0000       2.639082        71.8131 
 276   0.0000       2.665432        72.5301 
 277   0.0000       2.681288        72.9616 
 278   0.0000       2.710253        73.7497 
 279   0.0000       2.715156        73.8832 
 280   0.0000       2.746905        74.7471 
 281   0.0000       2.769914        75.3732 
 282   0.0000       2.776252        75.5456 
 283   0.0000       2.782087        75.7044 
 284   0.0000       2.796346        76.0925 
 285   0.0000       2.813849        76.5687 
 286   0.0000       2.829328        76.9899 
 287   0.0000       2.835004        77.1444 
 288   0.0000       2.873824        78.2007 
 289   0.0000       2.914813        79.3161 
 290   0.0000       2.927434        79.6595 
 291   0.0000       2.957306        80.4724 
 292   0.0000       2.981301        81.1253 
 293   0.0000       2.988888        81.3318 
 294   0.0000       2.989764        81.3556 
 295   0.0000       3.018023        82.1246 
 296   0.0000       3.082579        83.8812 
 297   0.0000       3.131802        85.2207 
 298   0.0000       3.325663        90.4959 
 299   0.0000       3.386632        92.1549 
 300   0.0000       3.432731        93.4094 
 301   0.0000       3.526064        95.9491 

                    ********************************
                    * MULLIKEN POPULATION ANALYSIS *
                    ********************************

-----------------------
MULLIKEN ATOMIC CHARGES
-----------------------
   0 C :   -0.057532
   1 C :    0.120913
   2 S :   -0.059377
   3 C :   -0.134165
   4 H :    0.031527
   5 C :   -0.085266
   6 C :    0.063985
   7 C :    0.071911
   8 C :   -0.095210
   9 C :   -0.128566
  10 O :   -0.285940
  11 O :   -0.288705
  12 C :    0.105957
  13 H :    0.046365
  14 H :    0.052865
  15 H :    0.042972
  16 C :    0.104830
  17 H :    0.047656
  18 H :    0.046413
  19 H :    0.053648
  20 C :    0.118338
  21 S :   -0.062462
  22 C :   -0.055519
  23 H :    0.036449
  24 H :    0.037420
  25 H :    0.030802
  26 H :    0.061343
  27 H :    0.059200
  28 H :    0.059457
  29 H :    0.060690
Sum of atomic charges:    0.0000000

--------------------------------
MULLIKEN REDUCED ORBITAL CHARGES
--------------------------------
  0 C s       :     2.968435  s :     2.968435
      pz      :     1.067147  p :     3.047613
      px      :     1.017367
      py      :     0.963099
      dz2     :     0.005809  d :     0.041484
      dxz     :     0.009819
      dyz     :     0.007669
      dx2y2   :     0.007152
      dxy     :     0.011035
  1 C s       :     2.809222  s :     2.809222
      pz      :     1.012869  p :     3.028106
      px      :     1.004420
      py      :     1.010816
      dz2     :     0.006271  d :     0.041760
      dxz     :     0.007874
      dyz     :     0.008989
      dx2y2   :     0.010091
      dxy     :     0.008535
  2 S s       :     5.886926  s :     5.886926
      pz      :     3.862149  p :    10.076904
      px      :     2.956110
      py      :     3.258645
      dz2     :     0.011402  d :     0.095547
      dxz     :     0.013305
      dyz     :     0.011226
      dx2y2   :     0.015003
      dxy     :     0.044611
  3 C s       :     3.192439  s :     3.192439
      pz      :     1.064325  p :     2.901515
      px      :     0.944263
      py      :     0.892927
      dz2     :     0.003112  d :     0.040210
      dxz     :     0.007284
      dyz     :     0.006871
      dx2y2   :     0.010976
      dxy     :     0.011967
  4 H s       :     0.944857  s :     0.944857
      pz      :     0.010354  p :     0.023616
      px      :     0.005960
      py      :     0.007302
  5 C s       :     2.987103  s :     2.987103
      pz      :     1.109410  p :     3.057558
      px      :     0.986044
      py      :     0.962104
      dz2     :     0.003251  d :     0.040605
      dxz     :     0.008551
      dyz     :     0.006493
      dx2y2   :     0.009447
      dxy     :     0.012864
  6 C s       :     3.087804  s :     3.087804
      pz      :     1.046902  p :     2.778698
      px      :     0.956107
      py      :     0.775689
      dz2     :     0.005022  d :     0.069513
      dxz     :     0.008999
      dyz     :     0.013133
      dx2y2   :     0.020224
      dxy     :     0.022135
  7 C s       :     3.083983  s :     3.083983
      pz      :     1.041162  p :     2.774353
      px      :     0.953878
      py      :     0.779313
      dz2     :     0.005054  d :     0.069753
      dxz     :     0.009229
      dyz     :     0.013573
      dx2y2   :     0.019786
      dxy     :     0.022111
  8 C s       :     2.986824  s :     2.986824
      pz      :     1.115094  p :     3.068048
      px      :     0.990833
      py      :     0.962121
      dz2     :     0.003252  d :     0.040338
      dxz     :     0.008411
      dyz     :     0.006421
      dx2y2   :     0.009453
      dxy     :     0.012802
  9 C s       :     3.195353  s :     3.195353
      pz      :     1.060523  p :     2.892903
      px      :     0.942194
      py      :     0.890186
      dz2     :     0.003113  d :     0.040310
      dxz     :     0.007295
      dyz     :     0.006943
      dx2y2   :     0.011021
      dxy     :     0.011938
 10 O s       :     3.736249  s :     3.736249
      pz      :     1.734375  p :     4.533535
      px      :     1.608630
      py      :     1.190530
      dz2     :     0.002174  d :     0.016156
      dxz     :     0.002108
      dyz     :     0.003150
      dx2y2   :     0.002691
      dxy     :     0.006033
 11 O s       :     3.737621  s :     3.737621
      pz      :     1.696286  p :     4.534934
      px      :     1.625906
      py      :     1.212742
      dz2     :     0.002273  d :     0.016150
      dxz     :     0.002289
      dyz     :     0.003398
      dx2y2   :     0.002583
      dxy     :     0.005608
 12 C s       :     3.049754  s :     3.049754
      pz      :     0.969309  p :     2.795145
      px      :     0.992549
      py      :     0.833287
      dz2     :     0.009576  d :     0.049144
      dxz     :     0.007573
      dyz     :     0.010599
      dx2y2   :     0.006891
      dxy     :     0.014505
 13 H s       :     0.933000  s :     0.933000
      pz      :     0.004754  p :     0.020635
      px      :     0.008690
      py      :     0.007192
 14 H s       :     0.925011  s :     0.925011
      pz      :     0.006614  p :     0.022124
      px      :     0.010315
      py      :     0.005195
 15 H s       :     0.935566  s :     0.935566
      pz      :     0.011712  p :     0.021462
      px      :     0.006091
      py      :     0.003659
 16 C s       :     3.052102  s :     3.052102
      pz      :     1.002717  p :     2.794086
      px      :     0.981245
      py      :     0.810124
      dz2     :     0.008485  d :     0.048983
      dxz     :     0.008613
      dyz     :     0.009374
      dx2y2   :     0.007665
      dxy     :     0.014846
 17 H s       :     0.931719  s :     0.931719
      pz      :     0.005072  p :     0.020625
      px      :     0.008522
      py      :     0.007031
 18 H s       :     0.931900  s :     0.931900
      pz      :     0.011710  p :     0.021687
      px      :     0.006688
      py      :     0.003288
 19 H s       :     0.924216  s :     0.924216
      pz      :     0.007885  p :     0.022136
      px      :     0.009586
      py      :     0.004665
 20 C s       :     2.811705  s :     2.811705
      pz      :     1.012908  p :     3.028195
      px      :     1.004431
      py      :     1.010856
      dz2     :     0.006275  d :     0.041762
      dxz     :     0.007860
      dyz     :     0.008987
      dx2y2   :     0.010109
      dxy     :     0.008531
 21 S s       :     5.886768  s :     5.886768
      pz      :     3.862826  p :    10.079137
      px      :     2.958601
      py      :     3.257710
      dz2     :     0.011450  d :     0.096557
      dxz     :     0.013637
      dyz     :     0.011320
      dx2y2   :     0.015216
      dxy     :     0.044934
 22 C s       :     2.963951  s :     2.963951
      pz      :     1.067043  p :     3.049861
      px      :     1.018637
      py      :     0.964182
      dz2     :     0.005832  d :     0.041706
      dxz     :     0.009856
      dyz     :     0.007736
      dx2y2   :     0.007202
      dxy     :     0.011080
 23 H s       :     0.939948  s :     0.939948
      pz      :     0.009856  p :     0.023603
      px      :     0.005962
      py      :     0.007785
 24 H s       :     0.938964  s :     0.938964
      pz      :     0.009842  p :     0.023616
      px      :     0.005965
      py      :     0.007809
 25 H s       :     0.945594  s :     0.945594
      pz      :     0.010369  p :     0.023604
      px      :     0.005990
      py      :     0.007244
 26 H s       :     0.916462  s :     0.916462
      pz      :     0.010299  p :     0.022195
      px      :     0.007027
      py      :     0.004869
 27 H s       :     0.918389  s :     0.918389
      pz      :     0.010572  p :     0.022411
      px      :     0.007086
      py      :     0.004752
 28 H s       :     0.918149  s :     0.918149
      pz      :     0.010548  p :     0.022394
      px      :     0.007099
      py      :     0.004747
 29 H s       :     0.917091  s :     0.917091
      pz      :     0.010253  p :     0.022219
      px      :     0.007071
      py      :     0.004896


                     *******************************
                     * LOEWDIN POPULATION ANALYSIS *
                     *******************************

----------------------
LOEWDIN ATOMIC CHARGES
----------------------
   0 C :   -0.137524
   1 C :   -0.058492
   2 S :    0.276782
   3 C :   -0.065582
   4 H :    0.047184
   5 C :   -0.187621
   6 C :   -0.001704
   7 C :    0.000947
   8 C :   -0.189636
   9 C :   -0.063875
  10 O :   -0.091381
  11 O :   -0.095426
  12 C :    0.051338
  13 H :    0.029923
  14 H :    0.011532
  15 H :    0.020234
  16 C :    0.050153
  17 H :    0.030794
  18 H :    0.019867
  19 H :    0.013419
  20 C :   -0.057974
  21 S :    0.277583
  22 C :   -0.140619
  23 H :    0.047253
  24 H :    0.047644
  25 H :    0.046800
  26 H :    0.028694
  27 H :    0.030512
  28 H :    0.030523
  29 H :    0.028654

-------------------------------
LOEWDIN REDUCED ORBITAL CHARGES
-------------------------------
  0 C s       :     2.859916  s :     2.859916
      pz      :     1.093635  p :     3.173901
      px      :     1.039764
      py      :     1.040502
      dz2     :     0.015391  d :     0.103707
      dxz     :     0.027365
      dyz     :     0.014902
      dx2y2   :     0.016607
      dxy     :     0.029442
  1 C s       :     2.792132  s :     2.792132
      pz      :     1.053232  p :     3.152074
      px      :     1.042690
      py      :     1.056152
      dz2     :     0.017229  d :     0.114285
      dxz     :     0.017919
      dyz     :     0.024902
      dx2y2   :     0.031608
      dxy     :     0.022628
  2 S s       :     5.527819  s :     5.527819
      pz      :     3.815063  p :    10.076542
      px      :     2.946382
      py      :     3.315098
      dz2     :     0.014748  d :     0.118858
      dxz     :     0.015039
      dyz     :     0.012343
      dx2y2   :     0.017183
      dxy     :     0.059543
  3 C s       :     2.853993  s :     2.853993
      pz      :     1.035573  p :     3.103821
      px      :     1.027835
      py      :     1.040413
      dz2     :     0.007813  d :     0.107768
      dxz     :     0.014087
      dyz     :     0.014543
      dx2y2   :     0.035211
      dxy     :     0.036113
  4 H s       :     0.885336  s :     0.885336
      pz      :     0.031475  p :     0.067480
      px      :     0.016708
      py      :     0.019297
  5 C s       :     2.912687  s :     2.912687
      pz      :     1.093705  p :     3.173076
      px      :     1.044150
      py      :     1.035222
      dz2     :     0.007703  d :     0.101858
      dxz     :     0.017382
      dyz     :     0.013521
      dx2y2   :     0.028232
      dxy     :     0.035019
  6 C s       :     2.840201  s :     2.840201
      pz      :     1.044768  p :     2.992559
      px      :     1.045043
      py      :     0.902748
      dz2     :     0.011400  d :     0.168945
      dxz     :     0.018707
      dyz     :     0.026215
      dx2y2   :     0.052516
      dxy     :     0.060106
  7 C s       :     2.839949  s :     2.839949
      pz      :     1.040381  p :     2.989649
      px      :     1.045565
      py      :     0.903702
      dz2     :     0.011448  d :     0.169455
      dxz     :     0.019156
      dyz     :     0.027300
      dx2y2   :     0.051478
      dxy     :     0.060073
  8 C s       :     2.913391  s :     2.913391
      pz      :     1.098704  p :     3.175195
      px      :     1.042238
      py      :     1.034252
      dz2     :     0.007675  d :     0.101050
      dxz     :     0.017032
      dyz     :     0.013362
      dx2y2   :     0.028205
      dxy     :     0.034777
  9 C s       :     2.854622  s :     2.854622
      pz      :     1.032370  p :     3.101293
      px      :     1.028498
      py      :     1.040424
      dz2     :     0.007828  d :     0.107961
      dxz     :     0.014131
      dyz     :     0.014730
      dx2y2   :     0.035264
      dxy     :     0.036007
 10 O s       :     3.438222  s :     3.438222
      pz      :     1.731063  p :     4.622208
      px      :     1.641133
      py      :     1.250012
      dz2     :     0.003803  d :     0.030951
      dxz     :     0.002674
      dyz     :     0.006196
      dx2y2   :     0.006047
      dxy     :     0.012232
 11 O s       :     3.440784  s :     3.440784
      pz      :     1.699832  p :     4.623836
      px      :     1.655559
      py      :     1.268445
      dz2     :     0.003936  d :     0.030807
      dxz     :     0.003003
      dyz     :     0.006882
      dx2y2   :     0.005736
      dxy     :     0.011250
 12 C s       :     2.864878  s :     2.864878
      pz      :     1.022595  p :     2.968587
      px      :     1.049837
      py      :     0.896156
      dz2     :     0.023288  d :     0.115196
      dxz     :     0.019466
      dyz     :     0.022874
      dx2y2   :     0.013471
      dxy     :     0.036098
 13 H s       :     0.908116  s :     0.908116
      pz      :     0.011480  p :     0.061961
      px      :     0.026642
      py      :     0.023839
 14 H s       :     0.921951  s :     0.921951
      pz      :     0.019216  p :     0.066517
      px      :     0.031451
      py      :     0.015850
 15 H s       :     0.915340  s :     0.915340
      pz      :     0.038328  p :     0.064426
      px      :     0.015558
      py      :     0.010540
 16 C s       :     2.864852  s :     2.864852
      pz      :     1.051906  p :     2.970060
      px      :     1.042915
      py      :     0.875239
      dz2     :     0.020423  d :     0.114935
      dxz     :     0.023066
      dyz     :     0.019839
      dx2y2   :     0.015134
      dxy     :     0.036473
 17 H s       :     0.907224  s :     0.907224
      pz      :     0.012050  p :     0.061982
      px      :     0.026297
      py      :     0.023635
 18 H s       :     0.915185  s :     0.915185
      pz      :     0.037785  p :     0.064948
      px      :     0.017728
      py      :     0.009435
 19 H s       :     0.920197  s :     0.920197
      pz      :     0.023536  p :     0.066384
      px      :     0.028724
      py      :     0.014125
 20 C s       :     2.792241  s :     2.792241
      pz      :     1.053390  p :     3.151519
      px      :     1.042712
      py      :     1.055417
      dz2     :     0.017229  d :     0.114213
      dxz     :     0.017906
      dyz     :     0.024849
      dx2y2   :     0.031680
      dxy     :     0.022550
 21 S s       :     5.525835  s :     5.525835
      pz      :     3.815529  p :    10.076250
      px      :     2.946203
      py      :     3.314518
      dz2     :     0.014841  d :     0.120332
      dxz     :     0.015483
      dyz     :     0.012482
      dx2y2   :     0.017497
      dxy     :     0.060029
 22 C s       :     2.858975  s :     2.858975
      pz      :     1.093437  p :     3.177275
      px      :     1.041492
      py      :     1.042346
      dz2     :     0.015477  d :     0.104368
      dxz     :     0.027490
      dyz     :     0.015009
      dx2y2   :     0.016775
      dxy     :     0.029617
 23 H s       :     0.885634  s :     0.885634
      pz      :     0.029896  p :     0.067113
      px      :     0.016456
      py      :     0.020761
 24 H s       :     0.885220  s :     0.885220
      pz      :     0.029860  p :     0.067136
      px      :     0.016479
      py      :     0.020798
 25 H s       :     0.885755  s :     0.885755
      pz      :     0.031513  p :     0.067445
      px      :     0.016748
      py      :     0.019185
 26 H s       :     0.901882  s :     0.901882
      pz      :     0.032038  p :     0.069425
      px      :     0.022873
      py      :     0.014513
 27 H s       :     0.900310  s :     0.900310
      pz      :     0.032572  p :     0.069177
      px      :     0.022964
      py      :     0.013641
 28 H s       :     0.900307  s :     0.900307
      pz      :     0.032519  p :     0.069170
      px      :     0.023019
      py      :     0.013632
 29 H s       :     0.901926  s :     0.901926
      pz      :     0.031867  p :     0.069420
      px      :     0.023011
      py      :     0.014542


                      *****************************
                      * MAYER POPULATION ANALYSIS *
                      *****************************

  NA   - Mulliken gross atomic population
  ZA   - Total nuclear charge
  QA   - Mulliken gross atomic charge
  VA   - Mayer's total valence
  BVA  - Mayer's bonded valence
  FA   - Mayer's free valence

  ATOM       NA         ZA         QA         VA         BVA        FA
  0 C      6.0575     6.0000    -0.0575     4.0357     4.0357     0.0000
  1 C      5.8791     6.0000     0.1209     4.0734     4.0734    -0.0000
  2 S     16.0594    16.0000    -0.0594     2.2201     2.2201     0.0000
  3 C      6.1342     6.0000    -0.1342     4.1311     4.1311     0.0000
  4 H      0.9685     1.0000     0.0315     0.9837     0.9837     0.0000
  5 C      6.0853     6.0000    -0.0853     3.8669     3.8669     0.0000
  6 C      5.9360     6.0000     0.0640     4.1104     4.1104    -0.0000
  7 C      5.9281     6.0000     0.0719     4.1146     4.1146     0.0000
  8 C      6.0952     6.0000    -0.0952     3.8632     3.8632     0.0000
  9 C      6.1286     6.0000    -0.1286     4.1293     4.1293     0.0000
 10 O      8.2859     8.0000    -0.2859     2.2748     2.2748    -0.0000
 11 O      8.2887     8.0000    -0.2887     2.2687     2.2687     0.0000
 12 C      5.8940     6.0000     0.1060     3.9020     3.9020    -0.0000
 13 H      0.9536     1.0000     0.0464     0.9874     0.9874    -0.0000
 14 H      0.9471     1.0000     0.0529     0.9926     0.9926     0.0000
 15 H      0.9570     1.0000     0.0430     0.9925     0.9925     0.0000
 16 C      5.8952     6.0000     0.1048     3.9004     3.9004    -0.0000
 17 H      0.9523     1.0000     0.0477     0.9868     0.9868    -0.0000
 18 H      0.9536     1.0000     0.0464     0.9944     0.9944     0.0000
 19 H      0.9464     1.0000     0.0536     0.9935     0.9935     0.0000
 20 C      5.8817     6.0000     0.1183     4.0766     4.0766    -0.0000
 21 S     16.0625    16.0000    -0.0625     2.2213     2.2213    -0.0000
 22 C      6.0555     6.0000    -0.0555     4.0346     4.0346    -0.0000
 23 H      0.9636     1.0000     0.0364     0.9816     0.9816     0.0000
 24 H      0.9626     1.0000     0.0374     0.9813     0.9813    -0.0000
 25 H      0.9692     1.0000     0.0308     0.9838     0.9838    -0.0000
 26 H      0.9387     1.0000     0.0613     0.9722     0.9722     0.0000
 27 H      0.9408     1.0000     0.0592     0.9719     0.9719    -0.0000
 28 H      0.9405     1.0000     0.0595     0.9718     0.9718    -0.0000
 29 H      0.9393     1.0000     0.0607     0.9724     0.9724    -0.0000

  Mayer bond orders larger than 0.100000
B(  0-C ,  1-C ) :   1.1291 B(  0-C ,  2-S ) :   0.9821 B(  0-C , 26-H ) :   0.9289 
B(  0-C , 28-H ) :   0.9247 B(  1-C ,  3-C ) :   1.1125 B(  1-C ,  4-H ) :   0.8772 
B(  1-C , 23-H ) :   0.8862 B(  2-S ,  5-C ) :   0.9820 B(  3-C ,  5-C ) :   1.3914 
B(  3-C ,  7-C ) :   1.3841 B(  3-C ,  9-C ) :   0.1351 B(  5-C ,  6-C ) :   1.3348 
[...]
      pz      :     0.004725  p :     0.020616
      px      :     0.008666
      py      :     0.007224
 14 H s       :     0.924531  s :     0.924531
      pz      :     0.006599  p :     0.022171
      px      :     0.010413
      py      :     0.005158
 15 H s       :     0.935203  s :     0.935203
      pz      :     0.011777  p :     0.021452
      px      :     0.006032
      py      :     0.003643
 16 C s       :     3.052589  s :     3.052589
      pz      :     1.003248  p :     2.794269
      px      :     0.981487
      py      :     0.809534
      dz2     :     0.008527  d :     0.048955
      dxz     :     0.008580
      dyz     :     0.009339
      dx2y2   :     0.007715
      dxy     :     0.014793
 17 H s       :     0.930930  s :     0.930930
      pz      :     0.005047  p :     0.020605
      px      :     0.008520
      py      :     0.007038
 18 H s       :     0.931586  s :     0.931586
      pz      :     0.011765  p :     0.021686
      px      :     0.006647
      py      :     0.003274
 19 H s       :     0.923695  s :     0.923695
      pz      :     0.007881  p :     0.022180
      px      :     0.009654
      py      :     0.004645
 20 C s       :     2.860165  s :     2.860165
      pz      :     1.035632  p :     3.022231
      px      :     1.006277
      py      :     0.980322
      dz2     :     0.004984  d :     0.040922
      dxz     :     0.007620
      dyz     :     0.009550
      dx2y2   :     0.010164
      dxy     :     0.008605
 21 S s       :     5.882978  s :     5.882978
      pz      :     3.860574  p :    10.074460
      px      :     2.957345
      py      :     3.256541
      dz2     :     0.011514  d :     0.096547
      dxz     :     0.013805
      dyz     :     0.011337
      dx2y2   :     0.014862
      dxy     :     0.045029
 22 C s       :     2.966412  s :     2.966412
      pz      :     1.075704  p :     3.038298
      px      :     1.001266
      py      :     0.961328
      dz2     :     0.005152  d :     0.040933
      dxz     :     0.010086
      dyz     :     0.007558
      dx2y2   :     0.007109
      dxy     :     0.011028
 23 H s       :     0.940260  s :     0.940260
      pz      :     0.009692  p :     0.022813
      px      :     0.005479
      py      :     0.007641
 24 H s       :     0.939060  s :     0.939060
      pz      :     0.009669  p :     0.022813
      px      :     0.005487
      py      :     0.007657
 25 H s       :     0.945995  s :     0.945995
      pz      :     0.010157  p :     0.022757
      px      :     0.005495
      py      :     0.007105
 26 H s       :     0.917400  s :     0.917400
      pz      :     0.010041  p :     0.021491
      px      :     0.007107
      py      :     0.004343
 27 H s       :     0.917979  s :     0.917979
      pz      :     0.010335  p :     0.021525
      px      :     0.007027
      py      :     0.004164
 28 H s       :     0.917396  s :     0.917396
      pz      :     0.010314  p :     0.021496
      px      :     0.007008
      py      :     0.004174
 29 H s       :     0.918207  s :     0.918207
      pz      :     0.010002  p :     0.021513
      px      :     0.007149
      py      :     0.004363


                     *******************************
                     * LOEWDIN POPULATION ANALYSIS *
                     *******************************

----------------------
LOEWDIN ATOMIC CHARGES
----------------------
   0 C :   -0.142672
   1 C :   -0.065380
   2 S :    0.280549
   3 C :   -0.064574
   4 H :    0.047095
   5 C :   -0.187398
   6 C :   -0.001334
   7 C :    0.001328
   8 C :   -0.189431
   9 C :   -0.062900
  10 O :   -0.090925
  11 O :   -0.094988
  12 C :    0.051689
  13 H :    0.030275
  14 H :    0.011236
  15 H :    0.020499
  16 C :    0.050478
  17 H :    0.031145
  18 H :    0.020110
  19 H :    0.013244
  20 C :   -0.064861
  21 S :    0.281420
  22 C :   -0.145872
  23 H :    0.048796
  24 H :    0.049194
  25 H :    0.046829
  26 H :    0.031931
  27 H :    0.031428
  28 H :    0.031376
  29 H :    0.031713

-------------------------------
LOEWDIN REDUCED ORBITAL CHARGES
-------------------------------
  0 C s       :     2.865876  s :     2.865876
      pz      :     1.099441  p :     3.174552
      px      :     1.032019
      py      :     1.043092
      dz2     :     0.013425  d :     0.102244
      dxz     :     0.028050
      dyz     :     0.014801
      dx2y2   :     0.016630
      dxy     :     0.029337
  1 C s       :     2.800330  s :     2.800330
      pz      :     1.063620  p :     3.152471
      px      :     1.042597
      py      :     1.046254
      dz2     :     0.013580  d :     0.112578
      dxz     :     0.017347
      dyz     :     0.026669
      dx2y2   :     0.031914
      dxy     :     0.023068
  2 S s       :     5.527407  s :     5.527407
      pz      :     3.814443  p :    10.073208
      px      :     2.945273
      py      :     3.313493
      dz2     :     0.014814  d :     0.118835
      dxz     :     0.015299
      dyz     :     0.012384
      dx2y2   :     0.016657
      dxy     :     0.059682
  3 C s       :     2.853222  s :     2.853222
      pz      :     1.035276  p :     3.103728
      px      :     1.028091
      py      :     1.040361
      dz2     :     0.007852  d :     0.107625
      dxz     :     0.014408
      dyz     :     0.014549
      dx2y2   :     0.035250
      dxy     :     0.035567
  4 H s       :     0.888691  s :     0.888691
      pz      :     0.029154  p :     0.064213
      px      :     0.015315
      py      :     0.019744
  5 C s       :     2.911869  s :     2.911869
      pz      :     1.094864  p :     3.173877
      px      :     1.044057
      py      :     1.034956
      dz2     :     0.007686  d :     0.101652
      dxz     :     0.017432
      dyz     :     0.013473
      dx2y2   :     0.028118
      dxy     :     0.034944
  6 C s       :     2.839796  s :     2.839796
      pz      :     1.045800  p :     2.992762
      px      :     1.044179
      py      :     0.902783
      dz2     :     0.011402  d :     0.168776
      dxz     :     0.018799
      dyz     :     0.026063
      dx2y2   :     0.052490
      dxy     :     0.060022
  7 C s       :     2.839535  s :     2.839535
      pz      :     1.041438  p :     2.989849
      px      :     1.044675
      py      :     0.903736
      dz2     :     0.011450  d :     0.169288
      dxz     :     0.019255
      dyz     :     0.027135
      dx2y2   :     0.051449
      dxy     :     0.059999
  8 C s       :     2.912563  s :     2.912563
      pz      :     1.099910  p :     3.176031
      px      :     1.042121
      py      :     1.034001
      dz2     :     0.007657  d :     0.100837
      dxz     :     0.017081
      dyz     :     0.013312
      dx2y2   :     0.028086
      dxy     :     0.034700
  9 C s       :     2.853846  s :     2.853846
      pz      :     1.032097  p :     3.101236
      px      :     1.028761
      py      :     1.040378
      dz2     :     0.007866  d :     0.107818
      dxz     :     0.014448
      dyz     :     0.014736
      dx2y2   :     0.035302
      dxy     :     0.035465
 10 O s       :     3.438069  s :     3.438069
      pz      :     1.730539  p :     4.621920
      px      :     1.640663
      py      :     1.250718
      dz2     :     0.003801  d :     0.030937
      dxz     :     0.002685
      dyz     :     0.006191
      dx2y2   :     0.006039
      dxy     :     0.012221
 11 O s       :     3.440645  s :     3.440645
      pz      :     1.699319  p :     4.623547
      px      :     1.654939
      py      :     1.269290
      dz2     :     0.003941  d :     0.030795
      dxz     :     0.003010
      dyz     :     0.006872
      dx2y2   :     0.005728
      dxy     :     0.011244
 12 C s       :     2.864887  s :     2.864887
      pz      :     1.022870  p :     2.968284
      px      :     1.049579
      py      :     0.895835
      dz2     :     0.023655  d :     0.115140
      dxz     :     0.019199
      dyz     :     0.022696
      dx2y2   :     0.013675
      dxy     :     0.035915
 13 H s       :     0.907797  s :     0.907797
      pz      :     0.011411  p :     0.061928
      px      :     0.026567
      py      :     0.023951
 14 H s       :     0.922061  s :     0.922061
      pz      :     0.019077  p :     0.066704
      px      :     0.031939
      py      :     0.015687
 15 H s       :     0.915077  s :     0.915077
      pz      :     0.038528  p :     0.064424
      px      :     0.015391
      py      :     0.010505
 16 C s       :     2.864838  s :     2.864838
      pz      :     1.052276  p :     2.969812
      px      :     1.042780
      py      :     0.874755
      dz2     :     0.020578  d :     0.114872
      dxz     :     0.022955
      dyz     :     0.019724
      dx2y2   :     0.015264
      dxy     :     0.036351
 17 H s       :     0.906908  s :     0.906908
      pz      :     0.011996  p :     0.061946
      px      :     0.026298
      py      :     0.023652
 18 H s       :     0.914932  s :     0.914932
      pz      :     0.037919  p :     0.064959
      px      :     0.017626
      py      :     0.009413
 19 H s       :     0.920210  s :     0.920210
      pz      :     0.023434  p :     0.066546
      px      :     0.029071
      py      :     0.014040
 20 C s       :     2.800437  s :     2.800437
      pz      :     1.063695  p :     3.151914
      px      :     1.042548
      py      :     1.045671
      dz2     :     0.013599  d :     0.112510
      dxz     :     0.017348
      dyz     :     0.026601
      dx2y2   :     0.031971
      dxy     :     0.022992
 21 S s       :     5.525488  s :     5.525488
      pz      :     3.814661  p :    10.072804
      px      :     2.945043
      py      :     3.313100
      dz2     :     0.014908  d :     0.120287
      dxz     :     0.015761
      dyz     :     0.012520
      dx2y2   :     0.016941
      dxy     :     0.060157
 22 C s       :     2.864937  s :     2.864937
      pz      :     1.099594  p :     3.178001
      px      :     1.033513
      py      :     1.044894
      dz2     :     0.013429  d :     0.102934
      dxz     :     0.028269
      dyz     :     0.014883
      dx2y2   :     0.016848
      dxy     :     0.029504
 23 H s       :     0.887003  s :     0.887003
      pz      :     0.027649  p :     0.064201
      px      :     0.015341
      py      :     0.021211
 24 H s       :     0.886593  s :     0.886593
      pz      :     0.027575  p :     0.064214
      px      :     0.015358
      py      :     0.021280
 25 H s       :     0.888990  s :     0.888990
      pz      :     0.029233  p :     0.064181
      px      :     0.015379
      py      :     0.019569
 26 H s       :     0.901530  s :     0.901530
      pz      :     0.030223  p :     0.066539
      px      :     0.023297
      py      :     0.013020
 27 H s       :     0.902014  s :     0.902014
      pz      :     0.031007  p :     0.066558
      px      :     0.023001
      py      :     0.012549
 28 H s       :     0.902066  s :     0.902066
      pz      :     0.031015  p :     0.066558
      px      :     0.022970
      py      :     0.012574
 29 H s       :     0.901761  s :     0.901761
      pz      :     0.030043  p :     0.066526
      px      :     0.023433
      py      :     0.013050


                      *****************************
                      * MAYER POPULATION ANALYSIS *
                      *****************************

  NA   - Mulliken gross atomic population
  ZA   - Total nuclear charge
  QA   - Mulliken gross atomic charge
  VA   - Mayer's total valence
  BVA  - Mayer's bonded valence
  FA   - Mayer's free valence

  ATOM       NA         ZA         QA         VA         BVA        FA
  0 C      6.0473     6.0000    -0.0473     4.0046     4.0046    -0.0000
  1 C      5.9205     6.0000     0.0795     4.0607     4.0607    -0.0000
  2 S     16.0516    16.0000    -0.0516     2.2248     2.2248    -0.0000
  3 C      6.1128     6.0000    -0.1128     4.1198     4.1198    -0.0000
  4 H      0.9680     1.0000     0.0320     0.9827     0.9827    -0.0000
  5 C      6.0881     6.0000    -0.0881     3.8739     3.8739     0.0000
  6 C      5.9339     6.0000     0.0661     4.1047     4.1047     0.0000
  7 C      5.9258     6.0000     0.0742     4.1085     4.1085    -0.0000
  8 C      6.0981     6.0000    -0.0981     3.8702     3.8702    -0.0000
  9 C      6.1067     6.0000    -0.1067     4.1174     4.1174    -0.0000
 10 O      8.2868     8.0000    -0.2868     2.2743     2.2743    -0.0000
 11 O      8.2895     8.0000    -0.2895     2.2683     2.2683    -0.0000
 12 C      5.8947     6.0000     0.1053     3.9018     3.9018     0.0000
 13 H      0.9529     1.0000     0.0471     0.9875     0.9875     0.0000
 14 H      0.9467     1.0000     0.0533     0.9928     0.9928    -0.0000
 15 H      0.9567     1.0000     0.0433     0.9919     0.9919    -0.0000
 16 C      5.8958     6.0000     0.1042     3.9000     3.9000    -0.0000
 17 H      0.9515     1.0000     0.0485     0.9869     0.9869    -0.0000
 18 H      0.9533     1.0000     0.0467     0.9939     0.9939    -0.0000
 19 H      0.9459     1.0000     0.0541     0.9938     0.9938    -0.0000
 20 C      5.9233     6.0000     0.0767     4.0636     4.0636     0.0000
 21 S     16.0540    16.0000    -0.0540     2.2263     2.2263    -0.0000
 22 C      6.0456     6.0000    -0.0456     4.0035     4.0035    -0.0000
 23 H      0.9631     1.0000     0.0369     0.9803     0.9803    -0.0000
 24 H      0.9619     1.0000     0.0381     0.9800     0.9800     0.0000
 25 H      0.9688     1.0000     0.0312     0.9828     0.9828    -0.0000
 26 H      0.9389     1.0000     0.0611     0.9712     0.9712    -0.0000
 27 H      0.9395     1.0000     0.0605     0.9710     0.9710    -0.0000
 28 H      0.9389     1.0000     0.0611     0.9709     0.9709    -0.0000
 29 H      0.9397     1.0000     0.0603     0.9712     0.9712    -0.0000

  Mayer bond orders larger than 0.100000
B(  0-C ,  1-C ) :   1.1171 B(  0-C ,  2-S ) :   0.9843 B(  0-C , 26-H ) :   0.9247 
B(  0-C , 28-H ) :   0.9228 B(  1-C ,  3-C ) :   1.1141 B(  1-C ,  4-H ) :   0.8808 
B(  1-C , 23-H ) :   0.8807 B(  2-S ,  5-C ) :   0.9828 B(  3-C ,  5-C ) :   1.3885 
B(  3-C ,  7-C ) :   1.3770 B(  3-C ,  9-C ) :   0.1313 B(  5-C ,  6-C ) :   1.3380 
B(  6-C ,  9-C ) :   1.3779 B(  6-C , 11-O ) :   1.1949 B(  7-C ,  8-C ) :   1.3378 
B(  7-C , 10-O ) :   1.1991 B(  8-C ,  9-C ) :   1.3864 B(  8-C , 21-S ) :   0.9786 
B(  9-C , 20-C ) :   1.1141 B( 10-O , 16-C ) :   0.9585 B( 11-O , 12-C ) :   0.9617 
B( 12-C , 13-H ) :   0.9706 B( 12-C , 14-H ) :   0.9502 B( 12-C , 15-H ) :   0.9610 
B( 16-C , 17-H ) :   0.9697 B( 16-C , 18-H ) :   0.9605 B( 16-C , 19-H ) :   0.9515 
B( 20-C , 22-C ) :   1.1170 B( 20-C , 24-H ) :   0.8817 B( 20-C , 25-H ) :   0.8812 
B( 21-S , 22-C ) :   0.9849 B( 22-C , 27-H ) :   0.9222 B( 22-C , 29-H ) :   0.9240 


-------
TIMINGS
-------

Total SCF time: 0 days 0 hours 0 min 27 sec 

Total time                  ....      27.946 sec
Sum of individual times     ....      27.529 sec  ( 98.5%)

Fock matrix formation       ....      20.323 sec  ( 72.7%)
  Split-RI-J                ....       7.685 sec  ( 37.8% of F)
  XC integration            ....      12.393 sec  ( 61.0% of F)
    Basis function eval.    ....       4.532 sec  ( 36.6% of XC)
    Density eval.           ....       2.899 sec  ( 23.4% of XC)
    XC-Functional eval.     ....       1.116 sec  (  9.0% of XC)
    XC-Potential eval.      ....       3.273 sec  ( 26.4% of XC)
Diagonalization             ....       0.020 sec  (  0.1%)
Density matrix formation    ....       0.019 sec  (  0.1%)
Population analysis         ....       0.048 sec  (  0.2%)
Initial guess               ....       0.021 sec  (  0.1%)
Orbital Transformation      ....       0.000 sec  (  0.0%)
Orbital Orthonormalization  ....       0.014 sec  (  0.0%)
DIIS solution               ....       0.006 sec  (  0.0%)
SOSCF solution              ....       0.095 sec  (  0.3%)
Grid generation             ....       6.997 sec  ( 25.0%)


-------------------------------------------------------------------------------
                          DFT DISPERSION CORRECTION                            
                                                                               
                              DFTD3 V3.1  Rev 1                                
                          USING Becke-Johnson damping                          
-------------------------------------------------------------------------------
The BP86 functional is recognized
Active option DFTDOPT                   ...         4   

molecular C6(AA) [au] = 11723.614684 


            DFT-D V3
 parameters
 s6 scaling factor         :     1.0000 
 a1 scaling factor         :     0.3946 
 s8 scaling factor         :     3.2822 
 a2 scaling factor         :     4.8516 
 ad hoc parameters k1-k3   :    16.0000     1.3333    -4.0000 

 Edisp/kcal,au: -41.403070587149  -0.065979985772 
 E6   /kcal   : -14.905104959 
 E8   /kcal   : -26.497965628 
 % E8         :  64.000001092 

-------------------------   ----------------
Dispersion correction           -0.065979986
-------------------------   ----------------


-------------------------   --------------------
FINAL SINGLE POINT ENERGY     -1411.923660698565
-------------------------   --------------------

                                *** OPTIMIZATION RUN DONE ***

                            ***************************************
                            *     ORCA property calculations      *
                            ***************************************

                                    ---------------------
                                    Active property flags
                                    ---------------------
   (+) Dipole Moment


------------------------------------------------------------------------------
                       ORCA ELECTRIC PROPERTIES CALCULATION
------------------------------------------------------------------------------

Dipole Moment Calculation                       ... on
Quadrupole Moment Calculation                   ... off
Polarizability Calculation                      ... off
GBWName                                         ... PTB7_Input_Dimethoxy_Benzodithiophene_1_Optimize_Monomer_Hydrogenated.gbw
Electron density file                           ... PTB7_Input_Dimethoxy_Benzodithiophene_1_Optimize_Monomer_Hydrogenated.scfp
The origin for moment calculation is the CENTER OF MASS  = (-1.127070,  0.247232  0.027460)

-------------
DIPOLE MOMENT
-------------
                                X             Y             Z
Electronic contribution:     -0.10960      -0.09520      -0.40554
Nuclear contribution   :      0.11053       0.15343       0.47179
                        -----------------------------------------
Total Dipole Moment    :      0.00094       0.05823       0.06625
                        -----------------------------------------
Magnitude (a.u.)       :      0.08821
Magnitude (Debye)      :      0.22420



--------------------
Rotational spectrum 
--------------------
 
Rotational constants in cm-1:     0.020580     0.012925     0.008046 
Rotational constants in MHz :   616.987456   387.468529   241.222781 

 Dipole components along the rotational axes: 
x,y,z [a.u.] :     0.041031    -0.030863     0.071724 
x,y,z [Debye]:     0.104293    -0.078448     0.182309 

 

Timings for individual modules:

Sum of individual times         ...      415.332 sec (=   6.922 min)
GTO integral calculation        ...        2.892 sec (=   0.048 min)   0.7 %
SCF iterations                  ...      248.917 sec (=   4.149 min)  59.9 %
SCF Gradient evaluation         ...      162.030 sec (=   2.701 min)  39.0 %
Geometry relaxation             ...        1.493 sec (=   0.025 min)   0.4 %
                             ****ORCA TERMINATED NORMALLY****
TOTAL RUN TIME: 0 days 0 hours 6 minutes 57 seconds 475 msec
