
                                 *****************
                                 * O   R   C   A *
                                 *****************

           --- An Ab Initio, DFT and Semiempirical electronic structure package ---

                  #######################################################
                  #                        -***-                        #
                  #  Department of molecular theory and spectroscopy    #
                  #              Directorship: Frank Neese              #
                  # Max Planck Institute for Chemical Energy Conversion #
                  #                  D-45470 Muelheim/Ruhr              #
                  #                       Germany                       #
                  #                                                     #
                  #                  All rights reserved                #
                  #                        -***-                        #
                  #######################################################


                         Program Version 3.0.3 - RELEASE   -


 With contributions from (in alphabetic order):
   Ute Becker             : Parallelization
   Dmytro Bykov           : SCF Hessian
   Dmitry Ganyushin       : Spin-Orbit,Spin-Spin,Magnetic field MRCI
   Andreas Hansen         : Spin unrestricted coupled pair/coupled cluster methods
   Dimitrios Liakos       : Extrapolation schemes; parallel MDCI
   Robert Izsak           : Overlap fitted RIJCOSX, COSX-SCS-MP3
   Christian Kollmar      : KDIIS, OOCD, Brueckner-CCSD(T), CCSD density
   Simone Kossmann        : Meta GGA functionals, TD-DFT gradient, OOMP2, MP2 Hessian
   Taras Petrenko         : DFT Hessian,TD-DFT gradient, ASA and ECA modules, normal mode analysis, Resonance Raman, ABS, FL, XAS/XES, NRVS
   Christoph Reimann      : Effective Core Potentials
   Michael Roemelt        : Restricted open shell CIS
   Christoph Riplinger    : Improved optimizer, TS searches, QM/MM, DLPNO-CCSD
   Barbara Sandhoefer     : DKH picture change effects
   Igor Schapiro          : Molecular dynamics
   Kantharuban Sivalingam : CASSCF convergence, NEVPT2
   Boris Wezisla          : Elementary symmetry handling
   Frank Wennmohs         : Technical directorship


 We gratefully acknowledge several colleagues who have allowed us to
 interface, adapt or use parts of their codes:
   Stefan Grimme, W. Hujo, H. Kruse, T. Risthaus : VdW corrections, initial TS optimization,
                                                   DFT functionals, gCP
   Ed Valeev                                     : LibInt (2-el integral package), F12 methods
   Garnet Chan, S. Sharma, R. Olivares           : DMRG
   Ulf Ekstrom                                   : XCFun DFT Library
   Mihaly Kallay                                 : mrcc  (arbitrary order and MRCC methods)
   Andreas Klamt, Michael Diedenhofen            : otool_cosmo (COSMO solvation model)
   Frank Weinhold                                : gennbo (NPA and NBO analysis)
   Christopher J. Cramer and Donald G. Truhlar   : smd solvation model


 Your calculation uses the libint2 library for the computation of 2-el integrals
 For citations please refer to: http://libint.valeyev.net

 This ORCA versions uses:
   CBLAS   interface :  Fast vector & matrix operations
   LAPACKE interface :  Fast linear algebra routines
   SCALAPACK package :  Parallel linear algebra routines


Your calculation utilizes the basis: 6-31G
Cite in your paper:
H - He: W.J. Hehre, R. Ditchfield and J.A. Pople, J. Chem. Phys. 56,
Li - Ne: 2257 (1972).  Note: Li and B come from J.D. Dill and J.A.
         Pople, J. Chem. Phys. 62, 2921 (1975).
Na - Ar: M.M. Francl, W.J. Pietro, W.J. Hehre, J.S. Binkley, M.S. Gordon,
         D.J. DeFrees and J.A. Pople, J. Chem. Phys. 77, 3654 (1982)
K  - Zn: V. Rassolov, J.A. Pople, M. Ratner and T.L. Windus, J. Chem. Phys.
         (accepted, 1998)
Note: He and Ne are unpublished basis sets taken from the Gaussian program

Your calculation utilizes diff. fcns from basis: 6-311++G(2d,2p)
Cite in your paper:
H, Li - Ne: R. Krishnan, J.S. Binkley, R. Seeger and J.A. Pople,
            J. Chem. Phys. 72, 650 (1980)
Na - Ar:    A.D. McLean and G.S. Chandler J. Chem. Phys. 72, 5639, (1980).
K  - Ca:    J-P. Blaudeau, M. P. McGrath, L.A. Curtiss and L. Radom,
            J. Chem. Phys. 107, 5016 (1997).
Ga - Kr:    L. A. Curtiss, M. P. McGrath, J-P. Blandeau, N. E. Davis,
            R. C. Binning, Jr. L. Radom, J. Chem. Phys. 103, 6104 (1995).
H - Ar:  R. Krishnan, J.S. Binkley, R. Seeger, J.A. Pople, J. Chem. Phys. 72,650 (1980)
H, Li-Cl: T. Clark, J. Chandrasekhar, P.V.R. Schleyer, J. Comp. Chem. 4, 294 (1983)

================================================================================
                                        WARNINGS
                       Please study these warnings very carefully!
================================================================================
Now building the actual basis set

WARNING: Geometry Optimization
  ===> : Switching off AutoStart
         For restart on a previous wavefunction, please use MOREAD


INFO   : the flag for use of LIBINT has been found!

================================================================================
                                       INPUT FILE
================================================================================
NAME = DPP-HD.inp
|  1> ! RKS B3LYP 6-31+G** NormalSCF Opt NOSOSCF CHELPG
|  2> 
|  3> *xyz 0 1
|  4> C -2.56762 2.04393 -0.58621
|  5> N -1.61365 2.92833 -0.05143
|  6> C -2.18699 0.78875 -0.35015
|  7> C -0.97354 0.76215 0.39802
|  8> C -0.57250 2.18447 0.58198
|  9> O 0.37761 2.60708 1.21032
| 10> C -2.65040 -0.57550 -0.56755
| 11> N -1.73490 -1.35209 0.18460
| 12> C -0.67821 -0.52430 0.65764
| 13> O -3.61100 -0.88630 -1.24294
| 14> C -1.65295 4.41588 0.07644
| 15> C -3.04221 4.99689 -0.21553
| 16> C -3.47419 6.39316 0.23794
| 17> H -3.74389 4.32975 0.29033
| 18> H -3.21651 4.95830 -1.29498
| 19> C -5.01414 6.37903 0.28922
| 20> H -3.13371 7.15089 -0.47233
| 21> H -3.06721 6.63544 1.22465
| 22> C -5.69373 7.71469 0.01465
| 23> H -5.32735 5.99779 1.26974
| 24> H -5.39526 5.66483 -0.45345
| 25> C -7.21195 7.49890 -0.01866
| 26> H -5.35746 8.10865 -0.95180
| 27> H -5.42616 8.44557 0.78498
| 28> C -7.97297 8.75749 -0.38814
| 29> H -7.55472 7.14121 0.95961
| 30> H -7.45957 6.71604 -0.74705
| 31> H -7.78152 9.55838 0.33135
| 32> H -9.04891 8.55363 -0.39518
| 33> H -7.68963 9.10712 -1.38569
| 34> C -0.49658 5.05946 -0.73615
| 35> H -1.43860 4.61083 1.13625
| 36> C -0.38799 6.57968 -0.57589
| 37> H -0.60739 4.81208 -1.79957
| 38> H 0.45287 4.60911 -0.42197
| 39> C 0.99203 7.14020 -0.94037
| 40> H -0.61279 6.86226 0.45920
| 41> H -1.13068 7.05483 -1.22454
| 42> C 0.97812 8.67220 -0.86231
| 43> H 1.27424 6.82071 -1.94998
| 44> H 1.74404 6.74322 -0.24763
| 45> C 2.33630 9.29227 -1.19963
| 46> H 0.67566 8.98359 0.14529
| 47> H 0.22379 9.06203 -1.55726
| 48> C 2.29157 10.81689 -1.04770
| 49> H 2.61777 9.02668 -2.22509
| 50> H 3.09943 8.87800 -0.53042
| 51> C 3.52963 11.53962 -1.58384
| 52> H 2.15744 11.06933 0.01168
| 53> H 1.41493 11.21325 -1.57548
| 54> C 4.84270 11.03119 -1.01181
| 55> H 3.55852 11.45855 -2.67670
| 56> H 3.43302 12.60734 -1.35123
| 57> H 5.07014 10.02593 -1.37979
| 58> H 4.81581 11.00464 0.08171
| 59> H 5.66447 11.68714 -1.31699
| 60> C -1.96049 -2.80365 0.45589
| 61> C -3.45281 -3.18953 0.23495
| 62> C -4.00652 -4.54741 0.68636
| 63> H -3.66679 -3.12851 -0.83901
| 64> H -4.06164 -2.42378 0.73597
| 65> C -5.53604 -4.51018 0.47582
| 66> H -3.77499 -4.73102 1.74036
| 67> H -3.57421 -5.35706 0.09081
| 68> C -6.27480 -5.81482 0.77448
| 69> H -5.74749 -4.22604 -0.56395
| 70> H -5.95594 -3.71561 1.10640
| 71> C -7.78903 -5.59588 0.63434
| 72> H -6.04219 -6.15598 1.78913
| 73> H -5.94708 -6.59521 0.07786
| 74> C -8.59422 -6.85736 0.89656
| 75> H -8.02155 -5.23079 -0.37362
| 76> H -8.11437 -4.81860 1.33666
| 77> H -8.35269 -7.63717 0.16808
| 78> H -9.66548 -6.64177 0.81662
| 79> H -8.40286 -7.24624 1.90111
| 80> C -1.00150 -3.67093 -0.37488
| 81> H -1.76745 -2.93509 1.52524
| 82> C -0.71273 -5.05352 0.23804
| 83> H -0.05514 -3.13384 -0.50598
| 84> H -1.39621 -3.79914 -1.39043
| 85> C 0.78382 -5.35847 0.15781
| 86> H -1.27734 -5.81877 -0.30643
| 87> H -1.02985 -5.10097 1.28643
| 88> C 1.15454 -6.78450 0.56567
| 89> H 1.31840 -4.65377 0.80537
| 90> H 1.13729 -5.18164 -0.86552
| 91> C 2.68053 -6.90792 0.60494
| 92> H 0.73316 -7.49492 -0.15510
| 93> H 0.73586 -7.02540 1.54979
| 94> C 3.16644 -8.33930 0.81916
| 95> H 3.06908 -6.26795 1.40750
| 96> H 3.09972 -6.52763 -0.33510
| 97> C 4.69652 -8.37313 0.85655
| 98> H 2.80123 -8.97828 0.00630
| 99> H 2.76108 -8.73759 1.75659
|100> C 5.23360 -9.78494 1.01152
|101> H 5.05947 -7.75711 1.68796
|102> H 5.10054 -7.93796 -0.06547
|103> H 4.87552 -10.24226 1.93881
|104> H 6.32796 -9.76954 1.03991
|105> H 4.92546 -10.41554 0.17177
|106> C -3.82249 2.31729 -1.18875
|107> C -4.12653 2.84478 -2.43285
|108> S -5.28311 1.94969 -0.32496
|109> C -6.26911 2.55414 -1.57687
|110> C -5.52910 3.01079 -2.64182
|111> H -5.97370 3.43814 -3.53180
|112> H -7.34526 2.54194 -1.47035
|113> H -3.37028 3.13840 -3.15066
|114> C 0.55003 -0.94741 1.25703
|115> C 0.86015 -2.00967 2.09561
|116> C 2.24630 -2.09858 2.43778
|117> C 2.98103 -1.08654 1.87476
|118> S 2.02752 -0.10616 0.86734
|119> H 0.13376 -2.71911 2.46433
|120> H 4.03884 -0.88743 1.98494
|121> H 2.67880 -2.86038 3.07466
|122> **                         ****END OF INPUT****
================================================================================

                       *****************************
                       * Geometry Optimization Run *
                       *****************************

Geometry optimization settings:
Update method            Update   .... BFGS
Choice of coordinates    CoordSys .... Redundant Internals
Initial Hessian          InHess   .... Almoef's Model

Convergence Tolerances:
Energy Change            TolE     ....  5.0000e-06 Eh
Max. Gradient            TolMAXG  ....  3.0000e-04 Eh/bohr
RMS Gradient             TolRMSG  ....  1.0000e-04 Eh/bohr
Max. Displacement        TolMAXD  ....  4.0000e-03 bohr
RMS Displacement         TolRMSD  ....  2.0000e-03 bohr

------------------------------------------------------------------------------
                        ORCA OPTIMIZATION COORDINATE SETUP
------------------------------------------------------------------------------

The optimization will be done in new redundant internal coordinates
Making redundant internal coordinates   ...  (new redundants) done
Evaluating the initial hessian          ...  (Almloef) done
Evaluating the coordinates              ...  done
Calculating the B-matrix                .... done
Calculating the G-matrix                .... done
Diagonalizing the G-matrix              .... done
Small eigenvalue found = 1.611e-04
Small eigenvalue found = 3.884e-04
Small eigenvalue found = 4.180e-04
Small eigenvalue found = 5.536e-04
Small eigenvalue found = 8.478e-04
Small eigenvalue found = 1.072e-03
Small eigenvalue found = 2.798e-03
Small eigenvalue found = 3.259e-03
Small eigenvalue found = 4.067e-03
Small eigenvalue found = 4.546e-03
Small eigenvalue found = 5.748e-03
Small eigenvalue found = 6.397e-03
Small eigenvalue found = 6.709e-03
Small eigenvalue found = 8.271e-03
Small eigenvalue found = 8.707e-03
Small eigenvalue found = 1.067e-02
Small eigenvalue found = 1.089e-02
Small eigenvalue found = 1.222e-02
Small eigenvalue found = 1.484e-02
Small eigenvalue found = 1.846e-02
Small eigenvalue found = 2.173e-02
Small eigenvalue found = 2.239e-02
Small eigenvalue found = 2.472e-02
Small eigenvalue found = 2.575e-02
Small eigenvalue found = 2.625e-02
The first mode is                       ....  343
The number of degrees of freedom        ....  348

    -----------------------------------------------------------------
                    Redundant Internal Coordinates


    -----------------------------------------------------------------
         Definition                    Initial Value    Approx d2E/dq
    -----------------------------------------------------------------
      1. B(N   1,C   0)                  1.4065         0.526706   
      2. B(C   2,C   0)                  1.3327         0.771192   
      3. B(C   3,C   2)                  1.4258         0.547785   
      4. B(C   4,N   1)                  1.4278         0.487096   
      5. B(C   4,C   3)                  1.4892         0.434007   
      6. B(O   5,C   4)                  1.2150         1.064501   
      7. B(C   6,C   2)                  1.4571         0.488268   
      8. B(N   7,C   6)                  1.4167         0.507365   
      9. B(C   8,N   7)                  1.4232         0.495281   
     10. B(C   8,C   3)                  1.3452         0.736557   
     11. B(O   9,C   6)                  1.2147         1.065497   
     12. B(C  10,N   1)                  1.4936         0.382528   
     13. B(C  11,C  10)                  1.5339         0.368255   
     14. B(C  12,C  11)                  1.5303         0.373166   
     15. B(H  13,C  11)                  1.0924         0.356947   
     16. B(H  14,C  11)                  1.0941         0.354701   
     17. B(C  15,C  12)                  1.5409         0.358953   
     18. B(H  16,C  12)                  1.0930         0.356204   
     19. B(H  17,C  12)                  1.0945         0.354197   
     20. B(C  18,C  15)                  1.5236         0.382526   
     21. B(H  19,C  15)                  1.0977         0.350104   
     22. B(H  20,C  15)                  1.0986         0.348918   
     23. B(C  21,C  18)                  1.5338         0.368341   
     24. B(H  22,C  18)                  1.0965         0.351606   
     25. B(H  23,C  18)                  1.0951         0.353450   
     26. B(C  24,C  21)                  1.5165         0.392596   
     27. B(H  25,C  21)                  1.0966         0.351525   
     28. B(H  26,C  21)                  1.0976         0.350178   
     29. B(H  27,C  24)                  1.0935         0.355499   
     30. B(H  28,C  24)                  1.0951         0.353409   
     31. B(H  29,C  24)                  1.0944         0.354375   
     32. B(C  30,C  10)                  1.5530         0.343355   
     33. B(H  31,C  10)                  1.0987         0.348769   
     34. B(C  32,C  30)                  1.5325         0.370165   
     35. B(H  33,C  30)                  1.0974         0.350413   
     36. B(H  34,C  30)                  1.0968         0.351210   
     37. B(C  35,C  32)                  1.5335         0.368863   
     38. B(H  36,C  32)                  1.0963         0.351906   
     39. B(H  37,C  32)                  1.0946         0.354093   
     40. B(C  38,C  35)                  1.5341         0.368057   
     41. B(H  39,C  35)                  1.0959         0.352360   
     42. B(H  40,C  35)                  1.0968         0.351198   
     43. B(C  41,C  38)                  1.5307         0.372668   
     44. B(H  42,C  38)                  1.0971         0.350785   
     45. B(H  43,C  38)                  1.0972         0.350648   
     46. B(C  44,C  41)                  1.5328         0.369719   
     47. B(H  45,C  41)                  1.0961         0.352181   
     48. B(H  46,C  41)                  1.0963         0.351888   
     49. B(C  47,C  44)                  1.5305         0.372823   
     50. B(H  48,C  44)                  1.0973         0.350609   
     51. B(H  49,C  44)                  1.0973         0.350522   
     52. B(C  50,C  47)                  1.5198         0.387801   
     53. B(H  51,C  47)                  1.0962         0.351935   
     54. B(H  52,C  47)                  1.0970         0.350924   
     55. B(H  53,C  50)                  1.0944         0.354341   
     56. B(H  54,C  50)                  1.0942         0.354622   
     57. B(H  55,C  50)                  1.0949         0.353732   
     58. B(C  56,N   7)                  1.4938         0.382145   
     59. B(C  57,C  56)                  1.5572         0.338104   
     60. B(C  58,C  57)                  1.5343         0.367664   
     61. B(H  59,C  57)                  1.0968         0.351257   
     62. B(H  60,C  57)                  1.0991         0.348233   
     63. B(C  61,C  58)                  1.5444         0.354337   
     64. B(H  62,C  58)                  1.0946         0.354015   
     65. B(H  63,C  58)                  1.0941         0.354687   
     66. B(C  64,C  61)                  1.5287         0.375306   
     67. B(H  65,C  61)                  1.0984         0.349108   
     68. B(H  66,C  61)                  1.0979         0.349856   
     69. B(C  67,C  64)                  1.5364         0.364920   
     70. B(H  68,C  64)                  1.0955         0.352961   
     71. B(H  69,C  64)                  1.0962         0.351971   
     72. B(C  70,C  67)                  1.5193         0.388481   
     73. B(H  71,C  67)                  1.0970         0.350999   
     74. B(H  72,C  67)                  1.0969         0.351043   
     75. B(H  73,C  70)                  1.0941         0.354676   
     76. B(H  74,C  70)                  1.0957         0.352692   
     77. B(H  75,C  70)                  1.0941         0.354769   
     78. B(C  76,C  56)                  1.5369         0.364245   
     79. B(H  77,C  56)                  1.0946         0.354125   
     80. B(C  78,C  76)                  1.5397         0.360524   
     81. B(H  79,C  76)                  1.0960         0.352229   
     82. B(H  80,C  76)                  1.0971         0.350860   
     83. B(C  81,C  78)                  1.5294         0.374386   
     84. B(H  82,C  78)                  1.0958         0.352472   
     85. B(H  83,C  78)                  1.0963         0.351824   
     86. B(C  84,C  81)                  1.5288         0.375173   
     87. B(H  85,C  81)                  1.0962         0.351957   
     88. B(H  86,C  81)                  1.0970         0.350955   
     89. B(C  87,C  84)                  1.5315         0.371554   
     90. B(H  88,C  84)                  1.0963         0.351924   
     91. B(H  89,C  84)                  1.0963         0.351894   
     92. B(C  90,C  87)                  1.5267         0.378115   
     93. B(H  91,C  87)                  1.0976         0.350238   
     94. B(H  92,C  87)                  1.0973         0.350601   
     95. B(C  93,C  90)                  1.5309         0.372327   
     96. B(H  94,C  90)                  1.0965         0.351543   
     97. B(H  95,C  90)                  1.0962         0.351948   
     98. B(C  96,C  93)                  1.5184         0.389773   
     99. B(H  97,C  93)                  1.0966         0.351519   
    100. B(H  98,C  93)                  1.0967         0.351360   
    101. B(H  99,C  96)                  1.0942         0.354613   
    102. B(H 100,C  96)                  1.0948         0.353758   
    103. B(H 101,C  96)                  1.0944         0.354281   
    104. B(C 102,C   0)                  1.4186         0.562444   
    105. B(C 103,C 102)                  1.3851         0.636171   
    106. B(S 104,C 102)                  1.7363         0.472102   
    107. B(C 105,S 104)                  1.7044         0.530847   
    108. B(C 106,C 105)                  1.3749         0.660512   
    109. B(C 106,C 103)                  1.4277         0.543917   
    110. B(H 107,C 106)                  1.0828         0.369811   
    111. B(H 108,C 105)                  1.0815         0.371552   
    112. B(H 109,C 103)                  1.0832         0.369174   
    113. B(C 110,C   8)                  1.4307         0.538054   
    114. B(C 111,C 110)                  1.3884         0.628369   
    115. B(C 112,C 111)                  1.4305         0.538377   
    116. B(C 113,C 112)                  1.3715         0.668706   
    117. B(S 114,C 113)                  1.6986         0.542206   
    118. B(S 114,C 110)                  1.7443         0.458421   
    119. B(H 115,C 111)                  1.0802         0.373256   
    120. B(H 116,C 113)                  1.0820         0.370826   
    121. B(H 117,C 112)                  1.0831         0.369403   
    122. A(N   1,C   0,C 102)          129.8143         0.411632   
    123. A(N   1,C   0,C   2)          109.3391         0.435524   
    124. A(C   2,C   0,C 102)          120.6213         0.443630   
    125. A(C   0,N   1,C  10)          129.8648         0.382242   
    126. A(C   4,N   1,C  10)          120.0070         0.377099   
    127. A(C   0,N   1,C   4)          109.6138         0.398728   
    128. A(C   0,C   2,C   3)          110.7069         0.441517   
    129. A(C   0,C   2,C   6)          139.8668         0.432458   
    130. A(C   3,C   2,C   6)          109.3591         0.406871   
    131. A(C   2,C   3,C   8)          107.8158         0.437869   
    132. A(C   2,C   3,C   4)          106.0332         0.398507   
    133. A(C   4,C   3,C   8)          146.1419         0.419961   
    134. A(C   3,C   4,O   5)          127.3517         0.445771   
    135. A(N   1,C   4,O   5)          128.2042         0.452199   
    136. A(N   1,C   4,C   3)          104.2658         0.387910   
    137. A(C   2,C   6,O   9)          125.0309         0.455489   
    138. A(C   2,C   6,N   7)          103.2091         0.398833   
    139. A(N   7,C   6,O   9)          131.7584         0.455643   
    140. A(C   8,N   7,C  56)          128.0923         0.378122   
    141. A(C   6,N   7,C   8)          109.7203         0.397277   
    142. A(C   6,N   7,C  56)          122.1068         0.379703   
    143. A(C   3,C   8,C 110)          123.5150         0.436457   
    144. A(N   7,C   8,C 110)          127.2025         0.403994   
    145. A(C   3,C   8,N   7)          109.2126         0.427197   
    146. A(C  30,C  10,H  31)          106.6141         0.318204   
    147. A(N   1,C  10,C  30)          110.3873         0.357383   
    148. A(C  11,C  10,C  30)          114.6979         0.357291   
    149. A(C  11,C  10,H  31)          107.0433         0.321865   
    150. A(N   1,C  10,C  11)          112.6308         0.361670   
    151. A(N   1,C  10,H  31)          104.7246         0.321945   
    152. A(C  10,C  11,H  14)          108.5854         0.322755   
    153. A(C  12,C  11,H  13)          103.8088         0.323793   
    154. A(C  10,C  11,H  13)          105.2061         0.323090   
    155. A(C  12,C  11,H  14)          106.2344         0.323457   
    156. A(C  10,C  11,C  12)          123.0155         0.362395   
    157. A(H  13,C  11,H  14)          109.4510         0.289750   
    158. A(H  16,C  12,H  17)          108.4548         0.289591   
    159. A(C  15,C  12,H  17)          110.0992         0.321331   
    160. A(C  11,C  12,H  17)          111.3555         0.323382   
    161. A(C  15,C  12,H  16)          109.8354         0.321628   
    162. A(C  11,C  12,C  15)          106.4759         0.360816   
    163. A(C  11,C  12,H  16)          110.6130         0.323682   
    164. A(C  12,C  15,C  18)          115.5789         0.362344   
    165. A(H  19,C  15,H  20)          106.2060         0.288131   
    166. A(C  18,C  15,H  19)          109.7667         0.324081   
    167. A(C  18,C  15,H  20)          107.0590         0.323900   
    168. A(C  12,C  15,H  19)          108.5472         0.320721   
    169. A(C  12,C  15,H  20)          109.2794         0.320543   
    170. A(H  22,C  18,H  23)          107.7754         0.288907   
    171. A(C  21,C  18,H  23)          110.5500         0.322581   
    172. A(C  15,C  18,H  23)          110.4476         0.324587   
    173. A(C  21,C  18,H  22)          109.5701         0.322305   
    174. A(C  15,C  18,H  22)          109.6959         0.324309   
    175. A(C  15,C  18,C  21)          108.7894         0.363946   
    176. A(H  25,C  21,H  26)          106.7895         0.288476   
    177. A(C  24,C  21,H  26)          108.4847         0.325479   
    178. A(C  18,C  21,H  26)          109.7586         0.322090   
    179. A(C  24,C  21,H  25)          109.3425         0.325684   
    180. A(C  18,C  21,H  25)          109.6285         0.322292   
    181. A(C  18,C  21,C  24)          112.6594         0.365568   
    182. A(H  28,C  24,H  29)          107.9382         0.289257   
    183. A(H  27,C  24,H  29)          108.6896         0.289524   
    184. A(C  21,C  24,H  29)          110.9352         0.326117   
    185. A(H  27,C  24,H  28)          108.2153         0.289400   
    186. A(C  21,C  24,H  28)          109.8841         0.325971   
    187. A(C  21,C  24,H  27)          111.0809         0.326287   
    188. A(C  32,C  30,H  33)          109.3964         0.322386   
    189. A(C  10,C  30,H  33)          109.7815         0.318448   
    190. A(C  10,C  30,C  32)          114.1512         0.357605   
    191. A(H  33,C  30,H  34)          105.8086         0.288466   
    192. A(C  32,C  30,H  34)          108.4223         0.322506   
    193. A(C  10,C  30,H  34)          108.9374         0.318566   
    194. A(H  36,C  32,H  37)          107.9690         0.289028   
    195. A(C  35,C  32,H  37)          108.1255         0.322752   
    196. A(C  30,C  32,H  37)          108.6972         0.322939   
    197. A(C  35,C  32,H  36)          108.3453         0.322425   
    198. A(C  30,C  32,H  36)          109.8714         0.322611   
    199. A(C  30,C  32,C  35)          113.6727         0.361997   
    200. A(H  39,C  35,H  40)          107.4445         0.288715   
    201. A(C  38,C  35,H  40)          109.6050         0.322203   
    202. A(C  32,C  35,H  40)          109.5488         0.322318   
    203. A(C  32,C  35,H  39)          110.1300         0.322493   
    204. A(C  32,C  35,C  38)          110.1686         0.361645   
    205. A(C  38,C  35,H  39)          109.8983         0.322377   
    206. A(H  42,C  38,H  43)          106.9365         0.288441   
    207. A(C  41,C  38,H  43)          109.0570         0.322778   
    208. A(C  35,C  38,H  43)          109.1967         0.322120   
    209. A(C  41,C  38,H  42)          109.3922         0.322798   
    210. A(C  35,C  38,H  42)          109.4312         0.322141   
    211. A(C  35,C  38,C  41)          112.6623         0.362279   
    212. A(H  45,C  41,H  46)          107.5051         0.288780   
    213. A(C  44,C  41,H  46)          109.6135         0.322544   
    214. A(C  38,C  41,H  46)          109.2725         0.322965   
    215. A(C  44,C  41,H  45)          109.9528         0.322588   
    216. A(C  38,C  41,H  45)          109.6264         0.323009   
    217. A(C  38,C  41,C  44)          110.8054         0.362558   
    218. A(H  48,C  44,H  49)          106.4753         0.288403   
    219. A(C  47,C  44,H  49)          107.8890         0.322781   
    220. A(C  41,C  44,H  49)          109.5670         0.322339   
    221. A(C  47,C  44,H  48)          109.1741         0.322794   
    222. A(C  41,C  44,H  48)          109.1530         0.322352   
    223. A(C  41,C  44,C  47)          114.2897         0.362583   
    224. A(H  51,C  47,H  52)          106.5995         0.288625   
    225. A(C  50,C  47,H  52)          108.7763         0.324935   
    226. A(C  44,C  47,H  52)          108.3051         0.322841   
    227. A(C  50,C  47,H  51)          109.1298         0.325089   
    228. A(C  44,C  47,H  51)          109.6095         0.322994   
    229. A(C  44,C  47,C  50)          114.1450         0.365556   
    230. A(H  54,C  50,H  55)          108.1531         0.289330   
    231. A(H  53,C  50,H  55)          107.4946         0.289294   
    232. A(C  47,C  50,H  55)          110.0677         0.325361   
    233. A(H  53,C  50,H  54)          108.5940         0.289408   
    234. A(C  47,C  50,H  54)          111.2869         0.325496   
    235. A(C  47,C  50,H  53)          111.1176         0.325453   
    236. A(N   7,C  56,C  57)          111.0854         0.356388   
    237. A(C  76,C  56,H  77)          110.5053         0.322091   
    238. A(C  57,C  56,H  77)          106.1338         0.318195   
    239. A(N   7,C  56,H  77)          105.5143         0.322697   
    240. A(C  57,C  56,C  76)          112.4243         0.355695   
    241. A(N   7,C  56,C  76)          110.8513         0.360933   
    242. A(H  59,C  57,H  60)          107.4291         0.288190   
    243. A(C  58,C  57,H  60)          106.4130         0.321699   
    244. A(C  56,C  57,H  60)          107.0697         0.317327   
    245. A(C  58,C  57,H  59)          105.4808         0.322155   
    246. A(C  56,C  57,H  59)          108.1874         0.317774   
    247. A(C  56,C  57,C  58)          121.5618         0.356259   
    248. A(H  62,C  58,H  63)          108.4461         0.289374   
    249. A(C  61,C  58,H  63)          109.5695         0.320724   
    250. A(C  57,C  58,H  63)          110.6197         0.322668   
    251. A(C  61,C  58,H  62)          110.1686         0.320625   
    252. A(C  57,C  58,H  62)          110.8177         0.322568   
    253. A(C  57,C  58,C  61)          107.2152         0.359111   
    254. A(C  58,C  61,H  66)          108.5381         0.320006   
    255. A(C  64,C  61,H  65)          108.2196         0.322918   
    256. A(C  58,C  61,H  65)          109.0217         0.319894   
    257. A(C  58,C  61,C  64)          115.5557         0.360372   
    258. A(H  65,C  61,H  66)          106.4306         0.288123   
    259. A(C  64,C  61,H  66)          108.6999         0.323031   
    260. A(H  68,C  64,H  69)          107.6629         0.288891   
    261. A(C  67,C  64,H  69)          109.7629         0.321867   
    262. A(C  61,C  64,H  69)          109.8110         0.323351   
    263. A(C  67,C  64,H  68)          109.7640         0.322015   
    264. A(C  61,C  64,H  68)          110.1281         0.323500   
    265. A(C  61,C  64,C  67)          109.6848         0.362185   
    266. A(H  71,C  67,H  72)          106.8345         0.288520   
    267. A(C  70,C  67,H  72)          108.7021         0.325047   
    268. A(C  64,C  67,H  72)          109.5659         0.321728   
    269. A(C  70,C  67,H  71)          108.8191         0.325040   
    270. A(C  64,C  67,H  71)          109.8861         0.321721   
    271. A(C  64,C  67,C  70)          112.8461         0.364327   
    272. A(H  74,C  70,H  75)          107.9354         0.289215   
    273. A(H  73,C  70,H  75)          108.6260         0.289469   
    274. A(C  67,C  70,H  75)          111.1550         0.325612   
    275. A(H  73,C  70,H  74)          107.9085         0.289203   
    276. A(C  67,C  70,H  74)          110.0105         0.325298   
    277. A(C  67,C  70,H  73)          111.0914         0.325598   
    278. A(H  79,C  76,H  80)          104.9039         0.288654   
    279. A(C  78,C  76,H  80)          109.3317         0.321063   
    280. A(C  56,C  76,H  80)          109.9887         0.321603   
    281. A(C  78,C  76,H  79)          109.0089         0.321268   
    282. A(C  56,C  76,H  79)          109.0811         0.321808   
    283. A(C  56,C  76,C  78)          114.1156         0.359599   
    284. A(H  82,C  78,H  83)          107.2098         0.288809   
    285. A(C  81,C  78,H  83)          108.9399         0.323199   
    286. A(C  76,C  78,H  83)          111.4254         0.321207   
    287. A(C  81,C  78,H  82)          109.8075         0.323296   
    288. A(C  76,C  78,H  82)          109.4302         0.321304   
    289. A(C  76,C  78,C  81)          109.9797         0.361286   
    290. A(H  85,C  81,H  86)          106.8756         0.288632   
    291. A(C  84,C  81,H  86)          108.7285         0.323179   
    292. A(C  78,C  81,H  86)          109.3955         0.323068   
    293. A(C  84,C  81,H  85)          108.8913         0.323330   
    294. A(C  78,C  81,H  85)          108.5428         0.323219   
    295. A(C  78,C  81,C  84)          114.1585         0.363752   
    296. A(H  88,C  84,H  89)          107.5187         0.288748   
    297. A(C  87,C  84,H  89)          109.8657         0.322807   
    298. A(C  81,C  84,H  89)          110.6002         0.323321   
    299. A(C  87,C  84,H  88)          110.3430         0.322812   
    300. A(C  81,C  84,H  88)          109.6247         0.323325   
    301. A(C  81,C  84,C  87)          108.8824         0.363280   
    302. A(H  91,C  87,H  92)          106.8050         0.288365   
    303. A(C  90,C  87,H  92)          108.8780         0.323540   
    304. A(C  84,C  87,H  92)          109.3150         0.322612   
    305. A(C  90,C  87,H  91)          109.3539         0.323485   
    306. A(C  84,C  87,H  91)          108.9356         0.322558   
    307. A(C  84,C  87,C  90)          113.3463         0.363765   
    308. A(H  94,C  90,H  95)          107.3995         0.288706   
    309. A(C  93,C  90,H  95)          109.9171         0.322925   
    310. A(C  87,C  90,H  95)          110.0560         0.323743   
    311. A(C  93,C  90,H  94)          109.7613         0.322864   
    312. A(C  87,C  90,H  94)          109.6527         0.323682   
    313. A(C  87,C  90,C  93)          110.0137         0.363894   
    314. A(H  97,C  93,H  98)          107.0130         0.288627   
    315. A(C  96,C  93,H  98)          108.9314         0.325273   
    316. A(C  90,C  93,H  98)          109.8097         0.322837   
    317. A(C  96,C  93,H  97)          109.1395         0.325297   
    318. A(C  90,C  93,H  97)          109.6889         0.322861   
    319. A(C  90,C  93,C  96)          112.1202         0.365790   
    320. A(H 100,C  96,H 101)          108.0249         0.289290   
    321. A(H  99,C  96,H 101)          108.4996         0.289399   
    322. A(C  93,C  96,H 101)          110.9670         0.325716   
    323. A(H  99,C  96,H 100)          108.1207         0.289332   
    324. A(C  93,C  96,H 100)          110.0670         0.325637   
    325. A(C  93,C  96,H  99)          111.0599         0.325766   
    326. A(C 103,C 102,S 104)          110.0490         0.438230   
    327. A(C   0,C 102,S 104)          119.4742         0.428628   
    328. A(C   0,C 102,C 103)          130.4707         0.428513   
    329. A(C 106,C 103,H 109)          123.8715         0.346651   
    330. A(C 102,C 103,H 109)          123.0374         0.355951   
    331. A(C 102,C 103,C 106)          113.0409         0.425949   
    332. A(C 102,S 104,C 105)           92.6455         0.447745   
    333. A(C 106,C 105,H 108)          127.9976         0.358621   
    334. A(S 104,C 105,H 108)          119.9549         0.363623   
    335. A(S 104,C 105,C 106)          112.0472         0.450685   
    336. A(C 105,C 106,H 107)          123.1447         0.358334   
    337. A(C 103,C 106,H 107)          124.7208         0.346751   
    338. A(C 103,C 106,C 105)          112.1333         0.428824   
    339. A(C 111,C 110,S 114)          108.3441         0.434945   
    340. A(C   8,C 110,S 114)          119.4034         0.423006   
    341. A(C   8,C 110,C 111)          132.1480         0.424186   
    342. A(C 112,C 111,H 115)          121.9459         0.346695   
    343. A(C 110,C 111,H 115)          123.9465         0.355870   
    344. A(C 110,C 111,C 112)          114.1072         0.424231   
    345. A(C 113,C 112,H 117)          123.1269         0.359020   
    346. A(C 111,C 112,H 117)          124.8421         0.346090   
    347. A(C 111,C 112,C 113)          112.0267         0.428985   
    348. A(S 114,C 113,H 116)          120.1974         0.364820   
    349. A(C 112,C 113,H 116)          128.1492         0.359255   
    350. A(C 112,C 113,S 114)          111.6320         0.453438   
    351. A(C 110,S 114,C 113)           93.7054         0.447077   
    352. D(C  10,N   1,C   0,C   2)   -172.5490         0.022018   
    353. D(C  10,N   1,C   0,C 102)      1.9156         0.022018   
    354. D(C   4,N   1,C   0,C   2)     -0.9477         0.022018   
    355. D(C   4,N   1,C   0,C 102)    173.5168         0.022018   
    356. D(C   6,C   2,C   0,N   1)    178.4551         0.042649   
    357. D(C   6,C   2,C   0,C 102)      3.3944         0.042649   
    358. D(C   3,C   2,C   0,N   1)      1.9262         0.042649   
    359. D(C   3,C   2,C   0,C 102)   -173.1345         0.042649   
    360. D(C   8,C   3,C   2,C   6)     -0.5292         0.020522   
    361. D(C   8,C   3,C   2,C   0)    177.1001         0.020522   
    362. D(C   4,C   3,C   2,C   6)   -179.7332         0.020522   
    363. D(C   4,C   3,C   2,C   0)     -2.1038         0.020522   
    364. D(O   5,C   4,N   1,C   0)   -175.7347         0.018730   
    365. D(N   1,C   4,C   3,C   2)      1.4244         0.012862   
    366. D(C   3,C   4,N   1,C  10)    172.2099         0.018730   
    367. D(O   5,C   4,C   3,C   8)     -1.7789         0.012862   
    368. D(N   1,C   4,C   3,C   8)   -177.2152         0.012862   
    369. D(O   5,C   4,N   1,C  10)     -3.1733         0.018730   
    370. D(O   5,C   4,C   3,C   2)    176.8608         0.012862   
    371. D(C   3,C   4,N   1,C   0)     -0.3515         0.018730   
    372. D(O   9,C   6,C   2,C   3)   -175.1116         0.016233   
    373. D(N   7,C   6,C   2,C   3)      5.3125         0.016233   
    374. D(N   7,C   6,C   2,C   0)   -171.2461         0.016233   
    375. D(O   9,C   6,C   2,C   0)      8.3298         0.016233   
    376. D(C  56,N   7,C   6,O   9)    -10.6212         0.020371   
    377. D(C  56,N   7,C   6,C   2)    168.9133         0.020371   
    378. D(C   8,N   7,C   6,C   2)     -8.0677         0.020371   
    379. D(C   8,N   7,C   6,O   9)    172.3978         0.020371   
    380. D(C 110,C   8,C   3,C   4)     -8.8260         0.038557   
    381. D(N   7,C   8,C   3,C   2)     -4.6078         0.038557   
    382. D(N   7,C   8,C   3,C   4)    174.0189         0.038557   
    383. D(C 110,C   8,C   3,C   2)    172.5473         0.038557   
    384. D(C   3,C   8,N   7,C  56)   -168.4537         0.019382   
    385. D(C 110,C   8,N   7,C   6)   -168.7253         0.019382   
    386. D(C   3,C   8,N   7,C   6)      8.2968         0.019382   
    387. D(C 110,C   8,N   7,C  56)     14.5243         0.019382   
    388. D(H  31,C  10,N   1,C   4)    -43.7629         0.012524   
    389. D(H  31,C  10,N   1,C   0)    127.0950         0.012524   
    390. D(C  30,C  10,N   1,C   4)     70.6343         0.012524   
    391. D(C  30,C  10,N   1,C   0)   -118.5078         0.012524   
    392. D(C  11,C  10,N   1,C   4)   -159.7321         0.012524   
    393. D(C  11,C  10,N   1,C   0)     11.1259         0.012524   
    394. D(H  14,C  11,C  10,H  31)    171.2174         0.010847   
    395. D(H  14,C  11,C  10,N   1)    -74.2112         0.010847   
    396. D(H  14,C  11,C  10,C  30)     53.1730         0.010847   
    397. D(H  13,C  11,C  10,H  31)    -71.6877         0.010847   
    398. D(H  13,C  11,C  10,N   1)     42.8837         0.010847   
    399. D(H  13,C  11,C  10,C  30)    170.2679         0.010847   
    400. D(C  12,C  11,C  10,H  31)     46.4501         0.010847   
    401. D(C  12,C  11,C  10,C  30)    -71.5943         0.010847   
    402. D(C  12,C  11,C  10,N   1)    161.0215         0.010847   
    403. D(H  17,C  12,C  11,H  14)   -162.9004         0.011121   
    404. D(H  17,C  12,C  11,C  10)    -37.0914         0.011121   
    405. D(H  16,C  12,C  11,H  13)   -157.6090         0.011121   
    406. D(H  17,C  12,C  11,H  13)     81.7132         0.011121   
    407. D(H  16,C  12,C  11,C  10)     83.5865         0.011121   
    408. D(C  15,C  12,C  11,H  14)     77.0717         0.011121   
    409. D(H  16,C  12,C  11,H  14)    -42.2226         0.011121   
    410. D(C  15,C  12,C  11,C  10)   -157.1193         0.011121   
    411. D(C  15,C  12,C  11,H  13)    -38.3147         0.011121   
    412. D(C  18,C  15,C  12,H  17)     89.0461         0.010341   
    413. D(C  18,C  15,C  12,H  16)    -30.3172         0.010341   
    414. D(C  18,C  15,C  12,C  11)   -150.1168         0.010341   
    415. D(H  20,C  15,C  12,H  16)     90.4792         0.010341   
    416. D(H  20,C  15,C  12,C  11)    -29.3204         0.010341   
    417. D(H  19,C  15,C  12,H  16)   -154.1021         0.010341   
    418. D(H  20,C  15,C  12,H  17)   -150.1576         0.010341   
    419. D(H  19,C  15,C  12,H  17)    -34.7388         0.010341   
    420. D(H  19,C  15,C  12,C  11)     86.0983         0.010341   
    421. D(H  23,C  18,C  15,H  20)    174.5571         0.011654   
    422. D(H  23,C  18,C  15,C  12)    -63.4523         0.011654   
    423. D(H  23,C  18,C  15,H  19)     59.6916         0.011654   
    424. D(H  22,C  18,C  15,H  19)    178.3463         0.011654   
    425. D(H  22,C  18,C  15,H  20)    -66.7883         0.011654   
    426. D(C  21,C  18,C  15,H  20)     53.0524         0.011654   
    427. D(H  22,C  18,C  15,C  12)     55.2023         0.011654   
    428. D(C  21,C  18,C  15,H  19)    -61.8131         0.011654   
    429. D(C  21,C  18,C  15,C  12)    175.0430         0.011654   
    430. D(H  26,C  21,C  18,H  22)     65.1469         0.010852   
    431. D(H  26,C  21,C  18,C  15)    -54.7719         0.010852   
    432. D(H  25,C  21,C  18,H  23)    -59.2153         0.010852   
    433. D(H  25,C  21,C  18,H  22)   -177.8544         0.010852   
    434. D(H  25,C  21,C  18,C  15)     62.2268         0.010852   
    435. D(C  24,C  21,C  18,H  23)     62.7870         0.010852   
    436. D(C  24,C  21,C  18,H  22)    -55.8521         0.010852   
    437. D(H  26,C  21,C  18,H  23)   -176.2140         0.010852   
    438. D(C  24,C  21,C  18,C  15)   -175.7709         0.010852   
    439. D(H  29,C  24,C  21,H  26)    -60.8169         0.012247   
    440. D(H  29,C  24,C  21,C  18)     60.9068         0.012247   
    441. D(H  28,C  24,C  21,H  26)     58.4602         0.012247   
    442. D(H  28,C  24,C  21,H  25)    -57.6524         0.012247   
    443. D(H  28,C  24,C  21,C  18)   -179.8161         0.012247   
    444. D(H  27,C  24,C  21,H  26)    178.1741         0.012247   
    445. D(H  29,C  24,C  21,H  25)   -176.9295         0.012247   
    446. D(H  27,C  24,C  21,H  25)     62.0615         0.012247   
    447. D(H  27,C  24,C  21,C  18)    -60.1021         0.012247   
    448. D(H  34,C  30,C  10,H  31)     59.1247         0.009529   
    449. D(H  34,C  30,C  10,N   1)    -54.0704         0.009529   
    450. D(H  33,C  30,C  10,H  31)    174.5591         0.009529   
    451. D(H  33,C  30,C  10,C  11)    -67.1541         0.009529   
    452. D(H  33,C  30,C  10,N   1)     61.3639         0.009529   
    453. D(C  32,C  30,C  10,H  31)    -62.2075         0.009529   
    454. D(C  32,C  30,C  10,C  11)     56.0794         0.009529   
    455. D(C  32,C  30,C  10,N   1)   -175.4026         0.009529   
    456. D(H  34,C  30,C  10,C  11)    177.4116         0.009529   
    457. D(H  37,C  32,C  30,H  34)    158.1366         0.010953   
    458. D(H  37,C  32,C  30,H  33)     43.1950         0.010953   
    459. D(H  37,C  32,C  30,C  10)    -80.2468         0.010953   
    460. D(H  36,C  32,C  30,H  34)    -83.9182         0.010953   
    461. D(H  36,C  32,C  30,H  33)    161.1403         0.010953   
    462. D(C  35,C  32,C  30,H  34)     37.6740         0.010953   
    463. D(C  35,C  32,C  30,H  33)    -77.2675         0.010953   
    464. D(C  35,C  32,C  30,C  10)    159.2907         0.010953   
    465. D(H  36,C  32,C  30,C  10)     37.6985         0.010953   
    466. D(H  40,C  35,C  32,H  36)     58.4687         0.010881   
    467. D(H  40,C  35,C  32,H  37)    175.2468         0.010881   
    468. D(H  39,C  35,C  32,H  37)    -66.7860         0.010881   
    469. D(H  40,C  35,C  32,C  30)    -63.9692         0.010881   
    470. D(H  39,C  35,C  32,H  36)    176.4358         0.010881   
    471. D(C  38,C  35,C  32,H  37)     54.6003         0.010881   
    472. D(C  38,C  35,C  32,H  36)    -62.1778         0.010881   
    473. D(H  39,C  35,C  32,C  30)     53.9980         0.010881   
    474. D(C  38,C  35,C  32,C  30)    175.3844         0.010881   
    475. D(H  42,C  38,C  35,C  32)     57.3682         0.010836   
    476. D(C  41,C  38,C  35,H  40)     58.6825         0.010836   
    477. D(C  41,C  38,C  35,H  39)    -59.1805         0.010836   
    478. D(C  41,C  38,C  35,C  32)    179.2951         0.010836   
    479. D(H  43,C  38,C  35,H  40)   -179.9829         0.010836   
    480. D(H  43,C  38,C  35,H  39)     62.1541         0.010836   
    481. D(H  43,C  38,C  35,C  32)    -59.3703         0.010836   
    482. D(H  42,C  38,C  35,H  40)    -63.2445         0.010836   
    483. D(H  42,C  38,C  35,H  39)    178.8926         0.010836   
    484. D(H  46,C  41,C  38,H  42)     65.3720         0.011093   
    485. D(H  46,C  41,C  38,C  35)    -56.5770         0.011093   
    486. D(H  45,C  41,C  38,H  43)    -60.4107         0.011093   
    487. D(H  46,C  41,C  38,H  43)   -177.9910         0.011093   
    488. D(H  45,C  41,C  38,H  42)   -177.0478         0.011093   
    489. D(H  45,C  41,C  38,C  35)     61.0033         0.011093   
    490. D(C  44,C  41,C  38,H  43)     61.1274         0.011093   
    491. D(C  44,C  41,C  38,H  42)    -55.5096         0.011093   
    492. D(C  44,C  41,C  38,C  35)   -177.4586         0.011093   
    493. D(H  49,C  44,C  41,H  46)   -169.8828         0.010928   
    494. D(H  49,C  44,C  41,H  45)     72.1428         0.010928   
    495. D(H  49,C  44,C  41,C  38)    -49.2033         0.010928   
    496. D(H  48,C  44,C  41,H  46)    -53.6468         0.010928   
    497. D(H  48,C  44,C  41,H  45)   -171.6212         0.010928   
    498. D(H  48,C  44,C  41,C  38)     67.0327         0.010928   
    499. D(C  47,C  44,C  41,H  46)     68.9143         0.010928   
    500. D(C  47,C  44,C  41,H  45)    -49.0601         0.010928   
    501. D(C  47,C  44,C  41,C  38)   -170.4061         0.010928   
    502. D(H  52,C  47,C  44,H  48)    -52.7687         0.011101   
    503. D(H  52,C  47,C  44,C  41)   -175.3184         0.011101   
    504. D(H  51,C  47,C  44,H  49)    -53.3750         0.011101   
    505. D(H  51,C  47,C  44,H  48)   -168.7001         0.011101   
    506. D(H  51,C  47,C  44,C  41)     68.7503         0.011101   
    507. D(C  50,C  47,C  44,H  49)   -176.1229         0.011101   
    508. D(C  50,C  47,C  44,H  48)     68.5520         0.011101   
    509. D(H  52,C  47,C  44,H  49)     62.5564         0.011101   
    510. D(C  50,C  47,C  44,C  41)    -53.9976         0.011101   
    511. D(H  55,C  50,C  47,H  52)    -50.2750         0.011962   
    512. D(H  55,C  50,C  47,H  51)     65.6565         0.011962   
    513. D(H  55,C  50,C  47,C  44)   -171.3347         0.011962   
    514. D(H  54,C  50,C  47,H  52)     69.6135         0.011962   
    515. D(H  54,C  50,C  47,H  51)   -174.4550         0.011962   
    516. D(H  54,C  50,C  47,C  44)    -51.4462         0.011962   
    517. D(H  53,C  50,C  47,H  52)   -169.2335         0.011962   
    518. D(H  53,C  50,C  47,H  51)    -53.3020         0.011962   
    519. D(H  53,C  50,C  47,C  44)     69.7068         0.011962   
    520. D(H  77,C  56,N   7,C   8)     43.4177         0.012499   
    521. D(H  77,C  56,N   7,C   6)   -132.9705         0.012499   
    522. D(C  76,C  56,N   7,C   8)    -76.2355         0.012499   
    523. D(C  76,C  56,N   7,C   6)    107.3762         0.012499   
    524. D(C  57,C  56,N   7,C   8)    158.0074         0.012499   
    525. D(C  57,C  56,N   7,C   6)    -18.3808         0.012499   
    526. D(H  60,C  57,C  56,C  76)   -171.1833         0.009265   
    527. D(H  60,C  57,C  56,N   7)    -46.3071         0.009265   
    528. D(H  59,C  57,C  56,H  77)   -176.5934         0.009265   
    529. D(H  59,C  57,C  56,C  76)    -55.6722         0.009265   
    530. D(H  59,C  57,C  56,N   7)     69.2040         0.009265   
    531. D(C  58,C  57,C  56,H  77)    -54.4835         0.009265   
    532. D(C  58,C  57,C  56,C  76)     66.4376         0.009265   
    533. D(H  60,C  57,C  56,H  77)     67.8955         0.009265   
    534. D(C  58,C  57,C  56,N   7)   -168.6861         0.009265   
    535. D(H  63,C  58,C  57,H  60)    169.5937         0.010815   
    536. D(H  63,C  58,C  57,H  59)     55.6657         0.010815   
    537. D(H  63,C  58,C  57,C  56)    -67.7176         0.010815   
    538. D(H  62,C  58,C  57,H  60)    -70.0919         0.010815   
    539. D(H  62,C  58,C  57,H  59)    175.9801         0.010815   
    540. D(H  62,C  58,C  57,C  56)     52.5968         0.010815   
    541. D(C  61,C  58,C  57,H  60)     50.1713         0.010815   
    542. D(C  61,C  58,C  57,H  59)    -63.7567         0.010815   
    543. D(C  61,C  58,C  57,C  56)    172.8600         0.010815   
    544. D(H  66,C  61,C  58,H  63)    178.0796         0.010096   
    545. D(H  66,C  61,C  58,H  62)     58.8496         0.010096   
    546. D(H  66,C  61,C  58,C  57)    -61.8260         0.010096   
    547. D(H  65,C  61,C  58,H  63)    -66.3784         0.010096   
    548. D(H  65,C  61,C  58,H  62)    174.3915         0.010096   
    549. D(H  65,C  61,C  58,C  57)     53.7160         0.010096   
    550. D(C  64,C  61,C  58,H  63)     55.7239         0.010096   
    551. D(C  64,C  61,C  58,H  62)    -63.5062         0.010096   
    552. D(C  64,C  61,C  58,C  57)    175.8183         0.010096   
    553. D(H  69,C  64,C  61,H  66)    173.7856         0.011241   
    554. D(H  69,C  64,C  61,H  65)     58.5848         0.011241   
    555. D(H  69,C  64,C  61,C  58)    -63.9448         0.011241   
    556. D(H  68,C  64,C  61,H  66)    -67.8219         0.011241   
    557. D(H  68,C  64,C  61,H  65)    176.9773         0.011241   
    558. D(H  68,C  64,C  61,C  58)     54.4477         0.011241   
    559. D(C  67,C  64,C  61,H  66)     53.0830         0.011241   
    560. D(C  67,C  64,C  61,H  65)    -62.1179         0.011241   
    561. D(C  67,C  64,C  61,C  58)    175.3525         0.011241   
    562. D(H  72,C  67,C  64,H  68)     61.5371         0.010664   
    563. D(H  72,C  67,C  64,C  61)    -59.5874         0.010664   
    564. D(H  71,C  67,C  64,H  69)    -63.2282         0.010664   
    565. D(H  71,C  67,C  64,H  68)    178.6281         0.010664   
    566. D(H  71,C  67,C  64,C  61)     57.5036         0.010664   
    567. D(C  70,C  67,C  64,H  69)     58.4153         0.010664   
    568. D(C  70,C  67,C  64,H  68)    -59.7284         0.010664   
    569. D(H  72,C  67,C  64,H  69)    179.6808         0.010664   
    570. D(C  70,C  67,C  64,C  61)    179.1471         0.010664   
    571. D(H  75,C  70,C  67,H  72)    -63.0864         0.012002   
    572. D(H  75,C  70,C  67,H  71)   -179.0875         0.012002   
    573. D(H  75,C  70,C  67,C  64)     58.6679         0.012002   
    574. D(H  74,C  70,C  67,H  72)     56.4080         0.012002   
    575. D(H  74,C  70,C  67,H  71)    -59.5931         0.012002   
    576. D(H  74,C  70,C  67,C  64)    178.1624         0.012002   
    577. D(H  73,C  70,C  67,H  72)    175.8284         0.012002   
    578. D(H  73,C  70,C  67,H  71)     59.8273         0.012002   
    579. D(H  73,C  70,C  67,C  64)    -62.4173         0.012002   
    580. D(H  80,C  76,C  56,H  77)    161.3606         0.010627   
    581. D(H  80,C  76,C  56,C  57)     42.9830         0.010627   
    582. D(H  80,C  76,C  56,N   7)    -82.0217         0.010627   
    583. D(H  79,C  76,C  56,H  77)    -84.0936         0.010627   
    584. D(H  79,C  76,C  56,C  57)    157.5288         0.010627   
    585. D(H  79,C  76,C  56,N   7)     32.5242         0.010627   
    586. D(C  78,C  76,C  56,H  77)     38.0778         0.010627   
    587. D(C  78,C  76,C  56,C  57)    -80.2998         0.010627   
    588. D(C  78,C  76,C  56,N   7)    154.6956         0.010627   
    589. D(H  83,C  78,C  76,H  80)   -138.2319         0.010426   
    590. D(H  83,C  78,C  76,H  79)    107.6169         0.010426   
    591. D(H  83,C  78,C  76,C  56)    -14.5941         0.010426   
    592. D(H  82,C  78,C  76,H  80)    -19.8432         0.010426   
    593. D(H  82,C  78,C  76,H  79)   -133.9943         0.010426   
    594. D(H  82,C  78,C  76,C  56)    103.7947         0.010426   
    595. D(C  81,C  78,C  76,H  80)    100.8596         0.010426   
    596. D(C  81,C  78,C  76,H  79)    -13.2915         0.010426   
    597. D(C  81,C  78,C  76,C  56)   -135.5025         0.010426   
    598. D(H  86,C  81,C  78,H  82)     70.4176         0.011189   
    599. D(H  86,C  81,C  78,C  76)    -50.0577         0.011189   
    600. D(H  85,C  81,C  78,H  83)    -56.1719         0.011189   
    601. D(H  85,C  81,C  78,H  82)   -173.3058         0.011189   
    602. D(H  85,C  81,C  78,C  76)     66.2189         0.011189   
    603. D(C  84,C  81,C  78,H  83)     65.4787         0.011189   
    604. D(C  84,C  81,C  78,H  82)    -51.6552         0.011189   
    605. D(H  86,C  81,C  78,H  83)   -172.4485         0.011189   
    606. D(C  84,C  81,C  78,C  76)   -172.1304         0.011189   
    607. D(H  89,C  84,C  81,H  86)   -174.8490         0.011234   
    608. D(H  89,C  84,C  81,H  85)     69.0474         0.011234   
    609. D(H  89,C  84,C  81,C  78)    -52.4110         0.011234   
    610. D(H  88,C  84,C  81,H  86)    -56.4611         0.011234   
    611. D(H  88,C  84,C  81,H  85)   -172.5648         0.011234   
    612. D(H  88,C  84,C  81,C  78)     65.9769         0.011234   
    613. D(C  87,C  84,C  81,H  86)     64.3379         0.011234   
    614. D(C  87,C  84,C  81,H  85)    -51.7657         0.011234   
    615. D(C  87,C  84,C  81,C  78)   -173.2241         0.011234   
    616. D(H  92,C  87,C  84,H  89)   -171.9080         0.011030   
    617. D(H  92,C  87,C  84,H  88)     69.7119         0.011030   
    618. D(H  92,C  87,C  84,C  81)    -50.6450         0.011030   
    619. D(H  91,C  87,C  84,H  89)    -55.5404         0.011030   
    620. D(H  91,C  87,C  84,H  88)   -173.9205         0.011030   
    621. D(H  91,C  87,C  84,C  81)     65.7226         0.011030   
    622. D(C  90,C  87,C  84,H  89)     66.4436         0.011030   
    623. D(C  90,C  87,C  84,H  88)    -51.9365         0.011030   
    624. D(C  90,C  87,C  84,C  81)   -172.2934         0.011030   
    625. D(H  95,C  90,C  87,H  92)    179.8036         0.011401   
    626. D(H  95,C  90,C  87,H  91)     63.4467         0.011401   
    627. D(H  95,C  90,C  87,C  84)    -58.3037         0.011401   
    628. D(H  94,C  90,C  87,H  92)    -62.2656         0.011401   
    629. D(H  94,C  90,C  87,H  91)   -178.6225         0.011401   
    630. D(H  94,C  90,C  87,C  84)     59.6271         0.011401   
    631. D(C  93,C  90,C  87,H  92)     58.5426         0.011401   
    632. D(C  93,C  90,C  87,H  91)    -57.8142         0.011401   
    633. D(C  93,C  90,C  87,C  84)   -179.5647         0.011401   
    634. D(H  98,C  93,C  90,H  95)   -177.7809         0.011074   
    635. D(H  98,C  93,C  90,H  94)     64.3060         0.011074   
    636. D(H  98,C  93,C  90,C  87)    -56.4369         0.011074   
    637. D(H  97,C  93,C  90,H  95)    -60.4455         0.011074   
    638. D(H  97,C  93,C  90,H  94)   -178.3585         0.011074   
    639. D(H  97,C  93,C  90,C  87)     60.8985         0.011074   
    640. D(C  96,C  93,C  90,H  95)     60.9768         0.011074   
    641. D(C  96,C  93,C  90,H  94)    -56.9362         0.011074   
    642. D(C  96,C  93,C  90,C  87)   -177.6792         0.011074   
    643. D(H 101,C  96,C  93,H  98)    -60.9554         0.012079   
    644. D(H 101,C  96,C  93,H  97)   -177.4719         0.012079   
    645. D(H 101,C  96,C  93,C  90)     60.7908         0.012079   
    646. D(H 100,C  96,C  93,H  98)     58.5674         0.012079   
    647. D(H 100,C  96,C  93,H  97)    -57.9490         0.012079   
    648. D(H 100,C  96,C  93,C  90)   -179.6864         0.012079   
    649. D(H  99,C  96,C  93,H  98)    178.2690         0.012079   
    650. D(H  99,C  96,C  93,H  97)     61.7526         0.012079   
    651. D(H  99,C  96,C  93,C  90)    -59.9847         0.012079   
    652. D(S 104,C 102,C   0,C   2)     66.5711         0.021677   
    653. D(S 104,C 102,C   0,N   1)   -107.3575         0.021677   
    654. D(C 103,C 102,C   0,C   2)   -112.4380         0.021677   
    655. D(C 103,C 102,C   0,N   1)     73.6334         0.021677   
    656. D(H 109,C 103,C 102,S 104)   -179.3329         0.028097   
    657. D(H 109,C 103,C 102,C   0)     -0.2512         0.028097   
    658. D(C 106,C 103,C 102,S 104)      3.1534         0.028097   
    659. D(C 106,C 103,C 102,C   0)   -177.7649         0.028097   
    660. D(C 105,S 104,C 102,C 103)     -2.2994         0.004785   
    661. D(C 105,S 104,C 102,C   0)    178.5030         0.004785   
    662. D(H 108,C 105,S 104,C 102)   -179.3107         0.005702   
    663. D(C 106,C 105,S 104,C 102)      0.8586         0.005702   
    664. D(H 107,C 106,C 105,H 108)      0.5881         0.030447   
    665. D(H 107,C 106,C 105,S 104)   -179.5980         0.030447   
    666. D(C 103,C 106,C 105,H 108)   -179.0253         0.030447   
    667. D(C 103,C 106,C 105,S 104)      0.7886         0.030447   
    668. D(H 107,C 106,C 103,H 109)      0.3091         0.020224   
    669. D(H 107,C 106,C 103,C 102)    177.7987         0.020224   
    670. D(C 105,C 106,C 103,H 109)    179.9153         0.020224   
    671. D(C 105,C 106,C 103,C 102)     -2.5951         0.020224   
    672. D(S 114,C 110,C   8,N   7)    140.8742         0.019777   
    673. D(S 114,C 110,C   8,C   3)    -35.7524         0.019777   
    674. D(C 111,C 110,C   8,N   7)    -34.9310         0.019777   
    675. D(C 111,C 110,C   8,C   3)    148.4423         0.019777   
    676. D(H 115,C 111,C 110,S 114)   -177.8275         0.027368   
    677. D(H 115,C 111,C 110,C   8)     -1.6770         0.027368   
    678. D(C 112,C 111,C 110,S 114)      1.9345         0.027368   
    679. D(C 112,C 111,C 110,C   8)    178.0850         0.027368   
    680. D(H 117,C 112,C 111,H 115)      0.1022         0.019801   
    681. D(H 117,C 112,C 111,C 110)   -179.6651         0.019801   
    682. D(C 113,C 112,C 111,H 115)   -179.1580         0.019801   
    683. D(C 113,C 112,C 111,C 110)      1.0747         0.019801   
    684. D(H 116,C 113,C 112,H 117)     -1.2692         0.031264   
    685. D(H 116,C 113,C 112,C 111)    178.0058         0.031264   
    686. D(S 114,C 113,C 112,H 117)    177.0313         0.031264   
    687. D(S 114,C 113,C 112,C 111)     -3.6938         0.031264   
    688. D(C 110,S 114,C 113,H 116)   -177.3888         0.005894   
    689. D(C 110,S 114,C 113,C 112)      4.1576         0.005894   
    690. D(C 113,S 114,C 110,C 111)     -3.4257         0.004589   
    691. D(C 113,S 114,C 110,C   8)    179.8497         0.004589   
    -----------------------------------------------------------------

Number of atoms                         .... 118
Number of degrees of freedom            .... 691

         *************************************************************
         *                GEOMETRY OPTIMIZATION CYCLE   1            *
         *************************************************************
---------------------------------
CARTESIAN COORDINATES (ANGSTROEM)
---------------------------------
  C     -2.567620    2.043930   -0.586210
  N     -1.613650    2.928330   -0.051430
  C     -2.186990    0.788750   -0.350150
  C     -0.973540    0.762150    0.398020
  C     -0.572500    2.184470    0.581980
  O      0.377610    2.607080    1.210320
  C     -2.650400   -0.575500   -0.567550
  N     -1.734900   -1.352090    0.184600
  C     -0.678210   -0.524300    0.657640
  O     -3.611000   -0.886300   -1.242940
  C     -1.652950    4.415880    0.076440
  C     -3.042210    4.996890   -0.215530
  C     -3.474190    6.393160    0.237940
  H     -3.743890    4.329750    0.290330
  H     -3.216510    4.958300   -1.294980
  C     -5.014140    6.379030    0.289220
  H     -3.133710    7.150890   -0.472330
  H     -3.067210    6.635440    1.224650
  C     -5.693730    7.714690    0.014650
  H     -5.327350    5.997790    1.269740
  H     -5.395260    5.664830   -0.453450
  C     -7.211950    7.498900   -0.018660
  H     -5.357460    8.108650   -0.951800
  H     -5.426160    8.445570    0.784980
  C     -7.972970    8.757490   -0.388140
  H     -7.554720    7.141210    0.959610
  H     -7.459570    6.716040   -0.747050
  H     -7.781520    9.558380    0.331350
  H     -9.048910    8.553630   -0.395180
  H     -7.689630    9.107120   -1.385690
  C     -0.496580    5.059460   -0.736150
  H     -1.438600    4.610830    1.136250
  C     -0.387990    6.579680   -0.575890
  H     -0.607390    4.812080   -1.799570
  H      0.452870    4.609110   -0.421970
  C      0.992030    7.140200   -0.940370
  H     -0.612790    6.862260    0.459200
  H     -1.130680    7.054830   -1.224540
  C      0.978120    8.672200   -0.862310
  H      1.274240    6.820710   -1.949980
  H      1.744040    6.743220   -0.247630
  C      2.336300    9.292270   -1.199630
  H      0.675660    8.983590    0.145290
  H      0.223790    9.062030   -1.557260
  C      2.291570   10.816890   -1.047700
  H      2.617770    9.026680   -2.225090
  H      3.099430    8.878000   -0.530420
  C      3.529630   11.539620   -1.583840
  H      2.157440   11.069330    0.011680
  H      1.414930   11.213250   -1.575480
  C      4.842700   11.031190   -1.011810
  H      3.558520   11.458550   -2.676700
  H      3.433020   12.607340   -1.351230
  H      5.070140   10.025930   -1.379790
  H      4.815810   11.004640    0.081710
  H      5.664470   11.687140   -1.316990
  C     -1.960490   -2.803650    0.455890
  C     -3.452810   -3.189530    0.234950
  C     -4.006520   -4.547410    0.686360
  H     -3.666790   -3.128510   -0.839010
  H     -4.061640   -2.423780    0.735970
  C     -5.536040   -4.510180    0.475820
  H     -3.774990   -4.731020    1.740360
  H     -3.574210   -5.357060    0.090810
  C     -6.274800   -5.814820    0.774480
  H     -5.747490   -4.226040   -0.563950
  H     -5.955940   -3.715610    1.106400
  C     -7.789030   -5.595880    0.634340
  H     -6.042190   -6.155980    1.789130
  H     -5.947080   -6.595210    0.077860
  C     -8.594220   -6.857360    0.896560
  H     -8.021550   -5.230790   -0.373620
  H     -8.114370   -4.818600    1.336660
  H     -8.352690   -7.637170    0.168080
  H     -9.665480   -6.641770    0.816620
  H     -8.402860   -7.246240    1.901110
  C     -1.001500   -3.670930   -0.374880
  H     -1.767450   -2.935090    1.525240
  C     -0.712730   -5.053520    0.238040
  H     -0.055140   -3.133840   -0.505980
  H     -1.396210   -3.799140   -1.390430
  C      0.783820   -5.358470    0.157810
  H     -1.277340   -5.818770   -0.306430
  H     -1.029850   -5.100970    1.286430
  C      1.154540   -6.784500    0.565670
  H      1.318400   -4.653770    0.805370
  H      1.137290   -5.181640   -0.865520
  C      2.680530   -6.907920    0.604940
  H      0.733160   -7.494920   -0.155100
  H      0.735860   -7.025400    1.549790
  C      3.166440   -8.339300    0.819160
  H      3.069080   -6.267950    1.407500
  H      3.099720   -6.527630   -0.335100
  C      4.696520   -8.373130    0.856550
  H      2.801230   -8.978280    0.006300
  H      2.761080   -8.737590    1.756590
  C      5.233600   -9.784940    1.011520
  H      5.059470   -7.757110    1.687960
  H      5.100540   -7.937960   -0.065470
  H      4.875520  -10.242260    1.938810
  H      6.327960   -9.769540    1.039910
  H      4.925460  -10.415540    0.171770
  C     -3.822490    2.317290   -1.188750
  C     -4.126530    2.844780   -2.432850
  S     -5.283110    1.949690   -0.324960
  C     -6.269110    2.554140   -1.576870
  C     -5.529100    3.010790   -2.641820
  H     -5.973700    3.438140   -3.531800
  H     -7.345260    2.541940   -1.470350
  H     -3.370280    3.138400   -3.150660
  C      0.550030   -0.947410    1.257030
  C      0.860150   -2.009670    2.095610
  C      2.246300   -2.098580    2.437780
  C      2.981030   -1.086540    1.874760
  S      2.027520   -0.106160    0.867340
  H      0.133760   -2.719110    2.464330
  H      4.038840   -0.887430    1.984940
  H      2.678800   -2.860380    3.074660

----------------------------
CARTESIAN COORDINATES (A.U.)
----------------------------
  NO LB      ZA    FRAG    MASS        X           Y           Z
   0 C     6.0000    0    12.011         -4.852098615978884          3.862467936905664         -1.107776356965977
   1 N     7.0000    0    14.007         -3.049356576002028          5.533741729745619         -0.097188615067570
   2 C     6.0000    0    12.011         -4.132812157624438          1.490521488130387         -0.661687605792526
   3 C     6.0000    0    12.011         -1.839723980417695          1.440254772968082          0.752148795823337
   4 C     6.0000    0    12.011         -1.081868211669917          4.128050047766957          1.099782815419490
   5 O     8.0000    0    15.999          0.713579485430004          4.926667209223416          2.287173334407569
   6 C     6.0000    0    12.011         -5.008530145344885         -1.087537390071680         -1.072514067307006
   7 N     7.0000    0    14.007         -3.278485869739980         -2.555079808413585          0.348843444321863
   8 C     6.0000    0    12.011         -1.281631161286732         -0.990783412014912          1.242759494711972
   9 O     8.0000    0    15.999         -6.823801069589640         -1.674864272494405         -2.348816200896080
  10 C     6.0000    0    12.011         -3.123622813065133          8.344803840260177          0.144450665676940
  11 C     6.0000    0    12.011         -5.748943741876571          9.442753621329762         -0.407292673644047
  12 C     6.0000    0    12.011         -6.565267637207874         12.081321530339990          0.449641436305223
  13 H     1.0000    0     1.008         -7.074926775526435          8.182041728345538          0.548644188461357
  14 H     1.0000    0     1.008         -6.078323007019045          9.369829089821742         -2.447157548905342
  15 C     6.0000    0    12.011         -9.475351397139905         12.054619700067683          0.546546592452704
  16 H     1.0000    0     1.008         -5.921853683130366         13.513223713796140         -0.892574344835025
  17 H     1.0000    0     1.008         -5.796186895224603         12.539164378066429          2.314253109906661
  18 C     6.0000    0    12.011        -10.759590380491449         14.578651308100941          0.027684487861946
  19 H     1.0000    0     1.008        -10.067232519545380         11.334180508771544          2.399460861285170
  20 H     1.0000    0     1.008        -10.195563821299974         10.704977295221125         -0.856896315426592
  21 C     6.0000    0    12.011        -13.628610391533371         14.170867305662075         -0.035262289658971
  22 H     1.0000    0     1.008        -10.124132173437749         15.323127815820559         -1.798641334266247
  23 H     1.0000    0     1.008        -10.253956358838140         15.959814344861305          1.483397220605504
  24 C     6.0000    0    12.011        -15.066729773970122         16.549257720554024         -0.733478301620195
  25 H     1.0000    0     1.008        -14.276351818457558         13.494931164819782          1.813400095372172
  26 H     1.0000    0     1.008        -14.096544376814952         12.691476304460481         -1.411719908345871
  27 H     1.0000    0     1.008        -14.704941705630899         18.062720483950212          0.626160754474807
  28 H     1.0000    0     1.008        -17.099961710501351         16.164018150892836         -0.746781973603000
  29 H     1.0000    0     1.008        -14.531294771184875         17.209962668756908         -2.618574606513339
  30 C     6.0000    0    12.011         -0.938400203582615          9.560993785529215         -1.391121893486129
  31 H     1.0000    0     1.008         -2.718560016259113          8.713205950068124          2.147201319668022
  32 C     6.0000    0    12.011         -0.733194842700106         12.433793248838981         -1.088274383263910
  33 H     1.0000    0     1.008         -1.147800756482429          9.093513334519777         -3.400694458820666
  34 H     1.0000    0     1.008          0.855800274268917          8.709955621117780         -0.797407736730751
  35 C     6.0000    0    12.011          1.874665016633899         13.493022541424521         -1.777041764555527
  36 H     1.0000    0     1.008         -1.158005277605604         12.967792059762449          0.867762240696639
  37 H     1.0000    0     1.008         -2.136675545102081         13.331696621371664         -2.314045240031930
  38 C     6.0000    0    12.011          1.848378926111055         16.388082978591878         -1.629529742541635
  39 H     1.0000    0     1.008          2.407964628887816         12.889273938898020         -3.684928166623763
  40 H     1.0000    0     1.008          3.295757966604020         12.742839060780463         -0.467952882542920
  41 C     6.0000    0    12.011          4.414967166680221         17.559845462452429         -2.266972162035951
  42 H     1.0000    0     1.008          1.276812359645233         16.976524799433616          0.274558309997419
  43 H     1.0000    0     1.008          0.422901811510237         17.124754917378400         -2.942794919310209
  44 C     6.0000    0    12.011          4.330439716709923         20.440959720751451         -1.979866070509295
  45 H     1.0000    0     1.008          4.946868381595035         17.057953098544285         -4.204810723326838
  46 H     1.0000    0     1.008          5.857073871259545         16.776988616952874         -1.002348535954510
  47 C     6.0000    0    12.011          6.670034054072468         21.806721489520353         -2.993023839949835
  48 H     1.0000    0     1.008          4.076970750367065         20.918002185998532          0.022072001244200
  49 H     1.0000    0     1.008          2.673830198669197         21.189971571192476         -2.977225729470254
  50 C     6.0000    0    12.011          9.151376748740445         20.845928031250772         -1.912043799562862
  51 H     1.0000    0     1.008          6.724628242081453         21.653521391843359         -5.058229942667014
  52 H     1.0000    0     1.008          6.487467612274335         23.824419877230753         -2.553454643938413
  53 H     1.0000    0     1.008          9.581176060639496         18.946261937865096         -2.607425222323204
  54 H     1.0000    0     1.008          9.100562012999303         20.795755802395163          0.154409522402705
  55 H     1.0000    0     1.008         10.704296993812912         22.085493888796417         -2.488750421112949
  56 C     6.0000    0    12.011         -3.704789188291275         -5.298130675368317          0.861507247193359
  57 C     6.0000    0    12.011         -6.524865292464637         -6.027338195925850          0.443991155164798
  58 C     6.0000    0    12.011         -7.571225550078173         -8.593359518654839          1.297032429278190
  59 H     1.0000    0     1.008         -6.929228890601107         -5.912027107233975         -1.585499123621269
  60 H     1.0000    0     1.008         -7.675387254579912         -4.580280408875651          1.390781742782024
  61 C     6.0000    0    12.011        -10.461599466433405         -8.523005014688952          0.899169489042410
  62 H     1.0000    0     1.008         -7.133697258291385         -8.940332134104120          3.288803774431190
  63 H     1.0000    0     1.008         -6.754278045122676        -10.123376282984180          0.171606030221389
  64 C     6.0000    0    12.011        -11.857653545129070        -10.988417318047972          1.463555096199331
  65 H     1.0000    0     1.008        -10.861182057451055         -7.986058230996567         -1.065711053224890
  66 H     1.0000    0     1.008        -11.255095470066939         -7.021485320459141          2.090792994570473
  67 C     6.0000    0    12.011        -14.719133548896647        -10.574680678287255          1.198728875791607
  68 H     1.0000    0     1.008        -11.418084349117647        -11.633116285896547          3.380965717982529
  69 H     1.0000    0     1.008        -11.238352496520397        -12.463140695698778          0.147134076787109
  70 C     6.0000    0    12.011        -16.240722134668701        -12.958532401706234          1.694252862628437
  71 H     1.0000    0     1.008        -15.158532669556015         -9.884760564053943         -0.706039478155658
  72 H     1.0000    0     1.008        -15.333937049306586         -9.105834348912943          2.525921334167180
  73 H     1.0000    0     1.008        -15.784296581542701        -14.432159738199365          0.317625168589484
  74 H     1.0000    0     1.008        -18.265110152893179        -12.551126344494152          1.543188155482773
  75 H     1.0000    0     1.008        -15.879104141681530        -13.693409100665532          3.592577250459031
  76 C     6.0000    0    12.011         -1.892560723122134         -6.937052356795540         -0.708420533084399
  77 H     1.0000    0     1.008         -3.339996455399116         -5.546516278410927          2.882285888502050
  78 C     6.0000    0    12.011         -1.346864507429694         -9.549768812293724          0.449830408918615
  79 H     1.0000    0     1.008         -0.104199499024418         -5.922099347527776         -0.956163629241475
  80 H     1.0000    0     1.008         -2.638454525442191         -7.179334144425584         -2.627531908388126
  81 C     6.0000    0    12.011          1.481205138290155        -10.126040796833008          0.298217681194113
  82 H     1.0000    0     1.008         -2.413822779902971        -10.995881736276962         -0.579068779217489
  83 H     1.0000    0     1.008         -1.946134459018801         -9.639436317348288          2.431000390460316
  84 C     6.0000    0    12.011          2.181764410657442        -12.820846955588733          1.068961382175234
  85 H     1.0000    0     1.008          2.491414934961778         -8.794350790258703          1.521928736476158
  86 H     1.0000    0     1.008          2.149166634847300         -9.791880524571715         -1.635595763431522
  87 C     6.0000    0    12.011          5.065467593759933        -13.054076955037292          1.143170927454322
  88 H     1.0000    0     1.008          1.385471612345705        -14.163346195649067         -0.293096523371186
  89 H     1.0000    0     1.008          1.390573872907292        -13.276081981250362          2.928678665089817
  90 C     6.0000    0    12.011          5.983704419493608        -15.758993148609493          1.547988059862933
  91 H     1.0000    0     1.008          5.799720683095035        -11.844708921111708          2.659789533494162
  92 H     1.0000    0     1.008          5.857621891838383        -12.335433003568381         -0.633247227477011
  93 C     6.0000    0    12.011          8.875136582483837        -15.822922583720050          1.618644920010248
  94 H     1.0000    0     1.008          5.293557538124228        -16.966490353662493          0.011905274643704
  95 H     1.0000    0     1.008          5.217685033847290        -16.511652170488990          3.319474029584732
  96 C     6.0000    0    12.011          9.890070694490262        -18.490856836851414          1.911495778984024
  97 H     1.0000    0     1.008          9.561012682790555        -14.658813490701881          3.189782125013716
  98 H     1.0000    0     1.008          9.638623735110700        -15.000570462021539         -0.123720369987824
  99 H     1.0000    0     1.008          9.213397560455741        -19.355066392416280          3.663819925707862
 100 H     1.0000    0     1.008         11.958111386408323        -18.461755054389023          1.965145103926049
 101 H     1.0000    0     1.008          9.307770483583768        -19.682518136902154          0.324598258023653
 102 C     6.0000    0    12.011         -7.223459249652645          4.379043472874377         -2.246411941698888
 103 C     6.0000    0    12.011         -7.798011583410062          5.375855111256499         -4.597420224910318
 104 S    16.0000    0    32.060         -9.983631035380704          3.684380146044925         -0.614085404479050
 105 C     6.0000    0    12.011        -11.846901003427059          4.826625107693626         -2.979852448796404
 106 C     6.0000    0    12.011        -10.448484767063992          5.689568546748766         -4.992316295115841
 107 H     1.0000    0     1.008        -11.288657006205382          6.497143010080013         -6.674134759783077
 108 H     1.0000    0     1.008        -13.880529782446413          4.803570448859786         -2.778558821011112
 109 H     1.0000    0     1.008         -6.368906194632117          5.930716498698456         -5.953884541100330
 110 C     6.0000    0    12.011          1.039406065440706         -1.790345436538333          2.375442442123031
 111 C     6.0000    0    12.011          1.625447934092365         -3.797725919557521          3.960128983506714
 112 C     6.0000    0    12.011          4.244891814627308         -3.965741470124461          4.606736574750549
 113 C     6.0000    0    12.011          5.633330297003269         -2.053263033550797          3.542782966830206
 114 S    16.0000    0    32.060          3.831457531048016         -0.200613326377080          1.639035064995258
 115 H     1.0000    0     1.008          0.252769767673307         -5.138373228006615          4.656908803606158
 116 H     1.0000    0     1.008          7.632301498726509         -1.676999663025736          3.750992992265649
 117 H     1.0000    0     1.008          5.062198367548248         -5.405334838945670          5.810265354922316

--------------------------------
INTERNAL COORDINATES (ANGSTROEM)
--------------------------------
 C      0   0   0   0.000000     0.000     0.000
 N      1   0   0   1.406489     0.000     0.000
 C      1   2   0   1.332697   109.339     0.000
 C      3   1   2   1.425807   110.707     1.926
 C      2   1   3   1.427771   109.614   359.052
 O      5   2   1   1.214957   128.204   184.265
 C      3   1   2   1.457117   139.867   178.455
 N      7   3   1   1.416673   103.209   188.754
[...]
 H     97  94  91   2.067700   111.060   300.015
 H     97  94  91   2.068941   110.067   180.314
 H     97  94  91   2.068181   110.967    60.791
 C      1   2   3   2.680801   129.814   174.465
 C    103   1   2   2.617438   130.471    73.633
 S    103   1   2   3.281097   119.474   252.642
 C    105 103   1   3.220769    92.646   178.503
 C    106 105 103   2.598124   112.047     0.859
 H    107 106 105   2.046113   123.145   180.402
 H    106 105 103   2.043697   119.955   180.689
 H    104 103   1   2.047000   123.037   359.749
 C      9   4   3   2.703606   123.515   172.547
 C    111   9   4   2.623786   132.148   148.442
 C    112 111   9   2.703297   114.107   178.085
 C    113 112 111   2.591782   112.027     1.075
 S    114 113 112   3.209877   111.632   356.306
 H    112 111   9   2.041343   123.947   358.323
 H    114 113 112   2.044703   128.149   178.006
 H    113 112 111   2.046680   124.842   180.335

---------------------
BASIS SET INFORMATION
---------------------
There are 5 groups of distinct atoms

 Group   1 Type C   : 11s5p1d contracted to 4s3p1d pattern {6311/311/1}
 Group   2 Type N   : 11s5p1d contracted to 4s3p1d pattern {6311/311/1}
 Group   3 Type O   : 11s5p1d contracted to 4s3p1d pattern {6311/311/1}
 Group   4 Type H   : 4s1p contracted to 2s1p pattern {31/1}
 Group   5 Type S   : 17s11p1d contracted to 5s4p1d pattern {66311/6311/1}

Atom   0C    basis set group =>   1
Atom   1N    basis set group =>   2
Atom   2C    basis set group =>   1
Atom   3C    basis set group =>   1
Atom   4C    basis set group =>   1
Atom   5O    basis set group =>   3
Atom   6C    basis set group =>   1
Atom   7N    basis set group =>   2
Atom   8C    basis set group =>   1
Atom   9O    basis set group =>   3
Atom  10C    basis set group =>   1
Atom  11C    basis set group =>   1
Atom  12C    basis set group =>   1
Atom  13H    basis set group =>   4
Atom  14H    basis set group =>   4
Atom  15C    basis set group =>   1
Atom  16H    basis set group =>   4
Atom  17H    basis set group =>   4
Atom  18C    basis set group =>   1
Atom  19H    basis set group =>   4
Atom  20H    basis set group =>   4
Atom  21C    basis set group =>   1
Atom  22H    basis set group =>   4
Atom  23H    basis set group =>   4
Atom  24C    basis set group =>   1
Atom  25H    basis set group =>   4
Atom  26H    basis set group =>   4
Atom  27H    basis set group =>   4
Atom  28H    basis set group =>   4
Atom  29H    basis set group =>   4
Atom  30C    basis set group =>   1
Atom  31H    basis set group =>   4
Atom  32C    basis set group =>   1
Atom  33H    basis set group =>   4
Atom  34H    basis set group =>   4
Atom  35C    basis set group =>   1
Atom  36H    basis set group =>   4
Atom  37H    basis set group =>   4
Atom  38C    basis set group =>   1
Atom  39H    basis set group =>   4
Atom  40H    basis set group =>   4
Atom  41C    basis set group =>   1
Atom  42H    basis set group =>   4
Atom  43H    basis set group =>   4
Atom  44C    basis set group =>   1
Atom  45H    basis set group =>   4
Atom  46H    basis set group =>   4
Atom  47C    basis set group =>   1
Atom  48H    basis set group =>   4
Atom  49H    basis set group =>   4
Atom  50C    basis set group =>   1
Atom  51H    basis set group =>   4
Atom  52H    basis set group =>   4
Atom  53H    basis set group =>   4
Atom  54H    basis set group =>   4
Atom  55H    basis set group =>   4
Atom  56C    basis set group =>   1
Atom  57C    basis set group =>   1
Atom  58C    basis set group =>   1
Atom  59H    basis set group =>   4
Atom  60H    basis set group =>   4
Atom  61C    basis set group =>   1
Atom  62H    basis set group =>   4
Atom  63H    basis set group =>   4
Atom  64C    basis set group =>   1
Atom  65H    basis set group =>   4
Atom  66H    basis set group =>   4
Atom  67C    basis set group =>   1
Atom  68H    basis set group =>   4
Atom  69H    basis set group =>   4
Atom  70C    basis set group =>   1
Atom  71H    basis set group =>   4
Atom  72H    basis set group =>   4
Atom  73H    basis set group =>   4
Atom  74H    basis set group =>   4
Atom  75H    basis set group =>   4
Atom  76C    basis set group =>   1
Atom  77H    basis set group =>   4
Atom  78C    basis set group =>   1
Atom  79H    basis set group =>   4
Atom  80H    basis set group =>   4
Atom  81C    basis set group =>   1
Atom  82H    basis set group =>   4
Atom  83H    basis set group =>   4
Atom  84C    basis set group =>   1
Atom  85H    basis set group =>   4
Atom  86H    basis set group =>   4
Atom  87C    basis set group =>   1
Atom  88H    basis set group =>   4
Atom  89H    basis set group =>   4
Atom  90C    basis set group =>   1
Atom  91H    basis set group =>   4
Atom  92H    basis set group =>   4
Atom  93C    basis set group =>   1
Atom  94H    basis set group =>   4
Atom  95H    basis set group =>   4
Atom  96C    basis set group =>   1
Atom  97H    basis set group =>   4
Atom  98H    basis set group =>   4
Atom  99H    basis set group =>   4
Atom 100H    basis set group =>   4
Atom 101H    basis set group =>   4
Atom 102C    basis set group =>   1
Atom 103C    basis set group =>   1
Atom 104S    basis set group =>   5
Atom 105C    basis set group =>   1
Atom 106C    basis set group =>   1
Atom 107H    basis set group =>   4
Atom 108H    basis set group =>   4
Atom 109H    basis set group =>   4
Atom 110C    basis set group =>   1
Atom 111C    basis set group =>   1
Atom 112C    basis set group =>   1
Atom 113C    basis set group =>   1
Atom 114S    basis set group =>   5
Atom 115H    basis set group =>   4
Atom 116H    basis set group =>   4
Atom 117H    basis set group =>   4
------------------------------------------------------------------------------
                           ORCA GTO INTEGRAL CALCULATION
------------------------------------------------------------------------------

                         BASIS SET STATISTICS AND STARTUP INFO

 # of primitive gaussian shells          ... 1214
 # of primitive gaussian functions       ... 2074
 # of contracted shell                   ...  608
 # of contracted basis functions         ... 1248
 Highest angular momentum                ...    2
 Maximum contraction depth               ...    6
 Integral package used                   ... LIBINT
 Integral threshhold            Thresh   ...  2.500e-11
 Primitive cut-off              TCut     ...  2.500e-12


                              INTEGRAL EVALUATION

 One electron integrals                  ... done
 Pre-screening matrix                    ... done
 Shell pair data                         ... done (   0.050 sec)

-------------------------------------------------------------------------------
                                 ORCA SCF
-------------------------------------------------------------------------------

------------
SCF SETTINGS
------------
Hamiltonian:
 Density Functional     Method          .... DFT(GTOs)
 Exchange Functional    Exchange        .... B88
   X-Alpha parameter    XAlpha          ....  0.666667
   Becke's b parameter  XBeta           ....  0.004200
 Correlation Functional Correlation     .... LYP
 LDA part of GGA corr.  LDAOpt          .... VWN-5
 Gradients option       PostSCFGGA      .... off
 Hybrid DFT is turned on
   Fraction HF Exchange ScalHFX         ....  0.200000
   Scaling of DF-GGA-X  ScalDFX         ....  0.720000
   Scaling of DF-GGA-C  ScalDFC         ....  0.810000
   Scaling of DF-LDA-C  ScalLDAC        ....  1.000000
   Perturbative correction              ....  0.000000
   NL short-range parameter             ....  4.800000


General Settings:
 Integral files         IntName         .... DPP-HD
 Hartree-Fock type      HFTyp           .... RHF
 Total Charge           Charge          ....    0
 Multiplicity           Mult            ....    1
 Number of Electrons    NEL             ....  394
 Basis Dimension        Dim             .... 1248
 Nuclear Repulsion      ENuc            ....   6771.0699324650 Eh

Convergence Acceleration:
 DIIS                   CNVDIIS         .... on
   Start iteration      DIISMaxIt       ....    12
   Startup error        DIISStart       ....  0.200000
   # of expansion vecs  DIISMaxEq       ....     5
   Bias factor          DIISBfac        ....   1.050
   Max. coefficient     DIISMaxC        ....  10.000
 Newton-Raphson         CNVNR           .... off
 SOSCF                  CNVSOSCF        .... off
 Level Shifting         CNVShift        .... on
   Level shift para.    LevelShift      ....    0.2500
   Turn off err/grad.   ShiftErr        ....    0.0010
 Zerner damping         CNVZerner       .... off
 Static damping         CNVDamp         .... on
   Fraction old density DampFac         ....    0.7000
   Max. Damping (<1)    DampMax         ....    0.9800
   Min. Damping (>=0)   DampMin         ....    0.0000
   Turn off err/grad.   DampErr         ....    0.1000
 Fernandez-Rico         CNVRico         .... off

SCF Procedure:
 Maximum # iterations   MaxIter         ....   125
 SCF integral mode      SCFMode         .... Direct
   Integral package                     .... LIBINT
 Reset frequeny         DirectResetFreq ....    20
 Integral Threshold     Thresh          ....  2.500e-11 Eh
 Primitive CutOff       TCut            ....  2.500e-12 Eh

Convergence Tolerance:
 Convergence Check Mode ConvCheckMode   .... Total+1el-Energy
 Energy Change          TolE            ....  1.000e-08 Eh
 1-El. energy change                    ....  1.000e-05 Eh
 DIIS Error             TolErr          ....  5.000e-07


Diagonalization of the overlap matrix:
Smallest eigenvalue                        ... 2.726e-08
Time for diagonalization                   ...    0.535 sec
Threshold for overlap eigenvalues          ... 1.000e-08
Number of eigenvalues below threshold      ... 0
Time for construction of square roots      ...    0.365 sec
Total time needed                          ...    0.908 sec

-------------------
DFT GRID GENERATION
-------------------

General Integration Accuracy     IntAcc      ...  4.340
Radial Grid Type                 RadialGrid  ... Gauss-Chebyshev
Angular Grid (max. acc.)         AngularGrid ... Lebedev-110
Angular grid pruning method      GridPruning ... 3 (G Style)
Weight generation scheme         WeightScheme... Becke
Basis function cutoff            BFCut       ...    1.0000e-11
Integration weight cutoff        WCut        ...    1.0000e-14
Grids for H and He will be reduced by one unit

# of grid points (after initial pruning)     ... 137304 (   0.6 sec)
# of grid points (after weights+screening)   ... 119431 (   6.2 sec)
nearest neighbour list constructed           ...    0.0 sec
Grid point re-assignment to atoms done       ...    0.0 sec
Grid point division into batches done        ...    0.1 sec
Reduced shell lists constructed in    2.9 sec

Total number of grid points                  ...   119431
Total number of batches                      ...     1923
Average number of points per batch           ...       62
Average number of grid points per atom       ...     1012
Average number of shells per batch           ...   177.49 (29.19%)
Average number of basis functions per batch  ...   352.91 (28.28%)
Average number of large shells per batch     ...   110.82 (62.44%)
Average number of large basis fcns per batch ...   224.06 (63.49%)
Maximum spatial batch extension              ...  20.94, 20.32, 25.60 au
Average spatial batch extension              ...   3.08,  3.10,  3.30 au

Time for grid setup =    9.734 sec

------------------------------
INITIAL GUESS: MODEL POTENTIAL
------------------------------
Loading Hartree-Fock densities                     ... done
Calculating cut-offs                               ... done
Setting up the integral package                    ... done
Initializing the effective Hamiltonian             ... done
Starting the Coulomb interaction                   ... done (  15.3 sec)
Reading the grid                                   ... done
Mapping shells                                     ... done
Starting the XC term evaluation                    ... done (   6.2 sec)
  promolecular density results
     # of electrons  =    393.933423575
     EX              =   -326.277452077
     EC              =    -13.296453380
     EX+EC           =   -339.573905457
Transforming the Hamiltonian                       ... done (   0.2 sec)
Diagonalizing the Hamiltonian                      ... done (   0.6 sec)
Back transforming the eigenvectors                 ... done (   0.1 sec)
Now organizing SCF variables                       ... done
                      ------------------
                      INITIAL GUESS DONE (  32.4 sec)
                      ------------------
--------------
SCF ITERATIONS
--------------
ITER       Energy         Delta-E        Max-DP      RMS-DP      [F,P]     Damp
               ***  Starting incremental Fock matrix formation  ***
  0  -2770.9922634177   0.000000000000102.71430410  0.19719596  0.2606151 0.7000
  1  -2771.7464659423  -0.754202524648112.89250254  0.18270223  0.0962902 0.7000
                               ***Turning on DIIS***
  2  -2772.0422589010  -0.29579295868182.97866307  0.18078076  0.0358835 0.0000
  3  -2772.4656803148  -0.423421413800147.10378327  0.24311758  0.0516518 0.0000
  4  -2772.5903299806  -0.12464966585547.05016640  0.05909125  0.0170831 0.0000
  5  -2772.5969106022  -0.00658062155131.81820305  0.07597433  0.0153651 0.0000
  6  -2772.5980050058  -0.00109440359246.66282774  0.10502329  0.0016489 0.0000
  7  -2772.5980876406  -0.000082634767110.96821690  0.22041694  0.0011435 0.0000
  8  -2772.5981084059  -0.000020765367698.39372227  1.25436058  0.0001854 0.0000
  9  -2772.5981803069  -0.0000719010045764690.34538953 11295.56093313  0.0001693 0.0000
 10  -7713.5284695157-4940.93028920877843637.75058812 76.54772223  0.2776003 0.7000
 11  -7674.5438137094  38.98465580631840240.01669816 70.59444228  0.2781722 0.7000
 12  -7640.4493488064  34.09446490295661830.08559071 108.82767332  0.2782208 0.7000
 13  -7586.1061453001  54.34320350634758578.05369640 112.13168114  0.2781916 0.7000
 14  -7656.6143351771 -70.5081898770224349706.82698901 8530.37111999  0.2757969 0.7000
 15 -12515.1839352955-4858.5696001184223047712.66523213 5964.83635664  0.2719440 0.7000
 16 -16807.7778029132-4292.5938676176482140897.13180270 4159.89137772  0.2808877 0.7000
 17 -20333.9230723481-3526.1452694349571511412.59557828 2901.38907997  0.3144963 0.7000
 18 -23092.0426551422-2758.1195827940941070200.71214426 2020.63619651  0.3255811 0.7000
 19 -25202.0881017188-2110.045446576616730451.66615419 1333.31342608  0.3212337 0.7000
               *** Restarting incremental Fock matrix formation ***
                                   *** Resetting DIIS ***
 20 -26914.6069041522-1712.518802433307394372.91170144 853.76094907  0.2687718 0.7000
 21 -28203.3096102765-1288.702706124364315678.34800969 636.37576025  0.1893953 0.7000
 22 -29128.7457349270-925.436124650510275306.87837948 515.51384614  0.1343783 0.7000
 23 -29791.8333446253-663.087609698268194637.11272822 374.30933090  0.1857942 0.7000
 24 -30267.2499328792-475.416588253898136423.60611805 268.17228189  0.1629730 0.7000
 25 -30606.0957105722-338.84577769297970848.21737539 169.46156181  0.1399198 0.7000
 26 -30845.9252399915-239.82952941935659112.92047635 140.43133715  0.1103588 0.7000
 27 -31016.1444974022-170.219257410688140843.03176881 408.27336132  0.0817867 0.0000
 28 -31421.5166778759-405.3721804736896759.04544370 17.07530397  0.3242446 0.7000
 29 -31422.3203869290  -0.8037090530858502.10269578 21.46055938  0.2780541 0.7000
 30 -31423.3245929614  -1.0042060324417330.76264394 19.11189156  0.2055334 0.7000
 31 -31424.2635861106  -0.9389931491826590.53906972 17.13282988  0.2103849 0.7000
 32 -31425.1053268904  -0.84174077974620098.38418991 51.05192015  0.2017134 0.7000
 33 -31424.4641099998   0.64121689060316875.04649768 42.25500582  0.1244830 0.7000
 34 -31426.7334755100  -2.26936551028813206.54508665 32.97430273  0.1679720 0.7000
 35 -31426.6786558815   0.0548196285569539.41383405 23.79125425  0.2140534 0.7000
 36 -31426.4019577670   0.2766981144787099.58498046 17.67201176  0.2304363 0.7000
 37 -31426.4450535091  -0.0430957421237599.57209897 18.89998985  0.2076174 0.7000
 38 -31426.2046415745   0.2404119346575825.59677820 14.69198667  0.2009476 0.7000
 39 -31426.0932954548   0.1113461196335318.55880323 13.67381210  0.2282100 0.7000
               *** Restarting incremental Fock matrix formation ***
                                   *** Resetting DIIS ***
 40 -31434.1347870506  -8.04149159571516201.56148255 28.22320027  0.2189238 0.7000
 41 -31431.6097184535   2.52506859702011804.36730073 20.78940238  0.1863994 0.7000
 42 -31432.5521099842  -0.9423915306768070.27871145 14.99360726  0.2131003 0.7000
 43 -31433.2767568496  -0.7246468653875644.51299844 10.70334147  0.2162120 0.7000
 44 -31434.0957949724  -0.8190381227503993.23685679  7.70168771  0.2552525 0.7000
 45 -31434.8647845978  -0.7689896254203392.83905872  7.98633632  0.2891739 0.7000
 46 -31432.8190855689   2.0456990288292403.90626052  7.28740616  0.3568347 0.7000
 47 -31432.8455299107  -0.0264443417472805.39908649  7.31130566  0.2151837 0.7000
 48 -31431.0047078807   1.8408220300042235.15489767  6.18562645  0.2744021 0.7000
 49 -31430.4851017425   0.5196061381541659.45372767  4.98532148  0.3140318 0.7000
 50 -31430.3857980429   0.0993036996041629.79225214  5.08051633  0.3597756 0.7000
 51 -31426.8519374421   3.5338606008081616.76675319  3.93597147  0.4035091 0.7000
 52 -31428.3348425502  -1.4829051080601374.34225979  4.37014034  0.4564411 0.7000
 53 -31429.6546082172  -1.3197656670241525.02834518  4.29149633  0.2883299 0.7000
 54 -31429.5491523453   0.1054558718971270.51500191  3.83151447  0.2624761 0.7000
 55 -31428.7911813691   0.757970976159998.58711423  3.24126456  0.2896355 0.7000
 56 -31427.6800095952   1.1111717739511649.63983841  3.45744321  0.3175022 0.7000
 57 -31429.6304974971  -1.9504879019191096.55157718  3.68869435  0.2623019 0.7000
 58 -31429.1691529762   0.4613445209221172.96827616  2.82073584  0.3027227 0.7000
 59 -31429.3413783516  -0.1722253754231150.75413276  2.66389729  0.2269642 0.7000
               *** Restarting incremental Fock matrix formation ***
                                   *** Resetting DIIS ***
 60 -31429.5349473964  -0.1935690447757658.86229788 12.58861340  0.3670933 0.7000
 61 -31401.0059093608  28.5290380356134409.43693855  8.39005144  0.5179825 0.7000
 62 -31415.0910285325 -14.0851191717342585.48907428  5.08010953  0.3508027 0.7000
 63 -31423.8099847700  -8.7189562374881712.32804960  3.40564068  0.4535406 0.7000
 64 -31428.1881459859  -4.3781612159001223.40405590  2.43239014  0.4776239 0.7000
 65 -31430.2072983745  -2.0191523885701060.52641034  2.44076881  0.4293150 0.7000
 66 -31430.7774978792  -0.570199504735524.92660033  1.52439534  0.2362411 0.7000
 67 -31427.2630603338   3.514437545367741.68943809  1.87134102  0.3123039 0.7000
 68 -31426.9287101113   0.3343502225141307.77241559  2.51915105  0.5054234 0.7000
 69 -31426.0780321329   0.8506779784151258.98671111  2.33811649  0.6524532 0.7000
 70 -31421.2970696040   4.7809625289161122.82949568  2.07397045  0.6868397 0.7000
 71 -31415.8248981769   5.4721714271001433.67174269  2.53920940  0.5129425 0.7000
 72 -31417.2782679928  -1.4533698158881361.84693746  3.33758129  0.4325213 0.7000
 73 -31425.9174993844  -8.639231391582778.10563742  1.94219543  0.2848584 0.7000
 74 -31425.2259287088   0.6915706755641244.66127041  2.15070976  0.3712595 0.7000
 75 -31426.0554377240  -0.829509015231673.23835487  1.69148011  0.3529546 0.7000
