LAMMPS data file

22 atoms
22 atom types
23 bonds
23 bond types
38 angles
38 angle types
48 dihedrals
48 dihedral types
12 impropers
12 improper types




0.0000 300.0000 xlo xhi
0.0000 300.0000 ylo yhi
0.0000 300.0000 zlo zhi

Masses

1 12.011
2 12.011
3 12.011
4 1.008
5 12.011
6 32.060
7 12.011
8 1.008
9 1.008
10 1.008
11 1.008
12 12.011
13 12.011
14 12.011
15 1.008
16 12.011
17 32.060
18 12.011
19 1.008
20 1.008
21 1.008
22 1.008

Pair Coeffs

1 0.000000 0.000000
2 0.000000 0.000000
3 0.000000 0.000000
4 0.000000 0.000000
5 0.000000 0.000000
6 0.000000 0.000000
7 0.000000 0.000000
8 0.000000 0.000000
9 0.000000 0.000000
10 0.000000 0.000000
11 0.000000 0.000000
12 0.000000 0.000000
13 0.000000 0.000000
14 0.000000 0.000000
15 0.000000 0.000000
16 0.000000 0.000000
17 0.000000 0.000000
18 0.000000 0.000000
19 0.000000 0.000000
20 0.000000 0.000000
21 0.000000 0.000000
22 0.000000 0.000000

Bond Coeffs

1 0.000000 1.367000
2 0.000000 1.424000
3 0.000000 1.080000
4 0.000000 1.424000
5 0.000000 1.740000
6 0.000000 1.495000
7 0.000000 1.090000
8 0.000000 1.090000
9 0.000000 1.090000
10 0.000000 1.080000
11 0.000000 1.424000
12 0.000000 1.424000
13 0.000000 1.424000
14 0.000000 1.080000
15 0.000000 1.367000
16 0.000000 1.760000
17 0.000000 1.495000
18 0.000000 1.090000
19 0.000000 1.090000
20 0.000000 1.090000
21 0.000000 1.080000
22 0.000000 1.760000
23 0.000000 1.740000

Angle Coeffs

1 0.000000 107.300000
2 0.000000 125.700000
3 0.000000 120.000000
4 0.000000 111.170000
5 0.000000 120.000000
6 0.000000 109.500000
7 0.000000 109.500000
8 0.000000 109.500000
9 0.000000 132.100000
10 63.000000 120.000000
11 63.000000 120.000000
12 0.000000 120.000000
13 0.000000 127.500000
14 0.000000 107.300000
15 85.000000 119.400000
16 0.000000 120.000000
17 0.000000 109.500000
18 0.000000 109.500000
19 0.000000 109.500000
20 0.000000 132.100000
21 0.000000 107.800000
22 0.000000 107.800000
23 0.000000 107.800000
24 0.000000 107.800000
25 0.000000 125.000000
26 0.000000 125.000000
27 0.000000 107.800000
28 0.000000 127.500000
29 0.000000 111.170000
30 0.000000 119.400000
31 0.000000 127.500000
32 85.000000 119.400000
33 0.000000 112.400000
34 0.000000 107.800000
35 0.000000 125.000000
36 0.000000 112.400000
37 0.000000 119.400000
38 0.000000 120.000000

Dihedral Coeffs

1 0.0 0.0 0.0 0.0
2 0.0 0.0 0.0 0.0
3 0.0 0.0 0.0 0.0
4 0.0 0.0 0.0 0.0
5 0.0 0.0 0.0 0.0
6 0.0 0.0 0.0 0.0
7 0.0 0.0 0.0 0.0
8 0.0 0.0 0.0 0.0
9 0.0 0.0 0.0 0.0
10 0.0 0.0 0.0 0.0
11 0.0 0.0 0.0 0.0
12 0.0 0.0 0.0 0.0
13 0.0 0.0 0.0 0.0
14 0.0 0.0 0.0 0.0
15 0.0 0.0 0.0 0.0
16 0.0 0.0 0.0 0.0
17 0.0 0.0 0.0 0.0
18 0.0 0.0 0.0 0.0
19 0.0 0.0 0.0 0.0
20 0.0 0.0 0.0 0.0
21 0.0 0.0 0.0 0.0
22 0.0 0.0 0.0 0.0
23 0.0 0.0 0.0 0.0
24 0.0 0.0 0.0 0.0
25 0.0 0.0 0.0 0.0
26 0.0 0.0 0.0 0.0
27 0.0 0.0 0.0 0.0
28 0.0 0.0 0.0 0.0
29 0.0 0.0 0.0 0.0
30 0.0 0.0 0.0 0.0
31 0.0 0.0 0.0 0.0
32 0.0 0.0 0.0 0.0
33 0.0 0.0 0.0 0.0
34 0.0 0.0 0.0 0.0
35 0.0 0.0 0.0 0.0
36 0.0 0.0 0.0 0.0
37 0.0 0.0 0.0 0.0
38 0.0 0.0 0.0 0.0
39 0.0 0.0 0.0 0.0
40 0.0 0.0 0.0 0.0
41 0.0 0.0 0.0 0.0
42 0.0 0.0 0.0 0.0
43 0.0 0.0 0.0 0.0
44 0.0 0.0 0.0 0.0
45 0.0 0.0 0.0 0.0
46 0.0 0.0 0.0 0.0
47 0.0 0.0 0.0 0.0
48 0.0 0.0 0.0 0.0

Improper Coeffs

1 0.000000 -1 2
2 0.000000 -1 2
3 0.000000 -1 2
4 0.000000 -1 2
5 0.000000 -1 2
6 0.000000 -1 2
7 0.000000 -1 2
8 0.000000 -1 2
9 0.000000 -1 2
10 0.000000 -1 2
11 0.000000 -1 2
12 0.000000 -1 2

Atoms

1 1 1 0.0000000000000000 -0.5933228094331257 -3.8667252398587006 -0.4987895254253575 0 0 0
2 1 2 0.0000000000000000 0.4694453250933809 -3.7039633811635229 0.3935181457997199 0 0 0
3 1 3 0.0000000000000000 0.8170484792571168 -2.3570562286502090 0.6856754195717361 0 0 0
4 1 4 0.0000000000000000 0.9983796793036303 -4.5610922019602489 0.8371298715563797 0 0 0
5 1 5 0.0000000000000000 -0.0000000000000001 -1.4406640432335363 -0.0000000000000000 0 0 0
6 1 6 0.0000000000000000 -1.1831470641468356 -2.2869570983641978 -0.9927699495186735 0 0 0
7 1 7 0.0000000000000000 1.9316726490283029 -1.9787431727959701 1.6212578748401616 0 0 0
8 1 8 0.0000000000000000 2.4258776968805198 -2.8786776234434854 2.0358498587136351 0 0 0
9 1 9 0.0000000000000000 1.5639755022369570 -1.3760150061756258 2.4778711711594372 0 0 0
10 1 10 0.0000000000000000 2.7114152117891028 -1.3757281467631635 1.1107247230989075 0 0 0
11 1 11 0.0000000000000000 -1.0528944126025579 -4.7834372091987412 -0.8847198281757098 0 0 0
12 1 12 0.0000000000000000 0.0000000000000000 0.0000000000000000 0.0000000000000000 0 0 0
13 1 13 0.0000000000000000 0.4296441772961715 0.7440980911287931 1.1028655658524216 0 0 0
14 1 14 0.0000000000000000 1.1222513314829046 1.9436856767826942 0.7856368134301325 0 0 0
15 1 15 0.0000000000000000 0.2435590492901313 0.4217633216144716 2.1375993518249894 0 0 0
16 1 16 0.0000000000000000 1.2353557813792424 2.1395433940156519 -0.6027435333455422 0 0 0
17 1 17 0.0000000000000000 0.4741689211864751 0.8212336266813330 -1.4830560013157568 0 0 0
18 1 18 0.0000000000000000 1.6640832538854191 2.8821173428660134 1.8278342629087252 0 0 0
19 1 19 0.0000000000000000 1.4467776116356779 2.5057529132653649 2.8456960374625235 0 0 0
20 1 20 0.0000000000000000 1.2209767377897520 3.8967919236758872 1.7380908899006631 0 0 0
21 1 21 0.0000000000000000 2.7643746597808034 3.0056655114987469 1.7380909343920286 0 0 0
22 1 22 0.0000000000000000 1.6949658834100314 2.9355239030845599 -1.1698177182699223 0 0 0

Bonds

1 1 2 1
2 2 3 2
3 3 4 2
4 4 5 3
5 5 6 1
6 6 7 3
7 7 8 7
8 8 9 7
9 9 10 7
10 10 11 1
11 11 12 5
12 12 13 12
13 13 14 13
14 14 15 13
15 15 16 14
16 16 17 12
17 17 18 14
18 18 19 18
19 19 20 18
20 20 21 18
21 21 22 16
22 22 6 5
23 23 17 16

Angles

1 1 1 2 3
2 2 1 2 4
3 3 2 3 5
4 4 2 1 6
5 5 2 3 7
6 6 3 7 8
7 7 3 7 9
8 8 3 7 10
9 9 2 1 11
10 10 3 5 12
11 11 5 12 13
12 12 12 13 14
13 13 12 13 15
14 14 13 14 16
15 15 5 12 17
16 16 13 14 18
17 17 14 18 19
18 18 14 18 20
19 19 14 18 21
20 20 14 16 22
21 21 20 18 21
22 22 9 7 10
23 23 8 7 10
24 24 19 18 21
25 25 6 1 11
26 26 16 14 18
27 27 8 7 9
28 28 14 13 15
29 29 14 16 17
30 30 13 12 17
31 31 3 2 4
32 32 6 5 12
33 33 12 17 16
34 34 19 18 20
35 35 17 16 22
36 36 1 6 5
37 37 3 5 6
38 38 5 3 7

Dihedrals

1 1 5 3 2 1
2 2 6 1 2 3
3 3 8 7 3 2
4 4 13 12 5 3
5 5 14 13 12 5
6 6 16 14 13 12
7 7 19 18 14 13
8 8 21 18 14 13
9 9 12 5 3 7
10 10 17 16 14 13
11 11 14 16 17 12
12 12 5 6 1 2
13 13 11 1 2 3
14 14 13 12 5 6
15 15 17 12 5 3
16 16 15 13 12 5
17 17 6 1 2 4
18 18 12 5 3 2
19 19 7 3 2 1
20 20 6 5 3 2
21 21 22 16 14 18
22 22 11 1 2 4
23 23 18 14 13 12
24 24 12 5 6 1
25 25 10 7 3 5
26 26 8 7 3 5
27 27 18 14 13 15
28 28 11 1 6 5
29 29 9 7 3 5
30 30 22 16 14 13
31 31 18 14 16 17
32 32 19 18 14 16
33 33 20 18 14 13
34 34 17 12 5 6
35 35 21 18 14 16
36 36 17 12 13 14
37 37 9 7 3 2
38 38 16 17 12 13
39 39 22 16 17 12
40 40 16 14 13 15
41 41 5 3 2 4
42 42 7 3 5 6
43 43 20 18 14 16
44 44 3 5 6 1
45 45 7 3 2 4
46 46 10 7 3 2
47 47 17 12 13 15
48 48 16 17 12 5

Impropers

1 1 2 1 3 4
2 2 3 2 5 7
3 3 7 9 3 8
4 4 7 10 3 8
5 5 1 2 11 6
6 6 5 3 12 6
7 7 13 12 14 15
8 8 12 17 13 5
9 9 14 18 13 16
10 10 18 19 20 14
11 11 18 19 21 14
12 12 16 17 14 22
