LAMMPS data file Created by LigParGen - (Written by Leela S. Dodda)

      68 atoms
      70 bonds
     130 angles
     184 dihedrals
      42 impropers
 
      68 atom types
      70 bond types
     130 angle types
     184 dihedral types
      42 improper types
 
   -7.702600    42.297400 xlo xhi
   -2.759100    47.240900 ylo yhi
   -4.915070    45.084930 zlo zhi

Masses

       1     12.011  
       2     12.011  
       3     12.011  
       4     12.011  
       5     12.011  
       6     12.011  
       7     32.060  
       8     12.011  
       9     12.011  
      10      1.008  
      11     32.060  
      12     12.011  
      13     12.011  
      14      1.008  
      15     15.999  
      16     12.011  
      17     12.011  
      18      1.008  
      19      1.008  
      20     12.011  
      21     12.011  
      22      1.008  
      23      1.008  
      24      1.008  
      25      1.008  
      26      1.008  
      27     12.011  
      28      1.008  
      29     12.011  
      30      1.008  
      31      1.008  
      32     12.011  
      33      1.008  
      34      1.008  
      35     12.011  
      36      1.008  
      37      1.008  
      38      1.008  
      39      1.008  
      40      1.008  
      41     15.999  
      42     12.011  
      43     12.011  
      44      1.008  
      45      1.008  
      46     12.011  
      47     12.011  
      48      1.008  
      49      1.008  
      50      1.008  
      51      1.008  
      52      1.008  
      53     12.011  
      54      1.008  
      55     12.011  
      56      1.008  
      57      1.008  
      58     12.011  
      59      1.008  
      60      1.008  
      61     12.011  
      62      1.008  
      63      1.008  
      64      1.008  
      65      1.008  
      66      1.008  
      67      1.008  
      68      1.008  

Pair Coeffs 

       1      0.070  3.5500000 
       2      0.080  3.5000000 
       3      0.070  3.5500000 
       4      0.070  3.5500000 
       5      0.080  3.5000000 
       6      0.070  3.5500000 
       7      0.355  3.6000000 
       8      0.070  3.5500000 
       9      0.070  3.5500000 
      10      0.030  2.4200000 
      11      0.355  3.6000000 
      12      0.070  3.5500000 
      13      0.070  3.5500000 
      14      0.030  2.4200000 
      15      0.140  2.9000000 
      16      0.066  3.5000000 
      17      0.066  3.5000000 
      18      0.030  2.5000000 
      19      0.030  2.5000000 
      20      0.066  3.5000000 
      21      0.066  3.5000000 
      22      0.030  2.5000000 
      23      0.030  2.5000000 
      24      0.030  2.5000000 
      25      0.030  2.5000000 
      26      0.030  2.5000000 
      27      0.066  3.5000000 
      28      0.030  2.5000000 
      29      0.066  3.5000000 
      30      0.030  2.5000000 
      31      0.030  2.5000000 
      32      0.066  3.5000000 
      33      0.030  2.5000000 
      34      0.030  2.5000000 
      35      0.066  3.5000000 
      36      0.030  2.5000000 
      37      0.030  2.5000000 
      38      0.030  2.5000000 
      39      0.030  2.5000000 
      40      0.030  2.5000000 
      41      0.140  2.9000000 
      42      0.066  3.5000000 
      43      0.066  3.5000000 
      44      0.030  2.5000000 
      45      0.030  2.5000000 
      46      0.066  3.5000000 
      47      0.066  3.5000000 
      48      0.030  2.5000000 
      49      0.030  2.5000000 
      50      0.030  2.5000000 
      51      0.030  2.5000000 
      52      0.030  2.5000000 
      53      0.066  3.5000000 
      54      0.030  2.5000000 
      55      0.066  3.5000000 
      56      0.030  2.5000000 
      57      0.030  2.5000000 
      58      0.066  3.5000000 
      59      0.030  2.5000000 
      60      0.030  2.5000000 
      61      0.066  3.5000000 
      62      0.030  2.5000000 
      63      0.030  2.5000000 
      64      0.030  2.5000000 
      65      0.030  2.5000000 
      66      0.030  2.5000000 
      67      0.030  2.4200000 
      68      0.030  2.4200000 

Bond Coeffs 

       1   469.0000     1.4040 
       2   469.0000     1.4240 
       3   469.0000     1.4000 
       4   469.0000     1.4040 
       5   469.0000     1.4000 
       6   250.0000     1.7600 
       7   250.0000     1.7400 
       8   469.0000     1.4240 
       9   367.0000     1.0800 
      10   250.0000     1.7600 
      11   250.0000     1.7400 
      12   469.0000     1.4240 
      13   367.0000     1.0800 
      14   450.0000     1.3640 
      15   320.0000     1.4100 
      16   268.0000     1.5290 
      17   340.0000     1.0900 
      18   340.0000     1.0900 
      19   268.0000     1.5290 
      20   268.0000     1.5290 
      21   340.0000     1.0900 
      22   340.0000     1.0900 
      23   340.0000     1.0900 
      24   340.0000     1.0900 
      25   340.0000     1.0900 
      26   268.0000     1.5290 
      27   340.0000     1.0900 
      28   268.0000     1.5290 
      29   340.0000     1.0900 
      30   340.0000     1.0900 
      31   268.0000     1.5290 
      32   340.0000     1.0900 
      33   340.0000     1.0900 
      34   268.0000     1.5290 
      35   340.0000     1.0900 
      36   340.0000     1.0900 
      37   340.0000     1.0900 
      38   340.0000     1.0900 
      39   340.0000     1.0900 
      40   450.0000     1.3640 
      41   320.0000     1.4100 
      42   268.0000     1.5290 
      43   340.0000     1.0900 
      44   340.0000     1.0900 
      45   268.0000     1.5290 
      46   268.0000     1.5290 
      47   340.0000     1.0900 
      48   340.0000     1.0900 
      49   340.0000     1.0900 
      50   340.0000     1.0900 
      51   340.0000     1.0900 
      52   268.0000     1.5290 
      53   340.0000     1.0900 
      54   268.0000     1.5290 
      55   340.0000     1.0900 
      56   340.0000     1.0900 
      57   268.0000     1.5290 
      58   340.0000     1.0900 
      59   340.0000     1.0900 
      60   268.0000     1.5290 
      61   340.0000     1.0900 
      62   340.0000     1.0900 
      63   340.0000     1.0900 
      64   340.0000     1.0900 
      65   340.0000     1.0900 
      66   367.0000     1.0800 
      67   367.0000     1.0800 
      68   469.0000     1.4240 
      69   546.0000     1.3670 
      70   546.0000     1.3670 

Angle Coeffs 

       1     85.000    134.900
       2     63.000    120.000
       3     63.000    120.000
       4     63.000    120.000
       5     85.000    119.400
       6     63.000    112.400
       7     70.000    107.300
       8     35.000    127.500
       9     85.000    119.400
      10     63.000    112.400
      11     63.000    120.000
      12     35.000    127.500
      13     70.000    120.000
      14     75.000    111.000
      15     50.000    109.500
      16     35.000    109.500
      17     35.000    109.500
      18     58.350    112.700
      19     58.350    112.700
      20     37.500    110.700
      21     37.500    110.700
      22     37.500    110.700
      23     37.500    110.700
      24     37.500    110.700
      25     58.350    112.700
      26     37.500    110.700
      27     58.350    112.700
      28     37.500    110.700
      29     37.500    110.700
      30     58.350    112.700
      31     37.500    110.700
      32     37.500    110.700
      33     58.350    112.700
      34     37.500    110.700
      35     37.500    110.700
      36     37.500    110.700
      37     37.500    110.700
      38     37.500    110.700
      39     70.000    120.000
      40     75.000    111.000
      41     50.000    109.500
      42     35.000    109.500
      43     35.000    109.500
      44     58.350    112.700
      45     58.350    112.700
      46     37.500    110.700
      47     37.500    110.700
      48     37.500    110.700
      49     37.500    110.700
      50     37.500    110.700
      51     58.350    112.700
      52     37.500    110.700
      53     58.350    112.700
      54     37.500    110.700
      55     37.500    110.700
      56     58.350    112.700
      57     37.500    110.700
      58     37.500    110.700
      59     58.350    112.700
      60     37.500    110.700
      61     37.500    110.700
      62     37.500    110.700
      63     37.500    110.700
      64     37.500    110.700
      65     35.000    125.000
      66     35.000    125.000
      67     33.000    107.800
      68     70.000    107.300
      69     33.000    107.800
      70     37.500    110.700
      71     37.500    110.700
      72     70.000    107.300
      73     63.000    120.000
      74     33.000    107.800
      75     33.000    107.800
      76     33.000    107.800
      77     37.500    110.700
      78     63.000    120.000
      79     33.000    107.800
      80     33.000    107.800
      81     37.500    110.700
      82     58.350    112.700
      83     85.000    119.400
      84     33.000    107.800
      85     70.000    120.000
      86     37.500    110.700
      87     33.000    107.800
      88     33.000    107.800
      89     37.500    110.700
      90     33.000    107.800
      91     33.000    107.800
      92     33.000    107.800
      93     37.500    110.700
      94     33.000    107.800
      95     70.000    107.300
      96     33.000    107.800
      97     33.000    107.800
      98     37.500    110.700
      99     33.000    107.800
     100     37.500    110.700
     101     37.500    110.700
     102     37.500    110.700
     103     37.500    110.700
     104     37.500    110.700
     105     33.000    107.800
     106     37.500    110.700
     107     37.500    110.700
     108     37.500    110.700
     109     33.000    107.800
     110     37.500    110.700
     111     37.500    110.700
     112     35.000    125.700
     113     70.000    111.170
     114     35.000    132.100
     115     85.000    134.900
     116     35.000    132.100
     117     37.500    110.700
     118     58.350    112.700
     119     33.000    107.800
     120     37.500    110.700
     121     37.500    110.700
     122     37.500    110.700
     123     35.000    125.700
     124     70.000    120.000
     125     33.000    107.800
     126     37.500    110.700
     127     37.500    110.700
     128     33.000    107.800
     129     85.000    119.400
     130     70.000    111.170

Dihedral Coeffs  

       1      0.000      7.250      0.000      0.000 
       2      0.000      7.250      0.000      0.000 
       3      0.000      7.000      0.000      0.000 
       4      0.000      7.250      0.000      0.000 
       5      0.000      7.250      0.000      0.000 
       6      0.000      3.000      0.000      0.000 
       7      0.650     -0.250      0.670      0.000 
       8      1.711     -0.500      0.663      0.000 
       9      1.300     -0.200      0.200      0.000 
      10      0.000      0.000      0.300      0.000 
      11      1.300     -0.200      0.200      0.000 
      12      1.300     -0.200      0.200      0.000 
      13      1.300     -0.200      0.200      0.000 
      14      0.000      0.000      0.300      0.000 
      15      0.000      3.000      0.000      0.000 
      16      0.650     -0.250      0.670      0.000 
      17      1.711     -0.500      0.663      0.000 
      18      1.300     -0.200      0.200      0.000 
      19      0.000      0.000      0.300      0.000 
      20      1.300     -0.200      0.200      0.000 
      21      1.300     -0.200      0.200      0.000 
      22      1.300     -0.200      0.200      0.000 
      23      0.000      0.000      0.300      0.000 
      24      0.000      0.000      0.300      0.000 
      25      0.000      0.000      0.300      0.000 
      26      0.000      0.000      0.300      0.000 
      27      0.000      0.000      0.300      0.000 
      28      1.300     -0.200      0.200      0.000 
      29      0.000      0.000      0.468      0.000 
      30      0.000      0.000      0.300      0.000 
      31      0.000      0.000      0.300      0.000 
      32      0.000      0.000      0.300      0.000 
      33      0.000      0.000      0.300      0.000 
      34      0.000      0.000      0.300      0.000 
      35      0.000      0.000      0.300      0.000 
      36      0.000      0.000      0.300      0.000 
      37      0.000      2.170      0.000      0.000 
      38      0.000      0.000      0.300      0.000 
      39      0.000      0.000      0.760      0.000 
      40      0.000      7.000      0.000      0.000 
      41      0.000      0.000      0.300      0.000 
      42      0.000      0.000      0.760      0.000 
      43      0.000      7.250      0.000      0.000 
      44      0.000      0.000      0.300      0.000 
      45      0.000      7.250      0.000      0.000 
      46      1.300     -0.200      0.200      0.000 
      47      1.300     -0.200      0.200      0.000 
      48      0.000      0.000      0.300      0.000 
      49      0.000      0.000      0.300      0.000 
      50      0.000      7.250      0.000      0.000 
      51      0.000      0.000      0.300      0.000 
      52      0.000      0.000      0.300      0.000 
      53      0.000      7.250      0.000      0.000 
      54      0.000      7.250      0.000      0.000 
      55      0.000      0.000      0.300      0.000 
      56      0.000      0.000      0.300      0.000 
      57      0.000      0.000      0.300      0.000 
      58      0.000      0.000      0.300      0.000 
      59      0.000      0.000      0.300      0.000 
      60      0.000      0.000      0.300      0.000 
      61      0.000      0.000      0.300      0.000 
      62      0.000      7.000      0.000      0.000 
      63      0.000      0.000      0.300      0.000 
      64      0.000      0.000      0.300      0.000 
      65      0.000      7.250      0.000      0.000 
      66      0.000      0.000      0.300      0.000 
      67      0.000      0.000      0.300      0.000 
      68      0.000      7.250      0.000      0.000 
      69      0.000      0.000      0.300      0.000 
      70      0.000      7.250      0.000      0.000 
      71      0.000      0.000      0.300      0.000 
      72      0.000      0.000      0.300      0.000 
      73      0.000      0.000      0.300      0.000 
      74      0.000      7.000      0.000      0.000 
      75      0.000      7.250      0.000      0.000 
      76      0.000      0.000      0.300      0.000 
      77      0.000      0.000      0.300      0.000 
      78      0.000      7.250      0.000      0.000 
      79      0.000      0.000      0.300      0.000 
      80      0.000      0.000      0.300      0.000 
      81      0.000      0.000      0.760      0.000 
      82      0.000      0.000      0.300      0.000 
      83      0.000      7.000      0.000      0.000 
      84      0.000      2.170      0.000      0.000 
      85      0.000      0.000      0.300      0.000 
      86      0.000      0.000      0.300      0.000 
      87      0.000      0.000      0.300      0.000 
      88      0.000      2.100      0.000      0.000 
      89      0.000      0.000      0.300      0.000 
      90      0.000      0.000      0.300      0.000 
      91      0.000      0.000      0.300      0.000 
      92      0.000      2.170      0.000      0.000 
      93      0.000      0.000      0.300      0.000 
      94      0.000      0.000      0.300      0.000 
      95      1.300     -0.200      0.200      0.000 
      96      0.000      0.000      0.300      0.000 
      97      0.000      0.000      0.000      0.000 
      98      0.000      0.000      0.300      0.000 
      99      0.000      0.000      0.300      0.000 
     100      0.000      0.000      0.300      0.000 
     101      0.000      0.000      0.300      0.000 
     102      0.000      7.250      0.000      0.000 
     103      0.000      7.250      0.000      0.000 
     104      0.000      0.000      0.300      0.000 
     105      0.000      7.250      0.000      0.000 
     106      0.000      0.000      0.300      0.000 
     107      0.000      7.250      0.000      0.000 
     108      0.000      0.000      0.300      0.000 
     109      0.000      0.000      0.300      0.000 
     110      0.000      0.000      0.300      0.000 
     111      0.000      7.000      0.000      0.000 
     112      0.000      0.000      0.300      0.000 
     113      0.000      0.000      0.300      0.000 
     114      0.000      0.000      0.300      0.000 
     115      0.000      0.000      0.300      0.000 
     116      0.000      2.170      0.000      0.000 
     117      0.000      0.000      0.300      0.000 
     118      0.000      2.170      0.000      0.000 
     119      0.000      0.000      0.300      0.000 
     120      0.000      0.000      0.300      0.000 
     121      0.000      0.000      0.300      0.000 
     122      0.000      0.000      0.300      0.000 
     123      0.000      0.000      0.300      0.000 
     124      0.000      7.250      0.000      0.000 
     125      1.711     -0.500      0.663      0.000 
     126      0.000      7.250      0.000      0.000 
     127      0.000      0.000      0.000      0.000 
     128      0.000      0.000      0.300      0.000 
     129      0.000      0.000      0.300      0.000 
     130      0.000      2.100      0.000      0.000 
     131      0.000      2.170      0.000      0.000 
     132      0.000      0.000      0.300      0.000 
     133      0.000      0.000      0.300      0.000 
     134      0.000      0.000      0.300      0.000 
     135      0.000      3.000      0.000      0.000 
     136      0.000      0.000      0.300      0.000 
     137      0.000      0.000      0.300      0.000 
     138      0.000      0.000      0.300      0.000 
     139      0.000      0.000      0.300      0.000 
     140      0.000      0.000      0.300      0.000 
     141      0.000      0.000      0.300      0.000 
     142      0.000      0.000      0.760      0.000 
     143      0.000      0.000      0.300      0.000 
     144      0.000      7.000      0.000      0.000 
     145      0.000      0.000      0.300      0.000 
     146      0.000      2.170      0.000      0.000 
     147      0.000      0.000      0.300      0.000 
     148      0.000      0.000      0.300      0.000 
     149      0.000      0.000      0.300      0.000 
     150      0.000      0.000      0.300      0.000 
     151      0.000      0.000      0.300      0.000 
     152      0.000      0.000      0.300      0.000 
     153      0.000      7.250      0.000      0.000 
     154      0.000      7.250      0.000      0.000 
     155      0.000      0.000      0.300      0.000 
     156      0.000      0.000      0.300      0.000 
     157      0.000      7.250      0.000      0.000 
     158      0.000      7.250      0.000      0.000 
     159      0.000      0.000      0.468      0.000 
     160      0.000      2.170      0.000      0.000 
     161      1.711     -0.500      0.663      0.000 
     162      0.000      0.000      0.300      0.000 
     163      0.000      0.000      0.300      0.000 
     164      0.000      0.000      0.300      0.000 
     165      0.000      7.250      0.000      0.000 
     166      0.000      0.000      0.300      0.000 
     167      0.000      7.000      0.000      0.000 
     168      0.000      0.000      0.300      0.000 
     169      0.000      0.000      0.300      0.000 
     170      0.000      0.000      0.300      0.000 
     171      0.000      0.000      0.300      0.000 
     172      0.000      0.000      0.300      0.000 
     173      0.000      3.000      0.000      0.000 
     174      0.000      0.000      0.300      0.000 
     175      0.000      0.000      0.300      0.000 
     176      0.000      0.000      0.300      0.000 
     177      0.000      0.000      0.300      0.000 
     178      0.000      0.000      0.300      0.000 
     179      0.000      2.170      0.000      0.000 
     180      0.000      0.000      0.300      0.000 
     181      0.000      0.000      0.300      0.000 
     182      0.000      2.170      0.000      0.000 
     183      0.000      0.000      0.300      0.000 
     184      0.000      7.250      0.000      0.000 

Improper Coeffs 

       1      2.500      -1       2 
       2      2.500      -1       2 
       3      2.500      -1       2 
       4      2.500      -1       2 
       5      2.500      -1       2 
       6      2.500      -1       2 
       7      2.500      -1       2 
       8      0.000      -1       2 
       9      0.000      -1       2 
      10      0.000      -1       2 
      11      0.000      -1       2 
      12      0.000      -1       2 
      13      0.000      -1       2 
      14      0.000      -1       2 
      15      0.000      -1       2 
      16      0.000      -1       2 
      17      0.000      -1       2 
      18      0.000      -1       2 
      19      0.000      -1       2 
      20      0.000      -1       2 
      21      0.000      -1       2 
      22      0.000      -1       2 
      23      0.000      -1       2 
      24      2.500      -1       2 
      25      0.000      -1       2 
      26      0.000      -1       2 
      27      0.000      -1       2 
      28      0.000      -1       2 
      29      0.000      -1       2 
      30      0.000      -1       2 
      31      0.000      -1       2 
      32      0.000      -1       2 
      33      0.000      -1       2 
      34      0.000      -1       2 
      35      0.000      -1       2 
      36      0.000      -1       2 
      37      0.000      -1       2 
      38      0.000      -1       2 
      39      0.000      -1       2 
      40      0.000      -1       2 
      41      2.500      -1       2 
      42      2.500      -1       2 

Atoms 

     1      1      1 0.12700000    1.000  1.00000  0.00000
     2      1      2 -0.09150000   -0.396  1.00000  0.00000
     3      1      3 -0.10820000   -1.212  1.00000  1.19101
     4      1      4 0.21960000   -0.544  1.05651  2.45177
     5      1      5 -0.14180000    0.858  1.05228  2.44059
     6      1      6 -0.01860000    1.653  1.00000  1.25697
     7      1      7 -0.00670000   -1.356  0.93233 -1.47100
     8      1      8 -0.19200000   -2.850  0.89463 -0.51783
     9      1      9 -0.11660000   -2.604  0.93828  0.84962
    10      1     10 0.17670000   -3.425  0.92396  1.57483
    11      1     11 0.01570000    1.854  1.11254  3.88247
    12      1     12 -0.19180000    3.336  1.06807  2.90251
    13      1     13 -0.13600000    3.054  0.95517  1.55068
    14      1     14 0.18920000    3.829  0.84346  0.78007
    15      1     15 -0.31670000    1.694  0.99850 -1.18288
    16      1     16 0.00330000    1.960 -0.32437 -1.70103
    17      1     17 -0.11650000    2.620 -0.21825 -3.07632
    18      1     18 0.09100000    0.996 -0.87548 -1.76089
    19      1     19 0.09100000    2.620 -0.87743 -0.99103
    20      1     20 -0.17220000    2.417 -1.53297 -3.86323
    21      1     21 -0.24040000    0.967 -1.81513 -4.27758
    22      1     22 0.09090000    2.812 -2.38168 -3.25921
    23      1     23 0.09090000    3.054 -1.49278 -4.77197
    24      1     24 0.08490000    0.287 -1.90925 -3.40703
    25      1     25 0.08490000    0.894 -2.75910 -4.85483
    26      1     26 0.08490000    0.570 -0.99654 -4.91507
    27      1     27 -0.16570000    4.114  0.15638 -2.99183
    28      1     28 0.11890000    2.079  0.59141 -3.61919
    29      1     29 -0.17850000    4.443  1.54609 -2.43564
    30      1     30 0.08340000    4.548  0.07160 -4.01366
    31      1     31 0.08340000    4.635 -0.61888 -2.38387
    32      1     32 -0.17470000    5.949  1.83096 -2.39054
    33      1     33 0.09990000    4.010  1.65628 -1.41903
    34      1     34 0.09990000    3.932  2.32029 -3.05145
    35      1     35 -0.23610000    6.292  3.18047 -1.75349
    36      1     36 0.08270000    6.366  1.78262 -3.42252
    37      1     37 0.08270000    6.455  1.01496 -1.82684
    38      1     38 0.08130000    5.825  4.01928 -2.31179
    39      1     39 0.08130000    7.386  3.36072 -1.73259
    40      1     40 0.08130000    5.920  3.23612 -0.70965
    41      1     41 -0.31280000   -1.126  1.06482  3.68358
    42      1     42 0.01830000   -2.438  1.60918  3.87053
    43      1     43 -0.12020000   -2.575  2.20375  5.27423
    44      1     44 0.09640000   -3.192  0.79720  3.74104
    45      1     45 0.09640000   -2.625  2.38477  3.09964
    46      1     46 -0.16300000   -2.091  1.23709  6.38299
    47      1     47 -0.23530000   -0.605  1.35966  6.73469
    48      1     48 0.08860000   -2.331  0.19203  6.08659
    49      1     49 0.08860000   -2.694  1.43449  7.29673
    50      1     50 0.08750000    0.033  1.12452  5.86236
    51      1     51 0.08750000   -0.329  0.66799  7.55679
    52      1     52 0.08750000   -0.359  2.39123  7.06318
    53      1     53 -0.17650000   -4.044  2.62116  5.50548
    54      1     54 0.11200000   -1.943  3.12218  5.31064
    55      1     55 -0.17930000   -4.659  3.54968  4.44911
    56      1     56 0.09350000   -4.103  3.11451  6.49971
    57      1     57 0.09350000   -4.665  1.69976  5.59168
    58      1     58 -0.17560000   -6.052  4.06599  4.82838
    59      1     59 0.08810000   -4.731  3.02497  3.46975
    60      1     60 0.08810000   -3.979  4.41610  4.27722
    61      1     61 -0.23710000   -6.700  4.91912  3.73387
    62      1     62 0.08760000   -5.980  4.65095  5.77308
    63      1     63 0.08760000   -6.709  3.19766  5.06437
    64      1     64 0.08290000   -6.079  5.80788  3.49580
    65      1     65 0.08290000   -7.703  5.28330  4.03682
    66      1     66 0.08290000   -6.822  4.34080  2.79406
    67      1     67 0.19250000   -3.583  0.67857 -1.21606
    68      1     68 0.21640000    4.303  1.35336  3.57821

Bonds 

     1      1      2      1
     2      2      3      2
     3      3      4      3
     4      4      5      4
     5      5      6      1
     6      6      7      2
     7      7      8      7
     8      8      9      3
     9      9     10      9
    10     10     11      5
    11     11     12     11
    12     12     13      6
    13     13     14     13
    14     14     15      1
    15     15     16     15
    16     16     17     16
    17     17     18     16
    18     18     19     16
    19     19     20     17
    20     20     21     20
    21     21     22     20
    22     22     23     20
    23     23     24     21
    24     24     25     21
    25     25     26     21
    26     26     27     17
    27     27     28     17
    28     28     29     27
    29     29     30     27
    30     30     31     27
    31     31     32     29
    32     32     33     29
    33     33     34     29
    34     34     35     32
    35     35     36     32
    36     36     37     32
    37     37     38     35
    38     38     39     35
    39     39     40     35
    40     40     41      4
    41     41     42     41
    42     42     43     42
    43     43     44     42
    44     44     45     42
    45     45     46     43
    46     46     47     46
    47     47     48     46
    48     48     49     46
    49     49     50     47
    50     50     51     47
    51     51     52     47
    52     52     53     43
    53     53     54     43
    54     54     55     53
    55     55     56     53
    56     56     57     53
    57     57     58     55
    58     58     59     55
    59     59     60     55
    60     60     61     58
    61     61     62     58
    62     62     63     58
    63     63     64     61
    64     64     65     61
    65     65     66     61
    66     66     67      8
    67     67     68     12
    68     68      6      5
    69     69      9      8
    70     70     13     12

Angles 

     1      1      1      2      3
     2      2      2      3      4
     3      3      3      4      5
     4      4      2      1      6
     5      5      1      2      7
     6      6      2      7      8
     7      7      2      3      9
     8      8      3      9     10
     9      9      4      5     11
    10     10      5     11     12
    11     11      1      6     13
    12     12      6     13     14
    13     13      2      1     15
    14     14      1     15     16
    15     15     15     16     17
    16     16     15     16     18
    17     17     15     16     19
    18     18     16     17     20
    19     19     17     20     21
    20     20     17     20     22
    21     21     17     20     23
    22     22     20     21     24
    23     23     20     21     25
    24     24     20     21     26
    25     25     16     17     27
    26     26     16     17     28
    27     27     17     27     29
    28     28     17     27     30
    29     29     17     27     31
    30     30     27     29     32
    31     31     27     29     33
    32     32     27     29     34
    33     33     29     32     35
    34     34     29     32     36
    35     35     29     32     37
    36     36     32     35     38
    37     37     32     35     39
    38     38     32     35     40
    39     39      3      4     41
    40     40      4     41     42
    41     41     41     42     43
    42     42     41     42     44
    43     43     41     42     45
    44     44     42     43     46
    45     45     43     46     47
    46     46     43     46     48
    47     47     43     46     49
    48     48     46     47     50
    49     49     46     47     51
    50     50     46     47     52
    51     51     42     43     53
    52     52     42     43     54
    53     53     43     53     55
    54     54     43     53     56
    55     55     43     53     57
    56     56     53     55     58
    57     57     53     55     59
    58     58     53     55     60
    59     59     55     58     61