LAMMPS data file Created by LigParGen - (Written by Leela S. Dodda)

      42 atoms
      46 bonds
      76 angles
      99 dihedrals
      23 impropers
 
      42 atom types
      46 bond types
      76 angle types
      99 dihedral types
      23 improper types
 
  -12.809010    37.190990 xlo xhi
   -0.403990    49.596010 ylo yhi
   -9.718290    40.281710 zlo zhi

Masses

       1     12.011  
       2     12.011  
       3     32.060  
       4     12.011  
       5      1.008  
       6     12.011  
       7     12.011  
       8     12.011  
       9     12.011  
      10     12.011  
      11     15.999  
      12     15.999  
      13     12.011  
      14      1.008  
      15      1.008  
      16      1.008  
      17     12.011  
      18      1.008  
      19      1.008  
      20      1.008  
      21     12.011  
      22     32.060  
      23     12.011  
      24      1.008  
      25      1.008  
      26     12.011  
      27     32.060  
      28     12.011  
      29     12.011  
      30     12.011  
      31     32.060  
      32     12.011  
      33     12.011  
      34     18.998  
      35     12.011  
      36     15.999  
      37     15.999  
      38     12.011  
      39      1.008  
      40      1.008  
      41      1.008  
      42      1.008  

Pair Coeffs 

       1      0.070  3.5500000 
       2      0.070  3.5500000 
       3      0.355  3.6000000 
       4      0.070  3.5500000 
       5      0.030  2.4200000 
       6      0.080  3.5000000 
       7      0.070  3.5500000 
       8      0.070  3.5500000 
       9      0.080  3.5000000 
      10      0.070  3.5500000 
      11      0.140  2.9000000 
      12      0.140  2.9000000 
      13      0.066  3.5000000 
      14      0.030  2.5000000 
      15      0.030  2.5000000 
      16      0.030  2.5000000 
      17      0.066  3.5000000 
      18      0.030  2.5000000 
      19      0.030  2.5000000 
      20      0.030  2.5000000 
      21      0.070  3.5500000 
      22      0.355  3.6000000 
      23      0.070  3.5500000 
      24      0.030  2.4200000 
      25      0.030  2.4200000 
      26      0.070  3.5500000 
      27      0.355  3.6000000 
      28      0.070  3.5500000 
      29      0.070  3.5500000 
      30      0.076  3.5500000 
      31      0.355  3.6000000 
      32      0.070  3.5500000 
      33      0.070  3.5500000 
      34      0.060  2.9000000 
      35      0.070  3.5500000 
      36      0.210  2.9600000 
      37      0.140  2.9000000 
      38      0.066  3.5000000 
      39      0.030  2.5000000 
      40      0.030  2.5000000 
      41      0.030  2.5000000 
      42      0.030  2.4200000 

Bond Coeffs 

       1   546.0000     1.3670 
       2   250.0000     1.7400 
       3   469.0000     1.4240 
       4   367.0000     1.0800 
       5   250.0000     1.7600 
       6   469.0000     1.4040 
       7   469.0000     1.4000 
       8   469.0000     1.4040 
       9   469.0000     1.4000 
      10   450.0000     1.3640 
      11   450.0000     1.3640 
      12   320.0000     1.4100 
      13   340.0000     1.0900 
      14   340.0000     1.0900 
      15   340.0000     1.0900 
      16   320.0000     1.4100 
      17   340.0000     1.0900 
      18   340.0000     1.0900 
      19   340.0000     1.0900 
      20   469.0000     1.4240 
      21   250.0000     1.7600 
      22   469.0000     1.4240 
      23   367.0000     1.0800 
      24   367.0000     1.0800 
      25   469.0000     1.4240 
      26   250.0000     1.7600 
      27   250.0000     1.7400 
      28   469.0000     1.4240 
      29   546.0000     1.3670 
      30   250.0000     1.7600 
      31   250.0000     1.7400 
      32   427.0000     1.4330 
      33   420.0000     1.3540 
      34   400.0000     1.4900 
      35   570.0000     1.2290 
      36   214.0000     1.3270 
      37   320.0000     1.4100 
      38   340.0000     1.0900 
      39   340.0000     1.0900 
      40   340.0000     1.0900 
      41   367.0000     1.0800 
      42   469.0000     1.4240 
      43   469.0000     1.4240 
      44   250.0000     1.7600 
      45   427.0000     1.4330 
      46   546.0000     1.3670 

Angle Coeffs 

       1     70.000    111.170
       2     70.000    107.300
       3     35.000    125.700
       4     63.000    112.400
       5     85.000    119.400
       6     63.000    120.000
       7     63.000    120.000
       8     63.000    120.000
       9     70.000    120.000
      10     70.000    120.000
      11     75.000    111.000
      12     35.000    109.500
      13     35.000    109.500
      14     35.000    109.500
      15     75.000    111.000
      16     35.000    109.500
      17     35.000    109.500
      18     35.000    109.500
      19     63.000    120.000
      20     85.000    119.400
      21     63.000    120.000
      22     35.000    127.500
      23     35.000    132.100
      24     63.000    120.000
      25     85.000    119.400
      26     63.000    112.400
      27     63.000    120.000
      28     70.000    111.170
      29     85.000    119.400
      30     63.000    112.400
      31     70.000    107.400
      32     80.000    120.000
      33     70.000    111.170
      34     80.000    120.400
      35     69.900    118.180
      36     83.000    116.900
      37     35.000    109.500
      38     35.000    109.500
      39     35.000    109.500
      40     35.000    125.000
      41     70.000    107.300
      42     85.000    119.400
      43     83.000    123.400
      44     33.000    107.800
      45     63.000    120.000
      46     35.000    127.500
      47     70.000    107.400
      48     85.000    134.900
      49     33.000    107.800
      50     33.000    107.800
      51     33.000    107.800
      52     63.000    120.000
      53     33.000    107.800
      54     63.000    120.000
      55     33.000    107.800
      56     70.000    120.000
      57     85.000    119.400
      58     33.000    107.800
      59     85.000    120.000
      60     33.000    107.800
      61     70.000    111.170
      62     35.000    125.000
      63     70.000    107.400
      64     85.000    119.400
      65     35.000    127.500
      66     63.000    120.000
      67     63.000    112.400
      68     70.000    107.300
      69     70.000    120.000
      70     33.000    107.800
      71     85.000    134.900
      72     85.000    119.400
      73     85.000    119.400
      74     62.750    119.200
      75     35.000    130.700
      76     85.000    119.400

Dihedral Coeffs  

       1      0.000      2.100      0.000      0.000 
       2      0.000      0.000      0.000      0.000 
       3      0.000      2.170      0.000      0.000 
       4      0.000      7.000      0.000      0.000 
       5      0.000      3.000      0.000      0.000 
       6      0.000      0.000      0.760      0.000 
       7      0.000      3.000      0.000      0.000 
       8      0.000      0.000      0.760      0.000 
       9      0.000      2.170      0.000      0.000 
      10      0.000      2.170      0.000      0.000 
      11      0.000      2.170      0.000      0.000 
      12      0.000      0.000      0.000      0.000 
      13      0.000      2.170      0.000      0.000 
      14      0.000      0.000      0.000      0.000 
      15      4.669      5.124      0.000      0.000 
      16      0.000      0.000      0.198      0.000 
      17      0.000      7.250      0.000      0.000 
      18      0.000      0.000      0.198      0.000 
      19      0.000      2.170      0.000      0.000 
      20      0.000      0.000      0.760      0.000 
      21      0.000      2.170      0.000      0.000 
      22      0.000      5.124      0.000      0.000 
      23      0.000      7.250      0.000      0.000 
      24      0.000      2.170      0.000      0.000 
      25      0.000      2.170      0.000      0.000 
      26      0.000      0.000      0.760      0.000 
      27      0.000      7.000      0.000      0.000 
      28      0.000      0.000      0.000      0.000 
      29      0.000      2.170      0.000      0.000 
      30      0.000      2.100      0.000      0.000 
      31      0.000      2.170      0.000      0.000 
      32      0.000      7.000      0.000      0.000 
      33      0.000      7.250      0.000      0.000 
      34      0.000      0.000      0.198      0.000 
      35      0.000      2.170      0.000      0.000 
      36      0.000      2.170      0.000      0.000 
      37      0.500      0.000      0.000      0.000 
      38      0.000      2.170      0.000      0.000 
      39      0.000      3.000      0.000      0.000 
      40      0.000      7.000      0.000      0.000 
      41      0.000      0.000      0.000      0.000 
      42      0.000      7.250      0.000      0.000 
      43      0.000      7.250      0.000      0.000 
      44      0.000     14.000      0.000      0.000 
      45      0.000      7.250      0.000      0.000 
      46      0.000      7.250      0.000      0.000 
      47      0.000      0.000      0.760      0.000 
      48      0.000      2.170      0.000      0.000 
      49      0.000      3.000      0.000      0.000 
      50      0.000      7.000      0.000      0.000 
      51      0.000      7.250      0.000      0.000 
      52      0.000      2.170      0.000      0.000 
      53      0.000      2.170      0.000      0.000 
      54      0.000     14.000      0.000      0.000 
      55      0.000      7.250      0.000      0.000 
      56      0.000      2.170      0.000      0.000 
      57      0.000      0.000      0.000      0.000 
      58      0.000      7.250      0.000      0.000 
      59      0.000      7.000      0.000      0.000 
      60      0.000      2.100      0.000      0.000 
      61      0.000      7.250      0.000      0.000 
      62      0.000      7.250      0.000      0.000 
      63      0.000      7.250      0.000      0.000 
      64      0.000      2.170      0.000      0.000 
      65      0.000      2.170      0.000      0.000 
      66      0.000      7.250      0.000      0.000 
      67      0.000      7.250      0.000      0.000 
      68      0.000      7.000      0.000      0.000 
      69      0.000      7.250      0.000      0.000 
      70      0.000      2.170      0.000      0.000 
      71      0.000      2.170      0.000      0.000 
      72      0.000      2.170      0.000      0.000 
      73      0.000      2.100      0.000      0.000 
      74      0.000      7.250      0.000      0.000 
      75      0.000      7.250      0.000      0.000 
      76      0.000      7.250      0.000      0.000 
      77      0.000      2.170      0.000      0.000 
      78      0.000      7.250      0.000      0.000 
      79      0.000      2.170      0.000      0.000 
      80      0.000      7.250      0.000      0.000 
      81      0.000      7.250      0.000      0.000 
      82      0.000      7.000      0.000      0.000 
      83      0.000      0.000     -0.553      0.000 
      84      0.500      0.000      0.000      0.000 
      85      0.000      2.170      0.000      0.000 
      86      0.000      7.250      0.000      0.000 
      87      0.000      0.000      0.760      0.000 
      88      0.000      2.170      0.000      0.000 
      89      0.000      7.250      0.000      0.000 
      90      0.000      2.170      0.000      0.000 
      91      0.000      7.250      0.000      0.000 
      92      0.000      7.250      0.000      0.000 
      93      0.000      2.170      0.000      0.000 
      94      0.000      7.250      0.000      0.000 
      95      0.000      0.000      0.000      0.000 
      96      0.000      2.170      0.000      0.000 
      97      0.000      7.250      0.000      0.000 
      98      0.000      7.250      0.000      0.000 
      99      0.000      7.250      0.000      0.000 

Improper Coeffs 

       1      2.500      -1       2 
       2      2.500      -1       2 
       3      2.500      -1       2 
       4      2.500      -1       2 
       5      2.500      -1       2 
       6      0.000      -1       2 
       7      0.000      -1       2 
       8      0.000      -1       2 
       9      0.000      -1       2 
      10      2.500      -1       2 
      11      2.500      -1       2 
      12      2.500      -1       2 
      13      2.500      -1       2 
      14      2.500      -1       2 
      15      2.500      -1       2 
      16      2.500      -1       2 
      17      2.500      -1       2 
      18      2.500      -1       2 
      19      2.500      -1       2 
      20     10.500      -1       2 
      21      0.000      -1       2 
      22      0.000      -1       2 
      23      2.500      -1       2 

Atoms 

     1      1      1 -0.19490000    1.000  1.00000  0.00000
     2      1      2 -0.12130000   -0.387  1.00000  0.00000
     3      1      3 -0.00080000    1.643  1.00000 -1.66017
     4      1      4 -0.05130000   -0.964  1.00000 -1.30551
     5      1      5 0.19470000   -0.994  0.99884  0.91403
     6      1      6 -0.13520000    0.017  1.00000 -2.35359
     7      1      7 0.17750000   -0.360  0.94961 -3.70477
     8      1      8 0.18770000   -2.360  0.99853 -1.58910
     9      1      9 -0.14130000   -2.738  0.99720 -2.94319
    10      1     10 -0.04510000   -1.754  0.90443 -3.98941
    11      1     11 -0.30080000   -3.168  1.00016 -0.49275
    12      1     12 -0.30460000    0.461  0.93712 -4.79604
    13      1     13 -0.05690000    1.725  1.58678 -4.72563
    14      1     14 0.10240000    2.091  1.66470 -5.76717
    15      1     15 0.10240000    2.466  1.00301 -4.13675
    16      1     16 0.10240000    1.636  2.60633 -4.29195
    17      1     17 -0.05820000   -4.522  0.57843 -0.60107
    18      1     18 0.10530000   -4.897  0.47942  0.43535
    19      1     19 0.10530000   -4.605 -0.40399 -1.11367
    20      1     20 0.10530000   -5.151  1.32582 -1.13230
    21      1     21 -0.10400000   -2.332  0.76927 -5.28711
    22      1     22 0.01720000   -4.358  1.16281 -3.63894
    23      1     23 -0.05440000   -3.720  0.75457 -5.28014
    24      1     24 0.19410000   -1.724  0.68457 -6.19694
    25      1     25 0.20030000    1.693  0.99893  0.84934
    26      1     26 -0.03970000   -4.623  0.47188 -6.35943
    27      1     27 0.09840000   -4.020  0.07505 -7.96248
    28      1     28 -0.12120000   -5.622 -0.11819 -8.66295
    29      1     29 -0.10770000   -6.022  0.44777 -6.38375
    30      1     30 -0.12110000   -6.598  0.12259 -7.66450
    31      1     31 0.12740000   -7.217  0.74426 -5.13325
    32      1     32 -0.25800000   -8.514  0.43958 -6.29692
    33      1     33 0.20170000   -8.032  0.13286 -7.56712
    34      1     34 -0.02650000   -8.838 -0.12704 -8.60233
    35      1     35 0.52710000   -9.884  0.54876 -5.77166
    36      1     36 -0.45110000  -10.134  0.83096 -4.60814
    37      1     37 -0.33940000  -10.823  0.30119 -6.71739
    38      1     38 -0.05450000  -12.180  0.39202 -6.26035
    39      1     39 0.10690000  -12.809  0.16452 -7.13891
    40      1     40 0.10690000  -12.400  1.40933 -5.87807
    41      1     41 0.10690000  -12.371 -0.33629 -5.44644
    42      1     42 0.21810000   -5.746 -0.38375 -9.71829

Bonds 

     1      1      2      1
     2      2      3      1
     3      3      4      2
     4      4      5      2
     5      5      6      3
     6      6      7      6
     7      7      8      4
     8      8      9      8
     9      9     10      7
    10     10     11      8
    11     11     12      7
    12     12     13     12
    13     13     14     13
    14     14     15     13
    15     15     16     13
    16     16     17     11
    17     17     18     17
    18     18     19     17
    19     19     20     17
    20     20     21     10
    21     21     22      9
    22     22     23     21
    23     23     24     21
    24     24     25      1
    25     25     26     23
    26     26     27     26
    27     27     28     27
    28     28     29     26
    29     29     30     28
    30     30     31     29
    31     31     32     31
    32     32     33     30
    33     33     34     33
    34     34     35     32
    35     35     36     35
    36     36     37     35
    37     37     38     37
    38     38     39     38
    39     39     40     38
    40     40     41     38
    41     41     42     28
    42     42      6      4
    43     43     10      9
    44     44     23     22
    45     45     30     29
    46     46     33     32

Angles 

     1      1      2      1      3
     2      2      1      2      4
     3      3      1      2      5
     4      4      1      3      6
     5      5      3      6      7
     6      6      2      4      8
     7      7      4      8      9
     8      8      6      7     10
     9      9      4      8     11
    10     10      6      7     12
    11     11      7     12     13
    12     12     12     13     14
    13     13     12     13     15
    14     14     12     13     16
    15     15      8     11     17
    16     16     11     17     18
    17     17     11     17     19
    18     18     11     17     20
    19     19      7     10     21
    20     20      8      9     22
    21     21     10     21     23
    22     22     10     21     24
    23     23      2      1     25
    24     24     21     23     26
    25     25     23     26     27
    26     26     26     27     28
    27     27     23     26     29
    28     28     27     28     30
    29     29     26     29     31
    30     30     29     31     32
    31     31     28     30     33
    32     32     30     33     34
    33     33     31     32     35
    34     34     32     35     36
    35     35     32     35     37
    36     36     35     37     38
    37     37     37     38     39
    38     38     37     38     40
    39     39     37     38     41
    40     40     27     28     42
    41     41      9     10     21
    42     42     30     29     31
    43     43     36     35     37
    44     44     39     38     41
    45     45     26     29     30
    46     46     23     21     24
    47     47     28     30     29
    48     48      4      6      7
    49     49     19     17     20
    50     50     15     13     16
    51     51     39     38     40
    52     52      7     10      9
    53     53     18     17     20
    54     54     29     30     33
    55     55     14     13     15
    56     56     10      7     12
    57     57     21     23     22
    58     58     40     38     41
    59     59     33     32     35
    60     60     18     17     19
    61     61     31     32     33
    62     62      3      1     25
    63     63     30     33     32
    64     64     10      9     22
    65     65      4      2      5
    66     66      6      4      8
    67     67      9     22     23
    68     68      2      4      6
    69     69      9      8     11
    70     70     14     13     16
    71     71      8      9     10
    72     72     22     23     26
    73     73      3      6      4
    74     74     32     33     34
    75     75     30     28     42
    76     76     27     26     29

Dihedrals

     1      1      4      2      1      3 
     2      2      6      3      1      2 
     3      3      9      8      4      2 
     4      4     10      7      6      3 
     5      5     13     12      7      6 
     6      6     14     13     12      7 
     7      7     17     11      8      4 
     8      8     18     17     11      8 
     9      9     23     21     10      7 
    10     10     27     26     23     21 
    11     11     28     27     26     23 
    12     12     30     28     27     26 
    13     13     32     31     29     26 
    14     14     36     35     32     31 
    15     15     38     37     35     32 
    16     16     39     38     37     35 
    17     17     24     21     23     22 
    18     18     40     38     37     35 
    19     19     21     23     22      9 
    20     20     16     13     12      7 
    21     21     11      8      4      2 
    22     22     38     37     35     36 
    23     23      3      6      4      2 
    24     24     29     26     23     22 
    25     25     31     29     26     23 
    26     26     15     13     12      7 
    27     27     10      7      6      4 
    28     28     32     31     29     30 
    29     29     33     30     28     27 
    30     30     37     35     32     31 
    31     31      6      4      2      1 
    32     32     22      9      8     11 
    33     33     25      1      2      4 
    34     34     41     38     37     35 
    35     35     30     29     26     27 
    36     36     29     26     27     28 
    37     37     34     33     30     29 
    38     38     29     30     28     27 
    39     39     17     11      8      9 
    40     40     10      9      8      4 
    41     41     35     32     31     29 
    42     42     21     10      9      8 
    43     43      9      8      4      6 
    44     44     42     28     30     29 
    45     45     25      1      2      5 
    46     46     32     33     30     28 
    47     47     19     17     11      8 
    48     48     26     23     22      9 
    49     49     13     12      7     10 
    50     50     11      8      9     10 
    51     51      8      9     10      7 
    52     52      8      4      2      1 
    53     53     28     30     29     26 
    54     54     42     28     30     33 
    55     55     42     28     27     26 
    56     56     22     23     21     10 
    57     57     35     32     33     34 
    58     58     27     26     23     22 
    59     59     12      7      6      4 
    60     60     31     32     33     30 
    61     61     26     23     21     24 
    62     62      7      6      4      2 
    63     63      7      6      3      1 
    64     64     32     33     30     29 
    65     65     33     30     29     31 
    66     66      8      4      6      7 
    67     67      6      4      2      5 
    68     68     12      7      6      3 
    69     69     22      9     10      7 
    70     70     29     26     23     21 
    71     71     30     29     26     23 
    72     72     21     10      7      6 
    73     73     36     35     32     33 
    74     74     24     21     10      9 
    75     75     24     21     10      7 
    76     76      5      2      1      3 
    77     77     12      7     10      9 
    78     78      9     10      7      6 
    79     79     33     30     29     26 
    80     80      8      4      6      3 
    81     81     34     33     32     31 
    82     82     22      9      8      4 
    83     83     37     35     32     33 
    84     84     34     33     30     28 
    85     85     11      8      4      6 
    86     86     23     22      9     10 
    87     87     20     17     11      8 
    88     88     23     21     10      9 
    89     89     23     22      9      8 
    90     90     21     10      7     12 
    91     91      8      4      2      5 
    92     92     22      9     10     21 
    93     93     26     23     21     10 
    94     94     31     29     26     27 
    95     95     33     32     31     29 
    96     96     31     29     30     28 
    97     97      4      6      3      1 
    98     98     35     32     33     30 
    99     99     25      1      3      6 

Impropers

     1      1      2      1      4      5 
     2      2      6      3      4      7 
     3      3      4      2      6      8 
     4      4      8      9     11      4 
     5      5      7     10     12      6 
     6      6     13     12     14     15 
     7      7     13     12     14     16 
     8      8     17     18     19     11 
     9      9     17     18     11     20 
    10     10     10      9     21      7 
    11     11      9     10     22      8 
    12     12     21     10     23     24 
    13     13      1     25      3      2 
    14     14     23     26     21     22 
    15     15     26     27     29     23 
    16     16     29     26     30     31 
    17     17     30     33     28     29 
    18     18     33     34     30     32 
    19     19     32     33     35     31 
    20     20     35     36     37     32 
    21     21     38     37     39     40 
    22     22     38     41     37     39 
    23     23     28     42     27     30 

