LAMMPS data file Created by LigParGen - (Written by Leela S. Dodda)

      66 atoms
      73 bonds
     122 angles
     161 dihedrals
      37 impropers
 
      66 atom types
      73 bond types
     122 angle types
     161 dihedral types
      37 improper types
 
  -12.818600    37.181400 xlo xhi
   -2.707640    47.292360 ylo yhi
  -17.908440    32.091560 zlo zhi

Masses

       1     12.011  
       2     12.011  
       3     32.060  
       4     12.011  
       5      1.008  
       6     12.011  
       7     12.011  
       8     12.011  
       9     12.011  
      10     12.011  
      11     15.999  
      12     15.999  
      13     12.011  
      14      1.008  
      15      1.008  
      16      1.008  
      17     12.011  
      18      1.008  
      19      1.008  
      20      1.008  
      21     12.011  
      22     32.060  
      23     12.011  
      24      1.008  
      25      1.008  
      26     12.011  
      27     32.060  
      28     12.011  
      29     12.011  
      30     12.011  
      31     32.060  
      32     12.011  
      33     12.011  
      34     18.998  
      35     12.011  
      36     15.999  
      37     15.999  
      38     12.011  
      39      1.008  
      40      1.008  
      41      1.008  
      42     12.011  
      43     12.011  
      44     32.060  
      45     12.011  
      46      1.008  
      47     12.011  
      48     12.011  
      49     12.011  
      50     12.011  
      51     12.011  
      52     15.999  
      53     15.999  
      54     12.011  
      55      1.008  
      56      1.008  
      57      1.008  
      58     12.011  
      59      1.008  
      60      1.008  
      61      1.008  
      62     12.011  
      63     32.060  
      64     12.011  
      65      1.008  
      66      1.008  

Pair Coeffs 

       1      0.070  3.5500000 
       2      0.070  3.5500000 
       3      0.355  3.6000000 
       4      0.070  3.5500000 
       5      0.030  2.4200000 
       6      0.080  3.5000000 
       7      0.070  3.5500000 
       8      0.070  3.5500000 
       9      0.080  3.5000000 
      10      0.070  3.5500000 
      11      0.140  2.9000000 
      12      0.140  2.9000000 
      13      0.066  3.5000000 
      14      0.030  2.5000000 
      15      0.030  2.5000000 
      16      0.030  2.5000000 
      17      0.066  3.5000000 
      18      0.030  2.5000000 
      19      0.030  2.5000000 
      20      0.030  2.5000000 
      21      0.070  3.5500000 
      22      0.355  3.6000000 
      23      0.070  3.5500000 
      24      0.030  2.4200000 
      25      0.030  2.4200000 
      26      0.070  3.5500000 
      27      0.355  3.6000000 
      28      0.070  3.5500000 
      29      0.070  3.5500000 
      30      0.076  3.5500000 
      31      0.355  3.6000000 
      32      0.070  3.5500000 
      33      0.070  3.5500000 
      34      0.060  2.9000000 
      35      0.070  3.5500000 
      36      0.210  2.9600000 
      37      0.140  2.9000000 
      38      0.066  3.5000000 
      39      0.030  2.5000000 
      40      0.030  2.5000000 
      41      0.030  2.5000000 
      42      0.070  3.5500000 
      43      0.070  3.5500000 
      44      0.355  3.6000000 
      45      0.070  3.5500000 
      46      0.030  2.4200000 
      47      0.080  3.5000000 
      48      0.070  3.5500000 
      49      0.070  3.5500000 
      50      0.080  3.5000000 
      51      0.070  3.5500000 
      52      0.140  2.9000000 
      53      0.140  2.9000000 
      54      0.066  3.5000000 
      55      0.030  2.5000000 
      56      0.030  2.5000000 
      57      0.030  2.5000000 
      58      0.066  3.5000000 
      59      0.030  2.5000000 
      60      0.030  2.5000000 
      61      0.030  2.5000000 
      62      0.070  3.5500000 
      63      0.355  3.6000000 
      64      0.070  3.5500000 
      65      0.030  2.4200000 
      66      0.030  2.4200000 

Bond Coeffs 

       1   546.0000     1.3670 
       2   250.0000     1.7400 
       3   469.0000     1.4240 
       4   367.0000     1.0800 
       5   250.0000     1.7600 
       6   469.0000     1.4040 
       7   469.0000     1.4000 
       8   469.0000     1.4040 
       9   469.0000     1.4000 
      10   450.0000     1.3640 
      11   450.0000     1.3640 
      12   320.0000     1.4100 
      13   340.0000     1.0900 
      14   340.0000     1.0900 
      15   340.0000     1.0900 
      16   320.0000     1.4100 
      17   340.0000     1.0900 
      18   340.0000     1.0900 
      19   340.0000     1.0900 
      20   469.0000     1.4240 
      21   250.0000     1.7600 
      22   469.0000     1.4240 
      23   367.0000     1.0800 
      24   367.0000     1.0800 
      25   469.0000     1.4240 
      26   250.0000     1.7600 
      27   250.0000     1.7600 
      28   469.0000     1.4240 
      29   427.0000     1.4330 
      30   250.0000     1.7600 
      31   250.0000     1.7400 
      32   427.0000     1.4330 
      33   420.0000     1.3540 
      34   400.0000     1.4900 
      35   570.0000     1.2290 
      36   214.0000     1.3270 
      37   320.0000     1.4100 
      38   340.0000     1.0900 
      39   340.0000     1.0900 
      40   340.0000     1.0900 
      41   469.0000     1.4240 
      42   469.0000     1.4240 
      43   250.0000     1.7600 
      44   469.0000     1.4240 
      45   367.0000     1.0800 
      46   250.0000     1.7600 
      47   469.0000     1.4040 
      48   469.0000     1.4000 
      49   469.0000     1.4040 
      50   469.0000     1.4000 
      51   450.0000     1.3640 
      52   450.0000     1.3640 
      53   320.0000     1.4100 
      54   340.0000     1.0900 
      55   340.0000     1.0900 
      56   340.0000     1.0900 
      57   320.0000     1.4100 
      58   340.0000     1.0900 
      59   340.0000     1.0900 
      60   340.0000     1.0900 
      61   469.0000     1.4240 
      62   250.0000     1.7600 
      63   546.0000     1.3670 
      64   367.0000     1.0800 
      65   367.0000     1.0800 
      66   469.0000     1.4240 
      67   469.0000     1.4240 
      68   250.0000     1.7600 
      69   427.0000     1.4330 
      70   546.0000     1.3670 
      71   469.0000     1.4240 
      72   469.0000     1.4240 
      73   250.0000     1.7400 

Angle Coeffs 

       1     70.000    111.170
       2     70.000    107.300
       3     35.000    125.700
       4     63.000    112.400
       5     85.000    119.400
       6     63.000    120.000
       7     63.000    120.000
       8     63.000    120.000
       9     70.000    120.000
      10     70.000    120.000
      11     75.000    111.000
      12     35.000    109.500
      13     35.000    109.500
      14     35.000    109.500
      15     75.000    111.000
      16     35.000    109.500
      17     35.000    109.500
      18     35.000    109.500
      19     63.000    120.000
      20     85.000    119.400
      21     63.000    120.000
      22     35.000    127.500
      23     35.000    132.100
      24     63.000    120.000
      25     85.000    119.400
      26     63.000    112.400
      27     63.000    120.000
      28     85.000    119.400
      29     85.000    119.400
      30     63.000    112.400
      31     63.000    120.000
      32     80.000    120.000
      33     70.000    111.170
      34     80.000    120.400
      35     69.900    118.180
      36     83.000    116.900
      37     35.000    109.500
      38     35.000    109.500
      39     35.000    109.500
      40     85.000    119.400
      41     63.000    120.000
      42     85.000    119.400
      43     63.000    120.000
      44     35.000    127.500
      45     63.000    112.400
      46     85.000    119.400
      47     63.000    120.000
      48     63.000    120.000
      49     63.000    120.000
      50     70.000    120.000
      51     70.000    120.000
      52     75.000    111.000
      53     35.000    109.500
      54     35.000    109.500
      55     35.000    109.500
      56     75.000    111.000
      57     35.000    109.500
      58     35.000    109.500
      59     35.000    109.500
      60     63.000    120.000
      61     85.000    119.400
      62     70.000    107.300
      63     35.000    127.500
      64     35.000    132.100
      65     85.000    119.400
      66     63.000    112.400
      67     63.000    120.000
      68     85.000    134.900
      69     70.000    107.300
      70     33.000    107.800
      71     33.000    107.800
      72     70.000    107.400
      73     85.000    119.400
      74     70.000    107.300
      75     33.000    107.800
      76     85.000    119.400
      77     63.000    120.000
      78     85.000    120.000
      79     33.000    107.800
      80     70.000    120.000
      81     35.000    125.000
      82     33.000    107.800
      83     63.000    120.000
      84     33.000    107.800
      85     35.000    127.500
      86     33.000    107.800
      87     35.000    125.700
      88     35.000    127.500
      89     63.000    120.000
      90     63.000    120.000
      91     70.000    120.000
      92     63.000    120.000
      93     70.000    120.000
      94     33.000    107.800
      95     85.000    119.400
      96     33.000    107.800
      97     35.000    125.000
      98     62.750    119.200
      99     85.000    119.400
     100     85.000    134.900
     101     70.000    107.300
     102     85.000    119.400
     103     85.000    119.400
     104     85.000    134.900
     105     85.000    119.400
     106     70.000    111.170
     107     35.000    127.500
     108     83.000    123.400
     109     33.000    107.800
     110     85.000    134.900
     111     33.000    107.800
     112     70.000    107.300
     113     63.000    120.000
     114     33.000    107.800
     115     70.000    120.000
     116     33.000    107.800
     117     33.000    107.800
     118     70.000    111.170
     119     63.000    112.400
     120     33.000    107.800
     121     63.000    120.000
     122     85.000    119.400

Dihedral Coeffs  

       1      0.000      2.100      0.000      0.000 
       2      0.000      0.000      0.000      0.000 
       3      0.000      2.170      0.000      0.000 
       4      0.000      7.000      0.000      0.000 
       5      0.000      3.000      0.000      0.000 
       6      0.000      0.000      0.760      0.000 
       7      0.000      3.000      0.000      0.000 
       8      0.000      0.000      0.760      0.000 
       9      0.000      2.170      0.000      0.000 
      10      0.000      2.170      0.000      0.000 
      11      0.000      2.170      0.000      0.000 
      12      0.000      2.170      0.000      0.000 
      13      0.000      2.170      0.000      0.000 
      14      0.000      0.000      0.000      0.000 
      15      4.669      5.124      0.000      0.000 
      16      0.000      0.000      0.198      0.000 
      17      0.000      2.170      0.000      0.000 
      18      0.000      2.170      0.000      0.000 
      19      0.000      2.170      0.000      0.000 
      20      0.000      2.170      0.000      0.000 
      21      0.000      7.000      0.000      0.000 
      22      0.000      3.000      0.000      0.000 
      23      0.000      0.000      0.760      0.000 
      24      0.000      3.000      0.000      0.000 
      25      0.000      0.000      0.760      0.000 
      26      0.000      2.170      0.000      0.000 
      27      0.000      7.250      0.000      0.000 
      28      0.000      0.000      0.198      0.000 
      29      0.000      2.170      0.000      0.000 
      30      0.000      0.000      0.760      0.000 
      31      0.000      7.250      0.000      0.000 
      32      0.000      2.170      0.000      0.000 
      33      0.000      7.250      0.000      0.000 
      34      0.000      5.124      0.000      0.000 
      35      0.000      7.000      0.000      0.000 
      36      0.000      7.250      0.000      0.000 
      37      0.000      7.250      0.000      0.000 
      38      0.000      7.000      0.000      0.000 
      39      0.000      2.170      0.000      0.000 
      40      0.000      2.170      0.000      0.000 
      41      0.000      0.000      0.760      0.000 
      42      0.000      7.000      0.000      0.000 
      43      0.000      0.000      0.000      0.000 
      44      0.000      2.170      0.000      0.000 
      45      0.000      7.250      0.000      0.000 
      46      0.000      2.170      0.000      0.000 
      47      0.000      7.250      0.000      0.000 
      48      0.000      7.250      0.000      0.000 
      49      0.000      2.100      0.000      0.000 
      50      0.000      7.250      0.000      0.000 
      51      0.000      2.170      0.000      0.000 
      52      0.000      7.000      0.000      0.000 
      53      0.000      7.250      0.000      0.000 
      54      0.000      7.250      0.000      0.000 
      55      0.000      0.000      0.198      0.000 
      56      0.000      2.170      0.000      0.000 
      57      0.000      2.170      0.000      0.000 
      58      0.500      0.000      0.000      0.000 
      59      0.000      2.170      0.000      0.000 
      60      0.000      3.000      0.000      0.000 
      61      0.000      7.000      0.000      0.000 
      62      0.000      7.250      0.000      0.000 
      63      0.000      7.250      0.000      0.000 
      64      0.000      7.250      0.000      0.000 
      65      0.000      7.250      0.000      0.000 
      66      0.000      7.250      0.000      0.000 
      67      0.000      7.250      0.000      0.000 
      68      0.000      0.000      0.760      0.000 
      69      0.000      7.250      0.000      0.000 
      70      0.000      2.170      0.000      0.000 
      71      0.000      7.000      0.000      0.000 
      72      0.000      2.170      0.000      0.000 
      73      0.000      7.250      0.000      0.000 
      74      0.000      2.170      0.000      0.000 
      75      0.000      7.250      0.000      0.000 
      76      0.000      2.170      0.000      0.000 
      77      0.000      7.000      0.000      0.000 
      78      0.000      7.250      0.000      0.000 
      79      0.000      0.000      0.760      0.000 
      80      0.000      2.170      0.000      0.000 
      81      0.000      3.000      0.000      0.000 
      82      0.000      7.000      0.000      0.000 
      83      0.000      7.250      0.000      0.000 
      84      0.000      2.170      0.000      0.000 
      85      0.000      2.170      0.000      0.000 
      86      0.000      7.250      0.000      0.000 
      87      0.000      7.250      0.000      0.000 
      88      0.000      2.170      0.000      0.000 
      89      0.000      2.170      0.000      0.000 
      90      0.000      0.000      0.760      0.000 
      91      0.000      3.000      0.000      0.000 
      92      0.000      2.170      0.000      0.000 
      93      0.000      0.000      0.000      0.000 
      94      0.000      7.250      0.000      0.000 
      95      0.000      7.000      0.000      0.000 
      96      0.000      2.100      0.000      0.000 
      97      0.000      7.000      0.000      0.000 
      98      0.000      2.170      0.000      0.000 
      99      0.000      0.000      0.000      0.000 
     100      0.000      7.250      0.000      0.000 
     101      0.000      7.000      0.000      0.000 
     102      0.000      7.250      0.000      0.000 
     103      0.000      7.250      0.000      0.000 
     104      0.000      0.000      0.760      0.000 
     105      0.000      2.170      0.000      0.000 
     106      0.000      2.170      0.000      0.000 
     107      0.000      2.170      0.000      0.000 
     108      0.000      7.250      0.000      0.000 
     109      0.000      7.250      0.000      0.000 
     110      0.000      7.250      0.000      0.000 
     111      0.000      7.000      0.000      0.000 
     112      0.000      7.250      0.000      0.000 
     113      0.000      7.250      0.000      0.000 
     114      0.000      2.170      0.000      0.000 
     115      0.000      2.170      0.000      0.000 
     116      0.000      7.250      0.000      0.000 
     117      0.000      2.170      0.000      0.000 
     118      0.000      2.170      0.000      0.000 
     119      0.000      3.000      0.000      0.000 
     120      0.000      2.100      0.000      0.000 
     121      0.000      7.250      0.000      0.000 
     122      0.000      7.250      0.000      0.000 
     123      0.000      2.170      0.000      0.000 
     124      0.000      7.250      0.000      0.000 
     125      0.000      7.250      0.000      0.000 
     126      0.000      2.170      0.000      0.000 
     127      0.000      2.170      0.000      0.000 
     128      0.000      7.250      0.000      0.000 
     129      0.000      2.170      0.000      0.000 
     130      0.000      7.250      0.000      0.000 
     131      0.000      7.250      0.000      0.000 
     132      0.000      7.000      0.000      0.000 
     133      0.000      0.000     -0.553      0.000 
     134      0.500      0.000      0.000      0.000 
     135      0.000      2.170      0.000      0.000 
     136      0.000      2.170      0.000      0.000 
     137      0.000      7.250      0.000      0.000 
     138      0.000      7.250      0.000      0.000 
     139      0.000      0.000      0.760      0.000 
     140      0.000      7.250      0.000      0.000 
     141      0.000      2.170      0.000      0.000 
     142      0.000      2.170      0.000      0.000 
     143      0.000      7.250      0.000      0.000 
     144      0.000      7.250      0.000      0.000 
     145      0.000      7.250      0.000      0.000 
     146      0.000      0.000      0.760      0.000 
     147      0.000      2.170      0.000      0.000 
     148      0.000      2.100      0.000      0.000 
     149      0.000      0.000      0.000      0.000 
     150      0.000      7.250      0.000      0.000 
     151      0.000      7.250      0.000      0.000 
     152      0.000      2.170      0.000      0.000 
     153      0.000      7.250      0.000      0.000 
     154      0.000      0.000      0.000      0.000 
     155      0.000      2.170      0.000      0.000 
     156      0.000      7.250      0.000      0.000 
     157      0.000      2.170      0.000      0.000 
     158      0.000      7.250      0.000      0.000 
     159      0.000      2.170      0.000      0.000 
     160      0.000      7.250      0.000      0.000 
     161      0.000      7.000      0.000      0.000 

Improper Coeffs 

       1      2.500      -1       2 
       2      2.500      -1       2 
       3      2.500      -1       2 
       4      2.500      -1       2 
       5      2.500      -1       2 
       6      0.000      -1       2 
       7      0.000      -1       2 
       8      0.000      -1       2 
       9      0.000      -1       2 
      10      2.500      -1       2 
      11      2.500      -1       2 
      12      2.500      -1       2 
      13      2.500      -1       2 
      14      2.500      -1       2 
      15      2.500      -1       2 
      16      2.500      -1       2 
      17      2.500      -1       2 
      18      2.500      -1       2 
      19      2.500      -1       2 
      20     10.500      -1       2 
      21      0.000      -1       2 
      22      0.000      -1       2 
      23      2.500      -1       2 
      24      2.500      -1       2 
      25      2.500      -1       2 
      26      2.500      -1       2 
      27      2.500      -1       2 
      28      2.500      -1       2 
      29      2.500      -1       2 
      30      0.000      -1       2 
      31      0.000      -1       2 
      32      0.000      -1       2 
      33      0.000      -1       2 
      34      2.500      -1       2 
      35      2.500      -1       2 
      36      2.500      -1       2 
      37      2.500      -1       2 

Atoms 

     1      1      1 -0.19580000    1.000  1.00000  0.00000
     2      1      2 -0.12080000   -0.387  1.00000  0.00000
     3      1      3 -0.00170000    1.643  1.00000 -1.66020
     4      1      4 -0.05270000   -0.964  1.00000 -1.30555
     5      1      5 0.19440000   -0.994  1.00116  0.91412
     6      1      6 -0.13430000    0.016  1.00000 -2.35201
     7      1      7 0.17630000   -0.362  0.94961 -3.70280
     8      1      8 0.18820000   -2.360  0.99853 -1.58913
     9      1      9 -0.14220000   -2.738  0.99720 -2.94323
    10      1     10 -0.04270000   -1.757  0.90443 -3.98607
    11      1     11 -0.30100000   -3.168  1.00016 -0.49283
    12      1     12 -0.30430000    0.458  0.93712 -4.79493
    13      1     13 -0.05680000    1.722  1.58679 -4.72579
    14      1     14 0.10210000    2.087  1.66472 -5.76772
    15      1     15 0.10210000    2.463  1.00304 -4.13766
    16      1     16 0.10210000    1.633  2.60630 -4.29204
    17      1     17 -0.05820000   -4.522  0.57844 -0.60115
    18      1     18 0.10530000   -4.897  0.47943  0.43534
    19      1     19 0.10530000   -4.605 -0.40393 -1.11372
    20      1     20 0.10530000   -5.151  1.32583 -1.13238
    21      1     21 -0.10730000   -2.337  0.76893 -5.28237
    22      1     22 0.02080000   -4.358  1.16310 -3.63902
    23      1     23 -0.05450000   -3.726  0.75450 -5.27232
    24      1     24 0.19390000   -1.732  0.68379 -6.19351
    25      1     25 0.19990000    1.693  0.99893  0.84936
    26      1     26 -0.04250000   -4.631  0.47036 -6.34918
    27      1     27 0.10650000   -4.031  0.07104 -7.95295
    28      1     28 0.03160000   -5.635 -0.12295 -8.64962
    29      1     29 -0.09700000   -6.030  0.44647 -6.37039
    30      1     30 -0.12040000   -6.609  0.11950 -7.64936
    31      1     31 0.12840000   -7.222  0.74505 -5.11771
    32      1     32 -0.26200000   -8.522  0.43887 -6.27809
    33      1     33 0.20710000   -8.043  0.13017 -7.54885
    34      1     34 -0.02840000   -8.851 -0.13111 -8.58190
    35      1     35 0.52770000   -9.891  0.54908 -5.74997
    36      1     36 -0.45230000  -10.140  0.83296 -4.58666
    37      1     37 -0.34020000  -10.831  0.30029 -6.69325
    38      1     38 -0.05420000  -12.188  0.39205 -6.23334
    39      1     39 0.10640000  -12.819  0.16335 -7.11018
    40      1     40 0.10640000  -12.406  1.40998 -5.85209
    41      1     41 0.10640000  -12.377 -0.33500 -5.41794
    42      1     42 -0.10650000   -5.746 -0.47438 -10.03973
    43      1     43 -0.05410000   -6.880 -0.63415 -10.82325
    44      1     44 0.01190000   -4.261 -0.69808 -10.99589
    45      1     45 -0.07300000   -6.599 -0.93183 -12.19063
    46      1     46 0.21420000   -7.903 -0.54104 -10.43716
    47      1     47 -0.11750000   -5.186 -0.99700 -12.47274
    48      1     48 0.16780000   -4.712 -1.31442 -13.75488
    49      1     49 0.20400000   -7.576 -1.15058 -13.20356
    50      1     50 -0.15430000   -7.104 -1.43416 -14.49728
    51      1     51 -0.03270000   -5.684 -1.56320 -14.76465
    52      1     52 -0.29660000   -8.868 -1.05433 -12.78439
    53      1     53 -0.30190000   -3.410 -1.41653 -14.15740
    54      1     54 -0.05770000   -2.418 -0.62620 -13.51480
    55      1     55 0.10240000   -1.516 -0.68266 -14.15414
    56      1     56 0.10240000   -2.157 -1.01626 -12.50653
    57      1     57 0.10240000   -2.736  0.43485 -13.42435
    58      1     58 -0.05770000   -9.914 -1.64805 -13.54463
    59      1     59 0.10540000  -10.817 -1.60848 -12.90728
    60      1     60 0.10540000   -9.688 -2.70764 -13.79205
    61      1     61 0.10540000  -10.119 -1.08613 -14.48156
    62      1     62 -0.12310000   -5.406 -1.95213 -16.10895
    63      1     63 -0.01190000   -8.030 -1.61928 -15.99565
    64      1     64 -0.17780000   -6.543 -2.12744 -16.88529
    65      1     65 0.19650000   -4.384 -2.09688 -16.48101
    66      1     66 0.20000000   -6.625 -2.51338 -17.90844

Bonds 

     1      1      2      1
     2      2      3      1
     3      3      4      2
     4      4      5      2
     5      5      6      3
     6      6      7      6
     7      7      8      4
     8      8      9      8
     9      9     10      7
    10     10     11      8
    11     11     12      7
    12     12     13     12
    13     13     14     13
    14     14     15     13
    15     15     16     13
    16     16     17     11
    17     17     18     17
    18     18     19     17
    19     19     20     17
    20     20     21     10
    21     21     22      9
    22     22     23     21
    23     23     24     21
    24     24     25      1
    25     25     26     23
    26     26     27     26
    27     27     28     27
    28     28     29     26
    29     29     30     28
    30     30     31     29
    31     31     32     31
    32     32     33     30
    33     33     34     33
    34     34     35     32
    35     35     36     35
    36     36     37     35
    37     37     38     37
    38     38     39     38
    39     39     40     38
    40     40     41     38
    41     41     42     28
    42     42     43     42
    43     43     44     42
    44     44     45     43
    45     45     46     43
    46     46     47     44
    47     47     48     47
    48     48     49     45
    49     49     50     49
    50     50     51     48
    51     51     52     49
    52     52     53     48
    53     53     54     53
    54     54     55     54
    55     55     56     54
    56     56     57     54
    57     57     58     52
    58     58     59     58
    59     59     60     58
    60     60     61     58
    61     61     62     51
    62     62     63     50
    63     63     64     62
    64     64     65     62
    65     65     66     64
    66     66      6      4
    67     67     10      9
    68     68     23     22
    69     69     30     29
    70     70     33     32
    71     71     47     45
    72     72     51     50
    73     73     64     63

Angles 

     1      1      2      1      3
     2      2      1      2      4
     3      3      1      2      5
     4      4      1      3      6
     5      5      3      6      7
     6      6      2      4      8
     7      7      4      8      9
     8      8      6      7     10
     9      9      4      8     11
    10     10      6      7     12
    11     11      7     12     13
    12     12     12     13     14
    13     13     12     13     15
    14     14     12     13     16
    15     15      8     11     17
    16     16     11     17     18
    17     17     11     17     19
    18     18     11     17     20
    19     19      7     10     21
    20     20      8      9     22
    21     21     10     21     23
    22     22     10     21     24
    23     23      2      1     25
    24     24     21     23     26
    25     25     23     26     27
    26     26     26     27     28
    27     27     23     26     29
    28     28     27     28     30
    29     29     26     29     31
    30     30     29     31     32
    31     31     28     30     33
    32     32     30     33     34
    33     33     31     32     35
    34     34     32     35     36
    35     35     32     35     37
    36     36     35     37     38
    37     37     37     38     39
    38     38     37     38     40
    39     39     37     38     41
    40     40     27     28     42
    41     41     28     42     43
    42     42     28     42     44
    43     43     42     43     45
    44     44     42     43     46
    45     45     42     44     47
    46     46     44     47     48
    47     47     43     45     49
    48     48     45     49     50
    49     49     47     48     51
    50     50     45     49     52
    51     51     47     48     53
    52     52     48     53     54
    53     53     53     54     55
    54     54     53     54     56
    55     55     53     54     57
    56     56     49     52     58
    57     57     52     58     59
    58     58     52     58     60
    59     59     52     58     61
    60     60     48     51     62
    61     61     49     50     63
    62     62     51     62     64
    63     63     51     62     65
    64     64     62     64     66
    65     65     30     29     31
    66     66      9     22     23
    67     67     30     28     42
    68     68      4      6      7
    69     69     50     51     62
    70     70     14     13     15
    71     71     59     58     61
    72     72     30     33     32
    73     73     10      9     22
    74     74     43     45     47
    75     75     56     54     57
    76     76     22     23     26
    77     77     47     45     49
    78     78     33     32     35
    79     79     15     13     16
    80     80     51     48     53
    81     81      3      1     25
    82     82     18     17     20
    83     83     29     30     33
    84     84     40     38     41
    85     85     45     43     46
    86     86     59     58     60
    87     87     64     62     65
    88     88      4      2      5
    89     89      6      4      8
    90     90      7     10      9
    91     91      9      8     11
    92     92     48     51     50
    93     93     50     49     52
    94     94     39     38     40
    95     95      3      6      4
    96     96     55     54     57
    97     97     63     64     66
    98     98     32     33     34
    99     99     51     50     63
   100    100     49     50     51
   101    101      2      4      6
   102    102     43     42     44
   103    103     21     23     22
   104    104     45     47     48
   105    105     44     47     45
   106    106     62     64     63
   107    107     23     21     24