LAMMPS data file Created by LigParGen - (Written by Leela S. Dodda)

      46 atoms
      51 bonds
      86 angles
     128 dihedrals
      28 impropers
 
      46 atom types
      51 bond types
      86 angle types
     128 dihedral types
      28 improper types
 
  -11.131710    38.868290 xlo xhi
   -0.320710    49.679290 ylo yhi
   -8.060880    41.939120 zlo zhi

Masses

       1     12.011  
       2     12.011  
       3     12.011  
       4      1.008  
       5     12.011  
       6     12.011  
       7     12.011  
       8     12.011  
       9     12.011  
      10     12.011  
      11     12.011  
      12      1.008  
      13     12.011  
      14     14.007  
      15     12.011  
      16     12.011  
      17     12.011  
      18     14.007  
      19     15.999  
      20     15.999  
      21     15.999  
      22     15.999  
      23     12.011  
      24      1.008  
      25      1.008  
      26      1.008  
      27     12.011  
      28      1.008  
      29      1.008  
      30      1.008  
      31      1.008  
      32     12.011  
      33     12.011  
      34     12.011  
      35      1.008  
      36     12.011  
      37      1.008  
      38     32.060  
      39     12.011  
      40     12.011  
      41     12.011  
      42      1.008  
      43     12.011  
      44      1.008  
      45     32.060  
      46      1.008  

Pair Coeffs 

       1      0.076  3.5500000 
       2      0.080  3.5000000 
       3      0.076  3.5500000 
       4      0.030  2.4200000 
       5      0.080  3.5000000 
       6      0.080  3.5000000 
       7      0.080  3.5000000 
       8      0.080  3.5000000 
       9      0.080  3.5000000 
      10      0.076  3.5500000 
      11      0.070  3.5500000 
      12      0.030  2.4200000 
      13      0.070  3.5500000 
      14      0.170  3.2500000 
      15      0.070  3.5500000 
      16      0.070  3.5500000 
      17      0.070  3.5500000 
      18      0.170  3.2500000 
      19      0.210  2.9600000 
      20      0.210  2.9600000 
      21      0.210  2.9600000 
      22      0.210  2.9600000 
      23      0.066  3.5000000 
      24      0.030  2.5000000 
      25      0.030  2.5000000 
      26      0.030  2.5000000 
      27      0.066  3.5000000 
      28      0.030  2.5000000 
      29      0.030  2.5000000 
      30      0.030  2.5000000 
      31      0.030  2.4200000 
      32      0.070  3.5500000 
      33      0.070  3.5500000 
      34      0.070  3.5500000 
      35      0.030  2.4200000 
      36      0.070  3.5500000 
      37      0.030  2.4200000 
      38      0.355  3.6000000 
      39      0.070  3.5500000 
      40      0.070  3.5500000 
      41      0.070  3.5500000 
      42      0.030  2.4200000 
      43      0.070  3.5500000 
      44      0.030  2.4200000 
      45      0.355  3.6000000 
      46      0.030  2.4200000 

Bond Coeffs 

       1   427.0000     1.4330 
       2   549.0000     1.3450 
       3   412.5200     1.0500 
       4   427.0000     1.4330 
       5   520.0000     1.3700 
       6   520.0000     1.3700 
       7   520.0000     1.3700 
       8   520.0000     1.3700 
       9   427.0000     1.4330 
      10   469.0000     1.4000 
      11   412.5200     1.0500 
      12   447.0000     1.4190 
      13   418.0000     1.3880 
      14   447.0000     1.4190 
      15   447.0000     1.4190 
      16   447.0000     1.4190 
      17   418.0000     1.3880 
      18   570.0000     1.2290 
      19   570.0000     1.2290 
      20   570.0000     1.2290 
      21   570.0000     1.2290 
      22   337.0000     1.4750 
      23   340.0000     1.0900 
      24   340.0000     1.0900 
      25   340.0000     1.0900 
      26   337.0000     1.4750 
      27   340.0000     1.0900 
      28   340.0000     1.0900 
      29   340.0000     1.0900 
      30   412.5200     1.0500 
      31   385.0000     1.4600 
      32   546.0000     1.3670 
      33   469.0000     1.4240 
      34   367.0000     1.0800 
      35   469.0000     1.4240 
      36   367.0000     1.0800 
      37   250.0000     1.7400 
      38   469.0000     1.4240 
      39   469.0000     1.4240 
      40   469.0000     1.4240 
      41   367.0000     1.0800 
      42   546.0000     1.3670 
      43   367.0000     1.0800 
      44   250.0000     1.7600 
      45   367.0000     1.0800 
      46   520.0000     1.3700 
      47   427.0000     1.4330 
      48   418.0000     1.3880 
      49   418.0000     1.3880 
      50   250.0000     1.7600 
      51   250.0000     1.7400 

Angle Coeffs 

       1     85.000    117.000
       2     60.000    122.260
       3     85.000    117.000
       4     70.000    124.000
       5     70.000    124.000
       6     85.000    117.300
       7     85.000    117.300
       8     70.000    124.000
       9     85.000    117.300
      10     60.000    122.260
      11     77.270    119.730
      12     70.000    111.300
      13     85.000    119.200
      14     77.270    119.730
      15     85.000    119.200
      16     70.000    111.300
      17     80.000    128.800
      18     80.000    128.800
      19     80.000    128.800
      20     80.000    128.800
      21     63.000    112.400
      22     35.000    109.500
      23     35.000    109.500
      24     35.000    109.500
      25     63.000    112.400
      26     35.000    109.500
      27     35.000    109.500
      28     35.000    109.500
      29     60.000    122.260
      30     63.000    120.000
      31     70.000    132.100
      32     70.000    107.300
      33     35.000    125.700
      34     63.000    120.000
      35     35.000    127.500
      36     70.000    111.170
      37     63.000    120.000
      38     63.000    120.000
      39     63.000    120.000
      40     35.000    127.500
      41     70.000    107.300
      42     35.000    127.500
      43     85.000    119.400
      44     35.000    132.100
      45     60.000    122.260
      46     60.000    122.260
      47     80.000    120.600
      48     70.000    126.400
      49     60.000    122.260
      50     35.000    127.500
      51     70.000    126.400
      52     70.000    111.170
      53     63.000    112.400
      54     85.000    119.200
      55     33.000    107.800
      56     63.000    112.400
      57     35.000    127.500
      58     85.000    117.300
      59     70.000    111.300
      60     77.270    119.730
      61     85.000    117.300
      62     80.000    120.600
      63     35.000    125.000
      64     85.000    119.400
      65     85.000    119.400
      66     85.000    120.000
      67     33.000    107.800
      68     70.000    124.000
      69     85.000    117.300
      70     33.000    107.800
      71     35.000    125.700
      72     64.270    120.730
      73     35.000    127.500
      74     60.000    122.260
      75     63.000    112.400
      76     33.000    107.800
      77     85.000    117.300
      78     70.000    111.300
      79     80.000    120.600
      80     33.000    107.800
      81     85.000    119.200
      82     63.000    112.400
      83     33.000    107.800
      84     70.000    111.170
      85     80.000    120.600
      86     85.000    119.400

Dihedral Coeffs  

       1      1.423      4.055      0.858      0.000 
       2      0.000      0.000     -0.372      0.000 
       3      0.000      0.000     -0.372      0.000 
       4      0.000      7.250      0.000      0.000 
       5      0.000      7.250      0.000      0.000 
       6      0.000      7.000      0.000      0.000 
       7      0.000      7.000      0.000      0.000 
       8      0.000      0.000      0.000      0.000 
       9      0.000      0.000      0.000      0.000 
      10      0.000      2.170      0.000      0.000 
      11      0.000      2.170      0.000      0.000 
      12      0.000      2.170      0.000      0.000 
      13      0.000      2.170      0.000      0.000 
      14      0.000      2.170      0.000      0.000 
      15      0.000      2.170      0.000      0.000 
      16      0.000      7.250      0.000      0.000 
      17      0.000      0.000      0.000      0.000 
      18      0.000      7.000      0.000      0.000 
      19      0.000      7.250      0.000      0.000 
      20      0.000      2.170      0.000      0.000 
      21      0.000      2.170      0.000      0.000 
      22      0.000      7.250      0.000      0.000 
      23      0.000      7.250      0.000      0.000 
      24      0.000      7.000      0.000      0.000 
      25      0.000      7.000      0.000      0.000 
      26      0.000      4.900      0.000      0.000 
      27      0.000      4.900      0.000      0.000 
      28      0.000     14.000      0.000      0.000 
      29      0.000      7.250      0.000      0.000 
      30      0.000      7.250      0.000      0.000 
      31      0.000      0.000     -0.372      0.000 
      32      0.000      7.250      0.000      0.000 
      33      0.000      7.250      0.000      0.000 
      34      0.000      7.250      0.000      0.000 
      35      0.000      2.170      0.000      0.000 
      36      0.000      4.900      0.000      0.000 
      37      0.000      0.000     -0.372      0.000 
      38      0.000      7.250      0.000      0.000 
      39      0.000      7.000      0.000      0.000 
      40      0.000      7.250      0.000      0.000 
      41      0.000      2.170      0.000      0.000 
      42      0.000      4.900      0.000      0.000 
      43      0.000      7.250      0.000      0.000 
      44      0.000      4.900      0.000      0.000 
      45      0.000      0.000      0.000      0.000 
      46      0.000      7.250      0.000      0.000 
      47      0.000      0.000     -0.372      0.000 
      48      0.000      0.000     -0.372      0.000 
      49      0.000      0.000      0.000      0.000 
      50      0.000     14.000      0.000      0.000 
      51      0.000      7.000      0.000      0.000 
      52      0.000      7.250      0.000      0.000 
      53      0.000      4.900      0.000      0.000 
      54      0.000      2.170      0.000      0.000 
      55      0.000      0.000      0.000      0.000 
      56      0.000      4.900      0.000      0.000 
      57      0.000      2.170      0.000      0.000 
      58      0.000      7.250      0.000      0.000 
      59      0.000      2.170      0.000      0.000 
      60      0.000      2.170      0.000      0.000 
      61      0.000      4.900      0.000      0.000 
      62      0.000      4.900      0.000      0.000 
      63      0.000      0.000     -0.372      0.000 
      64      0.000      2.170      0.000      0.000 
      65      0.000      0.000      0.000      0.000 
      66      0.000      7.250      0.000      0.000 
      67      0.000      7.250      0.000      0.000 
      68      0.000      7.250      0.000      0.000 
      69      0.000      7.250      0.000      0.000 
      70      0.000      0.000     -0.372      0.000 
      71      0.000      7.000      0.000      0.000 
      72      0.000      7.250      0.000      0.000 
      73      0.000      7.250      0.000      0.000 
      74      0.000      7.000      0.000      0.000 
      75      0.000      7.250      0.000      0.000 
      76      0.000      0.000      0.000      0.000 
      77      0.000      2.170      0.000      0.000 
      78      0.000      7.000      0.000      0.000 
      79      0.000      7.250      0.000      0.000 
      80      0.000      2.100      0.000      0.000 
      81      0.000      7.250      0.000      0.000 
      82      0.000      0.000      0.000      0.000 
      83      0.000      2.170      0.000      0.000 
      84      0.000      2.170      0.000      0.000 
      85      0.000      7.250      0.000      0.000 
      86      0.000      7.250      0.000      0.000 
      87      0.000      7.250      0.000      0.000 
      88      0.000      7.250      0.000      0.000 
      89      0.000      4.900      0.000      0.000 
      90      0.000      7.250      0.000      0.000 
      91      0.000      7.000      0.000      0.000 
      92      0.000      4.900      0.000      0.000 
      93      0.000      7.250      0.000      0.000 
      94      0.000     14.000      0.000      0.000 
      95      0.000      7.000      0.000      0.000 
      96      0.000      7.250      0.000      0.000 
      97      0.000      7.250      0.000      0.000 
      98      0.000      2.170      0.000      0.000 
      99      0.000      4.900      0.000      0.000 
     100      0.000      7.250      0.000      0.000 
     101      0.000      7.250      0.000      0.000 
     102      0.000      7.250      0.000      0.000 
     103      0.000      0.000      0.000      0.000 
     104      0.000      0.000      0.000      0.000 
     105      0.000      7.250      0.000      0.000 
     106      0.000      0.000      0.000      0.000 
     107      0.000      7.000      0.000      0.000 
     108      0.000      7.000      0.000      0.000 
     109      0.000      7.250      0.000      0.000 
     110      0.000      7.250      0.000      0.000 
     111      0.000      7.250      0.000      0.000 
     112      0.000      4.900      0.000      0.000 
     113      0.000      4.900      0.000      0.000 
     114      0.000      7.250      0.000      0.000 
     115      0.000      4.900      0.000      0.000 
     116      0.000      7.250      0.000      0.000 
     117      0.000      2.100      0.000      0.000 
     118      0.000      7.000      0.000      0.000 
     119      0.000      0.000      0.000      0.000 
     120      0.000      0.000      0.000      0.000 
     121      0.000      0.000     -0.372      0.000 
     122      0.000      4.900      0.000      0.000 
     123      0.000      0.000     -0.372      0.000 
     124      0.000      7.000      0.000      0.000 
     125      0.000      7.250      0.000      0.000 
     126      0.000      0.000      0.000      0.000 
     127      0.000      2.170      0.000      0.000 
     128      0.000      7.250      0.000      0.000 

Improper Coeffs 

       1      2.500      -1       2 
       2      2.500      -1       2 
       3      2.500      -1       2 
       4      2.500      -1       2 
       5      2.500      -1       2 
       6      2.500      -1       2 
       7      2.500      -1       2 
       8      2.500      -1       2 
       9     10.500      -1       2 
      10     10.500      -1       2 
      11     10.500      -1       2 
      12     10.500      -1       2 
      13      0.000      -1       2 
      14      0.000      -1       2 
      15      0.000      -1       2 
      16      0.000      -1       2 
      17      0.000      -1       2 
      18      0.000      -1       2 
      19      2.500      -1       2 
      20      2.500      -1       2 
      21      2.500      -1       2 
      22      2.500      -1       2 
      23      2.500      -1       2 
      24      2.500      -1       2 
      25      2.500      -1       2 
      26      2.500      -1       2 
      27      2.500      -1       2 
      28      2.500      -1       2 

Atoms 

     1      1      1 -0.08150000    1.000  1.00000  0.00000
     2      1      2 -0.12140000   -0.383  1.00000  0.00000
     3      1      3 -0.05700000    1.815  1.00000 -1.17467
     4      1      4 0.19200000    1.483  0.99875  0.99030
     5      1      5 -0.09680000    1.102  1.11599 -2.41492
     6      1      6 -0.01710000   -0.332  1.06380 -2.41744
     7      1      7 0.01830000   -1.113  1.00000 -1.22350
     8      1      8 -0.11140000   -2.547  0.94043 -1.22925
     9      1      9 -0.10020000   -1.065  1.07174 -3.63920
    10      1     10 -0.10210000   -2.448  1.07590 -3.63589
    11      1     11 0.12800000   -3.258  1.06807 -2.47110
    12      1     12 0.19530000   -2.933  1.08735 -4.62494
    13      1     13 0.64960000   -1.062  0.99833  1.31997
    14      1     14 -0.93830000   -2.451  0.82641  1.26278
    15      1     15 0.64640000   -3.209  0.64152  0.07359
    16      1     16 0.63540000    1.764  1.38874 -3.72427
    17      1     17 0.64680000   -0.387  1.07748 -4.96000
    18      1     18 -0.93290000    1.005  1.22493 -4.90464
    19      1     19 -0.40710000   -0.457  1.08899  2.38592
    20      1     20 -0.40700000   -4.368  0.24386  0.18554
    21      1     21 -0.40390000   -0.996  1.00964 -6.02580
    22      1     22 -0.39610000    2.933  1.75009 -3.84740
    23      1     23 0.05840000   -3.183  0.70565  2.52632
    24      1     24 0.11570000   -2.475  0.93880  3.33883
    25      1     25 0.11570000   -3.583 -0.32071  2.64014
    26      1     26 0.11570000   -4.039  1.40694  2.53176
    27      1     27 0.05730000    1.740  1.35617 -6.16480
    28      1     28 0.11680000    2.591  0.64905 -6.17695
    29      1     29 0.11680000    2.149  2.38042 -6.26396
    30      1     30 0.11680000    1.033  1.13793 -6.98175
    31      1     31 0.20280000    2.912  1.01962 -1.14566
    32      1     32 -0.16560000   -4.694  1.26430 -2.70426
    33      1     33 -0.06830000   -5.806  1.38838 -1.85545
    34      1     34 -0.18030000   -7.019  1.65033 -2.52199
    35      1     35 0.22140000   -5.720  1.28803 -0.76344
    36      1     36 -0.03520000   -6.886  1.73811 -3.91382
    37      1     37 0.18850000   -7.983  1.77443 -2.00862
    38      1     38 0.05990000   -5.229  1.48331 -4.38621
    39      1     39 -0.10450000   -7.892  1.99666 -4.91047
    40      1     40 -0.13840000   -7.759  2.08313 -6.30304
    41      1     41 -0.15770000   -8.970  2.35395 -6.96860
    42      1     42 0.18360000   -6.795  1.95115 -6.81399
    43      1     43 -0.19160000  -10.082  2.48691 -6.12014
    44      1     44 0.18110000   -9.053  2.45413 -8.06088
    45      1     45 0.04660000   -9.550  2.25394 -4.44008
    46      1     46 0.20570000  -11.132  2.69735 -6.35105

Bonds 

     1      1      2      1
     2      2      3      1
     3      3      4      1
     4      4      5      3
     5      5      6      5
     6      6      7      2
     7      7      8      7
     8      8      9      6
     9      9     10      9
    10     10     11      8
    11     11     12     10
    12     12     13      2
    13     13     14     13
    14     14     15      8
    15     15     16      5
    16     16     17      9
    17     17     18     16
    18     18     19     13
    19     19     20     15
    20     20     21     17
    21     21     22     16
    22     22     23     14
    23     23     24     23
    24     24     25     23
    25     25     26     23
    26     26     27     18
    27     27     28     27
    28     28     29     27
    29     29     30     27
    30     30     31      3
    31     31     32     11
    32     32     33     32
    33     33     34     33
    34     34     35     33
    35     35     36     34
    36     36     37     34
    37     37     38     32
    38     38     39     36
    39     39     40     39
    40     40     41     40
    41     41     42     40
    42     42     43     41
    43     43     44     41
    44     44     45     39
    45     45     46     43
    46     46      7      6
    47     47     11     10
    48     48     15     14
    49     49     18     17
    50     50     38     36
    51     51     45     43

Angles 

     1      1      2      1      3
     2      2      2      1      4
     3      3      1      3      5
     4      4      3      5      6
     5      5      1      2      7
     6      6      2      7      8
     7      7      5      6      9
     8      8      6      9     10
     9      9      7      8     11
    10     10      9     10     12
    11     11      1      2     13
    12     12      2     13     14
    13     13      7      8     15
    14     14      3      5     16
    15     15      6      9     17
    16     16      5     16     18
    17     17      2     13     19
    18     18      8     15     20
    19     19      9     17     21
    20     20      5     16     22
    21     21     13     14     23
    22     22     14     23     24
    23     23     14     23     25
    24     24     14     23     26
    25     25     16     18     27
    26     26     18     27     28
    27     27     18     27     29
    28     28     18     27     30
    29     29      1      3     31
    30     30      8     11     32
    31     31     11     32     33
    32     32     32     33     34
    33     33     32     33     35
    34     34     33     34     36
    35     35     33     34     37
    36     36     11     32     38
    37     37     34     36     39
    38     38     36     39     40
    39     39     39     40     41
    40     40     39     40     42
    41     41     40     41     43
    42     42     40     41     44
    43     43     36     39     45
    44     44     41     43     46
    45     45      5      3     31
    46     46     11     10     12
    47     47     14     13     19
    48     48     13     14     15
    49     49      3      1      4
    50     50     36     34     37
    51     51     16     18     17
    52     52     41     43     45
    53     53     15     14     23
    54     54      6      5     16
    55     55     25     23     26
    56     56     32     38     36
    57     57     34     33     35
    58     58      2      7      6
    59     59      9     17     18
    60     60     10      9     17
    61     61      6      7      8
    62     62     18     17     21
    63     63     45     43     46
    64     64     40     39     45
    65     65     34     36     38
    66     66     11      8     15
    67     67     24     23     25
    68     68      8     11     10
    69     69      5      6      7
    70     70     28     27     29
    71     71     43     41     44
    72     72     10     11     32
    73     73     41     40     42
    74     74      9     10     11
    75     75     39     45     43
    76     76     28     27     30
    77     77      7      6      9
    78     78      8     15     14
    79     79     18     16     22
    80     80     24     23     26
    81     81      7      2     13
    82     82     17     18     27
    83     83     29     27     30
    84     84     33     32     38
    85     85     14     15     20
    86     86     38     36     39

Dihedrals

     1      1      5      3      1      2 
     2      2      6      5      3      1 
     3      3      7      2      1      3 
     4      4     10      9      6      5 
     5      5     11      8      7      2 
     6      6     14     13      2      1 
     7      7     18     16      5      3 
     8      8     24     23     14     13 
     9      9     28     27     18     16 
    10     10     33     32     11      8 
    11     11     34     33     32     11 
    12     12     36     34     33     32 
    13     13     40     39     36     34 
    14     14     41     40     39     36 
    15     15     43     41     40     39 
    16     16     17      9      6      7 
    17     17     36     38     32     33 
    18     18     20     15      8     11 
    19     19      6      7      2      1 
    20     20      9     10     11      8 
    21     21     34     36     38     32 
    22     22      9      6      5      3 
    23     23     37     34     33     35 
    24     24     19     13      2      1 
    25     25     21     17      9     10 
    26     26     19     13     14     15 
    27     27     27     18     17     21 
    28     28      5      3      1      4 
    29     29     17      9      6      5 
    30     30     13      2      7      6 
    31     31     12     10      9      6 
    32     32     10      9      6      7 
    33     33      9      6      7      2 
    34     34     45     39     40     42 
    35     35     40     39     36     38 
    36     36     17     18     16      5 
    37     37     13      2      1      3 
    38     38     10     11      8      7 
    39     39     18     17      9     10 
    40     40     35     33     32     11 
    41     41     33     32     11     10 
    42     42     23     14     13     19 
    43     43     38     36     34     37 
    44     44     27     18     17      9 
    45     45     29     27     18     16 
    46     46      9      6      7      8 
    47     47     31      3      5      6 
    48     48     17      9     10     12 
    49     49     25     23     14     13 
    50     50     31      3      1      2 
    51     51     22     16      5      3 
    52     52     46     43     45     39 
    53     53     21     17     18     16 
    54     54     38     36     34     33 
    55     55     25     23     14     15 
    56     56     27     18     16     22 
    57     57     32     11     10      9 
    58     58     38     32     33     35 
    59     59     38     32     11      8 
    60     60     43     45     39     36 
    61     61     22     16     18     17 
    62     62     16     18     17      9 
    63     63      7      2      1      4 
    64     64     38     32     11     10 
    65     65     30     27     18     17 
    66     66      8      7      6      5 
    67     67     44     41     40     42 
    68     68     42     40     39     36 
    69     69     15      8      7      6 
    70     70     13      2      1      4 
    71     71     20     15      8      7 
    72     72     39     36     34     37 
    73     73     46     43     41     40 
    74     74     18     17      9      6 
    75     75     46     43     41     44 
    76     76     28     27     18     17 
    77     77     43     45     39     40 
    78     78     21     17      9      6 
    79     79     32     11     10     12 
    80     80     45     43     41     40 
    81     81     13      2      7      8 
    82     82     26     23     14     15 
    83     83     45     39     40     41 
    84     84     45     39     36     34 
    85     85     15      8      7      2 
    86     86     36     34     33     35 
    87     87     11      8      7      6 
    88     88      5      6      7      2 
    89     89     23     14     15     20 
    90     90     37     34     33     32 
    91     91     18     16      5      6 
    92     92     20     15     14     13 
    93     93     44     41     40     39 
    94     94     31      3      1      4 
    95     95     19     13      2      7 
    96     96     16      5      6      7 
    97     97     16      5      6      9 
    98     98     39     36     38     32 
    99     99     13     14     15      8 
   100    100     32     11      8      7 
   101    101      8      7      2      1 
   102    102      7      6      5      3 
   103    103     36     38     32     11 
   104    104     26     23     14     13 
   105    105     12     10     11      8 
   106    106     24     23     14     15 
   107    107     14     13      2      7 
   108    108     14     15      8      7 
   109    109     43     41     40     42 
   110    110     17      9     10     11 
   111    111     32     11      8     15 
   112    112     23     14     15      8 
   113    113     15     14     13      2 
   114    114     11     10      9      6 
   115    115     23     14     13      2 
   116    116     15      8     11     10 
   117    117     38     32     33     34 
   118    118     22     16      5      6 
   119    119     29     27     18     17 
   120    120     30     27     18     16 
   121    121     31      3      5     16 
   122    122     27     18     16      5 
   123    123     16      5      3      1 
   124    124     14     15      8     11 
   125    125     45     43     41     44 
   126    126     41     43     45     39 
   127    127     39     36     34     33 
   128    128     45     39     36     38 

Impropers

     1      1      1      2      3      4 
     2      2      7      2      6      8 
     3      3      6      9      5      7 
     4      4     10      9     11     12 
     5      5      2      1     13      7 
     6      6      8     11      7     15 
     7      7      5      3      6     16 
     8      8      9     17      6     10 
     9      9     13      2     19     14 
    10     10     15     20     14      8 
    11     11     17      9     21     18 
    12     12     16     18      5     22 
    13     13     14     15     13     23 
    14     14     23     25     14     24 
    15     15     23     26     14     24 
    16     16     18     17     27     16 
    17     17     27     18     28     29 
    18     18     27     18     28     30 
    19     19      3      1      5     31 
    20     20     11     10      8     32 
    21     21     33     34     35     32 
    22     22     34     33     36     37 
    23     23     32     33     11     38 
    24     24     36     34     38     39 
    25     25     40     41     42     39 
    26     26     41     43     44     40 
    27     27     39     36     45     40 
    28     28     43     41     45     46 

