LAMMPS data file Created by LigParGen - (Written by Leela S. Dodda)

      37 atoms
      41 bonds
      69 angles
     100 dihedrals
      22 impropers
 
      37 atom types
      41 bond types
      69 angle types
     100 dihedral types
      22 improper types
 
   -5.600940    44.399060 xlo xhi
    0.096980    50.096980 ylo yhi
  -11.188110    38.811890 zlo zhi

Masses

       1     12.011  
       2     12.011  
       3     14.007  
       4     12.011  
       5     12.011  
       6     12.011  
       7      1.008  
       8      1.008  
       9      1.008  
      10     12.011  
      11     14.007  
      12     12.011  
      13     15.999  
      14     15.999  
      15     12.011  
      16      1.008  
      17      1.008  
      18      1.008  
      19      1.008  
      20     12.011  
      21     12.011  
      22     12.011  
      23      1.008  
      24     12.011  
      25     15.999  
      26      1.008  
      27     12.011  
      28     12.011  
      29     12.011  
      30      1.008  
      31     32.060  
      32     12.011  
      33     32.060  
      34     12.011  
      35     12.011  
      36      1.008  
      37      1.008  

Pair Coeffs 

       1      0.070  3.5500000 
       2      0.076  3.5500000 
       3      0.170  3.2500000 
       4      0.076  3.5500000 
       5      0.070  3.5500000 
       6      0.066  3.5000000 
       7      0.030  2.5000000 
       8      0.030  2.5000000 
       9      0.030  2.5000000 
      10      0.070  3.5500000 
      11      0.170  3.2500000 
      12      0.070  3.5500000 
      13      0.210  2.9600000 
      14      0.210  2.9600000 
      15      0.066  3.5000000 
      16      0.030  2.5000000 
      17      0.030  2.5000000 
      18      0.030  2.5000000 
      19      0.030  2.4200000 
      20      0.070  3.5500000 
      21      0.070  3.5500000 
      22      0.070  3.5500000 
      23      0.030  2.4200000 
      24      0.070  3.5500000 
      25      0.140  2.9000000 
      26      0.030  2.4200000 
      27      0.070  3.5500000 
      28      0.070  3.5500000 
      29      0.070  3.5500000 
      30      0.030  2.4200000 
      31      0.355  3.6000000 
      32      0.070  3.5500000 
      33      0.355  3.6000000 
      34      0.070  3.5500000 
      35      0.070  3.5500000 
      36      0.030  2.4200000 
      37      0.030  2.4200000 

Bond Coeffs 

       1   546.0000     1.3670 
       2   427.0000     1.3810 
       3   549.0000     1.3400 
       4   418.0000     1.3880 
       5   337.0000     1.4750 
       6   340.0000     1.0900 
       7   340.0000     1.0900 
       8   340.0000     1.0900 
       9   410.0000     1.4440 
      10   418.0000     1.3880 
      11   427.0000     1.4330 
      12   570.0000     1.2290 
      13   570.0000     1.2290 
      14   337.0000     1.4750 
      15   340.0000     1.0900 
      16   340.0000     1.0900 
      17   340.0000     1.0900 
      18   367.0000     1.0800 
      19   469.0000     1.4240 
      20   469.0000     1.4240 
      21   469.0000     1.4240 
      22   367.0000     1.0800 
      23   469.0000     1.4240 
      24   450.0000     1.3640 
      25   367.0000     1.0800 
      26   469.0000     1.4240 
      27   469.0000     1.4240 
      28   469.0000     1.4240 
      29   367.0000     1.0800 
      30   250.0000     1.7600 
      31   469.0000     1.4240 
      32   250.0000     1.7600 
      33   250.0000     1.7400 
      34   469.0000     1.4240 
      35   367.0000     1.0800 
      36   367.0000     1.0800 
      37   410.0000     1.4440 
      38   427.0000     1.3810 
      39   450.0000     1.3640 
      40   250.0000     1.7600 
      41   546.0000     1.3670 

Angle Coeffs 

       1     70.000    121.600
       2     85.000    117.000
       3     70.000    125.200
       4     63.000    112.400
       5     35.000    109.500
       6     35.000    109.500
       7     35.000    109.500
       8     85.000    120.000
       9     70.000    114.100
      10     85.000    117.000
      11     80.000    120.600
      12     80.000    125.300
      13     63.000    112.400
      14     35.000    109.500
      15     35.000    109.500
      16     35.000    109.500
      17     35.000    130.700
      18     63.000    120.000
      19     63.000    120.000
      20     63.000    120.000
      21     35.000    127.500
      22     63.000    120.000
      23     70.000    120.000
      24     35.000    127.500
      25     63.000    120.000
      26     63.000    120.000
      27     63.000    120.000
      28     35.000    127.500
      29     85.000    119.400
      30     63.000    120.000
      31     85.000    119.400
      32     63.000    112.400
      33     63.000    120.000
      34     35.000    127.500
      35     35.000    125.000
      36     85.000    120.700
      37     63.000    112.400
      38     70.000    114.100
      39     35.000    132.100
      40     35.000    127.500
      41     33.000    107.800
      42     80.000    120.600
      43     35.000    127.500
      44     80.000    125.300
      45     70.000    107.300
      46     70.000    111.170
      47     33.000    107.800
      48     85.000    119.400
      49     85.000    119.400
      50     70.000    120.000
      51     85.000    119.400
      52     85.000    120.000
      53     35.000    127.500
      54     35.000    121.600
      55     70.000    108.700
      56     70.000    125.200
      57     63.000    112.400
      58     70.000    120.000
      59     70.000    108.700
      60     33.000    107.800
      61     33.000    107.800
      62     85.000    120.700
      63     35.000    125.700
      64     33.000    107.800
      65     85.000    119.400
      66     63.000    112.400
      67     75.000    111.000
      68     70.000    120.000
      69     33.000    107.800

Dihedral Coeffs  

       1      2.000      0.000      0.000      0.000 
       2      0.000      5.000      0.000      0.000 
       3      0.000      0.000      0.000      0.000 
       4      2.000      0.000      0.000      0.000 
       5      0.000      0.000      0.000      0.000 
       6      0.000      2.170      0.000      0.000 
       7      0.000      2.170      0.000      0.000 
       8      0.000      2.170      0.000      0.000 
       9      0.000      2.170      0.000      0.000 
      10      0.000      2.170      0.000      0.000 
      11      0.000      2.170      0.000      0.000 
      12      0.000      2.170      0.000      0.000 
      13      0.000      2.170      0.000      0.000 
      14      0.000     14.000      0.000      0.000 
      15      0.000      2.170      0.000      0.000 
      16      2.000      0.000      0.000      0.000 
      17      0.000      4.900      0.000      0.000 
      18      0.000      0.000      0.000      0.000 
      19      0.000      2.170      0.000      0.000 
      20      2.500      6.000      0.000      0.000 
      21      0.000      4.900      0.000      0.000 
      22      0.000      4.900      0.000      0.000 
      23      0.000      2.170      0.000      0.000 
      24      2.000      0.000      0.000      0.000 
      25      2.500      6.000      0.000      0.000 
      26      0.000      7.250      0.000      0.000 
      27      0.000      2.170      0.000      0.000 
      28      0.000      2.170      0.000      0.000 
      29      0.000      7.250      0.000      0.000 
      30      0.000      2.170      0.000      0.000 
      31      0.000      7.250      0.000      0.000 
      32      2.300      6.089      0.000      0.000 
      33      0.000      2.170      0.000      0.000 
      34      0.000      7.250      0.000      0.000 
      35      0.000      5.000      0.000      0.000 
      36      0.000      7.250      0.000      0.000 
      37      0.000     14.000      0.000      0.000 
      38      0.000      7.250      0.000      0.000 
      39      2.000      0.000      0.000      0.000 
      40      0.000      2.170      0.000      0.000 
      41      0.000      5.000      0.000      0.000 
      42      0.000      7.250      0.000      0.000 
      43      0.000      0.000      0.000      0.000 
      44      0.000      7.250      0.000      0.000 
      45      0.000      0.000      0.000      0.000 
      46      0.000      7.250      0.000      0.000 
      47      0.000      2.170      0.000      0.000 
      48      0.000      4.900      0.000      0.000 
      49      0.000      2.170      0.000      0.000 
      50      0.000      0.000      0.000      0.000 
      51      0.000      0.000      0.000      0.000 
      52      0.000      0.000      0.000      0.000 
      53      0.000      2.170      0.000      0.000 
      54      0.000      7.250      0.000      0.000 
      55      0.000      0.000      0.000      0.000 
      56      0.000      2.170      0.000      0.000 
      57      0.000      7.250      0.000      0.000 
      58      0.000      0.000      0.000      0.000 
      59      0.000      2.170      0.000      0.000 
      60      0.000      2.170      0.000      0.000 
      61      0.000      7.250      0.000      0.000 
      62      0.000      7.250      0.000      0.000 
      63      0.000     14.000      0.000      0.000 
      64      0.000     14.000      0.000      0.000 
      65      0.000      1.300      2.200      0.000 
      66      0.000      2.170      0.000      0.000 
      67      0.000      2.170      0.000      0.000 
      68      0.000      2.170      0.000      0.000 
      69      0.000      2.170      0.000      0.000 
      70      0.000      7.250      0.000      0.000 
      71      0.000      7.250      0.000      0.000 
      72      0.000      7.250      0.000      0.000 
      73      0.000      2.170      0.000      0.000 
      74      0.000      7.250      0.000      0.000 
      75      0.000      7.250      0.000      0.000 
      76      0.000      7.250      0.000      0.000 
      77      0.000      4.900      0.000      0.000 
      78      0.000      0.000      0.000      0.000 
      79      0.000      2.170      0.000      0.000 
      80      0.000      2.170      0.000      0.000 
      81      0.000      4.900      0.000      0.000 
      82      0.000      5.000      0.000      0.000 
      83      0.000     10.750      0.000      0.000 
      84      0.000     14.000      0.000      0.000 
      85      0.000      7.250      0.000      0.000 
      86      0.000      2.100      0.000      0.000 
      87      2.500      6.000      0.000      0.000 
      88      2.000      0.000      0.000      0.000 
      89      0.000      0.000      0.000      0.000 
      90      0.000     10.750      0.000      0.000 
      91      0.000      2.170      0.000      0.000 
      92      2.300      6.089      0.000      0.000 
      93      0.000      7.250      0.000      0.000 
      94      0.000      2.170      0.000      0.000 
      95      0.000      0.000      0.000      0.000 
      96      0.000      7.250      0.000      0.000 
      97      0.000      2.170      0.000      0.000 
      98      0.000      7.250      0.000      0.000 
      99      2.500      6.000      0.000      0.000 
     100      0.000      2.170      0.000      0.000 

Improper Coeffs 

       1      0.000      -1       2 
       2      0.000      -1       2 
       3      0.000      -1       2 
       4      2.500      -1       2 
       5      2.500      -1       2 
       6     10.500      -1       2 
       7     10.500      -1       2 
       8      0.000      -1       2 
       9      0.000      -1       2 
      10      0.000      -1       2 
      11      2.500      -1       2 
      12      2.500      -1       2 
      13      2.500      -1       2 
      14      2.500      -1       2 
      15      2.500      -1       2 
      16      2.500      -1       2 
      17      2.500      -1       2 
      18      2.500      -1       2 
      19      2.500      -1       2 
      20      2.500      -1       2 
      21      2.500      -1       2 
      22      2.500      -1       2 

Atoms 

     1      1      1 0.28450000    1.000  1.00000  0.00000
     2      1      2 -0.29160000   -0.407  1.00000  0.00000
     3      1      3 -0.79820000    1.420  1.00000 -1.32565
     4      1      4 -0.27770000   -0.857  1.00000 -1.35764
     5      1      5 0.63820000    0.295  1.00000 -2.24576
     6      1      6 0.04220000    2.773  1.00144 -1.83212
     7      1      7 0.10860000    3.330  1.90560 -1.50863
     8      1      8 0.10860000    2.692  1.00226 -2.93632
     9      1      9 0.10860000    3.332  0.09915 -1.50753
    10      1     10 0.64290000   -1.566  1.00113  0.89181
    11      1     11 -0.77860000   -2.693  1.00175 -0.03373
    12      1     12 0.42590000   -2.267  1.00169 -1.35616
    13      1     13 -0.42440000    0.457  0.99868 -3.46608
    14      1     14 -0.40570000   -1.719  1.00266  2.10697
    15      1     15 0.03930000   -4.049  1.00077  0.45991
    16      1     16 0.10920000   -3.981  0.99959  1.56516
    17      1     17 0.10920000   -4.603  0.09698  0.13104
    18      1     18 0.10920000   -4.604  1.90482  0.13303
    19      1     19 0.20840000    1.716  0.99895  0.83162
    20      1     20 -0.03390000   -3.125  1.00455 -2.49612
    21      1     21 -0.14200000   -4.504  1.00782 -2.74894
    22      1     22 -0.24110000   -4.660  1.00764 -4.15978
    23      1     23 0.19090000   -5.297  1.01118 -1.99233
    24      1     24 0.12290000   -3.371  1.00427 -4.70412
    25      1     25 -0.11910000   -2.456  1.00250 -3.69477
    26      1     26 0.19630000   -5.601  1.00861 -4.72209
    27      1     27 -0.12630000   -2.816  1.00362 -6.02483
    28      1     28 -0.03020000   -1.447  1.00129 -6.32591
    29      1     29 -0.15170000   -1.248  1.00295 -7.72535
    30      1     30 0.23370000   -0.660  0.99974 -5.56070
    31      1     31 0.09500000   -3.850  1.00386 -7.45932
    32      1     32 -0.11810000   -2.443  1.00649 -8.49420
    33      1     33 0.08040000    0.159  1.00005 -8.76087
    34      1     34 -0.19080000   -0.874  1.00804 -10.19619
    35      1     35 -0.10830000   -2.243  1.00964 -9.89349
    36      1     36 0.18820000   -3.032  1.01403 -10.65666
    37      1     37 0.19570000   -0.406  1.00989 -11.18811

Bonds 

     1      1      2      1
     2      2      3      1
     3      3      4      2
     4      4      5      3
     5      5      6      3
     6      6      7      6
     7      7      8      6
     8      8      9      6
     9      9     10      2
    10     10     11     10
    11     11     12      4
    12     12     13      5
    13     13     14     10
    14     14     15     11
    15     15     16     15
    16     16     17     15
    17     17     18     15
    18     18     19      1
    19     19     20     12
    20     20     21     20
    21     21     22     21
    22     22     23     21
    23     23     24     22
    24     24     25     20
    25     25     26     22
    26     26     27     24
    27     27     28     27
    28     28     29     28
    29     29     30     28
    30     30     31     27
    31     31     32     29
    32     32     33     29
    33     33     34     33
    34     34     35     32
    35     35     36     35
    36     36     37     34
    37     37      5      4
    38     38     12     11
    39     39     25     24
    40     40     32     31
    41     41     35     34

Angles 

     1      1      2      1      3
     2      2      1      2      4
     3      3      1      3      5
     4      4      1      3      6
     5      5      3      6      7
     6      6      3      6      8
     7      7      3      6      9
     8      8      1      2     10
     9      9      2     10     11
    10     10      2      4     12
    11     11      3      5     13
    12     12      2     10     14
    13     13     10     11     15
    14     14     11     15     16
    15     15     11     15     17
    16     16     11     15     18
    17     17      2      1     19
    18     18      4     12     20
    19     19     12     20     21
    20     20     20     21     22
    21     21     20     21     23
    22     22     21     22     24
    23     23     12     20     25
    24     24     21     22     26
    25     25     22     24     27
    26     26     24     27     28
    27     27     27     28     29
    28     28     27     28     30
    29     29     24     27     31
    30     30     28     29     32
    31     31     28     29     33
    32     32     29     33     34
    33     33     29     32     35
    34     34     32     35     36
    35     35     33     34     37
    36     36      4      2     10
    37     37     12     11     15
    38     38      3      5      4
    39     39     35     34     37
    40     40     22     21     23
    41     41      7      6      9
    42     42     11     10     14
    43     43     29     28     30
    44     44      4      5     13
    45     45     32     35     34
    46     46     33     34     35
    47     47     16     15     18
    48     48     29     32     31
    49     49     32     29     33
    50     50     22     24     25
    51     51     31     32     35
    52     52      5      4     12
    53     53     24     22     26
    54     54      3      1     19
    55     55      4     12     11
    56     56     10     11     12
    57     57     27     31     32
    58     58     21     20     25
    59     59     11     12     20
    60     60      7      6      8
    61     61     16     15     17
    62     62      2      4      5
    63     63     34     35     36
    64     64      8      6      9
    65     65     28     27     31
    66     66      5      3      6
    67     67     20     25     24
    68     68     25     24     27
    69     69     17     15     18

Dihedrals

     1      1      4      2      1      3 
     2      2      5      3      1      2 
     3      3      7      6      3      1 
     4      4     11     10      2      1 
     5      5     16     15     11     10 
     6      6     21     20     12      4 
     7      7     22     21     20     12 
     8      8     24     22     21     20 
     9      9     28     27     24     22 
    10     10     29     28     27     24 
    11     11     32     29     28     27 
    12     12     34     33     29     28 
    13     13     31     27     24     22 
    14     14      5      4      2      1 
    15     15     20     12     11     10 
    16     16      3      5      4      2 
    17     17     14     10     11     12 
    18     18      7      6      3      5 
    19     19     35     32     29     28 
    20     20     13      5      4     12 
    21     21     13      5      3      1 
    22     22     15     11     10      2 
    23     23     31     32     29     28 
    24     24     12      4      5      3 
    25     25     13      5      4      2 
    26     26     27     24     22     26 
    27     27     25     20     12      4 
    28     28     21     20     12     11 
    29     29     37     34     35     36 
    30     30     35     32     29     33 
    31     31     27     24     25     20 
    32     32      4      5      3      1 
    33     33     25     20     21     22 
    34     34     37     34     35     32 
    35     35     19      1      3      6 
    36     36     36     35     32     31 
    37     37     10      2      4      5 
    38     38     26     22     24     25 
    39     39     11     12      4      2 
    40     40     33     29     28     27 
    41     41      6      3      1      2 
    42     42     37     34     33     29 
    43     43     17     15     11     10 
    44     44     26     22     21     20 
    45     45     35     34     33     29 
    46     46     33     29     28     30 
    47     47     20     12      4      5 
    48     48      6      3      5      4 
    49     49     27     24     22     21 
    50     50     18     15     11     12 
    51     51     16     15     11     12 
    52     52     18     15     11     10 
    53     53     25     20     12     11 
    54     54     24     25     20     12 
    55     55      8      6      3      1 
    56     56     31     27     24     25 
    57     57     23     21     20     12 
    58     58      9      6      3      5 
    59     59     34     35     32     29 
    60     60     32     31     27     24 
    61     61     33     29     32     31 
    62     62     36     35     34     33 
    63     63     12      4      2     10 
    64     64     12      4      2      1 
    65     65     10     11     12      4 
    66     66     32     31     27     28 
    67     67     28     27     24     25 
    68     68     25     24     22     21 
    69     69     15     11     12      4 
    70     70     30     28     27     24 
    71     71     10      2      1      3 
    72     72     31     27     28     30 
    73     73     34     33     29     32 
    74     74     25     20     21     23 
    75     75     22     24     25     20 
    76     76     32     29     28     30 
    77     77     13      5      3      6 
    78     78     17     15     11     12 
    79     79     34     35     32     31 
    80     80     20     12      4      2 
    81     81     15     11     10     14 
    82     82     19      1      3      5 
    83     83     19      1      2      4 
    84     84     11     12      4      5 
    85     85     36     35     32     29 
    86     86     33     34     35     32 
    87     87     14     10      2      1 
    88     88     11     10      2      4 
    89     89      9      6      3      1 
    90     90     19      1      2     10 
    91     91     29     32     31     27 
    92     92     12     11     10      2 
    93     93     24     25     20     21 
    94     94     20     12     11     15 
    95     95      8      6      3      5 
    96     96     26     22     21     23 
    97     97     35     32     31     27 
    98     98     24     22     21     23 
    99     99     14     10      2      4 
   100    100     31     27     28     29 

Impropers

     1      1      3      1      5      6 
     2      2      6      3      7      8 
     3      3      6      9      3      7 
     4      4      2      1     10      4 
     5      5      4      2     12      5 
     6      6      5      3      4     13 
     7      7     10     11     14      2 
     8      8     11     10     12     15 
     9      9     15     17     11     16 
    10     10     15     18     11     16 
    11     11      1      2     19      3 
    12     12     12      4     11     20 
    13     13     21     20     22     23 
    14     14     20     25     12     21 
    15     15     22     26     21     24 
    16     16     24     25     27     22 
    17     17     28     27     29     30 
    18     18     27     28     31     24 
    19     19     29     33     28     32 
    20     20     32     35     29     31 
    21     21     35     34     36     32 
    22     22     34     33     35     37 

