LAMMPS data file Created by LigParGen - (Written by Leela S. Dodda)

      37 atoms
      41 bonds
      69 angles
     100 dihedrals
      22 impropers
 
      37 atom types
      41 bond types
      69 angle types
     100 dihedral types
      22 improper types
 
   -4.676740    45.323260 xlo xhi
    0.092670    50.092670 ylo yhi
  -12.151530    37.848470 zlo zhi

Masses

       1     12.011  
       2     12.011  
       3     14.007  
       4     12.011  
       5     12.011  
       6     12.011  
       7     14.007  
       8     12.011  
       9     12.011  
      10      1.008  
      11      1.008  
      12      1.008  
      13     12.011  
      14      1.008  
      15      1.008  
      16      1.008  
      17     15.999  
      18     15.999  
      19      1.008  
      20     12.011  
      21     12.011  
      22     12.011  
      23      1.008  
      24     12.011  
      25      1.008  
      26     32.060  
      27     12.011  
      28     12.011  
      29     12.011  
      30      1.008  
      31     12.011  
      32     32.060  
      33     32.060  
      34     12.011  
      35     12.011  
      36      1.008  
      37      1.008  

Pair Coeffs 

       1      0.070  3.5500000 
       2      0.076  3.5500000 
       3      0.170  3.2500000 
       4      0.070  3.5500000 
       5      0.076  3.5500000 
       6      0.070  3.5500000 
       7      0.170  3.2500000 
       8      0.070  3.5500000 
       9      0.066  3.5000000 
      10      0.030  2.5000000 
      11      0.030  2.5000000 
      12      0.030  2.5000000 
      13      0.066  3.5000000 
      14      0.030  2.5000000 
      15      0.030  2.5000000 
      16      0.030  2.5000000 
      17      0.210  2.9600000 
      18      0.210  2.9600000 
      19      0.030  2.4200000 
      20      0.070  3.5500000 
      21      0.070  3.5500000 
      22      0.070  3.5500000 
      23      0.030  2.4200000 
      24      0.070  3.5500000 
      25      0.030  2.4200000 
      26      0.355  3.6000000 
      27      0.070  3.5500000 
      28      0.070  3.5500000 
      29      0.070  3.5500000 
      30      0.030  2.4200000 
      31      0.070  3.5500000 
      32      0.355  3.6000000 
      33      0.355  3.6000000 
      34      0.070  3.5500000 
      35      0.070  3.5500000 
      36      0.030  2.4200000 
      37      0.030  2.4200000 

Bond Coeffs 

       1   410.0000     1.4440 
       2   418.0000     1.3880 
       3   427.0000     1.3810 
       4   549.0000     1.3400 
       5   427.0000     1.4330 
       6   427.0000     1.3810 
       7   410.0000     1.4440 
       8   337.0000     1.4750 
       9   340.0000     1.0900 
      10   340.0000     1.0900 
      11   340.0000     1.0900 
      12   337.0000     1.4750 
      13   340.0000     1.0900 
      14   340.0000     1.0900 
      15   340.0000     1.0900 
      16   570.0000     1.2290 
      17   570.0000     1.2290 
      18   367.0000     1.0800 
      19   469.0000     1.4240 
      20   469.0000     1.4240 
      21   469.0000     1.4240 
      22   367.0000     1.0800 
      23   469.0000     1.4240 
      24   367.0000     1.0800 
      25   250.0000     1.7600 
      26   469.0000     1.4240 
      27   469.0000     1.4240 
      28   469.0000     1.4240 
      29   367.0000     1.0800 
      30   469.0000     1.4240 
      31   250.0000     1.7600 
      32   250.0000     1.7600 
      33   469.0000     1.4240 
      34   250.0000     1.7400 
      35   367.0000     1.0800 
      36   367.0000     1.0800 
      37   427.0000     1.4330 
      38   418.0000     1.3880 
      39   250.0000     1.7600 
      40   250.0000     1.7600 
      41   546.0000     1.3670 

Angle Coeffs 

       1     70.000    114.100
       2     70.000    125.200
       3     85.000    120.700
       4     85.000    120.000
       5     70.000    121.600
       6     85.000    120.700
       7     63.000    112.400
       8     35.000    109.500
       9     35.000    109.500
      10     35.000    109.500
      11     63.000    112.400
      12     35.000    109.500
      13     35.000    109.500
      14     35.000    109.500
      15     80.000    125.300
      16     80.000    125.300
      17     35.000    130.700
      18     70.000    108.700
      19     63.000    120.000
      20     63.000    120.000
      21     35.000    127.500
      22     63.000    120.000
      23     35.000    127.500
      24     85.000    119.400
      25     63.000    120.000
      26     63.000    120.000
      27     63.000    120.000
      28     35.000    127.500
      29     63.000    120.000
      30     85.000    119.400
      31     85.000    119.400
      32     63.000    120.000
      33     63.000    112.400
      34     35.000    127.500
      35     35.000    125.000
      36     85.000    119.400
      37     80.000    120.600
      38     85.000    120.000
      39     35.000    127.500
      40     85.000    119.400
      41     70.000    114.100
      42     33.000    107.800
      43     35.000    127.500
      44     63.000    120.000
      45     33.000    107.800
      46     70.000    111.170
      47     63.000    112.400
      48     35.000    127.500
      49     33.000    107.800
      50     85.000    119.400
      51     70.000    125.200
      52     63.000    112.400
      53     85.000    119.400
      54     35.000    121.600
      55     85.000    119.400
      56     85.000    117.000
      57     85.000    117.000
      58     70.000    107.300
      59     80.000    120.600
      60     33.000    107.800
      61     85.000    119.400
      62     33.000    107.800
      63     33.000    107.800
      64     63.000    112.400
      65     35.000    125.700
      66     63.000    112.400
      67     85.000    119.400
      68     35.000    132.100
      69     70.000    108.700

Dihedral Coeffs  

       1      2.300      6.089      0.000      0.000 
       2      2.000      0.000      0.000      0.000 
       3      0.000      7.250      0.000      0.000 
       4      0.000      0.000      0.000      0.000 
       5      0.000      0.000      0.000      0.000 
       6      0.000      2.170      0.000      0.000 
       7      0.000      2.170      0.000      0.000 
       8      0.000      2.170      0.000      0.000 
       9      0.000      2.170      0.000      0.000 
      10      0.000      2.170      0.000      0.000 
      11      0.000      2.170      0.000      0.000 
      12      0.000      2.170      0.000      0.000 
      13      0.000      2.170      0.000      0.000 
      14      2.000      0.000      0.000      0.000 
      15      0.000      1.300      2.200      0.000 
      16      0.000      0.000      0.000      0.000 
      17      0.000      5.000      0.000      0.000 
      18      0.000      2.170      0.000      0.000 
      19      0.000      2.170      0.000      0.000 
      20      0.000      2.170      0.000      0.000 
      21      2.500      6.000      0.000      0.000 
      22      0.000      7.250      0.000      0.000 
      23      0.000      7.250      0.000      0.000 
      24      0.000     14.000      0.000      0.000 
      25      0.000      5.000      0.000      0.000 
      26      0.000     14.000      0.000      0.000 
      27      0.000     14.000      0.000      0.000 
      28      0.000      2.170      0.000      0.000 
      29      0.000      7.250      0.000      0.000 
      30      0.000      4.900      0.000      0.000 
      31      0.000      7.250      0.000      0.000 
      32      0.000      0.000      0.000      0.000 
      33      0.000      0.000      0.000      0.000 
      34      0.000      7.250      0.000      0.000 
      35      0.000      2.170      0.000      0.000 
      36      0.000      4.900      0.000      0.000 
      37      0.000      2.170      0.000      0.000 
      38      0.000      2.170      0.000      0.000 
      39      0.000      0.000      0.000      0.000 
      40      0.000      7.250      0.000      0.000 
      41      2.000      0.000      0.000      0.000 
      42      0.000      7.250      0.000      0.000 
      43      2.500      6.000      0.000      0.000 
      44      0.000      7.250      0.000      0.000 
      45      0.000      0.000      0.000      0.000 
      46      0.000      2.170      0.000      0.000 
      47      0.000     10.750      0.000      0.000 
      48      0.000      7.250      0.000      0.000 
      49      0.000      5.000      0.000      0.000 
      50      0.000      0.000      0.000      0.000 
      51      0.000      0.000      0.000      0.000 
      52      0.000      7.250      0.000      0.000 
      53      2.000      0.000      0.000      0.000 
      54      0.000      2.170      0.000      0.000 
      55      0.000      7.250      0.000      0.000 
      56      0.000     10.750      0.000      0.000 
      57      0.000     14.000      0.000      0.000 
      58      0.000      0.000      0.000      0.000 
      59      0.000      2.170      0.000      0.000 
      60      0.000      7.250      0.000      0.000 
      61      0.000      2.170      0.000      0.000 
      62      0.000      2.170      0.000      0.000 
      63      0.000      2.100      0.000      0.000 
      64      0.000      2.170      0.000      0.000 
      65      0.000      0.000      0.000      0.000 
      66      2.300      6.089      0.000      0.000 
      67      0.000      2.170      0.000      0.000 
      68      0.000      5.000      0.000      0.000 
      69      0.000      7.250      0.000      0.000 
      70      0.000      0.000      0.000      0.000 
      71      2.000      0.000      0.000      0.000 
      72      0.000      2.170      0.000      0.000 
      73      0.000      2.170      0.000      0.000 
      74      0.000      7.250      0.000      0.000 
      75      0.000      0.000      0.000      0.000 
      76      0.000      7.250      0.000      0.000 
      77      0.000      2.170      0.000      0.000 
      78      0.000      2.170      0.000      0.000 
      79      0.000      2.170      0.000      0.000 
      80      0.000      2.170      0.000      0.000 
      81      0.000      7.250      0.000      0.000 
      82      0.000      7.250      0.000      0.000 
      83      0.000      2.170      0.000      0.000 
      84      2.500      6.000      0.000      0.000 
      85      0.000      2.170      0.000      0.000 
      86      0.000      2.170      0.000      0.000 
      87      0.000      4.900      0.000      0.000 
      88      0.000      2.170      0.000      0.000 
      89      0.000      2.170      0.000      0.000 
      90      2.000      0.000      0.000      0.000 
      91      0.000      2.170      0.000      0.000 
      92      0.000      2.170      0.000      0.000 
      93      0.000      4.900      0.000      0.000 
      94      0.000      7.250      0.000      0.000 
      95      2.500      6.000      0.000      0.000 
      96      0.000      4.900      0.000      0.000 
      97      0.000     14.000      0.000      0.000 
      98      0.000      4.900      0.000      0.000 
      99      0.000      7.250      0.000      0.000 
     100      0.000      2.170      0.000      0.000 

Improper Coeffs 

       1      2.500      -1       2 
       2      2.500      -1       2 
       3      0.000      -1       2 
       4      0.000      -1       2 
       5      0.000      -1       2 
       6      0.000      -1       2 
       7      0.000      -1       2 
       8      0.000      -1       2 
       9     10.500      -1       2 
      10     10.500      -1       2 
      11      2.500      -1       2 
      12      2.500      -1       2 
      13      2.500      -1       2 
      14      2.500      -1       2 
      15      2.500      -1       2 
      16      2.500      -1       2 
      17      2.500      -1       2 
      18      2.500      -1       2 
      19      2.500      -1       2 
      20      2.500      -1       2 
      21      2.500      -1       2 
      22      2.500      -1       2 

Atoms 

     1      1      1 0.63460000    1.000  1.00000  0.00000
     2      1      2 -0.28070000   -0.453  1.00000  0.00000
     3      1      3 -0.77370000    1.343  1.00000 -1.41083
     4      1      4 0.45050000    0.203  1.00000 -2.21758
     5      1      5 -0.31540000   -0.907  1.00000 -1.35000
     6      1      6 0.27790000   -1.565  0.99890  0.86777
     7      1      7 -0.78820000   -2.703  0.99823  0.06058
     8      1      8 0.62540000   -2.358  0.99826 -1.35000
     9      1      9 0.04050000   -4.097  0.99614  0.44550
    10      1     10 0.10930000   -4.359  1.89864  1.03597
    11      1     11 0.10930000   -4.356  0.09267  1.03581
    12      1     12 0.10930000   -4.677  0.99642 -0.49749
    13      1     13 0.03790000    2.736  1.00160 -1.79696
    14      1     14 0.10990000    3.318  1.00259 -0.85504
    15      1     15 0.10990000    2.996  1.90518 -2.38701
    16      1     16 0.10990000    2.998  0.09834 -2.38644
    17      1     17 -0.41310000    1.848  0.99887  0.89107
    18      1     18 -0.43220000   -3.207  0.99813 -2.24196
    19      1     19 0.21220000   -1.626  0.99752  1.96277
    20      1     20 -0.16700000    0.205  0.99852 -3.65237
    21      1     21 -0.09220000    1.276  0.99679 -4.56689
    22      1     22 -0.17520000    0.869  0.99407 -5.91439
    23      1     23 0.18170000    2.325  0.99872 -4.23757
    24      1     24 -0.04410000   -0.525  0.99363 -6.07078
    25      1     25 0.18530000    1.560  0.99128 -6.76894
    26      1     26 0.15510000   -1.337  0.99680 -4.52051
    27      1     27 -0.07800000   -1.289  0.99245 -7.28908
    28      1     28 -0.07710000   -2.682  0.99341 -7.43994
    29      1     29 -0.14030000   -3.059  0.99003 -8.80245
    30      1     30 0.19510000   -3.373  0.99528 -6.58685
    31      1     31 -0.12680000   -1.969  0.98645 -9.70986
    32      1     32 0.08890000   -0.448  0.99134 -8.85445
    33      1     33 0.07010000   -4.579  0.98761 -9.65790
    34      1     34 -0.10740000   -2.348  0.98151 -11.07187
    35      1     35 -0.18760000   -3.740  0.98177 -11.22354
    36      1     36 0.18630000   -1.655  0.97673 -11.92376
    37      1     37 0.19960000   -4.324  0.98012 -12.15153

Bonds 

     1      1      2      1
     2      2      3      1
     3      3      4      3
     4      4      5      2
     5      5      6      2
     6      6      7      6
     7      7      8      5
     8      8      9      7
     9      9     10      9
    10     10     11      9
    11     11     12      9
    12     12     13      3
    13     13     14     13
    14     14     15     13
    15     15     16     13
    16     16     17      1
    17     17     18      8
    18     18     19      6
    19     19     20      4
    20     20     21     20
    21     21     22     21
    22     22     23     21
    23     23     24     22
    24     24     25     22
    25     25     26     20
    26     26     27     24
    27     27     28     27
    28     28     29     28
    29     29     30     28
    30     30     31     29
    31     31     32     27
    32     32     33     29
    33     33     34     31
    34     34     35     33
    35     35     36     34
    36     36     37     35
    37     37      5      4
    38     38      8      7
    39     39     26     24
    40     40     32     31
    41     41     35     34

Angles 

     1      1      2      1      3
     2      2      1      3      4
     3      3      1      2      5
     4      4      1      2      6
     5      5      2      6      7
     6      6      2      5      8
     7      7      6      7      9
     8      8      7      9     10
     9      9      7      9     11
    10     10      7      9     12
    11     11      1      3     13
    12     12      3     13     14
    13     13      3     13     15
    14     14      3     13     16
    15     15      2      1     17
    16     16      5      8     18
    17     17      2      6     19
    18     18      3      4     20
    19     19      4     20     21
    20     20     20     21     22
    21     21     20     21     23
    22     22     21     22     24
    23     23     21     22     25
    24     24      4     20     26
    25     25     22     24     27
    26     26     24     27     28
    27     27     27     28     29
    28     28     27     28     30
    29     29     28     29     31
    30     30     24     27     32
    31     31     28     29     33
    32     32     29     31     34
    33     33     29     33     35
    34     34     31     34     36
    35     35     33     35     37
    36     36     21     20     26
    37     37      3      1     17
    38     38      4      5      8
    39     39     24     22     25
    40     40     28     27     32
    41     41      5      8      7
    42     42     15     13     16
    43     43     22     21     23
    44     44      5      4     20
    45     45     10      9     12
    46     46     33     35     34
    47     47      8      7      9
    48     48     29     28     30
    49     49     14     13     15
    50     50     22     24     26
    51     51      6      7      8
    52     52     27     32     31
    53     53     26     24     27
    54     54      7      6     19
    55     55     32     31     34
    56     56      5      2      6
    57     57      2      5      4
    58     58     31     34     35
    59     59      7      8     18
    60     60     10      9     11
    61     61     31     29     33
    62     62     11      9     12
    63     63     14     13     16
    64     64     20     26     24
    65     65     35     34     36
    66     66      4      3     13
    67     67     29     31     32
    68     68     34     35     37
    69     69      3      4      5

Dihedrals

     1      1      4      3      1      2 
     2      2      5      2      1      3 
     3      3      7      6      2      1 
     4      4     10      9      7      6 
     5      5     14     13      3      1 
     6      6     21     20      4      3 
     7      7     22     21     20      4 
     8      8     24     22     21     20 
     9      9     28     27     24     22 
    10     10     29     28     27     24 
    11     11     31     29     28     27 
    12     12     35     33     29     28 
    13     13     35     34     31     29 
    14     14      3      4      5      2 
    15     15      5      4      3      1 
    16     16     15     13      3      1 
    17     17      8      7      6      2 
    18     18     31     32     27     24 
    19     19     34     31     29     28 
    20     20     20      4      3      1 
    21     21     17      1      2      5 
    22     22     26     20     21     23 
    23     23     37     35     34     36 
    24     24      8      5      2      6 
    25     25      9      7      6      2 
    26     26      8      5      2      1 
    27     27      4      5      2      1 
    28     28     34     31     32     27 
    29     29     37     35     33     29 
    30     30     13      3      1      2 
    31     31     37     35     34     31 
    32     32     10      9      7      8 
    33     33     12      9      7      6 
    34     34     26     24     22     25 
    35     35     33     29     28     27 
    36     36      9      7      8      5 
    37     37     28     27     24     26 
    38     38     32     27     24     22 
    39     39     11      9      7      6 
    40     40     32     27     28     30 
    41     41      7      8      5      2 
    42     42     33     29     28     30 
    43     43     18      8      5      4 
    44     44     36     34     31     29 
    45     45     12      9      7      8 
    46     46     27     24     22     21 
    47     47     19      6      2      1 
    48     48     32     27     24     26 
    49     49     19      6      7      8 
    50     50     14     13      3      4 
    51     51     16     13      3      4 
    52     52     31     29     28     30 
    53     53      7      8      5      4 
    54     54     24     26     20      4 
    55     55     36     34     35     33 
    56     56     19      6      2      5 
    57     57      6      2      5      4 
    58     58     34     35     33     29 
    59     59     32     31     29     28 
    60     60     25     22     21     23 
    61     61     21     20      4      5 
    62     62     26     20      4      5 
    63     63     33     35     34     31 
    64     64     20      4      5      2 
    65     65     11      9      7      8 
    66     66      6      7      8      5 
    67     67     13      3      4      5 
    68     68     19      6      7      9 
    69     69     33     29     31     32 
    70     70     15     13      3      4 
    71     71      6      2      1      3 
    72     72     24     26     20     21 
    73     73     27     24     26     20 
    74     74     30     28     27     24 
    75     75     16     13      3      1 
    76     76     27     24     22     25 
    77     77     32     27     28     29 
    78     78     26     20     21     22 
    79     79     35     33     29     31 
    80     80     26     24     22     21 
    81     81     25     22     21     20 
    82     82     36     34     31     32 
    83     83     31     32     27     28 
    84     84     17      1      2      6 
    85     85     26     20      4      3 
    86     86     35     34     31     32 
    87     87     18      8      7      9 
    88     88     20      4      3     13 
    89     89     29     31     32     27 
    90     90      7      6      2      5 
    91     91     34     31     29     33 
    92     92     20      4      5      8 
    93     93     17      1      3      4 
    94     94     24     22     21     23 
    95     95     18      8      5      2 
    96     96     18      8      7      6 
    97     97      8      5      4      3 
    98     98     17      1      3     13 
    99     99     23     21     20      4 
   100    100     22     24     26     20 

Impropers

     1      1      2      1      5      6 
     2      2      5      2      4      8 
     3      3      7      9      6      8 
     4      4      9     10     11      7 
     5      5      9     10     12      7 
     6      6      3      1      4     13 
     7      7     13      3     14     15 
     8      8     13      3     14     16 
     9      9      1     17      3      2 
    10     10      8     18      5      7 
    11     11      6      2     19      7 
    12     12      4      3     20      5 
    13     13     21     20     22     23 
    14     14     22     25     21     24 
    15     15     20      4     26     21 
    16     16     24     26     27     22 
    17     17     28     27     29     30 
    18     18     27     28     24     32 
    19     19     29     33     28     31 
    20     20     31     34     29     32 
    21     21     34     35     36     31 
    22     22     35     33     34     37 

