LAMMPS data file Created by LigParGen - (Written by Leela S. Dodda)

      27 atoms
      29 bonds
      49 angles
      68 dihedrals
      16 impropers
 
      27 atom types
      29 bond types
      49 angle types
      68 dihedral types
      16 improper types
 
   -4.676720    45.323280 xlo xhi
    0.092720    50.092720 ylo yhi
   -6.996990    43.003010 zlo zhi

Masses

       1     12.011  
       2     12.011  
       3     14.007  
       4     12.011  
       5     12.011  
       6     12.011  
       7     14.007  
       8     12.011  
       9     12.011  
      10      1.008  
      11      1.008  
      12      1.008  
      13     12.011  
      14      1.008  
      15      1.008  
      16      1.008  
      17     15.999  
      18     15.999  
      19      1.008  
      20     12.011  
      21     12.011  
      22     12.011  
      23      1.008  
      24     12.011  
      25      1.008  
      26     32.060  
      27      1.008  

Pair Coeffs 

       1      0.070  3.5500000 
       2      0.076  3.5500000 
       3      0.170  3.2500000 
       4      0.070  3.5500000 
       5      0.076  3.5500000 
       6      0.070  3.5500000 
       7      0.170  3.2500000 
       8      0.070  3.5500000 
       9      0.066  3.5000000 
      10      0.030  2.5000000 
      11      0.030  2.5000000 
      12      0.030  2.5000000 
      13      0.066  3.5000000 
      14      0.030  2.5000000 
      15      0.030  2.5000000 
      16      0.030  2.5000000 
      17      0.210  2.9600000 
      18      0.210  2.9600000 
      19      0.030  2.4200000 
      20      0.070  3.5500000 
      21      0.070  3.5500000 
      22      0.070  3.5500000 
      23      0.030  2.4200000 
      24      0.070  3.5500000 
      25      0.030  2.4200000 
      26      0.355  3.6000000 
      27      0.030  2.4200000 

Bond Coeffs 

       1   410.0000     1.4440 
       2   418.0000     1.3880 
       3   427.0000     1.3810 
       4   549.0000     1.3400 
       5   427.0000     1.4330 
       6   427.0000     1.3810 
       7   410.0000     1.4440 
       8   337.0000     1.4750 
       9   340.0000     1.0900 
      10   340.0000     1.0900 
      11   340.0000     1.0900 
      12   337.0000     1.4750 
      13   340.0000     1.0900 
      14   340.0000     1.0900 
      15   340.0000     1.0900 
      16   570.0000     1.2290 
      17   570.0000     1.2290 
      18   367.0000     1.0800 
      19   469.0000     1.4240 
      20   469.0000     1.4240 
      21   469.0000     1.4240 
      22   367.0000     1.0800 
      23   546.0000     1.3670 
      24   367.0000     1.0800 
      25   250.0000     1.7600 
      26   367.0000     1.0800 
      27   427.0000     1.4330 
      28   418.0000     1.3880 
      29   250.0000     1.7400 

Angle Coeffs 

       1     70.000    114.100
       2     70.000    125.200
       3     85.000    120.700
       4     85.000    120.000
       5     70.000    121.600
       6     85.000    120.700
       7     63.000    112.400
       8     35.000    109.500
       9     35.000    109.500
      10     35.000    109.500
      11     63.000    112.400
      12     35.000    109.500
      13     35.000    109.500
      14     35.000    109.500
      15     80.000    125.300
      16     80.000    125.300
      17     35.000    130.700
      18     70.000    108.700
      19     63.000    120.000
      20     63.000    120.000
      21     35.000    127.500
      22     70.000    107.300
      23     35.000    127.500
      24     85.000    119.400
      25     35.000    132.100
      26     85.000    119.400
      27     80.000    120.600
      28     85.000    120.000
      29     35.000    125.700
      30     70.000    114.100
      31     33.000    107.800
      32     35.000    127.500
      33     63.000    120.000
      34     33.000    107.800
      35     63.000    112.400
      36     33.000    107.800
      37     70.000    111.170
      38     70.000    125.200
      39     35.000    125.000
      40     35.000    121.600
      41     85.000    117.000
      42     85.000    117.000
      43     80.000    120.600
      44     33.000    107.800
      45     33.000    107.800
      46     33.000    107.800
      47     63.000    112.400
      48     63.000    112.400
      49     70.000    108.700

Dihedral Coeffs  

       1      2.300      6.089      0.000      0.000 
       2      2.000      0.000      0.000      0.000 
       3      0.000      7.250      0.000      0.000 
       4      0.000      0.000      0.000      0.000 
       5      0.000      0.000      0.000      0.000 
       6      0.000      2.170      0.000      0.000 
       7      0.000      2.170      0.000      0.000 
       8      0.000      2.170      0.000      0.000 
       9      0.000      0.000      0.000      0.000 
      10      0.000      2.170      0.000      0.000 
      11      0.000      4.900      0.000      0.000 
      12      2.000      0.000      0.000      0.000 
      13      2.000      0.000      0.000      0.000 
      14      0.000      1.300      2.200      0.000 
      15      0.000     10.750      0.000      0.000 
      16      0.000      0.000      0.000      0.000 
      17      0.000     14.000      0.000      0.000 
      18      2.000      0.000      0.000      0.000 
      19      2.500      6.000      0.000      0.000 
      20      0.000      2.170      0.000      0.000 
      21      0.000      7.250      0.000      0.000 
      22      0.000      7.250      0.000      0.000 
      23      0.000      2.170      0.000      0.000 
      24      0.000      5.000      0.000      0.000 
      25      0.000      7.250      0.000      0.000 
      26      2.500      6.000      0.000      0.000 
      27      0.000      7.250      0.000      0.000 
      28      0.000      2.170      0.000      0.000 
      29      0.000      2.170      0.000      0.000 
      30      2.500      6.000      0.000      0.000 
      31      0.000      2.170      0.000      0.000 
      32      0.000      0.000      0.000      0.000 
      33      2.300      6.089      0.000      0.000 
      34      0.000      4.900      0.000      0.000 
      35      0.000      7.250      0.000      0.000 
      36      0.000      7.250      0.000      0.000 
      37      0.000      2.170      0.000      0.000 
      38      0.000      2.170      0.000      0.000 
      39      0.000     10.750      0.000      0.000 
      40      0.000      5.000      0.000      0.000 
      41      0.000     14.000      0.000      0.000 
      42      0.000      5.000      0.000      0.000 
      43      0.000      5.000      0.000      0.000 
      44      0.000     14.000      0.000      0.000 
      45      0.000      0.000      0.000      0.000 
      46      2.000      0.000      0.000      0.000 
      47      0.000      4.900      0.000      0.000 
      48      2.000      0.000      0.000      0.000 
      49      0.000      2.170      0.000      0.000 
      50      0.000      4.900      0.000      0.000 
      51      0.000      0.000      0.000      0.000 
      52      0.000      2.170      0.000      0.000 
      53      0.000      7.250      0.000      0.000 
      54      0.000     14.000      0.000      0.000 
      55      0.000      0.000      0.000      0.000 
      56      0.000      4.900      0.000      0.000 
      57      0.000      2.100      0.000      0.000 
      58      0.000      0.000      0.000      0.000 
      59      0.000      7.250      0.000      0.000 
      60      0.000      0.000      0.000      0.000 
      61      2.500      6.000      0.000      0.000 
      62      0.000      2.170      0.000      0.000 
      63      0.000     14.000      0.000      0.000 
      64      0.000      4.900      0.000      0.000 
      65      0.000      0.000      0.000      0.000 
      66      0.000      0.000      0.000      0.000 
      67      0.000      7.250      0.000      0.000 
      68      0.000      0.000      0.000      0.000 

Improper Coeffs 

       1      2.500      -1       2 
       2      2.500      -1       2 
       3      0.000      -1       2 
       4      0.000      -1       2 
       5      0.000      -1       2 
       6      0.000      -1       2 
       7      0.000      -1       2 
       8      0.000      -1       2 
       9     10.500      -1       2 
      10     10.500      -1       2 
      11      2.500      -1       2 
      12      2.500      -1       2 
      13      2.500      -1       2 
      14      2.500      -1       2 
      15      2.500      -1       2 
      16      2.500      -1       2 

Atoms 

     1      1      1 0.63450000    1.000  1.00000  0.00000
     2      1      2 -0.28130000   -0.453  1.00000  0.00000
     3      1      3 -0.77400000    1.343  1.00000 -1.41082
     4      1      4 0.45080000    0.203  1.00000 -2.21759
     5      1      5 -0.31500000   -0.907  1.00000 -1.34998
     6      1      6 0.27830000   -1.565  0.99890  0.86777
     7      1      7 -0.78950000   -2.703  0.99823  0.06055
     8      1      8 0.62520000   -2.358  0.99826 -1.34998
     9      1      9 0.04070000   -4.097  0.99614  0.44546
    10      1     10 0.10920000   -4.359  1.89865  1.03594
    11      1     11 0.10920000   -4.356  0.09272  1.03574
    12      1     12 0.10920000   -4.677  0.99642 -0.49761
    13      1     13 0.03820000    2.736  1.00160 -1.79694
    14      1     14 0.10970000    3.318  1.00259 -0.85502
    15      1     15 0.10970000    2.996  1.90517 -2.38699
    16      1     16 0.10970000    2.998  0.09825 -2.38649
    17      1     17 -0.41380000    1.848  0.99887  0.89110
    18      1     18 -0.43000000   -3.207  0.99813 -2.24200
    19      1     19 0.21190000   -1.626  0.99961  1.96278
    20      1     20 -0.16780000    0.205  1.00148 -3.65238
    21      1     21 -0.10140000    1.276  1.00321 -4.56688
    22      1     22 -0.17400000    0.869  1.00267 -5.91444
    23      1     23 0.17990000    2.325  1.00363 -4.23756
    24      1     24 -0.18760000   -0.525  1.00052 -6.07083
    25      1     25 0.18200000    1.561  1.00495 -6.76817
    26      1     26 0.13360000   -1.337  0.99930 -4.52051
    27      1     27 0.20250000   -1.112  0.99852 -6.99699

Bonds 

     1      1      2      1
     2      2      3      1
     3      3      4      3
     4      4      5      2
     5      5      6      2
     6      6      7      6
     7      7      8      5
     8      8      9      7
     9      9     10      9
    10     10     11      9
    11     11     12      9
    12     12     13      3
    13     13     14     13
    14     14     15     13
    15     15     16     13
    16     16     17      1
    17     17     18      8
    18     18     19      6
    19     19     20      4
    20     20     21     20
    21     21     22     21
    22     22     23     21
    23     23     24     22
    24     24     25     22
    25     25     26     20
    26     26     27     24
    27     27      5      4
    28     28      8      7
    29     29     26     24

Angles 

     1      1      2      1      3
     2      2      1      3      4
     3      3      1      2      5
     4      4      1      2      6
     5      5      2      6      7
     6      6      2      5      8
     7      7      6      7      9
     8      8      7      9     10
     9      9      7      9     11
    10     10      7      9     12
    11     11      1      3     13
    12     12      3     13     14
    13     13      3     13     15
    14     14      3     13     16
    15     15      2      1     17
    16     16      5      8     18
    17     17      2      6     19
    18     18      3      4     20
    19     19      4     20     21
    20     20     20     21     22
    21     21     20     21     23
    22     22     21     22     24
    23     23     21     22     25
    24     24      4     20     26
    25     25     22     24     27
    26     26     21     20     26
    27     27      3      1     17
    28     28      4      5      8
    29     29     24     22     25
    30     30      5      8      7
    31     31     15     13     16
    32     32     22     21     23
    33     33      5      4     20
    34     34     10      9     12
    35     35      8      7      9
    36     36     14     13     15
    37     37     22     24     26
    38     38      6      7      8
    39     39     26     24     27
    40     40      7      6     19
    41     41      5      2      6
    42     42      2      5      4
    43     43      7      8     18
    44     44     10      9     11
    45     45     11      9     12
    46     46     14     13     16
    47     47     20     26     24
    48     48      4      3     13
    49     49      3      4      5

Dihedrals

     1      1      4      3      1      2 
     2      2      5      2      1      3 
     3      3      7      6      2      1 
     4      4     10      9      7      6 
     5      5     14     13      3      1 
     6      6     21     20      4      3 
     7      7     22     21     20      4 
     8      8     24     22     21     20 
     9      9     12      9      7      8 
    10     10     24     26     20      4 
    11     11      9      7      8      5 
    12     12      7      6      2      5 
    13     13      3      4      5      2 
    14     14      5      4      3      1 
    15     15     19      6      2      5 
    16     16     15     13      3      1 
    17     17      6      2      5      4 
    18     18      7      8      5      2 
    19     19     17      1      2      6 
    20     20     20      4      5      8 
    21     21     25     22     21     20 
    22     22     25     22     21     23 
    23     23     26     20      4      3 
    24     24      8      7      6      2 
    25     25     27     24     22     21 
    26     26     18      8      5      4 
    27     27     24     22     21     23 
    28     28     21     20      4      5 
    29     29     20      4      3      1 
    30     30     17      1      2      5 
    31     31     20      4      5      2 
    32     32     11      9      7      8 
    33     33      6      7      8      5 
    34     34     18      8      7      9 
    35     35     26     20     21     23 
    36     36     26     24     22     25 
    37     37     20      4      3     13 
    38     38     13      3      4      5 
    39     39     19      6      2      1 
    40     40     19      6      7      8 
    41     41      8      5      2      6 
    42     42     19      6      7      9 
    43     43      9      7      6      2 
    44     44      8      5      2      1 
    45     45     15     13      3      4 
    46     46      7      8      5      4 
    47     47     18      8      7      6 
    48     48      6      2      1      3 
    49     49     24     26     20     21 
    50     50     17      1      3      4 
    51     51     14     13      3      4 
    52     52     26     20     21     22 
    53     53     27     24     26     20 
    54     54      4      5      2      1 
    55     55     16     13      3      1 
    56     56     13      3      1      2 
    57     57     26     24     22     21 
    58     58     16     13      3      4 
    59     59     27     24     22     25 
    60     60     11      9      7      6 
    61     61     18      8      5      2 
    62     62     26     20      4      5 
    63     63      8      5      4      3 
    64     64     17      1      3     13 
    65     65     10      9      7      8 
    66     66     12      9      7      6 
    67     67     23     21     20      4 
    68     68     22     24     26     20 

Impropers

     1      1      2      1      5      6 
     2      2      5      2      4      8 
     3      3      7      9      6      8 
     4      4      9     10     11      7 
     5      5      9     10     12      7 
     6      6      3      1      4     13 
     7      7     13      3     14     15 
     8      8     13      3     14     16 
     9      9      1     17      3      2 
    10     10      8     18      5      7 
    11     11      6      2     19      7 
    12     12      4      3     20      5 
    13     13     21     20     22     23 
    14     14     22     25     21     24 
    15     15     20      4     26     21 
    16     16     24     26     27     22 

