LAMMPS data file Created by LigParGen - (Written by Leela S. Dodda)

     146 atoms
     149 bonds
     288 angles
     430 dihedrals
      96 impropers
 
     146 atom types
     149 bond types
     288 angle types
     430 dihedral types
      96 improper types
 
  -14.872800    35.127200 xlo xhi
   -0.444000    49.556000 ylo yhi
  -16.926640    33.073360 zlo zhi

Masses

       1     12.011  
       2     12.011  
       3     14.007  
       4     12.011  
       5     12.011  
       6     12.011  
       7     15.999  
       8     15.999  
       9     12.011  
      10     12.011  
      11     12.011  
      12     12.011  
      13      1.008  
      14     12.011  
      15     12.011  
      16     12.011  
      17      1.008  
      18     12.011  
      19     12.011  
      20     14.007  
      21     15.999  
      22     15.999  
      23     12.011  
      24     12.011  
      25      1.008  
      26      1.008  
      27     12.011  
      28     12.011  
      29      1.008  
      30      1.008  
      31     12.011  
      32      1.008  
      33      1.008  
      34     12.011  
      35      1.008  
      36      1.008  
      37     12.011  
      38      1.008  
      39      1.008  
      40     12.011  
      41      1.008  
      42      1.008  
      43     12.011  
      44      1.008  
      45      1.008  
      46     12.011  
      47      1.008  
      48      1.008  
      49      1.008  
      50      1.008  
      51      1.008  
      52     12.011  
      53      1.008  
      54     12.011  
      55      1.008  
      56      1.008  
      57     12.011  
      58      1.008  
      59      1.008  
      60     12.011  
      61      1.008  
      62      1.008  
      63     12.011  
      64      1.008  
      65      1.008  
      66     12.011  
      67      1.008  
      68      1.008  
      69     12.011  
      70      1.008  
      71      1.008  
      72     12.011  
      73      1.008  
      74      1.008  
      75     12.011  
      76      1.008  
      77      1.008  
      78     12.011  
      79      1.008  
      80      1.008  
      81      1.008  
      82      1.008  
      83      1.008  
      84     12.011  
      85     12.011  
      86      1.008  
      87      1.008  
      88     12.011  
      89     12.011  
      90      1.008  
      91      1.008  
      92     12.011  
      93      1.008  
      94      1.008  
      95     12.011  
      96      1.008  
      97      1.008  
      98     12.011  
      99      1.008  
     100      1.008  
     101     12.011  
     102      1.008  
     103      1.008  
     104     12.011  
     105      1.008  
     106      1.008  
     107     12.011  
     108      1.008  
     109      1.008  
     110      1.008  
     111      1.008  
     112      1.008  
     113     12.011  
     114      1.008  
     115     12.011  
     116      1.008  
     117      1.008  
     118     12.011  
     119      1.008  
     120      1.008  
     121     12.011  
     122      1.008  
     123      1.008  
     124     12.011  
     125      1.008  
     126      1.008  
     127     12.011  
     128      1.008  
     129      1.008  
     130     12.011  
     131      1.008  
     132      1.008  
     133     12.011  
     134      1.008  
     135      1.008  
     136     12.011  
     137      1.008  
     138      1.008  
     139     12.011  
     140      1.008  
     141      1.008  
     142      1.008  
     143      1.008  
     144      1.008  
     145      1.008  
     146      1.008  

Pair Coeffs 

       1      0.070  3.5500000 
       2      0.080  3.5000000 
       3      0.170  3.2500000 
       4      0.070  3.5500000 
       5      0.080  3.5000000 
       6      0.080  3.5000000 
       7      0.210  2.9600000 
       8      0.210  2.9600000 
       9      0.076  3.5500000 
      10      0.076  3.5500000 
      11      0.080  3.5000000 
      12      0.076  3.5500000 
      13      0.030  2.4200000 
      14      0.076  3.5500000 
      15      0.080  3.5000000 
      16      0.080  3.5000000 
      17      0.030  2.4200000 
      18      0.070  3.5500000 
      19      0.070  3.5500000 
      20      0.170  3.2500000 
      21      0.210  2.9600000 
      22      0.210  2.9600000 
      23      0.066  3.5000000 
      24      0.066  3.5000000 
      25      0.030  2.5000000 
      26      0.030  2.5000000 
      27      0.066  3.5000000 
      28      0.066  3.5000000 
      29      0.030  2.5000000 
      30      0.030  2.5000000 
      31      0.066  3.5000000 
      32      0.030  2.5000000 
      33      0.030  2.5000000 
      34      0.066  3.5000000 
      35      0.030  2.5000000 
      36      0.030  2.5000000 
      37      0.066  3.5000000 
      38      0.030  2.5000000 
      39      0.030  2.5000000 
      40      0.066  3.5000000 
      41      0.030  2.5000000 
      42      0.030  2.5000000 
      43      0.066  3.5000000 
      44      0.030  2.5000000 
      45      0.030  2.5000000 
      46      0.066  3.5000000 
      47      0.030  2.5000000 
      48      0.030  2.5000000 
      49      0.030  2.5000000 
      50      0.030  2.5000000 
      51      0.030  2.5000000 
      52      0.066  3.5000000 
      53      0.030  2.5000000 
      54      0.066  3.5000000 
      55      0.030  2.5000000 
      56      0.030  2.5000000 
      57      0.066  3.5000000 
      58      0.030  2.5000000 
      59      0.030  2.5000000 
      60      0.066  3.5000000 
      61      0.030  2.5000000 
      62      0.030  2.5000000 
      63      0.066  3.5000000 
      64      0.030  2.5000000 
      65      0.030  2.5000000 
      66      0.066  3.5000000 
      67      0.030  2.5000000 
      68      0.030  2.5000000 
      69      0.066  3.5000000 
      70      0.030  2.5000000 
      71      0.030  2.5000000 
      72      0.066  3.5000000 
      73      0.030  2.5000000 
      74      0.030  2.5000000 
      75      0.066  3.5000000 
      76      0.030  2.5000000 
      77      0.030  2.5000000 
      78      0.066  3.5000000 
      79      0.030  2.5000000 
      80      0.030  2.5000000 
      81      0.030  2.5000000 
      82      0.030  2.5000000 
      83      0.030  2.5000000 
      84      0.066  3.5000000 
      85      0.066  3.5000000 
      86      0.030  2.5000000 
      87      0.030  2.5000000 
      88      0.066  3.5000000 
      89      0.066  3.5000000 
      90      0.030  2.5000000 
      91      0.030  2.5000000 
      92      0.066  3.5000000 
      93      0.030  2.5000000 
      94      0.030  2.5000000 
      95      0.066  3.5000000 
      96      0.030  2.5000000 
      97      0.030  2.5000000 
      98      0.066  3.5000000 
      99      0.030  2.5000000 
     100      0.030  2.5000000 
     101      0.066  3.5000000 
     102      0.030  2.5000000 
     103      0.030  2.5000000 
     104      0.066  3.5000000 
     105      0.030  2.5000000 
     106      0.030  2.5000000 
     107      0.066  3.5000000 
     108      0.030  2.5000000 
     109      0.030  2.5000000 
     110      0.030  2.5000000 
     111      0.030  2.5000000 
     112      0.030  2.5000000 
     113      0.066  3.5000000 
     114      0.030  2.5000000 
     115      0.066  3.5000000 
     116      0.030  2.5000000 
     117      0.030  2.5000000 
     118      0.066  3.5000000 
     119      0.030  2.5000000 
     120      0.030  2.5000000 
     121      0.066  3.5000000 
     122      0.030  2.5000000 
     123      0.030  2.5000000 
     124      0.066  3.5000000 
     125      0.030  2.5000000 
     126      0.030  2.5000000 
     127      0.066  3.5000000 
     128      0.030  2.5000000 
     129      0.030  2.5000000 
     130      0.066  3.5000000 
     131      0.030  2.5000000 
     132      0.030  2.5000000 
     133      0.066  3.5000000 
     134      0.030  2.5000000 
     135      0.030  2.5000000 
     136      0.066  3.5000000 
     137      0.030  2.5000000 
     138      0.030  2.5000000 
     139      0.066  3.5000000 
     140      0.030  2.5000000 
     141      0.030  2.5000000 
     142      0.030  2.5000000 
     143      0.030  2.5000000 
     144      0.030  2.5000000 
     145      0.030  2.4200000 
     146      0.030  2.4200000 

Bond Coeffs 

       1   447.0000     1.4190 
       2   418.0000     1.3880 
       3   418.0000     1.3880 
       4   447.0000     1.4190 
       5   520.0000     1.3700 
       6   570.0000     1.2290 
       7   570.0000     1.2290 
       8   427.0000     1.4330 
       9   427.0000     1.4330 
      10   520.0000     1.3700 
      11   549.0000     1.3450 
      12   412.5200     1.0500 
      13   549.0000     1.3450 
      14   520.0000     1.3700 
      15   520.0000     1.3700 
      16   412.5200     1.0500 
      17   447.0000     1.4190 
      18   447.0000     1.4190 
      19   418.0000     1.3880 
      20   570.0000     1.2290 
      21   570.0000     1.2290 
      22   337.0000     1.4750 
      23   268.0000     1.5290 
      24   340.0000     1.0900 
      25   340.0000     1.0900 
      26   268.0000     1.5290 
      27   268.0000     1.5290 
      28   340.0000     1.0900 
      29   340.0000     1.0900 
      30   268.0000     1.5290 
      31   340.0000     1.0900 
      32   340.0000     1.0900 
      33   268.0000     1.5290 
      34   340.0000     1.0900 
      35   340.0000     1.0900 
      36   268.0000     1.5290 
      37   340.0000     1.0900 
      38   340.0000     1.0900 
      39   268.0000     1.5290 
      40   340.0000     1.0900 
      41   340.0000     1.0900 
      42   268.0000     1.5290 
      43   340.0000     1.0900 
      44   340.0000     1.0900 
      45   268.0000     1.5290 
      46   340.0000     1.0900 
      47   340.0000     1.0900 
      48   340.0000     1.0900 
      49   340.0000     1.0900 
      50   340.0000     1.0900 
      51   268.0000     1.5290 
      52   340.0000     1.0900 
      53   268.0000     1.5290 
      54   340.0000     1.0900 
      55   340.0000     1.0900 
      56   268.0000     1.5290 
      57   340.0000     1.0900 
      58   340.0000     1.0900 
      59   268.0000     1.5290 
      60   340.0000     1.0900 
      61   340.0000     1.0900 
      62   268.0000     1.5290 
      63   340.0000     1.0900 
      64   340.0000     1.0900 
      65   268.0000     1.5290 
      66   340.0000     1.0900 
      67   340.0000     1.0900 
      68   268.0000     1.5290 
      69   340.0000     1.0900 
      70   340.0000     1.0900 
      71   268.0000     1.5290 
      72   340.0000     1.0900 
      73   340.0000     1.0900 
      74   268.0000     1.5290 
      75   340.0000     1.0900 
      76   340.0000     1.0900 
      77   268.0000     1.5290 
      78   340.0000     1.0900 
      79   340.0000     1.0900 
      80   340.0000     1.0900 
      81   340.0000     1.0900 
      82   340.0000     1.0900 
      83   337.0000     1.4750 
      84   268.0000     1.5290 
      85   340.0000     1.0900 
      86   340.0000     1.0900 
      87   268.0000     1.5290 
      88   268.0000     1.5290 
      89   340.0000     1.0900 
      90   340.0000     1.0900 
      91   268.0000     1.5290 
      92   340.0000     1.0900 
      93   340.0000     1.0900 
      94   268.0000     1.5290 
      95   340.0000     1.0900 
      96   340.0000     1.0900 
      97   268.0000     1.5290 
      98   340.0000     1.0900 
      99   340.0000     1.0900 
     100   268.0000     1.5290 
     101   340.0000     1.0900 
     102   340.0000     1.0900 
     103   268.0000     1.5290 
     104   340.0000     1.0900 
     105   340.0000     1.0900 
     106   268.0000     1.5290 
     107   340.0000     1.0900 
     108   340.0000     1.0900 
     109   340.0000     1.0900 
     110   340.0000     1.0900 
     111   340.0000     1.0900 
     112   268.0000     1.5290 
     113   340.0000     1.0900 
     114   268.0000     1.5290 
     115   340.0000     1.0900 
     116   340.0000     1.0900 
     117   268.0000     1.5290 
     118   340.0000     1.0900 
     119   340.0000     1.0900 
     120   268.0000     1.5290 
     121   340.0000     1.0900 
     122   340.0000     1.0900 
     123   268.0000     1.5290 
     124   340.0000     1.0900 
     125   340.0000     1.0900 
     126   268.0000     1.5290 
     127   340.0000     1.0900 
     128   340.0000     1.0900 
     129   268.0000     1.5290 
     130   340.0000     1.0900 
     131   340.0000     1.0900 
     132   268.0000     1.5290 
     133   340.0000     1.0900 
     134   340.0000     1.0900 
     135   268.0000     1.5290 
     136   340.0000     1.0900 
     137   340.0000     1.0900 
     138   268.0000     1.5290 
     139   340.0000     1.0900 
     140   340.0000     1.0900 
     141   340.0000     1.0900 
     142   340.0000     1.0900 
     143   340.0000     1.0900 
     144   412.5200     1.0500 
     145   412.5200     1.0500 
     146   520.0000     1.3700 
     147   427.0000     1.4330 
     148   427.0000     1.4330 
     149   418.0000     1.3880 

Angle Coeffs 

       1     70.000    111.300
       2     70.000    126.400
       3     70.000    111.300
       4     85.000    119.200
       5     80.000    128.800
       6     80.000    120.600
       7     77.270    119.730
       8     77.270    119.730
       9     85.000    117.300
      10     85.000    117.000
      11     60.000    122.260
      12     85.000    117.000
      13     85.000    117.300
      14     85.000    117.300
      15     60.000    122.260
      16     85.000    119.200
      17     85.000    119.200
      18     70.000    111.300
      19     80.000    128.800
      20     80.000    128.800
      21     63.000    112.400
      22     51.650    110.580
      23     35.000    109.500
      24     35.000    109.500
      25     58.350    112.700
      26     58.350    112.700
      27     37.500    110.700
      28     37.500    110.700
      29     58.350    112.700
      30     37.500    110.700
      31     37.500    110.700
      32     58.350    112.700
      33     37.500    110.700
      34     37.500    110.700
      35     58.350    112.700
      36     37.500    110.700
      37     37.500    110.700
      38     58.350    112.700
      39     37.500    110.700
      40     37.500    110.700
      41     58.350    112.700
      42     37.500    110.700
      43     37.500    110.700
      44     58.350    112.700
      45     37.500    110.700
      46     37.500    110.700
      47     37.500    110.700
      48     37.500    110.700
      49     37.500    110.700
      50     58.350    112.700
      51     37.500    110.700
      52     58.350    112.700
      53     37.500    110.700
      54     37.500    110.700
      55     58.350    112.700
      56     37.500    110.700
      57     37.500    110.700
      58     58.350    112.700
      59     37.500    110.700
      60     37.500    110.700
      61     58.350    112.700
      62     37.500    110.700
      63     37.500    110.700
      64     58.350    112.700
      65     37.500    110.700
      66     37.500    110.700
      67     58.350    112.700
      68     37.500    110.700
      69     37.500    110.700
      70     58.350    112.700
      71     37.500    110.700
      72     37.500    110.700
      73     58.350    112.700
      74     37.500    110.700
      75     37.500    110.700
      76     58.350    112.700
      77     37.500    110.700
      78     37.500    110.700
      79     37.500    110.700
      80     37.500    110.700
      81     37.500    110.700
      82     63.000    112.400
      83     51.650    110.580
      84     35.000    109.500
      85     35.000    109.500
      86     58.350    112.700
      87     58.350    112.700
      88     37.500    110.700
      89     37.500    110.700
      90     58.350    112.700
      91     37.500    110.700
      92     37.500    110.700
      93     58.350    112.700
      94     37.500    110.700
      95     37.500    110.700
      96     58.350    112.700
      97     37.500    110.700
      98     37.500    110.700
      99     58.350    112.700
     100     37.500    110.700
     101     37.500    110.700
     102     58.350    112.700
     103     37.500    110.700
     104     37.500    110.700
     105     58.350    112.700
     106     37.500    110.700
     107     37.500    110.700
     108     37.500    110.700
     109     37.500    110.700
     110     37.500    110.700
     111     58.350    112.700
     112     37.500    110.700
     113     58.350    112.700
     114     37.500    110.700
     115     37.500    110.700
     116     58.350    112.700
     117     37.500    110.700
     118     37.500    110.700
     119     58.350    112.700
     120     37.500    110.700
     121     37.500    110.700
     122     58.350    112.700
     123     37.500    110.700
     124     37.500    110.700
     125     58.350    112.700
     126     37.500    110.700
     127     37.500    110.700
     128     58.350    112.700
     129     37.500    110.700
     130     37.500    110.700
     131     58.350    112.700
     132     37.500    110.700
     133     37.500    110.700
     134     58.350    112.700
     135     37.500    110.700
     136     37.500    110.700
     137     58.350    112.700
     138     37.500    110.700
     139     37.500    110.700
     140     37.500    110.700
     141     37.500    110.700
     142     37.500    110.700
     143     60.000    122.260
     144     60.000    122.260
     145     37.500    110.700
     146     60.000    122.260
     147     33.000    107.800
     148     37.500    110.700
     149     37.500    110.700
     150     37.500    110.700
     151     37.500    110.700
     152     37.500    110.700
     153     63.000    112.400
     154     70.000    124.000
     155     37.500    110.700
     156     37.500    110.700
     157     33.000    107.800
     158     63.000    112.400
     159     33.000    107.800
     160     37.500    110.700
     161     33.000    107.800
     162     37.500    110.700
     163     33.000    107.800
     164     33.000    107.800
     165     58.350    112.700
     166     37.500    110.700
     167     33.000    107.800
     168     37.500    110.700
     169     33.000    107.800
     170     80.000    120.600
     171     37.500    110.700
     172     70.000    111.300
     173     33.000    107.800
     174     33.000    107.800
     175     33.000    107.800
     176     33.000    107.800
     177     60.000    122.260
     178     37.500    110.700
     179     37.500    110.700
     180     37.500    110.700
     181     33.000    107.800
     182     33.000    107.800
     183     37.500    110.700
     184     37.500    110.700
     185     37.500    110.700
     186     37.500    110.700
     187     70.000    124.000
     188     33.000    107.800
     189     37.500    110.700
     190     37.500    110.700
     191     33.000    107.800
     192     33.000    107.800
     193     37.500    110.700
     194     33.000    107.800
     195     77.270    119.730
     196     33.000    107.800
     197     37.500    110.700
     198     80.000    128.800
     199     37.500    110.700
     200     33.000    107.800
     201     37.500    110.700
     202     33.000    107.800
     203     33.000    107.800
     204     33.000    107.800
     205     33.000    107.800
     206     85.000    117.000
     207     37.500    110.700
     208     37.500    110.700
     209     37.500    110.700
     210     33.000    107.800
     211     33.000    107.800
     212     37.500    110.700
     213     37.500    110.700
     214     37.500    110.700
     215     37.500    110.700
     216     37.500    110.700
     217     33.000    107.800
     218     37.500    110.700
     219     80.000    120.600
     220     70.000    124.000
     221     33.000    107.800
     222     37.500    110.700
     223     33.000    107.800
     224     37.500    110.700
     225     37.500    110.700
     226     33.000    107.800
     227     33.000    107.800
     228     33.000    107.800
     229     33.000    107.800
     230     33.000    107.800
     231     37.500    110.700
     232     60.000    122.260
     233     37.500    110.700
     234     85.000    117.300
     235     33.000    107.800
     236     37.500    110.700
     237     33.000    107.800
     238     37.500    110.700
     239     37.500    110.700
     240     37.500    110.700
     241     70.000    124.000
     242     37.500    110.700
     243     37.500    110.700
     244     37.500    110.700
     245     33.000    107.800
     246     33.000    107.800
     247     37.500    110.700
     248     37.500    110.700
     249     33.000    107.800
     250     70.000    126.400
     251     37.500    110.700
     252     37.500    110.700
     253     77.270    119.730
     254     37.500    110.700
     255     33.000    107.800
     256     37.500    110.700
     257     80.000    120.600
     258     37.500    110.700
     259     33.000    107.800
     260     37.500    110.700
     261     37.500    110.700
     262     37.500    110.700
     263     85.000    119.200
     264     37.500    110.700
     265     37.500    110.700
     266     37.500    110.700
     267     37.500    110.700
     268     33.000    107.800
     269     60.000    122.260
     270     37.500    110.700
     271     37.500    110.700
     272     33.000    107.800
     273     33.000    107.800
     274     37.500    110.700
     275     33.000    107.800
     276     37.500    110.700
     277     37.500    110.700
     278     85.000    117.000
     279     37.500    110.700
     280     37.500    110.700
     281     85.000    117.300
     282     85.000    117.300
     283     33.000    107.800
     284     37.500    110.700
     285     37.500    110.700
     286     58.350    112.700
     287     37.500    110.700
     288     37.500    110.700

Dihedral Coeffs  

       1      0.000      4.900      0.000      0.000 
       2      0.000      4.900      0.000      0.000 
       3      0.000      7.000      0.000      0.000 
       4      0.000      0.000     -0.372      0.000 
       5      0.000      0.000     -0.372      0.000 
       6      0.000      7.250      0.000      0.000 
       7      0.000      7.000      0.000      0.000 
       8      0.000      0.462      0.000      0.000 
       9      2.392     -0.674      0.550      0.000 
      10      1.300     -0.200      0.200      0.000 
      11      1.300     -0.200      0.200      0.000 
      12      1.300     -0.200      0.200      0.000 
      13      1.300     -0.200      0.200      0.000 
      14      1.300     -0.200      0.200      0.000 
      15      1.300     -0.200      0.200      0.000 
      16      1.300     -0.200      0.200      0.000 
      17      0.000      0.000      0.300      0.000 
      18      1.300     -0.200      0.200      0.000 
      19      1.300     -0.200      0.200      0.000 
      20      1.300     -0.200      0.200      0.000 
      21      1.300     -0.200      0.200      0.000 
      22      1.300     -0.200      0.200      0.000 
      23      1.300     -0.200      0.200      0.000 
      24      1.300     -0.200      0.200      0.000 
      25      1.300     -0.200      0.200      0.000 
      26      1.300     -0.200      0.200      0.000 
      27      0.000      0.000      0.300      0.000 
      28      0.000      0.462      0.000      0.000 
      29      2.392     -0.674      0.550      0.000 
      30      1.300     -0.200      0.200      0.000 
      31      1.300     -0.200      0.200      0.000 
      32      1.300     -0.200      0.200      0.000 
      33      1.300     -0.200      0.200      0.000 
      34      1.300     -0.200      0.200      0.000 
      35      1.300     -0.200      0.200      0.000 
      36      1.300     -0.200      0.200      0.000 
      37      0.000      0.000      0.300      0.000 
      38      1.300     -0.200      0.200      0.000 
      39      1.300     -0.200      0.200      0.000 
      40      1.300     -0.200      0.200      0.000 
      41      1.300     -0.200      0.200      0.000 
      42      1.300     -0.200      0.200      0.000 
      43      1.300     -0.200      0.200      0.000 
      44      1.300     -0.200      0.200      0.000 
      45      1.300     -0.200      0.200      0.000 
      46      1.300     -0.200      0.200      0.000 
      47      0.000      0.000      0.300      0.000 
      48      0.000      0.000      0.300      0.000 
      49      0.000      0.000      0.300      0.000 
      50      0.000      0.000      0.300      0.000 
      51      0.000      7.250      0.000      0.000 
      52      0.000      0.000      0.300      0.000 
      53      0.000      0.000      0.300      0.000 
      54      0.000      0.000      0.300      0.000 
      55      0.000      0.000      0.300      0.000 
      56      0.000      0.000      0.300      0.000 
      57      0.000      0.000      0.300      0.000 
      58      0.000      0.000      0.300      0.000 
      59      0.000      0.000      0.300      0.000 
      60      0.000      4.900      0.000      0.000 
      61      0.000      0.000      0.300      0.000 
      62      0.000      0.000      0.300      0.000 
      63      0.000      0.000      0.300      0.000 
      64      0.000      0.000      0.300      0.000 
      65      0.000      7.000      0.000      0.000 
      66      0.000      0.000      0.300      0.000 
      67      0.000     14.000      0.000      0.000 
      68      0.000      0.000      0.300      0.000 
      69      1.300     -0.200      0.200      0.000 
      70      0.000      0.000      0.300      0.000 
      71      0.000      0.000      0.300      0.000 
      72      0.000      0.000      0.300      0.000 
      73      0.000      0.000      0.300      0.000 
      74      0.000      0.000      0.300      0.000 
      75      0.000      0.000      0.300      0.000 
      76      0.000      0.000      0.300      0.000 
      77      0.000      0.000      0.300      0.000 
      78      0.000      0.000      0.300      0.000 
      79      0.000     14.000      0.000      0.000 
      80      0.000      0.000      0.300      0.000 
      81      0.000      0.000      0.300      0.000 
      82      0.000      7.000      0.000      0.000 
      83      0.000      0.000      0.300      0.000 
      84      0.000      4.900      0.000      0.000 
      85      0.000      0.000      0.300      0.000 
      86      0.000      0.000      0.300      0.000 
      87      0.000      0.000      0.300      0.000 
      88      0.000      0.000      0.300      0.000 
      89      0.000      0.000      0.300      0.000 
      90      0.000      0.000     -0.372      0.000 
      91      0.000      0.000      0.300      0.000 
      92      0.000      0.000     -0.372      0.000 
      93      0.000      7.000      0.000      0.000 
      94      0.000      7.000      0.000      0.000 
      95      0.000      0.000      0.300      0.000 
      96      0.000      0.000      0.300      0.000 
      97      0.000      0.000      0.300      0.000 
      98      0.000      0.000      0.300      0.000 
      99      0.000      0.462      0.000      0.000 
     100      1.300     -0.200      0.200      0.000 
     101      0.000      0.000      0.300      0.000 
     102      0.000      0.000     -0.372      0.000 
     103      0.000      0.000      0.300      0.000 
     104      0.000      4.900      0.000      0.000 
     105      0.000      0.000      0.000      0.000 
     106      1.300     -0.200      0.200      0.000 
     107      0.000      0.000      0.300      0.000 
     108      0.000      7.250      0.000      0.000 
     109      0.000      0.000      0.300      0.000 
     110      0.000      0.000     -0.372      0.000 
     111      0.000      0.000      0.000      0.000 
     112      0.000      0.000      0.000      0.000 
     113      0.000      0.000      0.300      0.000 
     114      0.000      0.000      0.300      0.000 
     115      0.000      0.000      0.300      0.000 
     116      0.000      0.000      0.300      0.000 
     117      0.000      0.000      0.300      0.000 
     118      0.000      4.900      0.000      0.000 
     119      0.000      0.000      0.300      0.000 
     120      0.000      0.000      0.300      0.000 
     121      0.000      0.000      0.300      0.000 
     122      0.000      0.000      0.000      0.000 
     123      0.000      0.000      0.300      0.000 
     124      0.000      0.000      0.300      0.000 
     125      0.000      0.000      0.300      0.000 
     126      0.000      0.000      0.300      0.000 
     127      0.000      0.000      0.300      0.000 
     128      0.000      0.000      0.300      0.000 
     129      0.000      0.000      0.300      0.000 
     130      0.000      0.000      0.300      0.000 
     131      0.000      0.000      0.300      0.000 
     132      0.000      0.000      0.300      0.000 
     133      0.000      0.000      0.300      0.000 
     134      0.000      0.000      0.300      0.000 
     135      0.000      7.250      0.000      0.000 
     136      0.000      0.000      0.300      0.000 
     137      0.000      7.250      0.000      0.000 
     138      0.000      0.000      0.300      0.000 
     139      0.000      0.000      0.300      0.000 
     140      0.000      0.000      0.300      0.000 
     141      0.000      0.000     -0.372      0.000 
     142      0.000      0.000      0.300      0.000 
     143      0.000      0.000      0.300      0.000 
     144      0.000      0.000      0.300      0.000 
     145      0.000      0.000      0.300      0.000 
     146      0.000      0.000      0.300      0.000 
     147      0.000      0.000      0.300      0.000 