LAMMPS data file Created by LigParGen - (Written by Leela S. Dodda)

      39 atoms
      43 bonds
      73 angles
     108 dihedrals
      24 impropers
 
      39 atom types
      43 bond types
      73 angle types
     108 dihedral types
      24 improper types
 
   -7.983000    42.017000 xlo xhi
   -0.320770    49.679230 ylo yhi
   -6.981790    43.018210 zlo zhi

Masses

       1     12.011  
       2     12.011  
       3     12.011  
       4      1.008  
       5     12.011  
       6     12.011  
       7     12.011  
       8     12.011  
       9     12.011  
      10     12.011  
      11     12.011  
      12      1.008  
      13     12.011  
      14     14.007  
      15     12.011  
      16     12.011  
      17     12.011  
      18     14.007  
      19     15.999  
      20     15.999  
      21     15.999  
      22     15.999  
      23     12.011  
      24      1.008  
      25      1.008  
      26      1.008  
      27     12.011  
      28      1.008  
      29      1.008  
      30      1.008  
      31      1.008  
      32     12.011  
      33     12.011  
      34     12.011  
      35      1.008  
      36     12.011  
      37      1.008  
      38     32.060  
      39      1.008  

Pair Coeffs 

       1      0.076  3.5500000 
       2      0.080  3.5000000 
       3      0.076  3.5500000 
       4      0.030  2.4200000 
       5      0.080  3.5000000 
       6      0.080  3.5000000 
       7      0.080  3.5000000 
       8      0.080  3.5000000 
       9      0.080  3.5000000 
      10      0.076  3.5500000 
      11      0.070  3.5500000 
      12      0.030  2.4200000 
      13      0.070  3.5500000 
      14      0.170  3.2500000 
      15      0.070  3.5500000 
      16      0.070  3.5500000 
      17      0.070  3.5500000 
      18      0.170  3.2500000 
      19      0.210  2.9600000 
      20      0.210  2.9600000 
      21      0.210  2.9600000 
      22      0.210  2.9600000 
      23      0.066  3.5000000 
      24      0.030  2.5000000 
      25      0.030  2.5000000 
      26      0.030  2.5000000 
      27      0.066  3.5000000 
      28      0.030  2.5000000 
      29      0.030  2.5000000 
      30      0.030  2.5000000 
      31      0.030  2.4200000 
      32      0.070  3.5500000 
      33      0.070  3.5500000 
      34      0.070  3.5500000 
      35      0.030  2.4200000 
      36      0.070  3.5500000 
      37      0.030  2.4200000 
      38      0.355  3.6000000 
      39      0.030  2.4200000 

Bond Coeffs 

       1   427.0000     1.4330 
       2   549.0000     1.3450 
       3   412.5200     1.0500 
       4   427.0000     1.4330 
       5   520.0000     1.3700 
       6   520.0000     1.3700 
       7   520.0000     1.3700 
       8   520.0000     1.3700 
       9   427.0000     1.4330 
      10   469.0000     1.4000 
      11   412.5200     1.0500 
      12   447.0000     1.4190 
      13   418.0000     1.3880 
      14   447.0000     1.4190 
      15   447.0000     1.4190 
      16   447.0000     1.4190 
      17   418.0000     1.3880 
      18   570.0000     1.2290 
      19   570.0000     1.2290 
      20   570.0000     1.2290 
      21   570.0000     1.2290 
      22   337.0000     1.4750 
      23   340.0000     1.0900 
      24   340.0000     1.0900 
      25   340.0000     1.0900 
      26   337.0000     1.4750 
      27   340.0000     1.0900 
      28   340.0000     1.0900 
      29   340.0000     1.0900 
      30   412.5200     1.0500 
      31   385.0000     1.4600 
      32   546.0000     1.3670 
      33   469.0000     1.4240 
      34   367.0000     1.0800 
      35   546.0000     1.3670 
      36   367.0000     1.0800 
      37   250.0000     1.7400 
      38   367.0000     1.0800 
      39   520.0000     1.3700 
      40   427.0000     1.4330 
      41   418.0000     1.3880 
      42   418.0000     1.3880 
      43   250.0000     1.7400 

Angle Coeffs 

       1     85.000    117.000
       2     60.000    122.260
       3     85.000    117.000
       4     70.000    124.000
       5     70.000    124.000
       6     85.000    117.300
       7     85.000    117.300
       8     70.000    124.000
       9     85.000    117.300
      10     60.000    122.260
      11     77.270    119.730
      12     70.000    111.300
      13     85.000    119.200
      14     77.270    119.730
      15     85.000    119.200
      16     70.000    111.300
      17     80.000    128.800
      18     80.000    128.800
      19     80.000    128.800
      20     80.000    128.800
      21     63.000    112.400
      22     35.000    109.500
      23     35.000    109.500
      24     35.000    109.500
      25     63.000    112.400
      26     35.000    109.500
      27     35.000    109.500
      28     35.000    109.500
      29     60.000    122.260
      30     63.000    120.000
      31     70.000    132.100
      32     70.000    107.300
      33     35.000    125.700
      34     70.000    107.300
      35     35.000    127.500
      36     70.000    111.170
      37     35.000    132.100
      38     33.000    107.800
      39     33.000    107.800
      40     80.000    120.600
      41     77.270    119.730
      42     85.000    117.300
      43     60.000    122.260
      44     35.000    127.500
      45     80.000    120.600
      46     70.000    126.400
      47     70.000    124.000
      48     85.000    117.300
      49     70.000    111.300
      50     60.000    122.260
      51     70.000    111.300
      52     85.000    117.300
      53     60.000    122.260
      54     70.000    111.170
      55     33.000    107.800
      56     35.000    125.700
      57     85.000    117.300
      58     70.000    126.400
      59     74.000     97.000
      60     85.000    119.200
      61     85.000    120.000
      62     64.270    120.730
      63     80.000    120.600
      64     33.000    107.800
      65     63.000    112.400
      66     85.000    119.200
      67     63.000    112.400
      68     60.000    122.260
      69     35.000    125.000
      70     70.000    111.170
      71     33.000    107.800
      72     80.000    120.600
      73     33.000    107.800

Dihedral Coeffs  

       1      1.423      4.055      0.858      0.000 
       2      0.000      0.000     -0.372      0.000 
       3      0.000      0.000     -0.372      0.000 
       4      0.000      7.250      0.000      0.000 
       5      0.000      7.250      0.000      0.000 
       6      0.000      7.000      0.000      0.000 
       7      0.000      7.000      0.000      0.000 
       8      0.000      0.000      0.000      0.000 
       9      0.000      0.000      0.000      0.000 
      10      0.000      2.170      0.000      0.000 
      11      0.000      2.170      0.000      0.000 
      12      0.000      2.170      0.000      0.000 
      13      0.000      7.250      0.000      0.000 
      14      0.000      0.000      0.000      0.000 
      15      0.000      7.000      0.000      0.000 
      16      0.000      7.250      0.000      0.000 
      17      0.000      2.170      0.000      0.000 
      18      0.000      0.000      0.000      0.000 
      19      0.000      7.250      0.000      0.000 
      20      0.000      7.250      0.000      0.000 
      21      0.000      7.000      0.000      0.000 
      22      0.000      7.000      0.000      0.000 
      23      0.000      4.900      0.000      0.000 
      24      0.000      4.900      0.000      0.000 
      25      0.000     14.000      0.000      0.000 
      26      0.000      7.250      0.000      0.000 
      27      0.000      7.250      0.000      0.000 
      28      0.000      0.000     -0.372      0.000 
      29      0.000      7.250      0.000      0.000 
      30      0.000      7.250      0.000      0.000 
      31      0.000      4.900      0.000      0.000 
      32      0.000      0.000     -0.372      0.000 
      33      0.000      7.250      0.000      0.000 
      34      0.000      7.000      0.000      0.000 
      35      0.000      7.250      0.000      0.000 
      36      0.000      2.170      0.000      0.000 
      37      0.000      4.900      0.000      0.000 
      38      0.000      7.250      0.000      0.000 
      39      0.000      4.900      0.000      0.000 
      40      0.000      0.000      0.000      0.000 
      41      0.000      7.250      0.000      0.000 
      42      0.000      0.000     -0.372      0.000 
      43      0.000      0.000     -0.372      0.000 
      44      0.000      0.000      0.000      0.000 
      45      0.000     14.000      0.000      0.000 
      46      0.000      7.000      0.000      0.000 
      47      0.000      4.900      0.000      0.000 
      48      0.000      2.100      0.000      0.000 
      49      0.000      0.000      0.000      0.000 
      50      0.000      4.900      0.000      0.000 
      51      0.000      2.170      0.000      0.000 
      52      0.000      7.250      0.000      0.000 
      53      0.000      2.170      0.000      0.000 
      54      0.000      4.900      0.000      0.000 
      55      0.000      4.900      0.000      0.000 
      56      0.000      0.000     -0.372      0.000 
      57      0.000      2.170      0.000      0.000 
      58      0.000      0.000      0.000      0.000 
      59      0.000      7.250      0.000      0.000 
      60      0.000      7.250      0.000      0.000 
      61      0.000      0.000     -0.372      0.000 
      62      0.000      7.000      0.000      0.000 
      63      0.000      7.250      0.000      0.000 
      64      0.000      7.000      0.000      0.000 
      65      0.000      0.000      0.000      0.000 
      66      0.000      7.000      0.000      0.000 
      67      0.000      7.250      0.000      0.000 
      68      0.000      7.250      0.000      0.000 
      69      0.000      0.000      0.000      0.000 
      70      0.000      7.250      0.000      0.000 
      71      0.000      7.250      0.000      0.000 
      72      0.000      7.250      0.000      0.000 
      73      0.000      7.250      0.000      0.000 
      74      0.000      4.900      0.000      0.000 
      75      0.000      7.250      0.000      0.000 
      76      0.000      7.000      0.000      0.000 
      77      0.000      4.900      0.000      0.000 
      78      0.000     14.000      0.000      0.000 
      79      0.000      7.000      0.000      0.000 
      80      0.000      7.250      0.000      0.000 
      81      0.000      7.250      0.000      0.000 
      82      0.000      7.250      0.000      0.000 
      83      0.000      4.900      0.000      0.000 
      84      0.000      7.250      0.000      0.000 
      85      0.000      7.250      0.000      0.000 
      86      0.000      7.250      0.000      0.000 
      87      0.000      0.000      0.000      0.000 
      88      0.000      0.000      0.000      0.000 
      89      0.000      7.250      0.000      0.000 
      90      0.000      0.000      0.000      0.000 
      91      0.000      7.000      0.000      0.000 
      92      0.000      7.000      0.000      0.000 
      93      0.000      7.250      0.000      0.000 
      94      0.000      7.250      0.000      0.000 
      95      0.000      4.900      0.000      0.000 
      96      0.000      4.900      0.000      0.000 
      97      0.000      7.250      0.000      0.000 
      98      0.000      4.900      0.000      0.000 
      99      0.000      7.250      0.000      0.000 
     100      0.000      2.100      0.000      0.000 
     101      0.000      7.000      0.000      0.000 
     102      0.000      0.000      0.000      0.000 
     103      0.000      0.000      0.000      0.000 
     104      0.000      0.000     -0.372      0.000 
     105      0.000      4.900      0.000      0.000 
     106      0.000      0.000     -0.372      0.000 
     107      0.000      7.000      0.000      0.000 
     108      0.000      7.250      0.000      0.000 

Improper Coeffs 

       1      2.500      -1       2 
       2      2.500      -1       2 
       3      2.500      -1       2 
       4      2.500      -1       2 
       5      2.500      -1       2 
       6      2.500      -1       2 
       7      2.500      -1       2 
       8      2.500      -1       2 
       9     10.500      -1       2 
      10     10.500      -1       2 
      11     10.500      -1       2 
      12     10.500      -1       2 
      13      0.000      -1       2 
      14      0.000      -1       2 
      15      0.000      -1       2 
      16      0.000      -1       2 
      17      0.000      -1       2 
      18      0.000      -1       2 
      19      2.500      -1       2 
      20      2.500      -1       2 
      21      2.500      -1       2 
      22      2.500      -1       2 
      23      2.500      -1       2 
      24      2.500      -1       2 

Atoms 

     1      1      1 -0.08170000    1.000  1.00000  0.00000
     2      1      2 -0.12110000   -0.383  1.00000  0.00000
     3      1      3 -0.05660000    1.815  1.00000 -1.17465
     4      1      4 0.19200000    1.483  0.99875  0.99025
     5      1      5 -0.09700000    1.102  1.11599 -2.41493
     6      1      6 -0.01660000   -0.332  1.06380 -2.41745
     7      1      7 0.01750000   -1.113  1.00000 -1.22351
     8      1      8 -0.11040000   -2.547  0.94043 -1.22927
     9      1      9 -0.10080000   -1.065  1.07174 -3.63920
    10      1     10 -0.10200000   -2.448  1.07590 -3.63589
    11      1     11 0.12730000   -3.258  1.06807 -2.47115
    12      1     12 0.19660000   -2.933  1.08736 -4.62496
    13      1     13 0.64960000   -1.062  0.99833  1.31992
    14      1     14 -0.93870000   -2.452  0.82639  1.26272
    15      1     15 0.64630000   -3.209  0.64152  0.07357
    16      1     16 0.63550000    1.764  1.38874 -3.72427
    17      1     17 0.64670000   -0.387  1.07748 -4.95997
    18      1     18 -0.93300000    1.005  1.22493 -4.90463
    19      1     19 -0.40700000   -0.457  1.08899  2.38584
    20      1     20 -0.40650000   -4.368  0.24387  0.18551
    21      1     21 -0.40320000   -0.996  1.00966 -6.02577
    22      1     22 -0.39610000    2.933  1.75008 -3.84739
    23      1     23 0.05840000   -3.183  0.70564  2.52620
    24      1     24 0.11570000   -2.476  0.93878  3.33867
    25      1     25 0.11570000   -3.583 -0.32077  2.64003
    26      1     26 0.11570000   -4.039  1.40701  2.53164
    27      1     27 0.05740000    1.740  1.35616 -6.16480
    28      1     28 0.11680000    2.591  0.64909 -6.17696
    29      1     29 0.11680000    2.149  2.38036 -6.26396
    30      1     30 0.11680000    1.033  1.13791 -6.98179
    31      1     31 0.20280000    2.912  1.01963 -1.14564
    32      1     32 -0.16510000   -4.694  1.26429 -2.70430
    33      1     33 -0.07730000   -5.806  1.38834 -1.85553
    34      1     34 -0.17740000   -7.019  1.65030 -2.52211
    35      1     35 0.22030000   -5.720  1.28799 -0.76354
    36      1     36 -0.18600000   -6.886  1.73808 -3.91389
    37      1     37 0.18560000   -7.983  1.77440 -2.00869
    38      1     38 0.03870000   -5.230  1.48330 -4.38627
    39      1     39 0.20440000   -7.654  1.93525 -4.67116

Bonds 

     1      1      2      1
     2      2      3      1
     3      3      4      1
     4      4      5      3
     5      5      6      5
     6      6      7      2
     7      7      8      7
     8      8      9      6
     9      9     10      9
    10     10     11      8
    11     11     12     10
    12     12     13      2
    13     13     14     13
    14     14     15      8
    15     15     16      5
    16     16     17      9
    17     17     18     16
    18     18     19     13
    19     19     20     15
    20     20     21     17
    21     21     22     16
    22     22     23     14
    23     23     24     23
    24     24     25     23
    25     25     26     23
    26     26     27     18
    27     27     28     27
    28     28     29     27
    29     29     30     27
    30     30     31      3
    31     31     32     11
    32     32     33     32
    33     33     34     33
    34     34     35     33
    35     35     36     34
    36     36     37     34
    37     37     38     32
    38     38     39     36
    39     39      7      6
    40     40     11     10
    41     41     15     14
    42     42     18     17
    43     43     38     36

Angles 

     1      1      2      1      3
     2      2      2      1      4
     3      3      1      3      5
     4      4      3      5      6
     5      5      1      2      7
     6      6      2      7      8
     7      7      5      6      9
     8      8      6      9     10
     9      9      7      8     11
    10     10      9     10     12
    11     11      1      2     13
    12     12      2     13     14
    13     13      7      8     15
    14     14      3      5     16
    15     15      6      9     17
    16     16      5     16     18
    17     17      2     13     19
    18     18      8     15     20
    19     19      9     17     21
    20     20      5     16     22
    21     21     13     14     23
    22     22     14     23     24
    23     23     14     23     25
    24     24     14     23     26
    25     25     16     18     27
    26     26     18     27     28
    27     27     18     27     29
    28     28     18     27     30
    29     29      1      3     31
    30     30      8     11     32
    31     31     11     32     33
    32     32     32     33     34
    33     33     32     33     35
    34     34     33     34     36
    35     35     33     34     37
    36     36     11     32     38
    37     37     34     36     39
    38     38     24     23     26
    39     39     28     27     30
    40     40     18     16     22
    41     41     10      9     17
    42     42      7      6      9
    43     43     11     10     12
    44     44     34     33     35
    45     45     14     13     19
    46     46     13     14     15
    47     47      8     11     10
    48     48      2      7      6
    49     49      8     15     14
    50     50      3      1      4
    51     51      9     17     18
    52     52      5      6      7
    53     53      5      3     31
    54     54     34     36     38
    55     55     28     27     29
    56     56     36     34     37
    57     57      6      7      8
    58     58     16     18     17
    59     59     32     38     36
    60     60      7      2     13
    61     61     11      8     15
    62     62     10     11     32
    63     63     18     17     21
    64     64     29     27     30
    65     65     15     14     23
    66     66      6      5     16
    67     67     17     18     27
    68     68      9     10     11
    69     69     38     36     39
    70     70     33     32     38
    71     71     25     23     26
    72     72     14     15     20
    73     73     24     23     25

Dihedrals

     1      1      5      3      1      2 
     2      2      6      5      3      1 
     3      3      7      2      1      3 
     4      4     10      9      6      5 
     5      5     11      8      7      2 
     6      6     14     13      2      1 
     7      7     18     16      5      3 
     8      8     24     23     14     13 
     9      9     28     27     18     16 
    10     10     33     32     11      8 
    11     11     34     33     32     11 
    12     12     36     34     33     32 
    13     13     17      9      6      7 
    14     14     36     38     32     33 
    15     15     20     15      8     11 
    16     16      6      7      2      1 
    17     17      9     10     11      8 
    18     18     34     36     38     32 
    19     19      9      6      5      3 
    20     20     37     34     33     35 
    21     21     19     13      2      1 
    22     22     21     17      9     10 
    23     23     19     13     14     15 
    24     24     27     18     17     21 
    25     25      5      3      1      4 
    26     26     17      9      6      5 
    27     27     13      2      7      6 
    28     28     12     10      9      6 
    29     29     10      9      6      7 
    30     30      9      6      7      2 
    31     31     17     18     16      5 
    32     32     13      2      1      3 
    33     33     10     11      8      7 
    34     34     18     17      9     10 
    35     35     35     33     32     11 
    36     36     33     32     11     10 
    37     37     23     14     13     19 
    38     38     38     36     34     37 
    39     39     27     18     17      9 
    40     40     29     27     18     16 
    41     41      9      6      7      8 
    42     42     31      3      5      6 
    43     43     17      9     10     12 
    44     44     25     23     14     13 
    45     45     31      3      1      2 
    46     46     22     16      5      3 
    47     47     21     17     18     16 
    48     48     38     36     34     33 
    49     49     25     23     14     15 
    50     50     27     18     16     22 
    51     51     32     11     10      9 
    52     52     38     32     33     35 
    53     53     38     32     11      8 
    54     54     22     16     18     17 
    55     55     16     18     17      9 
    56     56      7      2      1      4 
    57     57     38     32     11     10 
    58     58     30     27     18     17 
    59     59      8      7      6      5 
    60     60     15      8      7      6 
    61     61     13      2      1      4 
    62     62     20     15      8      7 
    63     63     39     36     34     37 
    64     64     18     17      9      6 
    65     65     28     27     18     17 
    66     66     21     17      9      6 
    67     67     32     11     10     12 
    68     68     13      2      7      8 
    69     69     26     23     14     15 
    70     70     15      8      7      2 
    71     71     36     34     33     35 
    72     72     11      8      7      6 
    73     73      5      6      7      2 
    74     74     23     14     15     20 
    75     75     37     34     33     32 
    76     76     18     16      5      6 
    77     77     20     15     14     13 
    78     78     31      3      1      4 
    79     79     19     13      2      7 
    80     80     16      5      6      7 
    81     81     16      5      6      9 
    82     82     39     36     38     32 
    83     83     13     14     15      8 
    84     84     32     11      8      7 
    85     85      8      7      2      1 
    86     86      7      6      5      3 
    87     87     36     38     32     11 
    88     88     26     23     14     13 
    89     89     12     10     11      8 
    90     90     24     23     14     15 
    91     91     14     13      2      7 
    92     92     14     15      8      7 
    93     93     17      9     10     11 
    94     94     32     11      8     15 
    95     95     23     14     15      8 
    96     96     15     14     13      2 
    97     97     11     10      9      6 
    98     98     23     14     13      2 
    99     99     15      8     11     10 
   100    100     38     32     33     34 
   101    101     22     16      5      6 
   102    102     29     27     18     17 
   103    103     30     27     18     16 
   104    104     31      3      5     16 
   105    105     27     18     16      5 
   106    106     16      5      3      1 
   107    107     14     15      8     11 
   108    108     39     36     34     33 

Impropers

     1      1      1      2      3      4 
     2      2      7      2      6      8 
     3      3      6      9      5      7 
     4      4     10      9     11     12 
     5      5      2      1     13      7 
     6      6      8     11      7     15 
     7      7      5      3      6     16 
     8      8      9     17      6     10 
     9      9     13      2     19     14 
    10     10     15     20     14      8 
    11     11     17      9     21     18 
    12     12     16     18      5     22 
    13     13     14     15     13     23 
    14     14     23     25     14     24 
    15     15     23     26     14     24 
    16     16     18     17     27     16 
    17     17     27     18     28     29 
    18     18     27     18     28     30 
    19     19      3      1      5     31 
    20     20     11     10      8     32 
    21     21     33     34     35     32 
    22     22     34     33     36     37 
    23     23     32     33     11     38 
    24     24     36     34     38     39 

