LAMMPS data file Created by LigParGen - (Written by Leela S. Dodda)

      37 atoms
      41 bonds
      72 angles
     108 dihedrals
      23 impropers
 
      37 atom types
      41 bond types
      72 angle types
     108 dihedral types
      23 improper types
 
   -4.571790    45.428210 xlo xhi
   -1.464610    48.535390 ylo yhi
   -0.940370    49.059630 zlo zhi

Masses

       1     12.011  
       2     12.011  
       3     12.011  
       4      1.008  
       5     12.011  
       6     32.060  
       7     28.085  
       8     12.011  
       9     12.011  
      10     32.060  
      11     12.011  
      12     12.011  
      13      1.008  
      14     12.011  
      15      1.008  
      16      1.008  
      17      1.008  
      18     12.011  
      19      1.008  
      20      1.008  
      21      1.008  
      22      1.008  
      23     12.011  
      24     12.011  
      25     32.060  
      26     12.011  
      27     12.011  
      28     12.011  
      29     12.011  
      30     14.007  
      31     15.999  
      32     15.999  
      33     12.011  
      34      1.008  
      35      1.008  
      36      1.008  
      37      1.008  

Pair Coeffs 

       1      0.070  3.5500000 
       2      0.070  3.5500000 
       3      0.070  3.5500000 
       4      0.030  2.4200000 
       5      0.070  3.5500000 
       6      0.355  3.6000000 
       7      0.100  4.0000000 
       8      0.070  3.5500000 
       9      0.070  3.5500000 
      10      0.355  3.6000000 
      11      0.070  3.5500000 
      12      0.070  3.5500000 
      13      0.030  2.4200000 
      14      0.066  3.5000000 
      15      0.030  2.5000000 
      16      0.030  2.5000000 
      17      0.030  2.5000000 
      18      0.066  3.5000000 
      19      0.030  2.5000000 
      20      0.030  2.5000000 
      21      0.030  2.5000000 
      22      0.030  2.4200000 
      23      0.070  3.5500000 
      24      0.076  3.5500000 
      25      0.355  3.6000000 
      26      0.070  3.5500000 
      27      0.076  3.5500000 
      28      0.070  3.5500000 
      29      0.070  3.5500000 
      30      0.170  3.2500000 
      31      0.210  2.9600000 
      32      0.210  2.9600000 
      33      0.066  3.5000000 
      34      0.030  2.5000000 
      35      0.030  2.5000000 
      36      0.030  2.5000000 
      37      0.030  2.4200000 

Bond Coeffs 

       1   546.0000     1.3670 
       2   469.0000     1.4240 
       3   367.0000     1.0800 
       4   469.0000     1.4240 
       5   250.0000     1.7400 
       6   250.0000     1.7600 
       7   250.0000     1.7600 
       8   469.0000     1.4240 
       9   250.0000     1.7600 
      10   250.0000     1.7600 
      11   469.0000     1.4240 
      12   367.0000     1.0800 
      13   187.0000     1.8600 
      14   340.0000     1.0900 
      15   340.0000     1.0900 
      16   340.0000     1.0900 
      17   187.0000     1.8600 
      18   340.0000     1.0900 
      19   340.0000     1.0900 
      20   340.0000     1.0900 
      21   367.0000     1.0800 
      22   469.0000     1.4240 
      23   427.0000     1.4330 
      24   250.0000     1.7600 
      25   250.0000     1.7400 
      26   549.0000     1.3400 
      27   410.0000     1.4440 
      28   410.0000     1.4440 
      29   418.0000     1.3880 
      30   570.0000     1.2290 
      31   570.0000     1.2290 
      32   337.0000     1.4750 
      33   340.0000     1.0900 
      34   340.0000     1.0900 
      35   340.0000     1.0900 
      36   367.0000     1.0800 
      37   250.0000     1.7600 
      38   469.0000     1.4240 
      39   469.0000     1.4240 
      40   546.0000     1.3670 
      41   418.0000     1.3880 

Angle Coeffs 

       1     70.000    107.300
       2     35.000    125.700
       3     63.000    120.000
       4     70.000    111.170
       5     85.000    119.400
       6     42.500    109.500
       7     63.000    120.000
       8     85.000    119.400
       9     63.000    112.400
      10     85.000    119.400
      11     35.000    127.500
      12     62.000    104.200
      13     35.000    109.500
      14     35.000    109.500
      15     35.000    109.500
      16     62.000    104.200
      17     35.000    109.500
      18     35.000    109.500
      19     35.000    109.500
      20     35.000    132.100
      21     85.000    119.400
      22     63.000    120.000
      23     85.000    119.400
      24     63.000    112.400
      25     85.000    117.000
      26     85.000    120.000
      27     85.000    120.700
      28     70.000    114.100
      29     80.000    125.300
      30     80.000    125.300
      31     63.000    112.400
      32     35.000    109.500
      33     35.000    109.500
      34     35.000    109.500
      35     35.000    125.000
      36     33.000    107.800
      37     33.000    107.800
      38     80.000    120.600
      39     62.000    104.200
      40     70.000    126.400
      41     33.000    107.800
      42     63.000    112.400
      43     33.000    107.800
      44     35.000    125.000
      45     70.000    114.100
      46     85.000    119.400
      47     63.000    120.000
      48     63.000    120.000
      49     33.000    107.800
      50     85.000    119.400
      51     33.000    107.800
      52     85.000    120.700
      53     70.000    107.400
      54     70.000    111.170
      55     85.000    119.400
      56     60.000    110.000
      57     85.000    119.400
      58     35.000    130.700
      59     35.000    127.500
      60     33.000    107.800
      61     63.000    120.000
      62     33.000    107.800
      63     80.000    120.600
      64     60.430    118.760
      65     33.000    107.800
      66     62.000    104.200
      67     35.000    127.500
      68     63.000    112.400
      69     85.000    119.400
      70     63.000    120.000
      71     85.000    119.400
      72     85.000    119.400

Dihedral Coeffs  

       1      0.000      2.170      0.000      0.000 
       2      0.000      2.100      0.000      0.000 
       3      1.000      0.000      0.000      0.000 
       4      0.000      2.170      0.000      0.000 
       5      0.000      0.000      0.180      0.000 
       6      0.000      0.000      0.180      0.000 
       7      0.000      2.170      0.000      0.000 
       8      0.000      2.170      0.000      0.000 
       9      0.000      2.170      0.000      0.000 
      10      2.000      0.000      0.000      0.000 
      11      0.000      0.000      0.000      0.000 
      12      1.000      0.000      0.000      0.000 
      13      0.000      2.170      0.000      0.000 
      14      0.000      2.170      0.000      0.000 
      15      0.000      7.250      0.000      0.000 
      16      0.000      2.170      0.000      0.000 
      17      0.000      2.170      0.000      0.000 
      18      0.000      2.170      0.000      0.000 
      19      0.000      4.900      0.000      0.000 
      20      0.000      7.250      0.000      0.000 
      21      0.000      0.000      0.180      0.000 
      22      1.241      3.353     -0.286      0.000 
      23      0.000      2.170      0.000      0.000 
      24      0.000      0.000      0.180      0.000 
      25      0.000      0.000      0.000      0.000 
      26      0.000      0.000      0.000      0.000 
      27      0.000      7.250      0.000      0.000 
      28      0.000      2.170      0.000      0.000 
      29      0.000      2.170      0.000      0.000 
      30      0.000      0.000      0.000      0.000 
      31      0.000      2.170      0.000      0.000 
      32      0.000      0.000      0.000      0.000 
      33      0.000      0.000      0.180      0.000 
      34      0.000      7.250      0.000      0.000 
      35      0.000      0.000      0.180      0.000 
      36      0.000     14.000      0.000      0.000 
      37      0.000      2.170      0.000      0.000 
      38      0.000      7.250      0.000      0.000 
      39      2.000      0.000      0.000      0.000 
      40      0.000     14.000      0.000      0.000 
      41      2.500      6.000      0.000      0.000 
      42      0.000     14.000      0.000      0.000 
      43      0.000      2.170      0.000      0.000 
      44      0.000      0.000      0.180      0.000 
      45      0.000      0.000      0.180      0.000 
      46      1.000      0.000      0.000      0.000 
      47      1.000      0.000      0.000      0.000 
      48      0.000      0.000      0.180      0.000 
      49      0.000      0.000      0.180      0.000 
      50      0.000      4.900      0.000      0.000 
      51      0.000      2.170      0.000      0.000 
      52      0.000      7.250      0.000      0.000 
      53      0.000      2.170      0.000      0.000 
      54      0.000      2.170      0.000      0.000 
      55      0.000      2.170      0.000      0.000 
      56      0.000      7.250      0.000      0.000 
      57      1.000      0.000      0.000      0.000 
      58      0.000      0.000      0.000      0.000 
      59      0.000      0.000      0.180      0.000 
      60      0.000      2.170      0.000      0.000 
      61      0.000      2.170      0.000      0.000 
      62      0.000      2.170      0.000      0.000 
      63      2.500      6.000      0.000      0.000 
      64      0.000      7.250      0.000      0.000 
      65      0.000      2.170      0.000      0.000 
      66      0.000      4.900      0.000      0.000 
      67      1.000      0.000      0.000      0.000 
      68      0.000      7.250      0.000      0.000 
      69      0.000      4.900      0.000      0.000 
      70      0.000      0.000      0.180      0.000 
      71      0.000      2.170      0.000      0.000 
      72      1.000      0.000      0.000      0.000 
      73      0.000      2.170      0.000      0.000 
      74      2.500      6.000      0.000      0.000 
      75      0.000      0.000      0.180      0.000 
      76      0.000      2.170      0.000      0.000 
      77      1.000      0.000      0.000      0.000 
      78      1.000      0.000      0.000      0.000 
      79      0.000      0.000      0.000      0.000 
      80      2.500      6.000      0.000      0.000 
      81      0.000      4.900      0.000      0.000 
      82      0.000      4.900      0.000      0.000 
      83      0.000      7.250      0.000      0.000 
      84      0.000      7.250      0.000      0.000 
      85      0.000      7.250      0.000      0.000 
      86      0.000      4.900      0.000      0.000 
      87      0.000      2.170      0.000      0.000 
      88      0.000      7.250      0.000      0.000 
      89      0.000      0.000      0.180      0.000 
      90      0.000      0.000     -0.372      0.000 
      91      0.000     14.000      0.000      0.000 
      92      0.000      4.900      0.000      0.000 
      93      0.000      0.000      0.000      0.000 
      94      0.000      2.170      0.000      0.000 
      95      2.000      0.000      0.000      0.000 
      96      1.000      0.000      0.000      0.000 
      97      0.000      0.000      0.180      0.000 
      98      1.000      0.000      0.000      0.000 
      99      1.000      0.000      0.000      0.000 
     100      0.000      0.000      0.180      0.000 
     101      0.000      2.170      0.000      0.000 
     102      0.000      0.000      0.000      0.000 
     103      0.000     14.000      0.000      0.000 
     104      0.000      0.000      0.180      0.000 
     105     -4.344     -1.714      0.000      0.000 
     106      0.000      0.000      0.180      0.000 
     107      1.241      3.353     -0.286      0.000 
     108      2.000      0.000      0.000      0.000 

Improper Coeffs 

       1      2.500      -1       2 
       2      2.500      -1       2 
       3      2.500      -1       2 
       4      2.500      -1       2 
       5      2.500      -1       2 
       6      2.500      -1       2 
       7      0.000      -1       2 
       8      0.000      -1       2 
       9      0.000      -1       2 
      10      0.000      -1       2 
      11      0.000      -1       2 
      12      0.000      -1       2 
      13      2.500      -1       2 
      14      2.500      -1       2 
      15      2.500      -1       2 
      16      2.500      -1       2 
      17      2.500      -1       2 
      18     10.500      -1       2 
      19     10.500      -1       2 
      20      0.000      -1       2 
      21      0.000      -1       2 
      22      0.000      -1       2 
      23      2.500      -1       2 

Atoms 

     1      1      1 -0.21670000    1.000  1.00000  0.00000
     2      1      2 -0.10880000   -0.408  1.00000  0.00000
     3      1      3 -0.42540000   -0.979  1.00000  1.28905
     4      1      4 0.17210000   -0.979  1.00119 -0.94037
     5      1      5 -0.09920000    0.022  1.00000  2.29060
     6      1      6 0.06820000    1.634  1.00000  1.65259
     7      1      7 1.45810000   -2.669  0.99849  2.15099
     8      1      8 -0.45800000   -1.838  0.99792  3.85648
     9      1      9 -0.04260000   -0.437  0.99837  3.65988
    10      1     10 0.15900000    0.467  0.99513  5.14361
    11      1     11 -0.15320000   -1.037  0.99302  6.07805
    12      1     12 -0.05770000   -2.160  0.99610  5.22884
    13      1     13 0.17220000   -3.184  0.99807  5.63225
    14      1     14 -0.60760000   -3.665 -0.56749  1.81582
    15      1     15 0.10640000   -3.047 -1.46461  2.02082
    16      1     16 0.10640000   -3.996 -0.60773  0.75753
    17      1     17 0.10640000   -4.566 -0.61030  2.46206
    18      1     18 -0.60750000   -3.670  2.56134  1.81582
    19      1     19 0.10640000   -3.055  3.46034  2.02151
    20      1     20 0.10640000   -4.572  2.60037  2.46067
    21      1     21 0.10640000   -4.000  2.60089  0.75735
    22      1     22 0.19700000    1.692  0.99893 -0.85033
    23      1     23 0.08510000   -1.043  0.98718  7.51282
    24      1     24 -0.20410000   -0.016  0.98218  8.45348
    25      1     25 0.03690000   -2.600  0.98345  8.37725
    26      1     26 -0.10620000   -1.836  0.97476  9.98470
    27      1     27 -0.14640000   -0.450  0.97549  9.81197
    28      1     28 0.68230000    1.466  0.98060  8.42948
    29      1     29 0.67910000    0.745  0.96929 10.68631
    30      1     30 -0.97750000    1.849  0.97289  9.79165
    31      1     31 -0.39050000    2.248  0.98356  7.48708
    32      1     32 -0.38020000    0.838  0.96130 11.90811
    33      1     33 0.08670000    3.229  0.96752 10.22767
    34      1     34 0.10810000    3.227  0.87899 11.33001
    35      1     35 0.10810000    3.740  1.90544  9.92951
    36      1     36 0.10810000    3.773  0.11426  9.77640
    37      1     37 0.22230000   -2.443  0.97116 10.89728

Bonds 

     1      1      2      1
     2      2      3      2
     3      3      4      2
     4      4      5      3
     5      5      6      1
     6      6      7      3
     7      7      8      7
     8      8      9      5
     9      9     10      9
    10     10     11     10
    11     11     12      8
    12     12     13     12
    13     13     14      7
    14     14     15     14
    15     15     16     14
    16     16     17     14
    17     17     18      7
    18     18     19     18
    19     19     20     18
    20     20     21     18
    21     21     22      1
    22     22     23     11
    23     23     24     23
    24     24     25     23
    25     25     26     25
    26     26     27     24
    27     27     28     24
    28     28     29     27
    29     29     30     28
    30     30     31     28
    31     31     32     29
    32     32     33     30
    33     33     34     33
    34     34     35     33
    35     35     36     33
    36     36     37     26
    37     37      6      5
    38     38      9      8
    39     39     12     11
    40     40     27     26
    41     41     30     29

Angles 

     1      1      1      2      3
     2      2      1      2      4
     3      3      2      3      5
     4      4      2      1      6
     5      5      2      3      7
     6      6      3      7      8
     7      7      3      5      9
     8      8      5      9     10
     9      9      9     10     11
    10     10      7      8     12
    11     11      8     12     13
    12     12      3      7     14
    13     13      7     14     15
    14     14      7     14     16
    15     15      7     14     17
    16     16      3      7     18
    17     17      7     18     19
    18     18      7     18     20
    19     19      7     18     21
    20     20      2      1     22
    21     21     10     11     23
    22     22     11     23     24
    23     23     11     23     25
    24     24     23     25     26
    25     25     23     24     27
    26     26     23     24     28
    27     27     24     27     29
    28     28     24     28     30
    29     29     24     28     31
    30     30     27     29     32
    31     31     28     30     33
    32     32     30     33     34
    33     33     30     33     35
    34     34     30     33     36
    35     35     25     26     37
    36     36     20     18     21
    37     37     35     33     36
    38     38     30     29     32
    39     39      8      7     18
    40     40     28     30     29
    41     41     34     33     35
    42     42     29     30     33
    43     43     15     14     16
    44     44      6      1     22
    45     45     27     29     30
    46     46      8      9     10
    47     47      9      8     12
    48     48     12     11     23
    49     49     19     18     21
    50     50      5      3      7
    51     51     16     14     17
    52     52     27     24     28
    53     53     24     27     26
    54     54     25     26     27
    55     55     10     11     12
    56     56     14      7     18
    57     57      6      5      9
    58     58     27     26     37
    59     59      3      2      4
    60     60     34     33     36
    61     61      8     12     11
    62     62     19     18     20
    63     63     30     28     31
    64     64     26     27     29
    65     65     15     14     17
    66     66      8      7     14
    67     67     11     12     13
    68     68      1      6      5
    69     69      3      5      6
    70     70      5      9      8
    71     71      7      8      9
    72     72     24     23     25

Dihedrals

     1      1      5      3      2      1 
     2      2      6      1      2      3 
     3      3      8      7      3      2 
     4      4     11     10      9      5 
     5      5     15     14      7      3 
     6      6     19     18      7      3 
     7      7     24     23     11     10 
     8      8     26     25     23     11 
     9      9     27     24     23     11 
    10     10     30     28     24     23 
    11     11     34     33     30     28 
    12     12     12      8      7      3 
    13     13      8      9      5      6 
    14     14      7      3      2      1 
    15     15     13     12      8      9 
    16     16      7      8      9      5 
    17     17     12      8      9      5 
    18     18     10      9      8      7 
    19     19     31     28     30     29 
    20     20     22      1      2      4 
    21     21     18      7     14     17 
    22     22     27     24     23     25 
    23     23     24     23     11     12 
    24     24     19     18      7     14 
    25     25     36     33     30     29 
    26     26     35     33     30     29 
    27     27      5      3      2      4 
    28     28     12     11     10      9 
    29     29      7      3      5      6 
    30     30     36     33     30     28 
    31     31      3      5      6      1 
    32     32     34     33     30     29 
    33     33     18      7     14     15 
    34     34     22      1      6      5 
    35     35     21     18      7      3 
    36     36     37     26     27     29 
    37     37     23     11     10      9 
    38     38     37     26     25     23 
    39     39     30     29     27     24 
    40     40     28     24     27     26 
    41     41     32     29     27     26 
    42     42     29     27     24     28 
    43     43     28     24     23     11 
    44     44     16     14      7      8 
    45     45     21     18      7      8 
    46     46     18      7      3      2 
    47     47     14      7      8      9 
    48     48     21     18      7     14 
    49     49     19     18      7      8 
    50     50     33     30     28     31 
    51     51      8      9      5      3 
    52     52     10      9      5      6 
    53     53     11     10      9      8 
    54     54     10     11     12      8 
    55     55      9      5      3      2 
    56     56      7      3      2      4 
    57     57     18      7      3      5 
    58     58     26     25     23     24 
    59     59     17     14      7      3 
    60     60     11     12      8      7 
    61     61     23     11     12      8 
    62     62     28     24     23     25 
    63     63     31     28     24     23 
    64     64     13     12      8      7 
    65     65     11     12      8      9 
    66     66     29     30     28     24 
    67     67     14      7      8     12 
    68     68      6      1      2      4 
    69     69     28     30     29     27 
    70     70     20     18      7      8 
    71     71      6      5      3      2 
    72     72     14      7      3      5 
    73     73     25     23     11     12 
    74     74     31     28     24     27 
    75     75     15     14      7      8 
    76     76     12      8      9     10 
    77     77      9      8      7      3 
    78     78     18      7      8     12 
    79     79     27     26     25     23 
    80     80     32     29     27     24 
    81     81     32     29     30     28 
    82     82     33     30     29     27 
    83     83     13     12     11     10 
    84     84     25     23     11     10 
    85     85     22      1      2      3 
    86     86     33     30     29     32 
    87     87      9      5      3      7 
    88     88     23     11     12     13 
    89     89     16     14      7      3 
    90     90     37     26     27     24 
    91     91     26     27     24     23 
    92     92     33     30     28     24 
    93     93      5      6      1      2 
    94     94      9      5      6      1 
    95     95     30     29     27     26 
    96     96     14      7      3      2 
    97     97     20     18      7     14 
    98     98     18      7      8      9 
    99     99      8      7      3      5 
   100    100     20     18      7      3 
   101    101     10      9      5      3 
   102    102     35     33     30     28 
   103    103     29     27     24     23 
   104    104     17     14      7      8 
   105    105     29     27     26     25 
   106    106     18      7     14     16 
   107    107     25     26     27     24 
   108    108     30     28     24     27 

Impropers

     1      1      2      1      3      4 
     2      2      3      2      5      7 
     3      3      5      9      3      6 
     4      4      9     10      5      8 
     5      5      8      9     12      7 
     6      6     12     11     13      8 
     7      7      7      3     14      8 
     8      8     14     15      7     16 
     9      9     14     17     15      7 
    10     10      7     18      3      8 
    11     11     18     19     20      7 
    12     12     18     19     21      7 
    13     13      1      2     22      6 
    14     14     11     10     12     23 
    15     15     23     25     11     24 
    16     16     24     27     28     23 
    17     17     27     26     29     24 
    18     18     28     30     31     24 
    19     19     29     27     30     32 
    20     20     30     33     28     29 
    21     21     33     34     35     30 
    22     22     33     34     36     30 
    23     23     26     25     27     37 

