LAMMPS data file Created by LigParGen - (Written by Leela S. Dodda)

      58 atoms
      65 bonds
     116 angles
     178 dihedrals
      37 impropers
 
      58 atom types
      65 bond types
     116 angle types
     178 dihedral types
      37 improper types
 
   -8.285650    41.714350 xlo xhi
   -1.495670    48.504330 ylo yhi
   -0.940320    49.059680 zlo zhi

Masses

       1     12.011  
       2     12.011  
       3     12.011  
       4      1.008  
       5     12.011  
       6     32.060  
       7     28.085  
       8     12.011  
       9     12.011  
      10     32.060  
      11     12.011  
      12     12.011  
      13      1.008  
      14     12.011  
      15      1.008  
      16      1.008  
      17      1.008  
      18     12.011  
      19      1.008  
      20      1.008  
      21      1.008  
      22      1.008  
      23     12.011  
      24     12.011  
      25     32.060  
      26     12.011  
      27     12.011  
      28     12.011  
      29     12.011  
      30     14.007  
      31     15.999  
      32     15.999  
      33     12.011  
      34      1.008  
      35      1.008  
      36      1.008  
      37     12.011  
      38     12.011  
      39     12.011  
      40      1.008  
      41     12.011  
      42     32.060  
      43     28.085  
      44     12.011  
      45     12.011  
      46     32.060  
      47     12.011  
      48     12.011  
      49      1.008  
      50     12.011  
      51      1.008  
      52      1.008  
      53      1.008  
      54     12.011  
      55      1.008  
      56      1.008  
      57      1.008  
      58      1.008  

Pair Coeffs 

       1      0.070  3.5500000 
       2      0.070  3.5500000 
       3      0.070  3.5500000 
       4      0.030  2.4200000 
       5      0.070  3.5500000 
       6      0.355  3.6000000 
       7      0.100  4.0000000 
       8      0.070  3.5500000 
       9      0.070  3.5500000 
      10      0.355  3.6000000 
      11      0.070  3.5500000 
      12      0.070  3.5500000 
      13      0.030  2.4200000 
      14      0.066  3.5000000 
      15      0.030  2.5000000 
      16      0.030  2.5000000 
      17      0.030  2.5000000 
      18      0.066  3.5000000 
      19      0.030  2.5000000 
      20      0.030  2.5000000 
      21      0.030  2.5000000 
      22      0.030  2.4200000 
      23      0.070  3.5500000 
      24      0.076  3.5500000 
      25      0.355  3.6000000 
      26      0.070  3.5500000 
      27      0.076  3.5500000 
      28      0.070  3.5500000 
      29      0.070  3.5500000 
      30      0.170  3.2500000 
      31      0.210  2.9600000 
      32      0.210  2.9600000 
      33      0.066  3.5000000 
      34      0.030  2.5000000 
      35      0.030  2.5000000 
      36      0.030  2.5000000 
      37      0.070  3.5500000 
      38      0.070  3.5500000 
      39      0.070  3.5500000 
      40      0.030  2.4200000 
      41      0.070  3.5500000 
      42      0.355  3.6000000 
      43      0.100  4.0000000 
      44      0.070  3.5500000 
      45      0.070  3.5500000 
      46      0.355  3.6000000 
      47      0.070  3.5500000 
      48      0.070  3.5500000 
      49      0.030  2.4200000 
      50      0.066  3.5000000 
      51      0.030  2.5000000 
      52      0.030  2.5000000 
      53      0.030  2.5000000 
      54      0.066  3.5000000 
      55      0.030  2.5000000 
      56      0.030  2.5000000 
      57      0.030  2.5000000 
      58      0.030  2.4200000 

Bond Coeffs 

       1   546.0000     1.3670 
       2   469.0000     1.4240 
       3   367.0000     1.0800 
       4   469.0000     1.4240 
       5   250.0000     1.7400 
       6   250.0000     1.7600 
       7   250.0000     1.7600 
       8   469.0000     1.4240 
       9   250.0000     1.7600 
      10   250.0000     1.7600 
      11   469.0000     1.4240 
      12   367.0000     1.0800 
      13   187.0000     1.8600 
      14   340.0000     1.0900 
      15   340.0000     1.0900 
      16   340.0000     1.0900 
      17   187.0000     1.8600 
      18   340.0000     1.0900 
      19   340.0000     1.0900 
      20   340.0000     1.0900 
      21   367.0000     1.0800 
      22   469.0000     1.4240 
      23   427.0000     1.4330 
      24   250.0000     1.7600 
      25   250.0000     1.7600 
      26   549.0000     1.3400 
      27   410.0000     1.4440 
      28   410.0000     1.4440 
      29   418.0000     1.3880 
      30   570.0000     1.2290 
      31   570.0000     1.2290 
      32   337.0000     1.4750 
      33   340.0000     1.0900 
      34   340.0000     1.0900 
      35   340.0000     1.0900 
      36   469.0000     1.4240 
      37   469.0000     1.4240 
      38   469.0000     1.4240 
      39   367.0000     1.0800 
      40   469.0000     1.4240 
      41   250.0000     1.7600 
      42   250.0000     1.7600 
      43   250.0000     1.7600 
      44   469.0000     1.4240 
      45   250.0000     1.7600 
      46   250.0000     1.7400 
      47   469.0000     1.4240 
      48   367.0000     1.0800 
      49   187.0000     1.8600 
      50   340.0000     1.0900 
      51   340.0000     1.0900 
      52   340.0000     1.0900 
      53   187.0000     1.8600 
      54   340.0000     1.0900 
      55   340.0000     1.0900 
      56   340.0000     1.0900 
      57   367.0000     1.0800 
      58   250.0000     1.7600 
      59   469.0000     1.4240 
      60   469.0000     1.4240 
      61   427.0000     1.4330 
      62   418.0000     1.3880 
      63   250.0000     1.7600 
      64   469.0000     1.4240 
      65   546.0000     1.3670 

Angle Coeffs 

       1     70.000    107.300
       2     35.000    125.700
       3     63.000    120.000
       4     70.000    111.170
       5     85.000    119.400
       6     42.500    109.500
       7     63.000    120.000
       8     85.000    119.400
       9     63.000    112.400
      10     85.000    119.400
      11     35.000    127.500
      12     62.000    104.200
      13     35.000    109.500
      14     35.000    109.500
      15     35.000    109.500
      16     62.000    104.200
      17     35.000    109.500
      18     35.000    109.500
      19     35.000    109.500
      20     35.000    132.100
      21     85.000    119.400
      22     63.000    120.000
      23     85.000    119.400
      24     63.000    112.400
      25     85.000    117.000
      26     85.000    120.000
      27     85.000    120.700
      28     70.000    114.100
      29     80.000    125.300
      30     80.000    125.300
      31     63.000    112.400
      32     35.000    109.500
      33     35.000    109.500
      34     35.000    109.500
      35     85.000    119.400
      36     63.000    120.000
      37     63.000    120.000
      38     35.000    127.500
      39     63.000    120.000
      40     85.000    119.400
      41     85.000    119.400
      42     42.500    109.500
      43     63.000    120.000
      44     85.000    119.400
      45     63.000    112.400
      46     85.000    119.400
      47     35.000    127.500
      48     62.000    104.200
      49     35.000    109.500
      50     35.000    109.500
      51     35.000    109.500
      52     62.000    104.200
      53     35.000    109.500
      54     35.000    109.500
      55     35.000    109.500
      56     35.000    125.000
      57     85.000    119.400
      58     35.000    132.100
      59     63.000    120.000
      60     70.000    111.170
      61     85.000    120.700
      62     85.000    117.000
      63     85.000    119.400
      64     85.000    119.400
      65     33.000    107.800
      66     33.000    107.800
      67     85.000    119.400
      68     33.000    107.800
      69     80.000    120.600
      70     85.000    119.400
      71     62.000    104.200
      72     33.000    107.800
      73     33.000    107.800
      74     85.000    120.000
      75     85.000    119.400
      76     63.000    120.000
      77     63.000    112.400
      78     33.000    107.800
      79     70.000    107.300
      80     85.000    119.400
      81     85.000    119.400
      82     33.000    107.800
      83     35.000    127.500
      84     62.000    104.200
      85     33.000    107.800
      86     85.000    119.400
      87     33.000    107.800
      88     60.000    110.000
      89     35.000    125.000
      90     70.000    114.100
      91     33.000    107.800
      92     85.000    119.400
      93     85.000    119.400
      94     63.000    120.000
      95     33.000    107.800
      96     63.000    120.000
      97     63.000    120.000
      98     62.000    104.200
      99     80.000    120.600
     100     85.000    119.400
     101     85.000    119.400
     102     33.000    107.800
     103     33.000    107.800
     104     62.000    104.200
     105     70.000    126.400
     106     63.000    120.000
     107     63.000    112.400
     108     85.000    119.400
     109     33.000    107.800
     110     63.000    112.400
     111     60.000    110.000
     112     35.000    127.500
     113     33.000    107.800
     114     35.000    125.700
     115     35.000    127.500
     116     63.000    120.000

Dihedral Coeffs  

       1      0.000      2.170      0.000      0.000 
       2      0.000      2.100      0.000      0.000 
       3      1.000      0.000      0.000      0.000 
       4      0.000      2.170      0.000      0.000 
       5      0.000      0.000      0.180      0.000 
       6      0.000      0.000      0.180      0.000 
       7      0.000      2.170      0.000      0.000 
       8      0.000      2.170      0.000      0.000 
       9      0.000      2.170      0.000      0.000 
      10      2.000      0.000      0.000      0.000 
      11      0.000      0.000      0.000      0.000 
      12      0.000      2.170      0.000      0.000 
      13      0.000      2.170      0.000      0.000 
      14      0.000      2.170      0.000      0.000 
      15      1.000      0.000      0.000      0.000 
      16      0.000      2.170      0.000      0.000 
      17      0.000      0.000      0.180      0.000 
      18      0.000      0.000      0.180      0.000 
      19      1.000      0.000      0.000      0.000 
      20      0.000      7.250      0.000      0.000 
      21      0.000      2.170      0.000      0.000 
      22      0.000      2.170      0.000      0.000 
      23      0.000      0.000      0.180      0.000 
      24      0.000      2.170      0.000      0.000 
      25      0.000      7.250      0.000      0.000 
      26      0.000      7.250      0.000      0.000 
      27      0.000      2.170      0.000      0.000 
      28      0.000      2.170      0.000      0.000 
      29      0.000      2.170      0.000      0.000 
      30      0.000      4.900      0.000      0.000 
      31      0.000      7.250      0.000      0.000 
      32      0.000      7.250      0.000      0.000 
      33      0.000      0.000      0.180      0.000 
      34      1.000      0.000      0.000      0.000 
      35      1.241      3.353     -0.286      0.000 
      36      0.000      2.170      0.000      0.000 
      37      1.000      0.000      0.000      0.000 
      38      0.000      0.000      0.180      0.000 
      39      0.000      2.170      0.000      0.000 
      40      0.000      0.000      0.180      0.000 
      41      0.000      2.170      0.000      0.000 
      42      1.000      0.000      0.000      0.000 
      43      0.000      0.000      0.000      0.000 
      44      0.000      0.000      0.000      0.000 
      45      0.000      7.250      0.000      0.000 
      46      0.000      2.170      0.000      0.000 
      47      0.000      2.170      0.000      0.000 
      48      0.000      0.000      0.000      0.000 
      49      0.000      2.170      0.000      0.000 
      50      0.000      0.000      0.000      0.000 
      51      0.000      0.000      0.180      0.000 
      52      0.000      0.000      0.180      0.000 
      53      0.000      7.250      0.000      0.000 
      54      0.000      0.000      0.180      0.000 
      55      0.000      2.170      0.000      0.000 
      56      0.000      2.170      0.000      0.000 
      57      0.000      2.170      0.000      0.000 
      58      2.000      0.000      0.000      0.000 
      59      0.000     14.000      0.000      0.000 
      60      2.500      6.000      0.000      0.000 
      61      0.000     14.000      0.000      0.000 
      62      0.000      2.170      0.000      0.000 
      63      0.000      2.170      0.000      0.000 
      64      0.000      7.250      0.000      0.000 
      65      0.000      0.000      0.180      0.000 
      66      0.000      0.000      0.180      0.000 
      67      1.000      0.000      0.000      0.000 
      68      1.000      0.000      0.000      0.000 
      69      0.000      0.000      0.180      0.000 
      70      0.000      0.000      0.180      0.000 
      71      0.000      4.900      0.000      0.000 
      72      0.000      2.170      0.000      0.000 
      73      0.000      2.170      0.000      0.000 
      74      0.000      0.000      0.180      0.000 
      75      0.000      0.000      0.180      0.000 
      76      0.000      4.900      0.000      0.000 
      77      0.000      0.000      0.180      0.000 
      78      0.000      2.170      0.000      0.000 
      79      0.000      2.170      0.000      0.000 
      80      0.000      7.250      0.000      0.000 
      81      0.000      2.170      0.000      0.000 
      82      0.000      7.250      0.000      0.000 
      83      0.000      2.170      0.000      0.000 
      84      0.000      2.170      0.000      0.000 
      85      0.000      2.170      0.000      0.000 
      86      1.000      0.000      0.000      0.000 
      87      0.000      2.170      0.000      0.000 
      88      0.000      7.250      0.000      0.000 
      89      1.000      0.000      0.000      0.000 
      90      1.000      0.000      0.000      0.000 
      91      0.000      2.170      0.000      0.000 
      92      0.000      0.000      0.180      0.000 
      93      0.000      2.170      0.000      0.000 
      94      1.000      0.000      0.000      0.000 
      95      0.000      0.000      0.180      0.000 
      96      0.000      7.250      0.000      0.000 
      97      0.000      2.170      0.000      0.000 
      98      0.000      2.170      0.000      0.000 
      99      1.000      0.000      0.000      0.000 
     100      0.000      2.170      0.000      0.000 
     101      2.500      6.000      0.000      0.000 
     102      0.000      7.250      0.000      0.000 
     103      0.000      2.170      0.000      0.000 
     104      0.000      4.900      0.000      0.000 
     105      1.000      0.000      0.000      0.000 
     106      0.000      7.250      0.000      0.000 
     107      0.000      0.000      0.180      0.000 
     108      0.000      7.250      0.000      0.000 
     109      0.000      0.000      0.180      0.000 
     110      0.000      0.000      0.180      0.000 
     111      0.000      2.170      0.000      0.000 
     112      0.000      2.100      0.000      0.000 
     113      1.000      0.000      0.000      0.000 
     114      0.000      2.170      0.000      0.000 
     115      2.500      6.000      0.000      0.000 
     116      0.000      2.170      0.000      0.000 
     117      0.000      0.000      0.180      0.000 
     118      0.000      0.000      0.180      0.000 
     119      0.000      2.170      0.000      0.000 
     120      1.000      0.000      0.000      0.000 
     121      0.000      2.170      0.000      0.000 
     122      0.000      2.170      0.000      0.000 
     123      0.000      0.000      0.180      0.000 
     124      0.000      7.250      0.000      0.000 
     125      0.000      7.250      0.000      0.000 
     126      0.000      2.170      0.000      0.000 
     127      1.000      0.000      0.000      0.000 
     128      1.000      0.000      0.000      0.000 
     129      0.000      0.000      0.000      0.000 
     130      0.000      0.000      0.180      0.000 
     131      0.000      2.170      0.000      0.000 
     132      2.500      6.000      0.000      0.000 
     133      0.000      4.900      0.000      0.000 
     134      0.000      4.900      0.000      0.000 
     135      0.000      7.250      0.000      0.000 
     136      0.000      7.250      0.000      0.000 
     137      0.000      7.250      0.000      0.000 
     138      0.000      7.250      0.000      0.000 
     139      0.000      4.900      0.000      0.000 
     140      0.000      2.170      0.000      0.000 
     141      0.000      7.250      0.000      0.000 
     142      0.000      0.000      0.180      0.000 
     143      0.000      2.170      0.000      0.000 
     144      0.000      0.000      0.180      0.000 
     145      0.000      2.170      0.000      0.000 
     146      0.000      2.170      0.000      0.000 
     147      0.000      0.000      0.180      0.000 
     148      0.000     14.000      0.000      0.000 
     149      0.000      0.000      0.180      0.000 
     150      0.000      4.900      0.000      0.000 
     151      0.000      0.000      0.000      0.000 
     152      0.000      2.170      0.000      0.000 
     153      2.000      0.000      0.000      0.000 
     154      0.000      2.170      0.000      0.000 
     155      1.000      0.000      0.000      0.000 
     156      0.000      0.000      0.180      0.000 
     157      1.000      0.000      0.000      0.000 
     158      1.000      0.000      0.000      0.000 
     159      1.000      0.000      0.000      0.000 
     160      1.000      0.000      0.000      0.000 
     161      0.000      0.000      0.180      0.000 
     162      0.000      0.000      0.180      0.000 
     163      0.000      2.170      0.000      0.000 
     164      0.000      2.170      0.000      0.000 
     165      0.000      2.170      0.000      0.000 
     166      1.000      0.000      0.000      0.000 
     167      0.000      7.250      0.000      0.000 
     168      0.000      7.250      0.000      0.000 
     169      0.000      2.170      0.000      0.000 
     170      0.000      2.170      0.000      0.000 
     171      0.000      0.000      0.000      0.000 
     172      0.000      2.170      0.000      0.000 
     173      0.000     14.000      0.000      0.000 
     174      0.000      0.000      0.180      0.000 
     175      0.000      2.170      0.000      0.000 
     176      0.000      0.000      0.180      0.000 
     177      1.241      3.353     -0.286      0.000 
     178      2.000      0.000      0.000      0.000 

Improper Coeffs 

       1      2.500      -1       2 
       2      2.500      -1       2 
       3      2.500      -1       2 
       4      2.500      -1       2 
       5      2.500      -1       2 
       6      2.500      -1       2 
       7      0.000      -1       2 
       8      0.000      -1       2 
       9      0.000      -1       2 
      10      0.000      -1       2 
      11      0.000      -1       2 
      12      0.000      -1       2 
      13      2.500      -1       2 
      14      2.500      -1       2 
      15      2.500      -1       2 
      16      2.500      -1       2 
      17      2.500      -1       2 
      18     10.500      -1       2 
      19     10.500      -1       2 
      20      0.000      -1       2 
      21      0.000      -1       2 
      22      0.000      -1       2 
      23      2.500      -1       2 
      24      2.500      -1       2 
      25      2.500      -1       2 
      26      2.500      -1       2 
      27      2.500      -1       2 
      28      2.500      -1       2 
      29      2.500      -1       2 
      30      2.500      -1       2 
      31      0.000      -1       2 
      32      0.000      -1       2 
      33      0.000      -1       2 
      34      0.000      -1       2 
      35      0.000      -1       2 
      36      0.000      -1       2 
      37      2.500      -1       2 

Atoms 

     1      1      1 -0.21940000    1.000  1.00000  0.00000
     2      1      2 -0.10800000   -0.408  1.00000  0.00000
     3      1      3 -0.42790000   -0.979  1.00000  1.28907
     4      1      4 0.17140000   -0.979  1.00119 -0.94032
     5      1      5 -0.09630000    0.023  1.00000  2.28955
     6      1      6 0.06790000    1.634  1.00000  1.65254
     7      1      7 1.45780000   -2.669  0.99849  2.15100
     8      1      8 -0.45490000   -1.838  0.99792  3.85651
     9      1      9 -0.04920000   -0.434  0.99837  3.65939
    10      1     10 0.15920000    0.474  0.99513  5.14095
    11      1     11 -0.14590000   -1.029  0.99302  6.07896
    12      1     12 -0.06300000   -2.160  0.99610  5.22890
    13      1     13 0.17170000   -3.184  0.99806  5.63231
    14      1     14 -0.60750000   -3.665 -0.56753  1.81582
    15      1     15 0.10600000   -3.047 -1.46469  2.02083
    16      1     16 0.10600000   -3.996 -0.60777  0.75754
    17      1     17 0.10600000   -4.566 -0.61034  2.46205
    18      1     18 -0.60760000   -3.670  2.56130  1.81583
    19      1     19 0.10600000   -3.055  3.46033  2.02153
    20      1     20 0.10600000   -4.572  2.60033  2.46067
    21      1     21 0.10600000   -4.000  2.60086  0.75730
    22      1     22 0.19630000    1.692  0.99893 -0.85040
    23      1     23 0.06980000   -1.031  0.98718  7.51379
    24      1     24 -0.18350000   -0.002  0.98219  8.45202
    25      1     25 0.04820000   -2.585  0.98344  8.38367
    26      1     26 0.07060000   -1.815  0.97476  9.98839
    27      1     27 -0.18090000   -0.433  0.97550  9.81158
    28      1     28 0.68090000    1.479  0.98062  8.42450
    29      1     29 0.68290000    0.764  0.96931 10.68303
    30      1     30 -0.97400000    1.866  0.97291  9.78574
    31      1     31 -0.39200000    2.260  0.98358  7.48030
    32      1     32 -0.39350000    0.860  0.96132 11.90462
    33      1     33 0.08640000    3.248  0.96755 10.21848
    34      1     34 0.10750000    3.248  0.87903 11.32083
    35      1     35 0.10750000    3.758  1.90538  9.91913
    36      1     36 0.10750000    3.790  0.11425  9.76590
    37      1     37 -0.14160000   -2.640  0.97020 11.16199
    38      1     38 -0.07040000   -4.047  0.97222 11.11676
    39      1     39 -0.45350000   -4.659  0.96855 12.38682
    40      1     40 0.17190000   -4.587  0.97751 10.15857
    41      1     41 -0.04850000   -3.690  0.96362 13.41901
    42      1     42 0.15940000   -2.055  0.96326 12.83253
    43      1     43 1.45770000   -6.376  0.96647 13.19397
    44      1     44 -0.42730000   -5.601  0.95877 14.92532
    45      1     45 -0.09500000   -4.191  0.95809 14.77332
    46      1     46 0.06490000   -3.333  0.94889 16.28442
    47      1     47 -0.21830000   -4.866  0.94561 17.17167
    48      1     48 -0.10780000   -5.966  0.95248 16.28664
    49      1     49 0.17200000   -7.002  0.95385 16.65696
    50      1     50 -0.60740000   -7.363 -0.59696 12.82144
    51      1     51 0.10610000   -6.753 -1.49567 13.04300
    52      1     52 0.10610000   -7.660 -0.63304 11.75285
    53      1     53 0.10610000   -8.284 -0.64014 13.43731
    54      1     54 -0.60750000   -7.363  2.53192 12.83232
    55      1     55 0.10620000   -6.755  3.42936 13.06083
    56      1     56 0.10620000   -8.286  2.57001 13.44795
    57      1     57 0.10620000   -7.660  2.57564 11.76390
    58      1     58 0.19630000   -4.860  0.93775 18.26809

Bonds 

     1      1      2      1
     2      2      3      2
     3      3      4      2
     4      4      5      3
     5      5      6      1
     6      6      7      3
     7      7      8      7
     8      8      9      5
     9      9     10      9
    10     10     11     10
    11     11     12      8
    12     12     13     12
    13     13     14      7
    14     14     15     14
    15     15     16     14
    16     16     17     14
    17     17     18      7
    18     18     19     18
    19     19     20     18
    20     20     21     18
    21     21     22      1
    22     22     23     11
    23     23     24     23
    24     24     25     23
    25     25     26     25
    26     26     27     24
    27     27     28     24
    28     28     29     27
    29     29     30     28
    30     30     31     28
    31     31     32     29
    32     32     33     30
    33     33     34     33
    34     34     35     33
    35     35     36     33
    36     36     37     26
    37     37     38     37
    38     38     39     38
    39     39     40     38
    40     40     41     39
    41     41     42     37
    42     42     43     39
    43     43     44     43
    44     44     45     41
    45     45     46     45
    46     46     47     46
    47     47     48     44
    48     48     49     48
    49     49     50     43
    50     50     51     50
    51     51     52     50
    52     52     53     50
    53     53     54     43
    54     54     55     54
    55     55     56     54
    56     56     57     54
    57     57     58     47
    58     58      6      5
    59     59      9      8
    60     60     12     11
    61     61     27     26
    62     62     30     29
    63     63     42     41
    64     64     45     44
    65     65     48     47

Angles 

     1      1      1      2      3
     2      2      1      2      4
     3      3      2      3      5
     4      4      2      1      6
     5      5      2      3      7
     6      6      3      7      8
     7      7      3      5      9
     8      8      5      9     10
     9      9      9     10     11
    10     10      7      8     12
    11     11      8     12     13
    12     12      3      7     14
    13     13      7     14     15
    14     14      7     14     16
    15     15      7     14     17
    16     16      3      7     18
    17     17      7     18     19
    18     18      7     18     20
    19     19      7     18     21
    20     20      2      1     22
    21     21     10     11     23
    22     22     11     23     24
    23     23     11     23     25
    24     24     23     25     26
    25     25     23     24     27
    26     26     23     24     28
    27     27     24     27     29
    28     28     24     28     30
    29     29     24     28     31
    30     30     27     29     32
    31     31     28     30     33
    32     32     30     33     34
    33     33     30     33     35
    34     34     30     33     36
    35     35     25     26     37
    36     36     26     37     38
    37     37     37     38     39
    38     38     37     38     40
    39     39     38     39     41
    40     40     26     37     42
    41     41     38     39     43
    42     42     39     43     44
    43     43     39     41     45
    44     44     41     45     46
    45     45     45     46     47
    46     46     43     44     48
    47     47     44     48     49
    48     48     39     43     50
    49     49     43     50     51
    50     50     43     50     52
    51     51     43     50     53
    52     52     39     43     54
    53     53     43     54     55
    54     54     43     54     56
    55     55     43     54     57
    56     56     46     47     58
    57     57     38     37     42
    58     58     48     47     58
    59     59      8     12     11
    60     60     46     47     48
    61     61     27     24     28
    62     62     24     27     26
    63     63     42     41     45
    64     64      6      5      9
    65     65     56     54     57
    66     66     19     18     21
    67     67     41     39     43
    68     68     51     50     52
    69     69     30     29     32
    70     70     44     45     46
    71     71      8      7     14
    72     72     34     33     35
    73     73     15     14     16
    74     74     26     27     29
    75     75      3      5      6
    76     76     41     45     44
    77     77     29     30     33
    78     78     51     50     53
    79     79     44     48     47
    80     80     10     11     12
    81     81     39     41     42
    82     82     52     50     53
    83     83     39     38     40
    84     84     44     43     54
    85     85     55     54     57
    86     86     24     23     25
    87     87     35     33     36
    88     88     50     43     54
    89     89      6      1     22
    90     90     27     29     30
    91     91     15     14     17
    92     92      5      3      7
    93     93     25     26     27
    94     94     27     26     37
    95     95     19     18     20
    96     96     12     11     23
    97     97     45     44     48
    98     98     44     43     50
    99     99     30     28     31
   100    100      8      9     10
   101    101      7      8      9
   102    102     55     54     56
   103    103     20     18     21
   104    104      8      7     18
   105    105     28     30     29
   106    106      9      8     12
   107    107     37     42     41
   108    108     43     44     45
   109    109     16     14     17
   110    110      1      6      5
   111    111     14      7     18
   112    112      3      2      4
   113    113     34     33     36
   114    114     47     48     49
   115    115     11     12     13
   116    116      5      9      8

Dihedrals

     1      1      5      3      2      1 
     2      2      6      1      2      3 
     3      3      8      7      3      2 
     4      4     11     10      9      5 
     5      5     15     14      7      3 
     6      6     19     18      7      3 
     7      7     24     23     11     10 
     8      8     26     25     23     11 