LAMMPS data file Created by LigParGen - (Written by Leela S. Dodda)

      34 atoms
      37 bonds
      62 angles
      88 dihedrals
      20 impropers
 
      34 atom types
      37 bond types
      62 angle types
      88 dihedral types
      20 improper types
 
   -5.614770    44.385230 xlo xhi
    0.097710    50.097710 ylo yhi
   -2.106860    47.893140 zlo zhi

Masses

       1     12.011  
       2     12.011  
       3     12.011  
       4     12.011  
       5     14.007  
       6     15.999  
       7     12.011  
       8     12.011  
       9     14.007  
      10     12.011  
      11      1.008  
      12      1.008  
      13      1.008  
      14     12.011  
      15      1.008  
      16      1.008  
      17      1.008  
      18     15.999  
      19      1.008  
      20     12.011  
      21     12.011  
      22     12.011  
      23      1.008  
      24     12.011  
      25      1.008  
      26     15.999  
      27     12.011  
      28     12.011  
      29     12.011  
      30      1.008  
      31     12.011  
      32      1.008  
      33     32.060  
      34      1.008  

Pair Coeffs 

       1      0.070  3.5500000 
       2      0.076  3.5500000 
       3      0.076  3.5500000 
       4      0.070  3.5500000 
       5      0.170  3.2500000 
       6      0.210  2.9600000 
       7      0.070  3.5500000 
       8      0.070  3.5500000 
       9      0.170  3.2500000 
      10      0.066  3.5000000 
      11      0.030  2.5000000 
      12      0.030  2.5000000 
      13      0.030  2.5000000 
      14      0.066  3.5000000 
      15      0.030  2.5000000 
      16      0.030  2.5000000 
      17      0.030  2.5000000 
      18      0.210  2.9600000 
      19      0.030  2.4200000 
      20      0.070  3.5500000 
      21      0.070  3.5500000 
      22      0.070  3.5500000 
      23      0.030  2.4200000 
      24      0.070  3.5500000 
      25      0.030  2.4200000 
      26      0.140  2.9000000 
      27      0.070  3.5500000 
      28      0.070  3.5500000 
      29      0.070  3.5500000 
      30      0.030  2.4200000 
      31      0.070  3.5500000 
      32      0.030  2.4200000 
      33      0.355  3.6000000 
      34      0.030  2.4200000 

Bond Coeffs 

       1   546.0000     1.3670 
       2   549.0000     1.3400 
       3   410.0000     1.4440 
       4   427.0000     1.3810 
       5   570.0000     1.2290 
       6   427.0000     1.4330 
       7   410.0000     1.4440 
       8   427.0000     1.3810 
       9   337.0000     1.4750 
      10   340.0000     1.0900 
      11   340.0000     1.0900 
      12   340.0000     1.0900 
      13   337.0000     1.4750 
      14   340.0000     1.0900 
      15   340.0000     1.0900 
      16   340.0000     1.0900 
      17   570.0000     1.2290 
      18   367.0000     1.0800 
      19   469.0000     1.4240 
      20   469.0000     1.4240 
      21   469.0000     1.4240 
      22   367.0000     1.0800 
      23   469.0000     1.4240 
      24   367.0000     1.0800 
      25   450.0000     1.3640 
      26   469.0000     1.4240 
      27   469.0000     1.4240 
      28   469.0000     1.4240 
      29   367.0000     1.0800 
      30   546.0000     1.3670 
      31   367.0000     1.0800 
      32   250.0000     1.7600 
      33   367.0000     1.0800 
      34   418.0000     1.3880 
      35   418.0000     1.3880 
      36   450.0000     1.3640 
      37   250.0000     1.7400 

Angle Coeffs 

       1     85.000    117.000
       2     85.000    120.700
       3     70.000    121.600
       4     80.000    125.300
       5     85.000    117.000
       6     85.000    120.000
       7     70.000    108.700
       8     63.000    112.400
       9     35.000    109.500
      10     35.000    109.500
      11     35.000    109.500
      12     63.000    112.400
      13     35.000    109.500
      14     35.000    109.500
      15     35.000    109.500
      16     80.000    125.300
      17     35.000    130.700
      18     63.000    120.000
      19     63.000    120.000
      20     63.000    120.000
      21     35.000    127.500
      22     63.000    120.000
      23     35.000    127.500
      24     70.000    120.000
      25     63.000    120.000
      26     63.000    120.000
      27     63.000    120.000
      28     35.000    127.500
      29     70.000    107.300
      30     35.000    127.500
      31     85.000    119.400
      32     35.000    132.100
      33     80.000    120.600
      34     63.000    112.400
      35     70.000    120.000
      36     33.000    107.800
      37     33.000    107.800
      38     35.000    127.500
      39     70.000    120.000
      40     35.000    127.500
      41     70.000    125.200
      42     63.000    112.400
      43     63.000    112.400
      44     33.000    107.800
      45     33.000    107.800
      46     35.000    125.700
      47     70.000    111.170
      48     85.000    120.000
      49     85.000    119.400
      50     33.000    107.800
      51     85.000    120.700
      52     35.000    127.500
      53     70.000    120.000
      54     35.000    125.000
      55     75.000    111.000
      56     80.000    120.600
      57     33.000    107.800
      58     70.000    125.200
      59     35.000    121.600
      60     70.000    114.100
      61     70.000    114.100
      62     70.000    108.700

Dihedral Coeffs  

       1      0.000     14.000      0.000      0.000 
       2      2.000      0.000      0.000      0.000 
       3      2.000      0.000      0.000      0.000 
       4      0.000      0.000      0.000      0.000 
       5      0.000      0.000      0.000      0.000 
       6      0.000      2.170      0.000      0.000 
       7      0.000      2.170      0.000      0.000 
       8      0.000      2.170      0.000      0.000 
       9      0.000      2.170      0.000      0.000 
      10      0.000      2.170      0.000      0.000 
      11      0.000      2.170      0.000      0.000 
      12      2.300      6.089      0.000      0.000 
      13      0.000      7.250      0.000      0.000 
      14      0.000      0.000      0.000      0.000 
      15      0.000      0.000      0.000      0.000 
      16      0.000      5.000      0.000      0.000 
      17      0.000      2.170      0.000      0.000 
      18      0.000     14.000      0.000      0.000 
      19      0.000      2.170      0.000      0.000 
      20      0.000      7.250      0.000      0.000 
      21      2.000      0.000      0.000      0.000 
      22      0.000     10.750      0.000      0.000 
      23      0.000      7.250      0.000      0.000 
      24      0.000      5.000      0.000      0.000 
      25      0.000      2.170      0.000      0.000 
      26      0.000      2.170      0.000      0.000 
      27      2.000      0.000      0.000      0.000 
      28      0.000      7.250      0.000      0.000 
      29      0.000      4.900      0.000      0.000 
      30      0.000      7.250      0.000      0.000 
      31      0.000      0.000      0.000      0.000 
      32      2.500      6.000      0.000      0.000 
      33      0.000      0.000      0.000      0.000 
      34      0.000     14.000      0.000      0.000 
      35      0.000      2.170      0.000      0.000 
      36      0.000      7.250      0.000      0.000 
      37      0.000      4.900      0.000      0.000 
      38      0.000      2.170      0.000      0.000 
      39      0.000      2.170      0.000      0.000 
      40      0.000      2.100      0.000      0.000 
      41      0.000      2.170      0.000      0.000 
      42      0.000     10.750      0.000      0.000 
      43      2.500      6.000      0.000      0.000 
      44      0.000      2.170      0.000      0.000 
      45      0.000      2.170      0.000      0.000 
      46      0.000      0.000      0.000      0.000 
      47      0.000      0.000      0.000      0.000 
      48      0.000      4.900      0.000      0.000 
      49      0.000     14.000      0.000      0.000 
      50      0.000      4.900      0.000      0.000 
      51      0.000      7.250      0.000      0.000 
      52      2.000      0.000      0.000      0.000 
      53      0.000      7.250      0.000      0.000 
      54      0.000      1.300      2.200      0.000 
      55      0.000      0.000      0.000      0.000 
      56      0.000      7.250      0.000      0.000 
      57      0.000      0.000      0.000      0.000 
      58      0.000      5.000      0.000      0.000 
      59      0.000      7.250      0.000      0.000 
      60      2.000      0.000      0.000      0.000 
      61      0.000      5.000      0.000      0.000 
      62      2.500      6.000      0.000      0.000 
      63      0.000      7.250      0.000      0.000 
      64      0.000      2.170      0.000      0.000 
      65      0.000      7.250      0.000      0.000 
      66      2.300      6.089      0.000      0.000 
      67      0.000      7.250      0.000      0.000 
      68      0.000      0.000      0.000      0.000 
      69      0.000      2.170      0.000      0.000 
      70      0.000      2.170      0.000      0.000 
      71      0.000      2.170      0.000      0.000 
      72      0.000      7.250      0.000      0.000 
      73      0.000      7.250      0.000      0.000 
      74      0.000      7.250      0.000      0.000 
      75      0.000      2.170      0.000      0.000 
      76      0.000      7.250      0.000      0.000 
      77      0.000      4.900      0.000      0.000 
      78      0.000      0.000      0.000      0.000 
      79      0.000     14.000      0.000      0.000 
      80      0.000      2.170      0.000      0.000 
      81      0.000      2.170      0.000      0.000 
      82      2.500      6.000      0.000      0.000 
      83      0.000      7.250      0.000      0.000 
      84      0.000      4.900      0.000      0.000 
      85      0.000      7.250      0.000      0.000 
      86      0.000      7.250      0.000      0.000 
      87      0.000      7.250      0.000      0.000 
      88      0.000      0.000      0.000      0.000 

Improper Coeffs 

       1     10.500      -1       2 
       2      2.500      -1       2 
       3      2.500      -1       2 
       4      0.000      -1       2 
       5      0.000      -1       2 
       6      0.000      -1       2 
       7      0.000      -1       2 
       8      0.000      -1       2 
       9      0.000      -1       2 
      10     10.500      -1       2 
      11      2.500      -1       2 
      12      2.500      -1       2 
      13      2.500      -1       2 
      14      2.500      -1       2 
      15      2.500      -1       2 
      16      2.500      -1       2 
      17      2.500      -1       2 
      18      2.500      -1       2 
      19      2.500      -1       2 
      20      2.500      -1       2 

Atoms 

     1      1      1 0.28430000    1.000  1.00000  0.00000
     2      1      2 -0.29190000   -0.407  1.00000  0.00000
     3      1      3 -0.27820000   -0.857  1.00000  1.35744
     4      1      4 0.63690000    0.299  1.00000  2.24567
     5      1      5 -0.79740000    1.422  1.00000  1.32457
     6      1      6 -0.42050000    0.461  1.00110  3.46469
     7      1      7 0.42510000   -2.267  1.00169  1.35744
     8      1      8 0.64290000   -1.566  0.99887 -0.89156
     9      1      9 -0.77830000   -2.692  1.00273  0.03729
    10      1     10 0.04180000    2.774  1.00144  1.83133
    11      1     11 0.10860000    2.693  1.00226  2.93564
    12      1     12 0.10860000    3.331  1.90557  1.50797
    13      1     13 0.10860000    3.332  0.09771  1.50944
    14      1     14 0.03880000   -4.048  1.00552 -0.45624
    15      1     15 0.10900000   -3.979  1.00688 -1.56143
    16      1     16 0.10900000   -4.601  1.90993 -0.12714
    17      1     17 0.10900000   -4.604  0.10200 -0.12953
    18      1     18 -0.40590000   -1.719  0.99460 -2.10686
    19      1     19 0.20800000    1.715  1.00105 -0.83271
    20      1     20 -0.03410000   -3.125  1.00083  2.49767
    21      1     21 -0.14370000   -4.506  1.00329  2.74210
    22      1     22 -0.24270000   -4.671  1.00196  4.15151
    23      1     23 0.19030000   -5.295  1.00687  1.98065
    24      1     24 0.12600000   -3.384  0.99875  4.70366
    25      1     25 0.19570000   -5.615  1.00208  4.70808
    26      1     26 -0.11710000   -2.462  0.99804  3.69932
    27      1     27 -0.14390000   -2.842  0.99742  6.02927
    28      1     28 -0.09070000   -1.480  0.99259  6.36637
    29      1     29 -0.16150000   -1.262  0.99414  7.76197
    30      1     30 0.22410000   -0.684  0.98928  5.60857
    31      1     31 -0.20080000   -2.456  1.00017  8.49834
    32      1     32 0.18520000   -0.271  0.99217  8.23815
    33      1     33 0.05670000   -3.865  1.00003  7.45289
    34      1     34 0.19790000   -2.583  1.00355  9.58777

Bonds 

     1      1      2      1
     2      2      3      2
     3      3      4      3
     4      4      5      1
     5      5      6      4
     6      6      7      3
     7      7      8      2
     8      8      9      7
     9      9     10      5
    10     10     11     10
    11     11     12     10
    12     12     13     10
    13     13     14      9
    14     14     15     14
    15     15     16     14
    16     16     17     14
    17     17     18      8
    18     18     19      1
    19     19     20      7
    20     20     21     20
    21     21     22     21
    22     22     23     21
    23     23     24     22
    24     24     25     22
    25     25     26     20
    26     26     27     24
    27     27     28     27
    28     28     29     28
    29     29     30     28
    30     30     31     29
    31     31     32     29
    32     32     33     27
    33     33     34     31
    34     34      5      4
    35     35      9      8
    36     36     26     24
    37     37     33     31

Angles 

     1      1      1      2      3
     2      2      2      3      4
     3      3      2      1      5
     4      4      3      4      6
     5      5      2      3      7
     6      6      1      2      8
     7      7      3      7      9
     8      8      1      5     10
     9      9      5     10     11
    10     10      5     10     12
    11     11      5     10     13
    12     12      7      9     14
    13     13      9     14     15
    14     14      9     14     16
    15     15      9     14     17
    16     16      2      8     18
    17     17      2      1     19
    18     18      3      7     20
    19     19      7     20     21
    20     20     20     21     22
    21     21     20     21     23
    22     22     21     22     24
    23     23     21     22     25
    24     24      7     20     26
    25     25     22     24     27
    26     26     24     27     28
    27     27     27     28     29
    28     28     27     28     30
    29     29     28     29     31
    30     30     28     29     32
    31     31     24     27     33
    32     32     29     31     34
    33     33      5      4      6
    34     34      8      9     14
    35     35     21     20     26
    36     36     11     10     12
    37     37     15     14     16
    38     38     22     21     23
    39     39     22     24     26
    40     40     29     28     30
    41     41      1      5      4
    42     42      4      5     10
    43     43     27     33     31
    44     44     15     14     17
    45     45     12     10     13
    46     46     31     29     32
    47     47     29     31     33
    48     48      4      3      7
    49     49     28     27     33
    50     50     16     14     17
    51     51      3      2      8
    52     52     24     22     25
    53     53     26     24     27
    54     54     33     31     34
    55     55     20     26     24
    56     56      9      8     18
    57     57     11     10     13
    58     58      7      9      8
    59     59      5      1     19
    60     60      2      8      9
    61     61      3      4      5
    62     62      9      7     20

Dihedrals

     1      1      4      3      2      1 
     2      2      5      1      2      3 
     3      3      9      7      3      2 
     4      4     11     10      5      1 
     5      5     15     14      9      7 
     6      6     21     20      7      3 
     7      7     22     21     20      7 
     8      8     24     22     21     20 
     9      9     28     27     24     22 
    10     10     29     28     27     24 
    11     11     31     29     28     27 
    12     12      3      4      5      1 
    13     13     34     31     29     32 
    14     14     15     14      9      8 
    15     15     16     14      9      7 
    16     16     10      5      1      2 
    17     17     31     33     27     24 
    18     18      7      3      2      1 
    19     19     20      7      3      4 
    20     20     34     31     29     28 
    21     21      9      8      2      1 
    22     22     19      1      2      3 
    23     23     26     20     21     23 
    24     24     19      1      5      4 
    25     25     21     20      7      9 
    26     26     26     20      7      9 
    27     27      5      4      3      2 
    28     28     33     27     28     30 
    29     29     18      8      9      7 
    30     30      8      2      1      5 
    31     31     29     31     33     27 
    32     32     18      8      2      1 
    33     33     12     10      5      4 
    34     34      9      7      3      4 
    35     35     33     27     24     22 
    36     36     26     24     22     25 
    37     37      6      4      5      1 
    38     38     28     27     24     26 
    39     39     14      9      7      3 
    40     40     33     31     29     28 
    41     41     20      7      9     14 
    42     42     19      1      2      8 
    43     43      6      4      3      2 
    44     44     20      7      9      8 
    45     45     27     24     22     21 
    46     46     17     14      9      7 
    47     47     17     14      9      8 
    48     48     10      5      4      3 
    49     49      8      2      3      4 
    50     50     14      9      8      2 
    51     51     32     29     28     27 
    52     52      7      3      4      5 
    53     53     25     22     21     23 
    54     54      8      9      7      3 
    55     55     16     14      9      8 
    56     56     31     29     28     30 
    57     57     11     10      5      4 
    58     58      4      5      1      2 
    59     59     33     31     29     32 
    60     60      9      8      2      3 
    61     61     19      1      5     10 
    62     62     18      8      2      3 
    63     63     24     26     20     21 
    64     64     33     27     28     29 
    65     65     30     28     27     24 
    66     66      7      9      8      2 
    67     67     27     24     22     25 
    68     68     12     10      5      1 
    69     69     26     20     21     22 
    70     70     26     24     22     21 
    71     71     20      7      3      2 
    72     72     25     22     21     20 
    73     73     32     29     28     30 
    74     74     23     21     20      7 
    75     75     33     27     24     26 
    76     76     24     26     20      7 
    77     77     18      8      9     14 
    78     78     13     10      5      1 
    79     79      8      2      3      7 
    80     80     26     20      7      3 
    81     81     31     33     27     28 
    82     82      7      3      4      6 
    83     83     24     22     21     23 
    84     84     10      5      4      6 
    85     85     34     31     33     27 
    86     86     27     24     26     20 
    87     87     22     24     26     20 
    88     88     13     10      5      4 

Impropers

     1      1      4      3      5      6 
     2      2      3      2      4      7 
     3      3      2      1      3      8 
     4      4      5      1     10      4 
     5      5     10     11     12      5 
     6      6     10     11     13      5 
     7      7      9     14      7      8 
     8      8     14      9     15     16 
     9      9     14     17      9     15 
    10     10      8      9     18      2 
    11     11      1      2     19      5 
    12     12      7      9      3     20 
    13     13     21     20     22     23 
    14     14     22     25     21     24 
    15     15     20     26     21      7 
    16     16     24     26     27     22 
    17     17     28     27     29     30 
    18     18     29     28     31     32 
    19     19     27     33     28     24 
    20     20     31     33     34     29 

