LAMMPS data file Created by LigParGen - (Written by Leela S. Dodda)

      27 atoms
      29 bonds
      49 angles
      68 dihedrals
      16 impropers
 
      27 atom types
      29 bond types
      49 angle types
      68 dihedral types
      16 improper types
 
   -5.571330    44.428670 xlo xhi
    0.097020    50.097020 ylo yhi
   -5.693070    44.306930 zlo zhi

Masses

       1     12.011  
       2     12.011  
       3     14.007  
       4     12.011  
       5     12.011  
       6     12.011  
       7      1.008  
       8      1.008  
       9      1.008  
      10     12.011  
      11     14.007  
      12     12.011  
      13     15.999  
      14     15.999  
      15     12.011  
      16      1.008  
      17      1.008  
      18      1.008  
      19      1.008  
      20     12.011  
      21     12.011  
      22     12.011  
      23      1.008  
      24     12.011  
      25     15.999  
      26      1.008  
      27      1.008  

Pair Coeffs 

       1      0.070  3.5500000 
       2      0.076  3.5500000 
       3      0.170  3.2500000 
       4      0.076  3.5500000 
       5      0.070  3.5500000 
       6      0.066  3.5000000 
       7      0.030  2.5000000 
       8      0.030  2.5000000 
       9      0.030  2.5000000 
      10      0.070  3.5500000 
      11      0.170  3.2500000 
      12      0.070  3.5500000 
      13      0.210  2.9600000 
      14      0.210  2.9600000 
      15      0.066  3.5000000 
      16      0.030  2.5000000 
      17      0.030  2.5000000 
      18      0.030  2.5000000 
      19      0.030  2.4200000 
      20      0.070  3.5500000 
      21      0.070  3.5500000 
      22      0.070  3.5500000 
      23      0.030  2.4200000 
      24      0.070  3.5500000 
      25      0.140  2.9000000 
      26      0.030  2.4200000 
      27      0.030  2.4200000 

Bond Coeffs 

       1   546.0000     1.3670 
       2   427.0000     1.3810 
       3   549.0000     1.3400 
       4   418.0000     1.3880 
       5   337.0000     1.4750 
       6   340.0000     1.0900 
       7   340.0000     1.0900 
       8   340.0000     1.0900 
       9   410.0000     1.4440 
      10   418.0000     1.3880 
      11   427.0000     1.4330 
      12   570.0000     1.2290 
      13   570.0000     1.2290 
      14   337.0000     1.4750 
      15   340.0000     1.0900 
      16   340.0000     1.0900 
      17   340.0000     1.0900 
      18   367.0000     1.0800 
      19   469.0000     1.4240 
      20   469.0000     1.4240 
      21   469.0000     1.4240 
      22   367.0000     1.0800 
      23   546.0000     1.3670 
      24   450.0000     1.3640 
      25   367.0000     1.0800 
      26   367.0000     1.0800 
      27   410.0000     1.4440 
      28   427.0000     1.3810 
      29   340.0000     1.3600 

Angle Coeffs 

       1     70.000    121.600
       2     85.000    117.000
       3     70.000    125.200
       4     63.000    112.400
       5     35.000    109.500
       6     35.000    109.500
       7     35.000    109.500
       8     85.000    120.000
       9     70.000    114.100
      10     85.000    117.000
      11     80.000    120.600
      12     80.000    125.300
      13     63.000    112.400
      14     35.000    109.500
      15     35.000    109.500
      16     35.000    109.500
      17     35.000    130.700
      18     63.000    120.000
      19     63.000    120.000
      20     63.000    120.000
      21     35.000    127.500
      22     70.000    107.300
      23     70.000    120.000
      24     35.000    127.500
      25     35.000    132.100
      26     85.000    120.700
      27     63.000    112.400
      28     70.000    114.100
      29     35.000    127.500
      30     33.000    107.800
      31     80.000    120.600
      32     80.000    125.300
      33     33.000    107.800
      34     70.000    110.600
      35     85.000    120.000
      36     35.000    125.700
      37     35.000    121.600
      38     70.000    108.700
      39     70.000    125.200
      40     70.000    120.000
      41     70.000    108.700
      42     33.000    107.800
      43     33.000    107.800
      44     85.000    120.700
      45     33.000    107.800
      46     63.000    112.400
      47     75.000    111.000
      48     35.000    113.400
      49     33.000    107.800

Dihedral Coeffs  

       1      2.000      0.000      0.000      0.000 
       2      0.000      5.000      0.000      0.000 
       3      0.000      0.000      0.000      0.000 
       4      2.000      0.000      0.000      0.000 
       5      0.000      0.000      0.000      0.000 
       6      0.000      2.170      0.000      0.000 
       7      0.000      2.170      0.000      0.000 
       8      0.000      2.170      0.000      0.000 
       9      2.000      0.000      0.000      0.000 
      10      0.000      7.250      0.000      0.000 
      11      0.000      7.250      0.000      0.000 
      12      0.000      0.000      0.000      0.000 
      13      0.000     14.000      0.000      0.000 
      14      0.000      0.000      0.000      0.000 
      15      0.000     14.000      0.000      0.000 
      16      2.000      0.000      0.000      0.000 
      17      2.500      6.000      0.000      0.000 
      18      0.000      4.900      0.000      0.000 
      19      0.000      0.000      0.000      0.000 
      20      0.000      0.000      0.000      0.000 
      21      0.000      5.000      0.000      0.000 
      22      0.000     10.750      0.000      0.000 
      23      0.000     14.000      0.000      0.000 
      24      0.000      7.250      0.000      0.000 
      25      0.000     14.000      0.000      0.000 
      26      0.000      1.300      2.200      0.000 
      27      0.000      7.250      0.000      0.000 
      28      0.000      4.900      0.000      0.000 
      29      0.000      4.900      0.000      0.000 
      30      0.000      2.170      0.000      0.000 
      31      0.000      4.900      0.000      0.000 
      32      0.000      2.170      0.000      0.000 
      33      0.000      4.900      0.000      0.000 
      34      2.500      6.000      0.000      0.000 
      35      2.000      0.000      0.000      0.000 
      36      2.500      6.000      0.000      0.000 
      37      0.000      2.170      0.000      0.000 
      38      0.000      4.900      0.000      0.000 
      39      0.000      0.000      0.000      0.000 
      40      2.000      0.000      0.000      0.000 
      41      0.000      2.170      0.000      0.000 
      42      0.000      0.000      0.000      0.000 
      43      0.000     10.750      0.000      0.000 
      44      2.500      6.000      0.000      0.000 
      45      0.000      0.000      0.000      0.000 
      46      0.000      0.000      0.000      0.000 
      47      0.000      2.170      0.000      0.000 
      48      0.000      7.250      0.000      0.000 
      49      2.300      6.089      0.000      0.000 
      50      0.000      7.250      0.000      0.000 
      51      0.000      5.000      0.000      0.000 
      52      0.000      7.250      0.000      0.000 
      53      0.000      2.170      0.000      0.000 
      54      0.000      0.000      0.000      0.000 
      55      0.000      2.170      0.000      0.000 
      56      0.000      7.250      0.000      0.000 
      57      0.000      7.250      0.000      0.000 
      58      0.000      7.250      0.000      0.000 
      59      0.000      7.250      0.000      0.000 
      60      0.000      7.250      0.000      0.000 
      61      0.000      2.170      0.000      0.000 
      62      0.000      2.170      0.000      0.000 
      63      0.000      0.000      0.000      0.000 
      64      0.000     14.000      0.000      0.000 
      65      0.000      7.250      0.000      0.000 
      66      0.000      7.250      0.000      0.000 
      67      0.000      5.000      0.000      0.000 
      68      2.300      6.089      0.000      0.000 

Improper Coeffs 

       1      0.000      -1       2 
       2      0.000      -1       2 
       3      0.000      -1       2 
       4      2.500      -1       2 
       5      2.500      -1       2 
       6     10.500      -1       2 
       7     10.500      -1       2 
       8      0.000      -1       2 
       9      0.000      -1       2 
      10      0.000      -1       2 
      11      2.500      -1       2 
      12      2.500      -1       2 
      13      2.500      -1       2 
      14      2.500      -1       2 
      15      2.500      -1       2 
      16      2.500      -1       2 

Atoms 

     1      1      1 0.28920000    1.000  1.00000  0.00000
     2      1      2 -0.29490000   -0.407  1.00000  0.00000
     3      1      3 -0.80110000    1.420  1.00000 -1.32571
     4      1      4 -0.27210000   -0.857  1.00000 -1.35775
     5      1      5 0.63270000    0.295  1.00000 -2.24575
     6      1      6 0.04230000    2.773  1.00144 -1.83217
     7      1      7 0.10880000    3.330  1.90548 -1.50872
     8      1      8 0.10880000    2.691  1.00226 -2.93634
     9      1      9 0.10880000    3.332  0.09918 -1.50759
    10      1     10 0.64270000   -1.565  1.00113  0.89182
    11      1     11 -0.77900000   -2.693  1.00175 -0.03372
    12      1     12 0.41840000   -2.267  1.00169 -1.35627
    13      1     13 -0.40660000    0.457  0.99868 -3.46604
    14      1     14 -0.40710000   -1.719  1.00266  2.10701
    15      1     15 0.03980000   -4.049  1.00077  0.45993
    16      1     16 0.10880000   -3.981  0.99959  1.56516
    17      1     17 0.10880000   -4.603  0.09702  0.13109
    18      1     18 0.10880000   -4.604  1.90489  0.13303
    19      1     19 0.20810000    1.716  0.99895  0.83165
    20      1     20 -0.03200000   -3.125  1.00455 -2.49623
    21      1     21 -0.15390000   -4.495  0.82792 -2.73712
    22      1     22 -0.25100000   -4.640  0.61765 -4.13349
    23      1     23 0.19040000   -5.290  0.85164 -1.98245
    24      1     24 -0.03290000   -3.353  0.67529 -4.68155
    25      1     25 -0.11760000   -2.452  0.90427 -3.68816
    26      1     26 0.19370000   -5.571  0.44243 -4.68377
    27      1     27 0.23780000   -2.947  0.57961 -5.69307

Bonds 

     1      1      2      1
     2      2      3      1
     3      3      4      2
     4      4      5      3
     5      5      6      3
     6      6      7      6
     7      7      8      6
     8      8      9      6
     9      9     10      2
    10     10     11     10
    11     11     12      4
    12     12     13      5
    13     13     14     10
    14     14     15     11
    15     15     16     15
    16     16     17     15
    17     17     18     15
    18     18     19      1
    19     19     20     12
    20     20     21     20
    21     21     22     21
    22     22     23     21
    23     23     24     22
    24     24     25     20
    25     25     26     22
    26     26     27     24
    27     27      5      4
    28     28     12     11
    29     29     25     24

Angles 

     1      1      2      1      3
     2      2      1      2      4
     3      3      1      3      5
     4      4      1      3      6
     5      5      3      6      7
     6      6      3      6      8
     7      7      3      6      9
     8      8      1      2     10
     9      9      2     10     11
    10     10      2      4     12
    11     11      3      5     13
    12     12      2     10     14
    13     13     10     11     15
    14     14     11     15     16
    15     15     11     15     17
    16     16     11     15     18
    17     17      2      1     19
    18     18      4     12     20
    19     19     12     20     21
    20     20     20     21     22
    21     21     20     21     23
    22     22     21     22     24
    23     23     12     20     25
    24     24     21     22     26
    25     25     22     24     27
    26     26      4      2     10
    27     27     12     11     15
    28     28      3      5      4
    29     29     22     21     23
    30     30      7      6      9
    31     31     11     10     14
    32     32      4      5     13
    33     33     16     15     18
    34     34     22     24     25
    35     35      5      4     12
    36     36     24     22     26
    37     37      3      1     19
    38     38      4     12     11
    39     39     10     11     12
    40     40     21     20     25
    41     41     11     12     20
    42     42      7      6      8
    43     43     16     15     17
    44     44      2      4      5
    45     45      8      6      9
    46     46      5      3      6
    47     47     20     25     24
    48     48     25     24     27
    49     49     17     15     18

Dihedrals

     1      1      4      2      1      3 
     2      2      5      3      1      2 
     3      3      7      6      3      1 
     4      4     11     10      2      1 
     5      5     16     15     11     10 
     6      6     21     20     12      4 
     7      7     22     21     20     12 
     8      8     24     22     21     20 
     9      9     11     12      4      2 
    10     10     22     24     25     20 
    11     11     23     21     20     12 
    12     12      9      6      3      5 
    13     13      5      4      2      1 
    14     14     17     15     11     12 
    15     15     12      4      2     10 
    16     16      3      5      4      2 
    17     17     14     10      2      4 
    18     18     14     10     11     12 
    19     19     17     15     11     10 
    20     20      7      6      3      5 
    21     21     19      1      3      5 
    22     22     19      1      2      4 
    23     23     11     12      4      5 
    24     24     26     22     21     20 
    25     25     12      4      2      1 
    26     26     10     11     12      4 
    27     27     26     22     21     23 
    28     28     15     11     10     14 
    29     29     13      5      3      1 
    30     30     20     12      4      5 
    31     31      6      3      5      4 
    32     32     25     20     21     22 
    33     33     15     11     10      2 
    34     34     14     10      2      1 
    35     35     12      4      5      3 
    36     36     13      5      4      2 
    37     37     20     12     11     15 
    38     38     13      5      3      6 
    39     39      9      6      3      1 
    40     40     11     10      2      4 
    41     41     25     20     12      4 
    42     42     18     15     11     12 
    43     43     19      1      2     10 
    44     44     13      5      4     12 
    45     45     16     15     11     12 
    46     46     18     15     11     10 
    47     47     25     20     12     11 
    48     48     27     24     25     20 
    49     49      4      5      3      1 
    50     50     24     22     21     23 
    51     51      6      3      1      2 
    52     52     24     25     20     21 
    53     53     20     12     11     10 
    54     54      8      6      3      5 
    55     55     15     11     12      4 
    56     56     24     25     20     12 
    57     57     27     24     22     21 
    58     58     27     24     22     26 
    59     59     10      2      1      3 
    60     60     25     24     22     21 
    61     61     20     12      4      2 
    62     62     21     20     12     11 
    63     63      8      6      3      1 
    64     64     10      2      4      5 
    65     65     25     20     21     23 
    66     66     26     22     24     25 
    67     67     19      1      3      6 
    68     68     12     11     10      2 

Impropers

     1      1      3      1      5      6 
     2      2      6      3      7      8 
     3      3      6      9      3      7 
     4      4      2      1     10      4 
     5      5      4      2     12      5 
     6      6      5      3      4     13 
     7      7     10     11     14      2 
     8      8     11     10     12     15 
     9      9     15     17     11     16 
    10     10     15     18     11     16 
    11     11      1      2     19      3 
    12     12     12      4     11     20 
    13     13     21     20     22     23 
    14     14     20     25     12     21 
    15     15     22     26     21     24 
    16     16     24     25     27     22 

