LAMMPS data file Created by LigParGen - (Written by Leela S. Dodda)

      19 atoms
      21 bonds
      33 angles
      48 dihedrals
      10 impropers
 
      19 atom types
      21 bond types
      33 angle types
      48 dihedral types
      10 improper types
 
   -1.837000    48.163000 xlo xhi
    0.984360    50.984360 ylo yhi
   -0.887250    49.112750 zlo zhi

Masses

       1     12.011  
       2     12.011  
       3     12.011  
       4      1.008  
       5     12.011  
       6     15.999  
       7      1.008  
       8      1.008  
       9     12.011  
      10     12.011  
      11     12.011  
      12      1.008  
      13     32.060  
      14     12.011  
      15     32.060  
      16     12.011  
      17     12.011  
      18      1.008  
      19      1.008  

Pair Coeffs 

       1      0.070  3.5500000 
       2      0.070  3.5500000 
       3      0.070  3.5500000 
       4      0.030  2.4200000 
       5      0.070  3.5500000 
       6      0.140  2.9000000 
       7      0.030  2.4200000 
       8      0.030  2.4200000 
       9      0.070  3.5500000 
      10      0.070  3.5500000 
      11      0.070  3.5500000 
      12      0.030  2.4200000 
      13      0.355  3.6000000 
      14      0.070  3.5500000 
      15      0.355  3.6000000 
      16      0.070  3.5500000 
      17      0.070  3.5500000 
      18      0.030  2.4200000 
      19      0.030  2.4200000 

Bond Coeffs 

       1   546.0000     1.3670 
       2   469.0000     1.4240 
       3   367.0000     1.0800 
       4   469.0000     1.4240 
       5   340.0000     1.3600 
       6   367.0000     1.0800 
       7   367.0000     1.0800 
       8   469.0000     1.4240 
       9   469.0000     1.4240 
      10   469.0000     1.4240 
      11   367.0000     1.0800 
      12   250.0000     1.7600 
      13   469.0000     1.4240 
      14   250.0000     1.7600 
      15   250.0000     1.7400 
      16   469.0000     1.4240 
      17   367.0000     1.0800 
      18   367.0000     1.0800 
      19   450.0000     1.3640 
      20   250.0000     1.7600 
      21   546.0000     1.3670 

Angle Coeffs 

       1     70.000    107.300
       2     35.000    125.700
       3     63.000    120.000
       4     70.000    110.600
       5     35.000    127.500
       6     35.000    132.100
       7     63.000    120.000
       8     63.000    120.000
       9     63.000    120.000
      10     35.000    127.500
      11     85.000    119.400
      12     63.000    120.000
      13     85.000    119.400
      14     63.000    112.400
      15     63.000    120.000
      16     35.000    127.500
      17     35.000    125.000
      18     85.000    119.400
      19     35.000    127.500
      20     85.000    119.400
      21     35.000    125.700
      22     85.000    119.400
      23     70.000    107.300
      24     35.000    127.500
      25     35.000    127.500
      26     70.000    120.000
      27     70.000    111.170
      28     35.000    132.100
      29     85.000    119.400
      30     75.000    111.000
      31     70.000    120.000
      32     63.000    112.400
      33     35.000    113.400

Dihedral Coeffs  

       1      0.000      2.170      0.000      0.000 
       2      0.000      7.250      0.000      0.000 
       3      0.000      2.170      0.000      0.000 
       4      0.000      2.170      0.000      0.000 
       5      0.000      2.170      0.000      0.000 
       6      0.000      2.170      0.000      0.000 
       7      0.000      2.170      0.000      0.000 
       8      0.000      2.170      0.000      0.000 
       9      0.000      7.250      0.000      0.000 
      10      0.000      7.250      0.000      0.000 
      11      0.000      7.250      0.000      0.000 
      12      0.000      2.170      0.000      0.000 
      13      0.000      7.250      0.000      0.000 
      14      0.000      7.250      0.000      0.000 
      15      0.000      7.250      0.000      0.000 
      16      0.000      2.170      0.000      0.000 
      17      0.000      7.250      0.000      0.000 
      18      0.000      7.250      0.000      0.000 
      19      0.000      2.170      0.000      0.000 
      20      0.000      7.250      0.000      0.000 
      21      0.000      2.170      0.000      0.000 
      22      0.000      7.250      0.000      0.000 
      23      0.000      2.170      0.000      0.000 
      24      0.000      7.250      0.000      0.000 
      25      0.000      0.000      0.000      0.000 
      26      0.000      2.170      0.000      0.000 
      27      0.000      2.170      0.000      0.000 
      28      0.000      7.250      0.000      0.000 
      29      0.000      2.170      0.000      0.000 
      30      0.000      7.250      0.000      0.000 
      31      0.000      2.170      0.000      0.000 
      32      0.000      2.170      0.000      0.000 
      33      0.000      2.170      0.000      0.000 
      34      0.000      7.250      0.000      0.000 
      35      0.000      7.250      0.000      0.000 
      36      0.000      7.250      0.000      0.000 
      37      0.000      2.170      0.000      0.000 
      38      0.000      7.250      0.000      0.000 
      39      0.000      7.250      0.000      0.000 
      40      0.000      2.170      0.000      0.000 
      41      0.000      7.250      0.000      0.000 
      42      0.000      7.250      0.000      0.000 
      43      0.000      2.100      0.000      0.000 
      44      0.000      2.170      0.000      0.000 
      45      0.000      7.250      0.000      0.000 
      46      0.000      7.250      0.000      0.000 
      47      0.000      7.250      0.000      0.000 
      48      0.000      2.170      0.000      0.000 

Improper Coeffs 

       1      2.500      -1       2 
       2      2.500      -1       2 
       3      2.500      -1       2 
       4      2.500      -1       2 
       5      2.500      -1       2 
       6      2.500      -1       2 
       7      2.500      -1       2 
       8      2.500      -1       2 
       9      2.500      -1       2 
      10      2.500      -1       2 

Atoms 

     1      1      1 -0.08870000    1.000  1.00000  0.00000
     2      1      2 -0.21890000   -0.402  1.00000  0.00000
     3      1      3 -0.21120000   -0.810  1.00000  1.35957
     4      1      4 0.18750000   -1.046  0.99888 -0.88725
     5      1      5 0.05070000    0.360  1.00000  2.12748
     6      1      6 -0.16010000    1.438  1.00000  1.30044
     7      1      7 0.18900000   -1.837  1.00110  1.74309
     8      1      8 0.22740000    1.771  1.00098 -0.77533
     9      1      9 -0.08110000    0.668  0.99873  3.52654
    10      1     10 -0.07110000    1.960  0.99761  4.06949
    11      1     11 -0.14090000    1.904  0.99486  5.48196
    12      1     12 0.19980000    2.872  0.99760  3.45864
    13      1     13 0.09760000   -0.608  1.00037  4.75098
    14      1     14 -0.13190000    0.590  0.99387  6.02282
    15      1     15 0.06970000    3.101  0.99389  6.75409
    16      1     16 -0.19810000    1.825  0.98778  7.97949
    17      1     17 -0.10250000    0.533  0.98962  7.43516
    18      1     18 0.18770000   -0.380  0.98681  8.04367
    19      1     19 0.19500000    2.107  0.98436  9.03968

Bonds 

     1      1      2      1
     2      2      3      2
     3      3      4      2
     4      4      5      3
     5      5      6      1
     6      6      7      3
     7      7      8      1
     8      8      9      5
     9      9     10      9
    10     10     11     10
    11     11     12     10
    12     12     13      9
    13     13     14     11
    14     14     15     11
    15     15     16     15
    16     16     17     14
    17     17     18     17
    18     18     19     16
    19     19      6      5
    20     20     14     13
    21     21     17     16

Angles 

     1      1      1      2      3
     2      2      1      2      4
     3      3      2      3      5
     4      4      2      1      6
     5      5      2      3      7
     6      6      2      1      8
     7      7      3      5      9
     8      8      5      9     10
     9      9      9     10     11
    10     10      9     10     12
    11     11      5      9     13
    12     12     10     11     14
    13     13     10     11     15
    14     14     11     15     16
    15     15     11     14     17
    16     16     14     17     18
    17     17     15     16     19
    18     18     14     11     15
    19     19     11     10     12
    20     20     10      9     13
    21     21     16     17     18
    22     22     11     14     13
    23     23     14     17     16
    24     24      5      3      7
    25     25      3      2      4
    26     26      6      5      9
    27     27     15     16     17
    28     28     17     16     19
    29     29     13     14     17
    30     30      1      6      5
    31     31      3      5      6
    32     32      9     13     14
    33     33      6      1      8

Dihedrals

     1      1      5      3      2      1 
     2      2      6      1      2      3 
     3      3     10      9      5      3 
     4      4     11     10      9      5 
     5      5     14     11     10      9 
     6      6     16     15     11     10 
     7      7     13      9     10     11 
     8      8     17     14     11     10 
     9      9     19     16     17     14 
    10     10     13      9     10     12 
    11     11      5      6      1      2 
    12     12     14     13      9     10 
    13     13     19     16     17     18 
    14     14      8      1      2      4 
    15     15      9      5      6      1 
    16     16     13     14     11     10 
    17     17      6      1      2      4 
    18     18     18     17     14     11 
    19     19     16     17     14     13 
    20     20      7      3      2      1 
    21     21     11     14     13      9 
    22     22     19     16     15     11 
    23     23      6      5      3      2 
    24     24     14     11     10     12 
    25     25     17     16     15     11 
    26     26     16     15     11     14 
    27     27     13      9      5      6 
    28     28     12     10      9      5 
    29     29     13      9      5      3 
    30     30     15     11     14     13 
    31     31     10      9      5      6 
    32     32     17     14     13      9 
    33     33     14     13      9      5 
    34     34      8      1      2      3 
    35     35     18     17     16     15 
    36     36     15     11     10     12 
    37     37     15     11     10      9 
    38     38      5      3      2      4 
    39     39      7      3      5      6 
    40     40      9      5      3      2 
    41     41      3      5      6      1 
    42     42      7      3      2      4 
    43     43     15     16     17     14 
    44     44     17     14     11     15 
    45     45      8      1      6      5 
    46     46      9      5      3      7 
    47     47     18     17     14     13 
    48     48     16     17     14     11 

Impropers

     1      1      2      1      3      4 
     2      2      3      2      5      7 
     3      3      1      2      6      8 
     4      4      5      9      3      6 
     5      5     10      9     11     12 
     6      6      9      5     13     10 
     7      7     11     10     14     15 
     8      8     14     17     11     13 
     9      9     17     18     14     16 
    10     10     16     17     19     15 

