LAMMPS data file Created by LigParGen - (Written by Leela S. Dodda)

      27 atoms
      29 bonds
      49 angles
      68 dihedrals
      16 impropers
 
      27 atom types
      29 bond types
      49 angle types
      68 dihedral types
      16 improper types
 
   -2.030140    47.969860 xlo xhi
    0.058080    50.058080 ylo yhi
   -0.885530    49.114470 zlo zhi

Masses

       1     12.011  
       2     12.011  
       3     12.011  
       4      1.008  
       5     12.011  
       6      1.008  
       7     15.999  
       8      1.008  
       9     12.011  
      10     12.011  
      11     14.007  
      12     12.011  
      13     12.011  
      14     12.011  
      15      1.008  
      16      1.008  
      17      1.008  
      18     12.011  
      19     14.007  
      20     12.011  
      21     15.999  
      22     15.999  
      23     12.011  
      24      1.008  
      25      1.008  
      26      1.008  
      27      1.008  

Pair Coeffs 

       1      0.070  3.5500000 
       2      0.070  3.5500000 
       3      0.070  3.5500000 
       4      0.030  2.4200000 
       5      0.070  3.5500000 
       6      0.030  2.4200000 
       7      0.140  2.9000000 
       8      0.030  2.4200000 
       9      0.070  3.5500000 
      10      0.076  3.5500000 
      11      0.170  3.2500000 
      12      0.076  3.5500000 
      13      0.070  3.5500000 
      14      0.066  3.5000000 
      15      0.030  2.5000000 
      16      0.030  2.5000000 
      17      0.030  2.5000000 
      18      0.070  3.5500000 
      19      0.170  3.2500000 
      20      0.070  3.5500000 
      21      0.210  2.9600000 
      22      0.210  2.9600000 
      23      0.066  3.5000000 
      24      0.030  2.5000000 
      25      0.030  2.5000000 
      26      0.030  2.5000000 
      27      0.030  2.4200000 

Bond Coeffs 

       1   546.0000     1.3670 
       2   469.0000     1.4240 
       3   367.0000     1.0800 
       4   469.0000     1.4240 
       5   367.0000     1.0800 
       6   340.0000     1.3600 
       7   367.0000     1.0800 
       8   469.0000     1.4240 
       9   427.0000     1.4330 
      10   427.0000     1.3810 
      11   549.0000     1.3400 
      12   418.0000     1.3880 
      13   337.0000     1.4750 
      14   340.0000     1.0900 
      15   340.0000     1.0900 
      16   340.0000     1.0900 
      17   410.0000     1.4440 
      18   418.0000     1.3880 
      19   427.0000     1.4330 
      20   570.0000     1.2290 
      21   570.0000     1.2290 
      22   337.0000     1.4750 
      23   340.0000     1.0900 
      24   340.0000     1.0900 
      25   340.0000     1.0900 
      26   367.0000     1.0800 
      27   450.0000     1.3640 
      28   410.0000     1.4440 
      29   427.0000     1.3810 

Angle Coeffs 

       1     70.000    107.300
       2     35.000    125.700
       3     63.000    120.000
       4     35.000    127.500
       5     70.000    110.600
       6     35.000    132.100
       7     63.000    120.000
       8     63.000    120.000
       9     70.000    108.700
      10     85.000    117.000
      11     70.000    125.200
      12     63.000    112.400
      13     35.000    109.500
      14     35.000    109.500
      15     35.000    109.500
      16     85.000    120.000
      17     70.000    114.100
      18     85.000    117.000
      19     80.000    120.600
      20     80.000    125.300
      21     63.000    112.400
      22     35.000    109.500
      23     35.000    109.500
      24     35.000    109.500
      25     35.000    130.700
      26     85.000    120.700
      27     33.000    107.800
      28     85.000    120.000
      29     75.000    111.000
      30     70.000    120.000
      31     33.000    107.800
      32     70.000    120.000
      33     85.000    120.700
      34     33.000    107.800
      35     35.000    121.600
      36     33.000    107.800
      37     70.000    121.600
      38     80.000    120.600
      39     35.000    127.500
      40     70.000    114.100
      41     80.000    125.300
      42     70.000    108.700
      43     63.000    112.400
      44     35.000    113.400
      45     35.000    127.500
      46     33.000    107.800
      47     33.000    107.800
      48     70.000    125.200
      49     63.000    112.400

Dihedral Coeffs  

       1      0.000      2.170      0.000      0.000 
       2      0.000      7.250      0.000      0.000 
       3      0.000      2.170      0.000      0.000 
       4      0.000      2.170      0.000      0.000 
       5      0.000      2.170      0.000      0.000 
       6      0.000      0.000      0.000      0.000 
       7      2.000      0.000      0.000      0.000 
       8      0.000      0.000      0.000      0.000 
       9      0.000      0.000      0.000      0.000 
      10      0.000      2.170      0.000      0.000 
      11      0.000      2.170      0.000      0.000 
      12      0.000     14.000      0.000      0.000 
      13      2.300      6.089      0.000      0.000 
      14      0.000      4.900      0.000      0.000 
      15      0.000     14.000      0.000      0.000 
      16      0.000      0.000      0.000      0.000 
      17      0.000      4.900      0.000      0.000 
      18      0.000     10.750      0.000      0.000 
      19      0.000      2.170      0.000      0.000 
      20      0.000      0.000      0.000      0.000 
      21      2.300      6.089      0.000      0.000 
      22      0.000      7.250      0.000      0.000 
      23      0.000      0.000      0.000      0.000 
      24      2.500      6.000      0.000      0.000 
      25      0.000     14.000      0.000      0.000 
      26      0.000      7.250      0.000      0.000 
      27      0.000     10.750      0.000      0.000 
      28      0.000      0.000      0.000      0.000 
      29      2.000      0.000      0.000      0.000 
      30      0.000      7.250      0.000      0.000 
      31      0.000      5.000      0.000      0.000 
      32      0.000      5.000      0.000      0.000 
      33      2.500      6.000      0.000      0.000 
      34      0.000      7.250      0.000      0.000 
      35      0.000      2.170      0.000      0.000 
      36      0.000      7.250      0.000      0.000 
      37      0.000      1.300      2.200      0.000 
      38      0.000      7.250      0.000      0.000 
      39      0.000      0.000      0.000      0.000 
      40      0.000      2.170      0.000      0.000 
      41      2.000      0.000      0.000      0.000 
      42      0.000      4.900      0.000      0.000 
      43      0.000      4.900      0.000      0.000 
      44      0.000      5.000      0.000      0.000 
      45      0.000      0.000      0.000      0.000 
      46      0.000      0.000      0.000      0.000 
      47      2.500      6.000      0.000      0.000 
      48      0.000      4.900      0.000      0.000 
      49      0.000      7.250      0.000      0.000 
      50      2.500      6.000      0.000      0.000 
      51      0.000      7.250      0.000      0.000 
      52      0.000      2.170      0.000      0.000 
      53      0.000      7.250      0.000      0.000 
      54      0.000      0.000      0.000      0.000 
      55      0.000     14.000      0.000      0.000 
      56      0.000      2.170      0.000      0.000 
      57      0.000      7.250      0.000      0.000 
      58      0.000      5.000      0.000      0.000 
      59      2.000      0.000      0.000      0.000 
      60      0.000      7.250      0.000      0.000 
      61      2.000      0.000      0.000      0.000 
      62      0.000      7.250      0.000      0.000 
      63      0.000      4.900      0.000      0.000 
      64      0.000      2.170      0.000      0.000 
      65      2.000      0.000      0.000      0.000 
      66      0.000      0.000      0.000      0.000 
      67      0.000     14.000      0.000      0.000 
      68      0.000      7.250      0.000      0.000 

Improper Coeffs 

       1      2.500      -1       2 
       2      2.500      -1       2 
       3      2.500      -1       2 
       4      2.500      -1       2 
       5      2.500      -1       2 
       6      0.000      -1       2 
       7      0.000      -1       2 
       8      0.000      -1       2 
       9      2.500      -1       2 
      10      2.500      -1       2 
      11     10.500      -1       2 
      12     10.500      -1       2 
      13      0.000      -1       2 
      14      0.000      -1       2 
      15      0.000      -1       2 
      16      2.500      -1       2 

Atoms 

     1      1      1 -0.03860000    1.000  1.00000  0.00000
     2      1      2 -0.24820000   -0.400  1.00000  0.00000
     3      1      3 -0.15580000   -0.805  1.00000  1.36046
     4      1      4 0.19340000   -1.046  0.99888 -0.88553
     5      1      5 -0.02810000    0.367  1.00000  2.12944
     6      1      6 0.19040000   -1.831  1.00110  1.74617
     7      1      7 -0.12210000    1.447  1.00000  1.28611
     8      1      8 0.23710000    1.765  1.00099 -0.78207
     9      1      9 0.41460000    0.749  1.00120  3.51227
    10      1     10 -0.26560000    2.040  1.15928  4.04778
    11      1     11 -0.78070000   -0.161  1.13747  4.55572
    12      1     12 -0.29590000    1.918  1.39652  5.45287
    13      1     13 0.63980000    0.510  1.39400  5.81991
    14      1     14 0.04030000   -1.601  1.05467  4.49928
    15      1     15 0.10910000   -2.030  1.83542  3.83706
    16      1     16 0.10910000   -1.964  1.21826  5.53272
    17      1     17 0.10910000   -1.940  0.05808  4.14710
    18      1     18 0.63480000    3.455  1.16788  3.67790
    19      1     19 -0.80410000    4.125  1.42242  4.94792
    20      1     20 0.29510000    3.214  1.55165  5.98899
    21      1     21 -0.41440000   -0.120  1.54807  6.86628
    22      1     22 -0.39720000    4.074  1.01946  2.63153
    23      1     23 0.04310000    5.564  1.51062  5.01496
    24      1     24 0.10880000    5.937  1.35278  3.98400
    25      1     25 0.10880000    5.991  0.72896  5.67709
    26      1     26 0.10880000    5.897  2.50810  5.37052
    27      1     27 0.20840000    3.539  1.74226  7.01960

Bonds 

     1      1      2      1
     2      2      3      2
     3      3      4      2
     4      4      5      3
     5      5      6      3
     6      6      7      1
     7      7      8      1
     8      8      9      5
     9      9     10      9
    10     10     11      9
    11     11     12     10
    12     12     13     11
    13     13     14     11
    14     14     15     14
    15     15     16     14
    16     16     17     14
    17     17     18     10
    18     18     19     18
    19     19     20     12
    20     20     21     13
    21     21     22     18
    22     22     23     19
    23     23     24     23
    24     24     25     23
    25     25     26     23
    26     26     27     20
    27     27      7      5
    28     28     13     12
    29     29     20     19

Angles 

     1      1      1      2      3
     2      2      1      2      4
     3      3      2      3      5
     4      4      2      3      6
     5      5      2      1      7
     6      6      2      1      8
     7      7      3      5      9
     8      8      5      9     10
     9      9      5      9     11
    10     10      9     10     12
    11     11      9     11     13
    12     12      9     11     14
    13     13     11     14     15
    14     14     11     14     16
    15     15     11     14     17
    16     16      9     10     18
    17     17     10     18     19
    18     18     10     12     20
    19     19     11     13     21
    20     20     10     18     22
    21     21     18     19     23
    22     22     19     23     24
    23     23     19     23     25
    24     24     19     23     26
    25     25     12     20     27
    26     26     10     12     13
    27     27     15     14     16
    28     28     13     12     20
    29     29      1      7      5
    30     30      3      5      7
    31     31     15     14     17
    32     32      7      5      9
    33     33     12     10     18
    34     34     16     14     17
    35     35     19     20     27
    36     36     24     23     26
    37     37     12     20     19
    38     38     19     18     22
    39     39      3      2      4
    40     40     11     13     12
    41     41     12     13     21
    42     42     10      9     11
    43     43     13     11     14
    44     44      7      1      8
    45     45      5      3      6
    46     46     25     23     26
    47     47     24     23     25
    48     48     18     19     20
    49     49     20     19     23

Dihedrals

     1      1      5      3      2      1 
     2      2      7      1      2      3 
     3      3     10      9      5      3 
     4      4     12     10      9      5 
     5      5     13     11      9      5 
     6      6     15     14     11      9 
     7      7     19     18     10      9 
     8      8     24     23     19     18 
     9      9     25     23     19     18 
    10     10     14     11      9     10 
    11     11     11      9      5      3 
    12     12     20     12     10      9 
    13     13     20     19     18     10 
    14     14     14     11     13     12 
    15     15     18     10      9     11 
    16     16     25     23     19     20 
    17     17     23     19     18     10 
    18     18     27     20     12     13 
    19     19     18     10      9      5 
    20     20     16     14     11     13 
    21     21     12     13     11      9 
    22     22      8      1      2      4 
    23     23     26     23     19     20 
    24     24     22     18     10      9 
    25     25     13     12     10      9 
    26     26      6      3      2      4 
    27     27     27     20     12     10 
    28     28     17     14     11     13 
    29     29     12     10      9     11 
    30     30      3      5      7      1 
    31     31     23     19     20     12 
    32     32     18     19     20     12 
    33     33     22     18     10     12 
    34     34     19     20     12     13 
    35     35     10      9      5      7 
    36     36      8      1      7      5 
    37     37     13     11      9     10 
    38     38      7      1      2      4 
    39     39     26     23     19     18 
    40     40     11      9      5      7 
    41     41     11     13     12     10 
    42     42     21     13     11     14 
    43     43     22     18     19     20 
    44     44     27     20     19     18 
    45     45     15     14     11     13 
    46     46     17     14     11      9 
    47     47     21     13     12     10 
    48     48     23     19     18     22 
    49     49      5      7      1      2 
    50     50     21     13     12     20 
    51     51      6      3      2      1 
    52     52      7      5      3      2 
    53     53      8      1      2      3 
    54     54     16     14     11      9 
    55     55     18     10     12     13 
    56     56     14     11      9      5 
    57     57      9      5      3      6 
    58     58     27     20     19     23 
    59     59     19     20     12     10 
    60     60      5      3      2      4 
    61     61     19     18     10     12 
    62     62      7      5      3      6 
    63     63     21     13     11      9 
    64     64      9      5      3      2 
    65     65     20     12     13     11 
    66     66     24     23     19     20 
    67     67     20     12     10     18 
    68     68      9      5      7      1 

Impropers

     1      1      2      1      3      4 
     2      2      3      2      5      6 
     3      3      1      2      7      8 
     4      4      5      9      3      7 
     5      5      9     10     11      5 
     6      6     11      9     13     14 
     7      7     14     11     15     16 
     8      8     14     17     11     15 
     9      9     10      9     18     12 
    10     10     12     10     20     13 
    11     11     13     11     12     21 
    12     12     18     19     22     10 
    13     13     19     18     20     23 
    14     14     23     25     19     24 
    15     15     23     26     19     24 
    16     16     20     12     27     19 

