LAMMPS data file Created by LigParGen - (Written by Leela S. Dodda)

      34 atoms
      37 bonds
      62 angles
      88 dihedrals
      20 impropers
 
      34 atom types
      37 bond types
      62 angle types
      88 dihedral types
      20 improper types
 
   -1.986880    48.013120 xlo xhi
    0.098940    50.098940 ylo yhi
   -0.886020    49.113980 zlo zhi

Masses

       1     12.011  
       2     12.011  
       3     12.011  
       4      1.008  
       5     12.011  
       6      1.008  
       7     15.999  
       8      1.008  
       9     12.011  
      10     12.011  
      11     14.007  
      12     12.011  
      13     12.011  
      14     12.011  
      15      1.008  
      16      1.008  
      17      1.008  
      18     12.011  
      19     14.007  
      20     12.011  
      21     15.999  
      22     15.999  
      23     12.011  
      24      1.008  
      25      1.008  
      26      1.008  
      27     12.011  
      28     12.011  
      29     12.011  
      30      1.008  
      31     12.011  
      32     15.999  
      33      1.008  
      34      1.008  

Pair Coeffs 

       1      0.070  3.5500000 
       2      0.070  3.5500000 
       3      0.070  3.5500000 
       4      0.030  2.4200000 
       5      0.070  3.5500000 
       6      0.030  2.4200000 
       7      0.140  2.9000000 
       8      0.030  2.4200000 
       9      0.070  3.5500000 
      10      0.076  3.5500000 
      11      0.170  3.2500000 
      12      0.076  3.5500000 
      13      0.070  3.5500000 
      14      0.066  3.5000000 
      15      0.030  2.5000000 
      16      0.030  2.5000000 
      17      0.030  2.5000000 
      18      0.070  3.5500000 
      19      0.170  3.2500000 
      20      0.070  3.5500000 
      21      0.210  2.9600000 
      22      0.210  2.9600000 
      23      0.066  3.5000000 
      24      0.030  2.5000000 
      25      0.030  2.5000000 
      26      0.030  2.5000000 
      27      0.070  3.5500000 
      28      0.070  3.5500000 
      29      0.070  3.5500000 
      30      0.030  2.4200000 
      31      0.070  3.5500000 
      32      0.140  2.9000000 
      33      0.030  2.4200000 
      34      0.030  2.4200000 

Bond Coeffs 

       1   546.0000     1.3670 
       2   469.0000     1.4240 
       3   367.0000     1.0800 
       4   469.0000     1.4240 
       5   367.0000     1.0800 
       6   340.0000     1.3600 
       7   367.0000     1.0800 
       8   469.0000     1.4240 
       9   427.0000     1.4330 
      10   427.0000     1.3810 
      11   549.0000     1.3400 
      12   418.0000     1.3880 
      13   337.0000     1.4750 
      14   340.0000     1.0900 
      15   340.0000     1.0900 
      16   340.0000     1.0900 
      17   410.0000     1.4440 
      18   418.0000     1.3880 
      19   427.0000     1.4330 
      20   570.0000     1.2290 
      21   570.0000     1.2290 
      22   337.0000     1.4750 
      23   340.0000     1.0900 
      24   340.0000     1.0900 
      25   340.0000     1.0900 
      26   469.0000     1.4240 
      27   469.0000     1.4240 
      28   469.0000     1.4240 
      29   367.0000     1.0800 
      30   546.0000     1.3670 
      31   450.0000     1.3640 
      32   367.0000     1.0800 
      33   367.0000     1.0800 
      34   450.0000     1.3640 
      35   410.0000     1.4440 
      36   427.0000     1.3810 
      37   340.0000     1.3600 

Angle Coeffs 

       1     70.000    107.300
       2     35.000    125.700
       3     63.000    120.000
       4     35.000    127.500
       5     70.000    110.600
       6     35.000    132.100
       7     63.000    120.000
       8     63.000    120.000
       9     70.000    108.700
      10     85.000    117.000
      11     70.000    125.200
      12     63.000    112.400
      13     35.000    109.500
      14     35.000    109.500
      15     35.000    109.500
      16     85.000    120.000
      17     70.000    114.100
      18     85.000    117.000
      19     80.000    120.600
      20     80.000    125.300
      21     63.000    112.400
      22     35.000    109.500
      23     35.000    109.500
      24     35.000    109.500
      25     63.000    120.000
      26     63.000    120.000
      27     63.000    120.000
      28     35.000    127.500
      29     70.000    107.300
      30     70.000    120.000
      31     35.000    127.500
      32     35.000    132.100
      33     75.000    111.000
      34     85.000    120.700
      35     33.000    107.800
      36     85.000    120.000
      37     75.000    111.000
      38     70.000    120.000
      39     35.000    127.500
      40     33.000    107.800
      41     70.000    120.000
      42     85.000    120.700
      43     33.000    107.800
      44     70.000    108.700
      45     33.000    107.800
      46     70.000    108.700
      47     80.000    120.600
      48     35.000    113.400
      49     35.000    127.500
      50     70.000    114.100
      51     80.000    125.300
      52     70.000    108.700
      53     35.000    125.700
      54     63.000    112.400
      55     35.000    113.400
      56     70.000    120.000
      57     35.000    127.500
      58     70.000    110.600
      59     33.000    107.800
      60     33.000    107.800
      61     70.000    125.200
      62     63.000    112.400

Dihedral Coeffs  

       1      0.000      2.170      0.000      0.000 
       2      0.000      7.250      0.000      0.000 
       3      0.000      2.170      0.000      0.000 
       4      0.000      2.170      0.000      0.000 
       5      0.000      2.170      0.000      0.000 
       6      0.000      0.000      0.000      0.000 
       7      2.000      0.000      0.000      0.000 
       8      0.000      0.000      0.000      0.000 
       9      0.000      2.170      0.000      0.000 
      10      0.000      2.170      0.000      0.000 
      11      0.000      2.170      0.000      0.000 
      12      0.000      2.170      0.000      0.000 
      13      2.300      6.089      0.000      0.000 
      14      0.000      2.170      0.000      0.000 
      15      0.000      7.250      0.000      0.000 
      16      0.000      7.250      0.000      0.000 
      17      0.000      2.170      0.000      0.000 
      18      0.000      7.250      0.000      0.000 
      19      0.000      1.300      2.200      0.000 
      20      0.000      2.170      0.000      0.000 
      21      0.000      4.900      0.000      0.000 
      22      0.000      0.000      0.000      0.000 
      23      0.000      7.250      0.000      0.000 
      24      2.000      0.000      0.000      0.000 
      25      2.500      6.000      0.000      0.000 
      26      0.000      7.250      0.000      0.000 
      27      0.000      7.250      0.000      0.000 
      28      0.000      7.250      0.000      0.000 
      29      0.000      7.250      0.000      0.000 
      30      0.000      7.250      0.000      0.000 
      31      2.500      6.000      0.000      0.000 
      32      0.000     14.000      0.000      0.000 
      33      0.000      7.250      0.000      0.000 
      34      0.000      2.170      0.000      0.000 
      35      0.000      7.250      0.000      0.000 
      36      2.500      6.000      0.000      0.000 
      37      0.000     14.000      0.000      0.000 
      38      0.000      7.250      0.000      0.000 
      39      0.000      7.250      0.000      0.000 
      40      0.000      2.170      0.000      0.000 
      41      0.000      1.300      2.200      0.000 
      42      0.000      0.000      0.000      0.000 
      43      0.000      0.000      0.000      0.000 
      44      0.000      7.250      0.000      0.000 
      45      2.000      0.000      0.000      0.000 
      46      0.000      7.250      0.000      0.000 
      47      0.000      7.250      0.000      0.000 
      48      2.000      0.000      0.000      0.000 
      49      0.000      2.170      0.000      0.000 
      50      0.000      2.170      0.000      0.000 
      51      0.000      7.250      0.000      0.000 
      52      0.000      2.170      0.000      0.000 
      53      0.000      0.000      0.000      0.000 
      54      0.000      0.000      0.000      0.000 
      55      0.000      7.250      0.000      0.000 
      56      0.000      0.000      0.000      0.000 
      57      2.300      6.089      0.000      0.000 
      58      0.000      7.250      0.000      0.000 
      59      0.000      7.250      0.000      0.000 
      60      0.000     14.000      0.000      0.000 
      61      0.000      4.900      0.000      0.000 
      62      0.000     14.000      0.000      0.000 
      63      0.000      2.170      0.000      0.000 
      64      0.000      7.250      0.000      0.000 
      65      0.000      2.170      0.000      0.000 
      66      0.000      0.000      0.000      0.000 
      67      0.000     14.000      0.000      0.000 
      68      2.000      0.000      0.000      0.000 
      69      0.000     14.000      0.000      0.000 
      70      0.000      7.250      0.000      0.000 
      71      0.000      2.170      0.000      0.000 
      72      0.000      0.000      0.000      0.000 
      73      0.000      2.170      0.000      0.000 
      74      0.000      4.900      0.000      0.000 
      75      0.000      7.250      0.000      0.000 
      76      0.000      2.170      0.000      0.000 
      77      0.000      2.170      0.000      0.000 
      78      0.000      2.170      0.000      0.000 
      79      2.000      0.000      0.000      0.000 
      80      0.000      4.900      0.000      0.000 
      81      0.000      0.000      0.000      0.000 
      82      0.000      4.900      0.000      0.000 
      83      2.500      6.000      0.000      0.000 
      84      0.000      7.250      0.000      0.000 
      85      0.000      7.250      0.000      0.000 
      86      0.000      2.170      0.000      0.000 
      87      0.000      4.900      0.000      0.000 
      88      0.000      0.000      0.000      0.000 

Improper Coeffs 

       1      2.500      -1       2 
       2      2.500      -1       2 
       3      2.500      -1       2 
       4      2.500      -1       2 
       5      2.500      -1       2 
       6      0.000      -1       2 
       7      0.000      -1       2 
       8      0.000      -1       2 
       9      2.500      -1       2 
      10      2.500      -1       2 
      11     10.500      -1       2 
      12     10.500      -1       2 
      13      0.000      -1       2 
      14      0.000      -1       2 
      15      0.000      -1       2 
      16      2.500      -1       2 
      17      2.500      -1       2 
      18      2.500      -1       2 
      19      2.500      -1       2 
      20      2.500      -1       2 

Atoms 

     1      1      1 -0.03930000    1.000  1.00000  0.00000
     2      1      2 -0.24840000   -0.400  1.00000  0.00000
     3      1      3 -0.15640000   -0.805  1.00000  1.36036
     4      1      4 0.19300000   -1.045  1.00112 -0.88602
     5      1      5 -0.02700000    0.367  1.00000  2.12943
     6      1      6 0.19010000   -1.831  1.00110  1.74585
     7      1      7 -0.12160000    1.447  1.00000  1.28633
     8      1      8 0.23690000    1.764  0.99901 -0.78306
     9      1      9 0.41240000    0.749  1.00120  3.51195
    10      1     10 -0.26420000    2.044  1.00227  4.05920
    11      1     11 -0.77940000   -0.157  1.00002  4.56785
    12      1     12 -0.26760000    1.931  1.00152  5.48571
    13      1     13 0.68830000    0.519  0.99999  5.85503
    14      1     14 0.04030000   -1.600  1.00036  4.50467
    15      1     15 0.10850000   -1.987  1.90465  3.98947
    16      1     16 0.10850000   -1.958  0.99923  5.55208
    17      1     17 0.10850000   -1.987  0.09894  3.98462
    18      1     18 0.69070000    3.459  1.00500  3.68836
    19      1     19 -0.77850000    4.138  1.00575  4.97892
    20      1     20 0.41440000    3.232  1.00085  6.03197
    21      1     21 -0.45600000   -0.107  0.99751  6.91470
    22      1     22 -0.44900000    4.073  1.00763  2.62878
    23      1     23 0.04040000    5.580  1.00951  5.05059
    24      1     24 0.10830000    5.945  1.01134  4.00504
    25      1     25 0.10830000    5.965  0.10528  5.56625
    26      1     26 0.10830000    5.962  1.91268  5.56928
    27      1     27 -0.02960000    3.578  0.99747  7.41560
    28      1     28 -0.15640000    4.750  0.99734  8.18555
    29      1     29 -0.24950000    4.345  0.99441  9.54652
    30      1     30 0.19000000    5.775  1.00030  7.79764
    31      1     31 -0.03610000    2.944  0.99287  9.54442
    32      1     32 -0.11780000    2.496  0.99151  8.25954
    33      1     33 0.19320000    4.992  0.99239 10.43071
    34      1     34 0.23710000    2.179  0.99356 10.32631

Bonds 

     1      1      2      1
     2      2      3      2
     3      3      4      2
     4      4      5      3
     5      5      6      3
     6      6      7      1
     7      7      8      1
     8      8      9      5
     9      9     10      9
    10     10     11      9
    11     11     12     10
    12     12     13     11
    13     13     14     11
    14     14     15     14
    15     15     16     14
    16     16     17     14
    17     17     18     10
    18     18     19     18
    19     19     20     12
    20     20     21     13
    21     21     22     18
    22     22     23     19
    23     23     24     23
    24     24     25     23
    25     25     26     23
    26     26     27     20
    27     27     28     27
    28     28     29     28
    29     29     30     28
    30     30     31     29
    31     31     32     27
    32     32     33     29
    33     33     34     31
    34     34      7      5
    35     35     13     12
    36     36     20     19
    37     37     32     31

Angles 

     1      1      1      2      3
     2      2      1      2      4
     3      3      2      3      5
     4      4      2      3      6
     5      5      2      1      7
     6      6      2      1      8
     7      7      3      5      9
     8      8      5      9     10
     9      9      5      9     11
    10     10      9     10     12
    11     11      9     11     13
    12     12      9     11     14
    13     13     11     14     15
    14     14     11     14     16
    15     15     11     14     17
    16     16      9     10     18
    17     17     10     18     19
    18     18     10     12     20
    19     19     11     13     21
    20     20     10     18     22
    21     21     18     19     23
    22     22     19     23     24
    23     23     19     23     25
    24     24     19     23     26
    25     25     12     20     27
    26     26     20     27     28
    27     27     27     28     29
    28     28     27     28     30
    29     29     28     29     31
    30     30     20     27     32
    31     31     28     29     33
    32     32     29     31     34
    33     33     27     32     31
    34     34     10     12     13
    35     35     15     14     16
    36     36     13     12     20
    37     37      1      7      5
    38     38      3      5      7
    39     39     29     28     30
    40     40     15     14     17
    41     41      7      5      9
    42     42     12     10     18
    43     43     16     14     17
    44     44     19     20     27
    45     45     24     23     26
    46     46     12     20     19
    47     47     19     18     22
    48     48     32     31     34
    49     49      3      2      4
    50     50     11     13     12
    51     51     12     13     21
    52     52     10      9     11
    53     53     31     29     33
    54     54     13     11     14
    55     55      7      1      8
    56     56     28     27     32
    57     57      5      3      6
    58     58     29     31     32
    59     59     25     23     26
    60     60     24     23     25
    61     61     18     19     20
    62     62     20     19     23

Dihedrals

     1      1      5      3      2      1 
     2      2      7      1      2      3 
     3      3     10      9      5      3 
     4      4     12     10      9      5 
     5      5     13     11      9      5 
     6      6     15     14     11      9 
     7      7     19     18     10      9 
     8      8     24     23     19     18 
     9      9     28     27     20     12 
    10     10     29     28     27     20 
    11     11     31     29     28     27 
    12     12     11      9      5      3 
    13     13     20     19     18     10 
    14     14     23     19     20     12 
    15     15      3      5      7      1 
    16     16     34     31     29     28 
    17     17     32     27     20     12 
    18     18      8      1      7      5 
    19     19     13     11      9     10 
    20     20     11      9      5      7 
    21     21     21     13     11     14 
    22     22     15     14     11     13 
    23     23     31     32     27     20 
    24     24     20     12     13     11 
    25     25     21     13     12     10 
    26     26      5      7      1      2 
    27     27      5      3      2      4 
    28     28      7      5      3      6 
    29     29      9      5      7      1 
    30     30     33     29     28     27 
    31     31     22     18     10     12 
    32     32     18     10      9     11 
    33     33     30     28     27     20 
    34     34     18     10      9      5 
    35     35      8      1      2      4 
    36     36     22     18     10      9 
    37     37     13     12     10      9 
    38     38      6      3      2      4 
    39     39     33     29     28     30 
    40     40     27     20     12     13 
    41     41     18     19     20     12 
    42     42     26     23     19     18 
    43     43     24     23     19     20 
    44     44      8      1      2      3 
    45     45     12     10      9     11 
    46     46      7      1      2      4 
    47     47      9      5      3      6 
    48     48     19     20     12     10 
    49     49      9      5      3      2 
    50     50     28     27     20     19 
    51     51      6      3      2      1 
    52     52     14     11      9     10 
    53     53     26     23     19     20 
    54     54     25     23     19     20 
    55     55     34     31     32     27 
    56     56     16     14     11     13 
    57     57     12     13     11      9 
    58     58     32     31     29     28 
    59     59     31     29     28     30 
    60     60     20     12     10     18 
    61     61     14     11     13     12 
    62     62     19     20     12     13 
    63     63     27     20     19     18 
    64     64     33     29     31     32 
    65     65      7      5      3      2 
    66     66     16     14     11      9 
    67     67     18     10     12     13 
    68     68     19     18     10     12 
    69     69     20     12     10      9 
    70     70     32     27     28     30 
    71     71     32     27     28     29 
    72     72     25     23     19     18 
    73     73     32     27     20     19 
    74     74     23     19     18     10 
    75     75     31     32     27     28 
    76     76     27     20     12     10 
    77     77     10      9      5      7 
    78     78     27     20     19     23 
    79     79     11     13     12     10 
    80     80     22     18     19     20 
    81     81     17     14     11      9 
    82     82     23     19     18     22 
    83     83     21     13     12     20 
    84     84     29     31     32     27 
    85     85     34     31     29     33 
    86     86     14     11      9      5 
    87     87     21     13     11      9 
    88     88     17     14     11     13 

Impropers

     1      1      2      1      3      4 
     2      2      3      2      5      6 
     3      3      1      2      7      8 
     4      4      5      9      3      7 
     5      5      9     10     11      5 
     6      6     11      9     13     14 
     7      7     14     11     15     16 
     8      8     14     17     11     15 
     9      9     10      9     18     12 
    10     10     12     10     20     13 
    11     11     13     11     12     21 
    12     12     18     19     22     10 
    13     13     19     18     20     23 
    14     14     23     25     19     24 
    15     15     23     26     19     24 
    16     16     20     12     27     19 
    17     17     28     27     29     30 
    18     18     27     28     20     32 
    19     19     29     33     28     31 
    20     20     31     34     29     32 
