LAMMPS data file Created by LigParGen - (Written by Leela S. Dodda)

      16 atoms
      17 bonds
      26 angles
      36 dihedrals
       8 impropers
 
      16 atom types
      17 bond types
      26 angle types
      36 dihedral types
       8 improper types
 
   -1.836950    48.163050 xlo xhi
    0.998900    50.998900 ylo yhi
   -0.887230    49.112770 zlo zhi

Masses

       1     12.011  
       2     12.011  
       3     12.011  
       4      1.008  
       5     12.011  
       6      1.008  
       7     15.999  
       8      1.008  
       9     12.011  
      10     12.011  
      11     12.011  
      12      1.008  
      13     12.011  
      14      1.008  
      15     32.060  
      16      1.008  

Pair Coeffs 

       1      0.070  3.5500000 
       2      0.070  3.5500000 
       3      0.070  3.5500000 
       4      0.030  2.4200000 
       5      0.070  3.5500000 
       6      0.030  2.4200000 
       7      0.140  2.9000000 
       8      0.030  2.4200000 
       9      0.070  3.5500000 
      10      0.070  3.5500000 
      11      0.070  3.5500000 
      12      0.030  2.4200000 
      13      0.070  3.5500000 
      14      0.030  2.4200000 
      15      0.355  3.6000000 
      16      0.030  2.4200000 

Bond Coeffs 

       1   546.0000     1.3670 
       2   469.0000     1.4240 
       3   367.0000     1.0800 
       4   469.0000     1.4240 
       5   367.0000     1.0800 
       6   340.0000     1.3600 
       7   367.0000     1.0800 
       8   469.0000     1.4240 
       9   469.0000     1.4240 
      10   469.0000     1.4240 
      11   367.0000     1.0800 
      12   546.0000     1.3670 
      13   367.0000     1.0800 
      14   250.0000     1.7600 
      15   367.0000     1.0800 
      16   450.0000     1.3640 
      17   250.0000     1.7400 

Angle Coeffs 

       1     70.000    107.300
       2     35.000    125.700
       3     63.000    120.000
       4     35.000    127.500
       5     70.000    110.600
       6     35.000    132.100
       7     63.000    120.000
       8     63.000    120.000
       9     63.000    120.000
      10     35.000    127.500
      11     70.000    107.300
      12     35.000    127.500
      13     85.000    119.400
      14     35.000    132.100
      15     35.000    127.500
      16     75.000    111.000
      17     70.000    120.000
      18     35.000    125.000
      19     70.000    120.000
      20     85.000    119.400
      21     35.000    125.700
      22     35.000    127.500
      23     70.000    111.170
      24     35.000    113.400
      25     35.000    127.500
      26     63.000    112.400

Dihedral Coeffs  

       1      0.000      2.170      0.000      0.000 
       2      0.000      7.250      0.000      0.000 
       3      0.000      2.170      0.000      0.000 
       4      0.000      2.170      0.000      0.000 
       5      0.000      2.170      0.000      0.000 
       6      0.000      7.250      0.000      0.000 
       7      0.000      7.250      0.000      0.000 
       8      0.000      7.250      0.000      0.000 
       9      0.000      2.100      0.000      0.000 
      10      0.000      7.250      0.000      0.000 
      11      0.000      7.250      0.000      0.000 
      12      0.000      2.170      0.000      0.000 
      13      0.000      7.250      0.000      0.000 
      14      0.000      7.250      0.000      0.000 
      15      0.000      2.170      0.000      0.000 
      16      0.000      7.250      0.000      0.000 
      17      0.000      2.170      0.000      0.000 
      18      0.000      2.170      0.000      0.000 
      19      0.000      7.250      0.000      0.000 
      20      0.000      2.170      0.000      0.000 
      21      0.000      7.250      0.000      0.000 
      22      0.000      2.170      0.000      0.000 
      23      0.000      7.250      0.000      0.000 
      24      0.000      7.250      0.000      0.000 
      25      0.000      7.250      0.000      0.000 
      26      0.000      7.250      0.000      0.000 
      27      0.000      7.250      0.000      0.000 
      28      0.000      7.250      0.000      0.000 
      29      0.000      7.250      0.000      0.000 
      30      0.000      7.250      0.000      0.000 
      31      0.000      2.170      0.000      0.000 
      32      0.000      2.170      0.000      0.000 
      33      0.000      7.250      0.000      0.000 
      34      0.000      7.250      0.000      0.000 
      35      0.000      0.000      0.000      0.000 
      36      0.000      7.250      0.000      0.000 

Improper Coeffs 

       1      2.500      -1       2 
       2      2.500      -1       2 
       3      2.500      -1       2 
       4      2.500      -1       2 
       5      2.500      -1       2 
       6      2.500      -1       2 
       7      2.500      -1       2 
       8      2.500      -1       2 

Atoms 

     1      1      1 -0.09170000    1.000  1.00000  0.00000
     2      1      2 -0.21880000   -0.403  1.00000  0.00000
     3      1      3 -0.21540000   -0.810  1.00000  1.35916
     4      1      4 0.18660000   -1.046  1.00112 -0.88723
     5      1      5 0.05640000    0.360  1.00000  2.12708
     6      1      6 0.18830000   -1.837  0.99890  1.74269
     7      1      7 -0.15860000    1.438  1.00000  1.30048
     8      1      8 0.22670000    1.771  0.99902 -0.77536
     9      1      9 -0.10300000    0.664  1.00127  3.52699
    10      1     10 -0.12700000    1.946  1.00241  4.09631
    11      1     11 -0.15460000    1.917  1.00516  5.50845
    12      1     12 0.19080000    2.862  1.00243  3.48877
    13      1     13 -0.21600000    0.613  1.00612  6.02547
    14      1     14 0.18070000    2.809  1.00758  6.15100
    15      1     15 0.05870000   -0.592  1.00343  4.75051
    16      1     16 0.19670000    0.298  1.00717  7.07602

Bonds 

     1      1      2      1
     2      2      3      2
     3      3      4      2
     4      4      5      3
     5      5      6      3
     6      6      7      1
     7      7      8      1
     8      8      9      5
     9      9     10      9
    10     10     11     10
    11     11     12     10
    12     12     13     11
    13     13     14     11
    14     14     15      9
    15     15     16     13
    16     16      7      5
    17     17     15     13

Angles 

     1      1      1      2      3
     2      2      1      2      4
     3      3      2      3      5
     4      4      2      3      6
     5      5      2      1      7
     6      6      2      1      8
     7      7      3      5      9
     8      8      5      9     10
     9      9      9     10     11
    10     10      9     10     12
    11     11     10     11     13
    12     12     10     11     14
    13     13      5      9     15
    14     14     11     13     16
    15     15     11     10     12
    16     16      1      7      5
    17     17      3      5      7
    18     18     15     13     16
    19     19      7      5      9
    20     20     10      9     15
    21     21     13     11     14
    22     22      3      2      4
    23     23     11     13     15
    24     24      7      1      8
    25     25      5      3      6
    26     26      9     15     13

Dihedrals

     1      1      5      3      2      1 
     2      2      7      1      2      3 
     3      3     10      9      5      3 
     4      4     11     10      9      5 
     5      5     13     11     10      9 
     6      6     14     11     10     12 
     7      7      8      1      2      4 
     8      8      6      3      2      4 
     9      9     15     13     11     10 
    10     10     16     13     11     10 
    11     11      3      5      7      1 
    12     12     10      9      5      7 
    13     13      8      1      7      5 
    14     14     15     13     11     14 
    15     15     15      9      5      3 
    16     16     12     10      9      5 
    17     17     13     15      9     10 
    18     18     15      9      5      7 
    19     19      5      7      1      2 
    20     20     15      9     10     11 
    21     21      6      3      2      1 
    22     22      7      5      3      2 
    23     23     15      9     10     12 
    24     24      8      1      2      3 
    25     25     14     11     10      9 
    26     26      7      1      2      4 
    27     27      9      5      3      6 
    28     28     13     11     10     12 
    29     29      5      3      2      4 
    30     30      7      5      3      6 
    31     31      9      5      3      2 
    32     32     13     15      9      5 
    33     33     16     13     11     14 
    34     34     16     13     15      9 
    35     35     11     13     15      9 
    36     36      9      5      7      1 

Impropers

     1      1      2      1      3      4 
     2      2      3      2      5      6 
     3      3      1      2      7      8 
     4      4      5      9      3      7 
     5      5     10      9     11     12 
     6      6     11     10     13     14 
     7      7      9     10      5     15 
     8      8     13     11     15     16 

