LAMMPS data file Created by LigParGen - (Written by Leela S. Dodda)

      26 atoms
      29 bonds
      46 angles
      68 dihedrals
      14 impropers
 
      26 atom types
      29 bond types
      46 angle types
      68 dihedral types
      14 improper types
 
   -1.836940    48.163060 xlo xhi
    0.964320    50.964320 ylo yhi
   -0.887240    49.112760 zlo zhi

Masses

       1     12.011  
       2     12.011  
       3     12.011  
       4      1.008  
       5     12.011  
       6     15.999  
       7      1.008  
       8      1.008  
       9     12.011  
      10     12.011  
      11     12.011  
      12      1.008  
      13     32.060  
      14     12.011  
      15     32.060  
      16     12.011  
      17     12.011  
      18      1.008  
      19     12.011  
      20     12.011  
      21     12.011  
      22      1.008  
      23     12.011  
      24      1.008  
      25     15.999  
      26      1.008  

Pair Coeffs 

       1      0.070  3.5500000 
       2      0.070  3.5500000 
       3      0.070  3.5500000 
       4      0.030  2.4200000 
       5      0.070  3.5500000 
       6      0.140  2.9000000 
       7      0.030  2.4200000 
       8      0.030  2.4200000 
       9      0.070  3.5500000 
      10      0.070  3.5500000 
      11      0.070  3.5500000 
      12      0.030  2.4200000 
      13      0.355  3.6000000 
      14      0.070  3.5500000 
      15      0.355  3.6000000 
      16      0.070  3.5500000 
      17      0.070  3.5500000 
      18      0.030  2.4200000 
      19      0.070  3.5500000 
      20      0.070  3.5500000 
      21      0.070  3.5500000 
      22      0.030  2.4200000 
      23      0.070  3.5500000 
      24      0.030  2.4200000 
      25      0.140  2.9000000 
      26      0.030  2.4200000 

Bond Coeffs 

       1   546.0000     1.3670 
       2   469.0000     1.4240 
       3   367.0000     1.0800 
       4   469.0000     1.4240 
       5   340.0000     1.3600 
       6   367.0000     1.0800 
       7   367.0000     1.0800 
       8   469.0000     1.4240 
       9   469.0000     1.4240 
      10   469.0000     1.4240 
      11   367.0000     1.0800 
      12   250.0000     1.7600 
      13   469.0000     1.4240 
      14   250.0000     1.7600 
      15   250.0000     1.7600 
      16   469.0000     1.4240 
      17   367.0000     1.0800 
      18   469.0000     1.4240 
      19   469.0000     1.4240 
      20   469.0000     1.4240 
      21   367.0000     1.0800 
      22   546.0000     1.3670 
      23   367.0000     1.0800 
      24   450.0000     1.3640 
      25   367.0000     1.0800 
      26   450.0000     1.3640 
      27   250.0000     1.7600 
      28   469.0000     1.4240 
      29   340.0000     1.3600 

Angle Coeffs 

       1     70.000    107.300
       2     35.000    125.700
       3     63.000    120.000
       4     70.000    110.600
       5     35.000    127.500
       6     35.000    132.100
       7     63.000    120.000
       8     63.000    120.000
       9     63.000    120.000
      10     35.000    127.500
      11     85.000    119.400
      12     63.000    120.000
      13     85.000    119.400
      14     63.000    112.400
      15     63.000    120.000
      16     35.000    127.500
      17     85.000    119.400
      18     63.000    120.000
      19     63.000    120.000
      20     35.000    127.500
      21     70.000    107.300
      22     35.000    127.500
      23     70.000    120.000
      24     35.000    132.100
      25     70.000    120.000
      26     85.000    119.400
      27     35.000    127.500
      28     85.000    119.400
      29     35.000    127.500
      30     85.000    119.400
      31     75.000    111.000
      32     63.000    120.000
      33     35.000    127.500
      34     35.000    113.400
      35     35.000    127.500
      36     70.000    110.600
      37     35.000    125.700
      38     70.000    120.000
      39     85.000    119.400
      40     63.000    120.000
      41     85.000    119.400
      42     75.000    111.000
      43     70.000    120.000
      44     63.000    112.400
      45     35.000    113.400
      46     35.000    127.500

Dihedral Coeffs  

       1      0.000      2.170      0.000      0.000 
       2      0.000      7.250      0.000      0.000 
       3      0.000      2.170      0.000      0.000 
       4      0.000      2.170      0.000      0.000 
       5      0.000      2.170      0.000      0.000 
       6      0.000      2.170      0.000      0.000 
       7      0.000      2.170      0.000      0.000 
       8      0.000      2.170      0.000      0.000 
       9      0.000      2.170      0.000      0.000 
      10      0.000      7.250      0.000      0.000 
      11      0.000      2.170      0.000      0.000 
      12      0.000      7.250      0.000      0.000 
      13      0.000      7.250      0.000      0.000 
      14      0.000      2.170      0.000      0.000 
      15      0.000      2.170      0.000      0.000 
      16      0.000      7.250      0.000      0.000 
      17      0.000      7.250      0.000      0.000 
      18      0.000      7.250      0.000      0.000 
      19      0.000      2.170      0.000      0.000 
      20      0.000      7.250      0.000      0.000 
      21      0.000      7.250      0.000      0.000 
      22      0.000      7.250      0.000      0.000 
      23      0.000      7.250      0.000      0.000 
      24      0.000      2.170      0.000      0.000 
      25      0.000      7.250      0.000      0.000 
      26      0.000      7.250      0.000      0.000 
      27      0.000      2.170      0.000      0.000 
      28      0.000      7.250      0.000      0.000 
      29      0.000      2.170      0.000      0.000 
      30      0.000      2.170      0.000      0.000 
      31      0.000      2.170      0.000      0.000 
      32      0.000      7.250      0.000      0.000 
      33      0.000      7.250      0.000      0.000 
      34      0.000      7.250      0.000      0.000 
      35      0.000      7.250      0.000      0.000 
      36      0.000      2.170      0.000      0.000 
      37      0.000      2.170      0.000      0.000 
      38      0.000      2.170      0.000      0.000 
      39      0.000      7.250      0.000      0.000 
      40      0.000      2.170      0.000      0.000 
      41      0.000      7.250      0.000      0.000 
      42      0.000      7.250      0.000      0.000 
      43      0.000      7.250      0.000      0.000 
      44      0.000      2.170      0.000      0.000 
      45      0.000      2.170      0.000      0.000 
      46      0.000      2.170      0.000      0.000 
      47      0.000      7.250      0.000      0.000 
      48      0.000      2.170      0.000      0.000 
      49      0.000      7.250      0.000      0.000 
      50      0.000      7.250      0.000      0.000 
      51      0.000      7.250      0.000      0.000 
      52      0.000      2.170      0.000      0.000 
      53      0.000      2.170      0.000      0.000 
      54      0.000      2.170      0.000      0.000 
      55      0.000      2.170      0.000      0.000 
      56      0.000      7.250      0.000      0.000 
      57      0.000      7.250      0.000      0.000 
      58      0.000      7.250      0.000      0.000 
      59      0.000      2.170      0.000      0.000 
      60      0.000      7.250      0.000      0.000 
      61      0.000      7.250      0.000      0.000 
      62      0.000      7.250      0.000      0.000 
      63      0.000      2.170      0.000      0.000 
      64      0.000      2.170      0.000      0.000 
      65      0.000      7.250      0.000      0.000 
      66      0.000      7.250      0.000      0.000 
      67      0.000      7.250      0.000      0.000 
      68      0.000      2.170      0.000      0.000 

Improper Coeffs 

       1      2.500      -1       2 
       2      2.500      -1       2 
       3      2.500      -1       2 
       4      2.500      -1       2 
       5      2.500      -1       2 
       6      2.500      -1       2 
       7      2.500      -1       2 
       8      2.500      -1       2 
       9      2.500      -1       2 
      10      2.500      -1       2 
      11      2.500      -1       2 
      12      2.500      -1       2 
      13      2.500      -1       2 
      14      2.500      -1       2 

Atoms 

     1      1      1 -0.08660000    1.000  1.00000  0.00000
     2      1      2 -0.21920000   -0.402  1.00000  0.00000
     3      1      3 -0.20850000   -0.810  1.00000  1.35970
     4      1      4 0.18810000   -1.046  0.99888 -0.88724
     5      1      5 0.04810000    0.360  1.00000  2.12758
     6      1      6 -0.16000000    1.438  1.00000  1.30049
     7      1      7 0.18950000   -1.837  1.00110  1.74320
     8      1      8 0.22790000    1.771  1.00098 -0.77532
     9      1      9 -0.07520000    0.668  0.99873  3.52666
    10      1     10 -0.07340000    1.960  0.99761  4.06963
    11      1     11 -0.13400000    1.904  0.99486  5.48200
    12      1     12 0.20050000    2.872  0.99760  3.45881
    13      1     13 0.10260000   -0.608  1.00037  4.75113
    14      1     14 -0.13390000    0.590  0.99387  6.02288
    15      1     15 0.10240000    3.101  0.99389  6.75423
    16      1     16 -0.07470000    1.825  0.98778  7.97963
    17      1     17 -0.07390000    0.533  0.98963  7.43507
    18      1     18 0.20030000   -0.380  0.98681  8.04359
    19      1     19 0.04640000    2.134  0.98009  9.37849
    20      1     20 -0.20680000    3.305  0.97546 10.14585
    21      1     21 -0.21980000    2.897  0.96999 11.50529
    22      1     22 0.18980000    4.331  0.97713  9.75914
    23      1     23 -0.08530000    1.495  0.97154 11.50476
    24      1     24 0.18820000    3.543  0.96432 12.39085
    25      1     25 -0.15970000    1.053  0.97761 10.20692
    26      1     26 0.22740000    0.723  0.97003 12.27976

Bonds 

     1      1      2      1
     2      2      3      2
     3      3      4      2
     4      4      5      3
     5      5      6      1
     6      6      7      3
     7      7      8      1
     8      8      9      5
     9      9     10      9
    10     10     11     10
    11     11     12     10
    12     12     13      9
    13     13     14     11
    14     14     15     11
    15     15     16     15
    16     16     17     14
    17     17     18     17
    18     18     19     16
    19     19     20     19
    20     20     21     20
    21     21     22     20
    22     22     23     21
    23     23     24     21
    24     24     25     19
    25     25     26     23
    26     26      6      5
    27     27     14     13
    28     28     17     16
    29     29     25     23

Angles 

     1      1      1      2      3
     2      2      1      2      4
     3      3      2      3      5
     4      4      2      1      6
     5      5      2      3      7
     6      6      2      1      8
     7      7      3      5      9
     8      8      5      9     10
     9      9      9     10     11
    10     10      9     10     12
    11     11      5      9     13
    12     12     10     11     14
    13     13     10     11     15
    14     14     11     15     16
    15     15     11     14     17
    16     16     14     17     18
    17     17     15     16     19
    18     18     16     19     20
    19     19     19     20     21
    20     20     19     20     22
    21     21     20     21     23
    22     22     20     21     24
    23     23     16     19     25
    24     24     21     23     26
    25     25     20     19     25
    26     26     14     11     15
    27     27     11     10     12
    28     28     10      9     13
    29     29     16     17     18
    30     30     11     14     13
    31     31     19     25     23
    32     32     14     17     16
    33     33      5      3      7
    34     34     25     23     26
    35     35      3      2      4
    36     36     21     23     25
    37     37     23     21     24
    38     38      6      5      9
    39     39     15     16     17
    40     40     17     16     19
    41     41     13     14     17
    42     42      1      6      5
    43     43      3      5      6
    44     44      9     13     14
    45     45      6      1      8
    46     46     21     20     22

Dihedrals

     1      1      5      3      2      1 
     2      2      6      1      2      3 
     3      3     10      9      5      3 
     4      4     11     10      9      5 
     5      5     14     11     10      9 
     6      6     16     15     11     10 
     7      7     20     19     16     15 
     8      8     21     20     19     16 
     9      9     23     21     20     19 
    10     10     26     23     21     20 
    11     11     13      9     10     11 
    12     12     24     21     20     22 
    13     13     23     25     19     20 
    14     14     17     14     11     10 
    15     15     19     16     17     14 
    16     16     23     25     19     16 
    17     17     13      9     10     12 
    18     18      5      6      1      2 
    19     19     14     13      9     10 
    20     20     19     16     17     18 
    21     21     26     23     21     24 
    22     22      8      1      2      4 
    23     23      9      5      6      1 
    24     24     13     14     11     10 
    25     25      6      1      2      4 
    26     26     18     17     14     11 
    27     27     16     17     14     13 
    28     28      7      3      2      1 
    29     29     11     14     13      9 
    30     30     19     16     15     11 
    31     31      6      5      3      2 
    32     32     26     23     25     19 
    33     33     14     11     10     12 
    34     34     21     23     25     19 
    35     35     25     23     21     24 
    36     36     17     16     15     11 
    37     37     16     15     11     14 
    38     38     13      9      5      6 
    39     39     12     10      9      5 
    40     40     13      9      5      3 
    41     41     15     11     14     13 
    42     42     25     19     20     22 
    43     43     23     21     20     22 
    44     44     25     19     20     21 
    45     45     10      9      5      6 
    46     46     17     14     13      9 
    47     47     25     23     21     20 
    48     48     14     13      9      5 
    49     49      8      1      2      3 
    50     50     18     17     16     15 
    51     51     15     11     10     12 
    52     52     25     19     16     17 
    53     53     15     11     10      9 
    54     54     25     19     16     15 
    55     55     20     19     16     17 
    56     56      5      3      2      4 
    57     57      7      3      5      6 
    58     58     24     21     20     19 
    59     59      9      5      3      2 
    60     60      3      5      6      1 
    61     61     22     20     19     16 
    62     62      7      3      2      4 
    63     63     15     16     17     14 
    64     64     17     14     11     15 
    65     65      8      1      6      5 
    66     66      9      5      3      7 
    67     67     18     17     14     13 
    68     68     16     17     14     11 

Impropers

     1      1      2      1      3      4 
     2      2      3      2      5      7 
     3      3      1      2      6      8 
     4      4      5      9      3      6 
     5      5     10      9     11     12 
     6      6      9      5     13     10 
     7      7     11     10     14     15 
     8      8     14     17     11     13 
     9      9     17     18     14     16 
    10     10     16     17     19     15 
    11     11     20     19     21     22 
    12     12     21     20     23     24 
    13     13     19     25     20     16 
    14     14     23     25     26     21 

