LAMMPS data file Created by LigParGen - (Written by Leela S. Dodda)

      23 atoms
      25 bonds
      39 angles
      56 dihedrals
      12 impropers
 
      23 atom types
      25 bond types
      39 angle types
      56 dihedral types
      12 improper types
 
   -1.956350    48.043650 xlo xhi
    0.998900    50.998900 ylo yhi
   -0.887230    49.112770 zlo zhi

Masses

       1     12.011  
       2     12.011  
       3     12.011  
       4      1.008  
       5     12.011  
       6      1.008  
       7     15.999  
       8      1.008  
       9     12.011  
      10     12.011  
      11     12.011  
      12      1.008  
      13     12.011  
      14      1.008  
      15     32.060  
      16     12.011  
      17     12.011  
      18     12.011  
      19      1.008  
      20     12.011  
      21      1.008  
      22     15.999  
      23      1.008  

Pair Coeffs 

       1      0.070  3.5500000 
       2      0.070  3.5500000 
       3      0.070  3.5500000 
       4      0.030  2.4200000 
       5      0.070  3.5500000 
       6      0.030  2.4200000 
       7      0.140  2.9000000 
       8      0.030  2.4200000 
       9      0.070  3.5500000 
      10      0.070  3.5500000 
      11      0.070  3.5500000 
      12      0.030  2.4200000 
      13      0.070  3.5500000 
      14      0.030  2.4200000 
      15      0.355  3.6000000 
      16      0.070  3.5500000 
      17      0.070  3.5500000 
      18      0.070  3.5500000 
      19      0.030  2.4200000 
      20      0.070  3.5500000 
      21      0.030  2.4200000 
      22      0.140  2.9000000 
      23      0.030  2.4200000 

Bond Coeffs 

       1   546.0000     1.3670 
       2   469.0000     1.4240 
       3   367.0000     1.0800 
       4   469.0000     1.4240 
       5   367.0000     1.0800 
       6   340.0000     1.3600 
       7   367.0000     1.0800 
       8   469.0000     1.4240 
       9   469.0000     1.4240 
      10   469.0000     1.4240 
      11   367.0000     1.0800 
      12   469.0000     1.4240 
      13   367.0000     1.0800 
      14   250.0000     1.7600 
      15   469.0000     1.4240 
      16   469.0000     1.4240 
      17   469.0000     1.4240 
      18   367.0000     1.0800 
      19   546.0000     1.3670 
      20   367.0000     1.0800 
      21   450.0000     1.3640 
      22   367.0000     1.0800 
      23   450.0000     1.3640 
      24   250.0000     1.7600 
      25   340.0000     1.3600 

Angle Coeffs 

       1     70.000    107.300
       2     35.000    125.700
       3     63.000    120.000
       4     35.000    127.500
       5     70.000    110.600
       6     35.000    132.100
       7     63.000    120.000
       8     63.000    120.000
       9     63.000    120.000
      10     35.000    127.500
      11     63.000    120.000
      12     35.000    127.500
      13     85.000    119.400
      14     63.000    120.000
      15     63.000    120.000
      16     63.000    120.000
      17     35.000    127.500
      18     70.000    107.300
      19     35.000    127.500
      20     70.000    120.000
      21     35.000    132.100
      22     35.000    125.700
      23     75.000    111.000
      24     35.000    127.500
      25     75.000    111.000
      26     70.000    120.000
      27     85.000    119.400
      28     70.000    120.000
      29     85.000    119.400
      30     35.000    127.500
      31     35.000    127.500
      32     35.000    127.500
      33     35.000    113.400
      34     85.000    119.400
      35     70.000    110.600
      36     70.000    120.000
      37     35.000    113.400
      38     35.000    127.500
      39     63.000    112.400

Dihedral Coeffs  

       1      0.000      2.170      0.000      0.000 
       2      0.000      7.250      0.000      0.000 
       3      0.000      2.170      0.000      0.000 
       4      0.000      2.170      0.000      0.000 
       5      0.000      2.170      0.000      0.000 
       6      0.000      2.170      0.000      0.000 
       7      0.000      2.170      0.000      0.000 
       8      0.000      2.170      0.000      0.000 
       9      0.000      2.170      0.000      0.000 
      10      0.000      7.250      0.000      0.000 
      11      0.000      2.170      0.000      0.000 
      12      0.000      7.250      0.000      0.000 
      13      0.000      7.250      0.000      0.000 
      14      0.000      7.250      0.000      0.000 
      15      0.000      2.170      0.000      0.000 
      16      0.000      7.250      0.000      0.000 
      17      0.000      2.170      0.000      0.000 
      18      0.000      2.170      0.000      0.000 
      19      0.000      7.250      0.000      0.000 
      20      0.000      7.250      0.000      0.000 
      21      0.000      2.170      0.000      0.000 
      22      0.000      7.250      0.000      0.000 
      23      0.000      7.250      0.000      0.000 
      24      0.000      2.170      0.000      0.000 
      25      0.000      7.250      0.000      0.000 
      26      0.000      7.250      0.000      0.000 
      27      0.000      7.250      0.000      0.000 
      28      0.000      7.250      0.000      0.000 
      29      0.000      2.170      0.000      0.000 
      30      0.000      7.250      0.000      0.000 
      31      0.000      7.250      0.000      0.000 
      32      0.000      2.170      0.000      0.000 
      33      0.000      7.250      0.000      0.000 
      34      0.000      2.170      0.000      0.000 
      35      0.000      7.250      0.000      0.000 
      36      0.000      7.250      0.000      0.000 
      37      0.000      2.170      0.000      0.000 
      38      0.000      7.250      0.000      0.000 
      39      0.000      7.250      0.000      0.000 
      40      0.000      7.250      0.000      0.000 
      41      0.000      2.170      0.000      0.000 
      42      0.000      7.250      0.000      0.000 
      43      0.000      7.250      0.000      0.000 
      44      0.000      7.250      0.000      0.000 
      45      0.000      7.250      0.000      0.000 
      46      0.000      7.250      0.000      0.000 
      47      0.000      7.250      0.000      0.000 
      48      0.000      7.250      0.000      0.000 
      49      0.000      7.250      0.000      0.000 
      50      0.000      2.170      0.000      0.000 
      51      0.000      2.170      0.000      0.000 
      52      0.000      7.250      0.000      0.000 
      53      0.000      2.170      0.000      0.000 
      54      0.000      2.170      0.000      0.000 
      55      0.000      7.250      0.000      0.000 
      56      0.000      7.250      0.000      0.000 

Improper Coeffs 

       1      2.500      -1       2 
       2      2.500      -1       2 
       3      2.500      -1       2 
       4      2.500      -1       2 
       5      2.500      -1       2 
       6      2.500      -1       2 
       7      2.500      -1       2 
       8      2.500      -1       2 
       9      2.500      -1       2 
      10      2.500      -1       2 
      11      2.500      -1       2 
      12      2.500      -1       2 

Atoms 

     1      1      1 -0.08770000    1.000  1.00000  0.00000
     2      1      2 -0.21910000   -0.403  1.00000  0.00000
     3      1      3 -0.21200000   -0.810  1.00000  1.35916
     4      1      4 0.18770000   -1.046  1.00112 -0.88723
     5      1      5 0.05280000    0.360  1.00000  2.12708
     6      1      6 0.18850000   -1.837  0.99890  1.74269
     7      1      7 -0.15750000    1.438  1.00000  1.30048
     8      1      8 0.22790000    1.771  0.99902 -0.77536
     9      1      9 -0.09280000    0.664  1.00127  3.52699
    10      1     10 -0.12770000    1.946  1.00241  4.09631
    11      1     11 -0.12730000    1.917  1.00516  5.50845
    12      1     12 0.19370000    2.862  1.00243  3.48877
    13      1     13 -0.09220000    0.613  1.00612  6.02547
    14      1     14 0.19370000    2.809  1.00758  6.15100
    15      1     15 0.09130000   -0.592  1.00343  4.75051
    16      1     16 0.05190000    0.254  1.01040  7.41199
    17      1     17 -0.21080000   -0.948  1.01331  8.13052
    18      1     18 -0.21850000   -0.598  1.01878  9.50557
    19      1     19 0.18860000   -1.956  1.01276  7.70072
    20      1     20 -0.08660000    0.803  1.01896  9.56415
    21      1     21 0.18790000   -1.280  1.02113 10.36310
    22      1     22 -0.15870000    1.300  1.01377  8.28362
    23      1     23 0.22720000    1.541  1.02317 10.37102

Bonds 

     1      1      2      1
     2      2      3      2
     3      3      4      2
     4      4      5      3
     5      5      6      3
     6      6      7      1
     7      7      8      1
     8      8      9      5
     9      9     10      9
    10     10     11     10
    11     11     12     10
    12     12     13     11
    13     13     14     11
    14     14     15      9
    15     15     16     13
    16     16     17     16
    17     17     18     17
    18     18     19     17
    19     19     20     18
    20     20     21     18
    21     21     22     16
    22     22     23     20
    23     23      7      5
    24     24     15     13
    25     25     22     20

Angles 

     1      1      1      2      3
     2      2      1      2      4
     3      3      2      3      5
     4      4      2      3      6
     5      5      2      1      7
     6      6      2      1      8
     7      7      3      5      9
     8      8      5      9     10
     9      9      9     10     11
    10     10      9     10     12
    11     11     10     11     13
    12     12     10     11     14
    13     13      5      9     15
    14     14     11     13     16
    15     15     13     16     17
    16     16     16     17     18
    17     17     16     17     19
    18     18     17     18     20
    19     19     17     18     21
    20     20     13     16     22
    21     21     18     20     23
    22     22     20     18     21
    23     23     16     22     20
    24     24     11     10     12
    25     25      1      7      5
    26     26      3      5      7
    27     27     15     13     16
    28     28      7      5      9
    29     29     10      9     15
    30     30     18     17     19
    31     31     13     11     14
    32     32      3      2      4
    33     33     22     20     23
    34     34     11     13     15
    35     35     18     20     22
    36     36     17     16     22
    37     37      7      1      8
    38     38      5      3      6
    39     39      9     15     13

Dihedrals

     1      1      5      3      2      1 
     2      2      7      1      2      3 
     3      3     10      9      5      3 
     4      4     11     10      9      5 
     5      5     13     11     10      9 
     6      6     17     16     13     11 
     7      7     18     17     16     13 
     8      8     20     18     17     16 
     9      9     22     16     13     11 
    10     10     14     11     10     12 
    11     11     22     16     17     18 
    12     12     19     17     16     13 
    13     13      8      1      2      4 
    14     14     20     22     16     17 
    15     15     17     16     13     15 
    16     16      6      3      2      4 
    17     17     15     13     11     10 
    18     18     16     13     11     10 
    19     19      3      5      7      1 
    20     20     22     20     18     21 
    21     21     10      9      5      7 
    22     22      8      1      7      5 
    23     23     15     13     11     14 
    24     24     15      9      5      3 
    25     25     22     20     18     17 
    26     26     12     10      9      5 
    27     27     20     22     16     13 
    28     28     21     18     17     19 
    29     29     13     15      9     10 
    30     30     23     20     18     17 
    31     31     18     20     22     16 
    32     32     15      9      5      7 
    33     33      5      7      1      2 
    34     34     15      9     10     11 
    35     35      6      3      2      1 
    36     36     21     18     17     16 
    37     37      7      5      3      2 
    38     38     15      9     10     12 
    39     39      8      1      2      3 
    40     40     14     11     10      9 
    41     41     22     16     13     15 
    42     42     23     20     18     21 
    43     43     20     18     17     19 
    44     44      7      1      2      4 
    45     45     23     20     22     16 
    46     46      9      5      3      6 
    47     47     13     11     10     12 
    48     48      5      3      2      4 
    49     49      7      5      3      6 
    50     50      9      5      3      2 
    51     51     13     15      9      5 
    52     52     16     13     11     14 
    53     53     16     13     15      9 
    54     54     11     13     15      9 
    55     55      9      5      7      1 
    56     56     22     16     17     19 

Impropers

     1      1      2      1      3      4 
     2      2      3      2      5      6 
     3      3      1      2      7      8 
     4      4      5      9      3      7 
     5      5     10      9     11     12 
     6      6     11     10     13     14 
     7      7      9     10      5     15 
     8      8     13     11     15     16 
     9      9     17     18     19     16 
    10     10     18     17     20     21 
    11     11     16     17     13     22 
    12     12     20     18     22     23 

