LAMMPS data file Created by LigParGen - (Written by Leela S. Dodda)

      27 atoms
      27 bonds
      49 angles
      67 dihedrals
      16 impropers
 
      27 atom types
      27 bond types
      49 angle types
      67 dihedral types
      16 improper types
 
   -9.037800    40.962200 xlo xhi
    0.096580    50.096580 ylo yhi
   -3.389930    46.610070 zlo zhi

Masses

       1     12.011  
       2     12.011  
       3     32.060  
       4     12.011  
       5     12.011  
       6      1.008  
       7     12.011  
       8     12.011  
       9      1.008  
      10      1.008  
      11     12.011  
      12      1.008  
      13      1.008  
      14     12.011  
      15      1.008  
      16      1.008  
      17     12.011  
      18      1.008  
      19      1.008  
      20     12.011  
      21      1.008  
      22      1.008  
      23      1.008  
      24      1.008  
      25      1.008  
      26      1.008  
      27      1.008  

Pair Coeffs 

       1      0.070  3.5500000 
       2      0.070  3.5500000 
       3      0.355  3.6000000 
       4      0.070  3.5500000 
       5      0.070  3.5500000 
       6      0.030  2.4200000 
       7      0.066  3.5000000 
       8      0.066  3.5000000 
       9      0.030  2.5000000 
      10      0.030  2.5000000 
      11      0.066  3.5000000 
      12      0.030  2.5000000 
      13      0.030  2.5000000 
      14      0.066  3.5000000 
      15      0.030  2.5000000 
      16      0.030  2.5000000 
      17      0.066  3.5000000 
      18      0.030  2.5000000 
      19      0.030  2.5000000 
      20      0.066  3.5000000 
      21      0.030  2.5000000 
      22      0.030  2.5000000 
      23      0.030  2.5000000 
      24      0.030  2.5000000 
      25      0.030  2.5000000 
      26      0.030  2.4200000 
      27      0.030  2.4200000 

Bond Coeffs 

       1   546.0000     1.3670 
       2   250.0000     1.7400 
       3   250.0000     1.7400 
       4   469.0000     1.4240 
       5   367.0000     1.0800 
       6   317.0000     1.4950 
       7   268.0000     1.5290 
       8   340.0000     1.0900 
       9   340.0000     1.0900 
      10   268.0000     1.5290 
      11   340.0000     1.0900 
      12   340.0000     1.0900 
      13   268.0000     1.5290 
      14   340.0000     1.0900 
      15   340.0000     1.0900 
      16   268.0000     1.5290 
      17   340.0000     1.0900 
      18   340.0000     1.0900 
      19   268.0000     1.5290 
      20   340.0000     1.0900 
      21   340.0000     1.0900 
      22   340.0000     1.0900 
      23   340.0000     1.0900 
      24   340.0000     1.0900 
      25   367.0000     1.0800 
      26   367.0000     1.0800 
      27   546.0000     1.3670 

Angle Coeffs 

       1     70.000    111.170
       2     74.000     97.000
       3     70.000    107.300
       4     35.000    125.700
       5     70.000    120.000
       6     63.000    115.600
       7     35.000    109.500
       8     35.000    109.500
       9     58.350    112.700
      10     37.500    110.700
      11     37.500    110.700
      12     58.350    112.700
      13     37.500    110.700
      14     37.500    110.700
      15     58.350    112.700
      16     37.500    110.700
      17     37.500    110.700
      18     58.350    112.700
      19     37.500    110.700
      20     37.500    110.700
      21     37.500    110.700
      22     37.500    110.700
      23     37.500    110.700
      24     35.000    132.100
      25     35.000    125.000
      26     33.000    107.800
      27     37.500    110.700
      28     33.000    107.800
      29     37.500    110.700
      30     37.500    110.700
      31     35.000    125.000
      32     33.000    107.800
      33     37.500    110.700
      34     70.000    125.000
      35     37.500    110.700
      36     37.500    110.700
      37     33.000    107.800
      38     33.000    107.800
      39     35.000    127.500
      40     70.000    107.300
      41     37.500    110.700
      42     33.000    107.800
      43     37.500    110.700
      44     37.500    110.700
      45     35.000    132.100
      46     33.000    107.800
      47     37.500    110.700
      48     70.000    111.170
      49     33.000    107.800

Dihedral Coeffs  

       1      0.000      0.000      0.000      0.000 
       2      0.000      2.100      0.000      0.000 
       3      0.000      0.000      0.000      0.000 
       4      1.300     -0.200      0.200      0.000 
       5      1.300     -0.200      0.200      0.000 
       6      1.300     -0.200      0.200      0.000 
       7      1.300     -0.200      0.200      0.000 
       8      0.000      0.000      0.300      0.000 
       9      0.000      0.000      0.300      0.000 
      10      0.000      0.000      0.300      0.000 
      11      0.000      0.000      0.300      0.000 
      12      0.000      0.000      0.300      0.000 
      13      0.000      0.000      0.300      0.000 
      14      0.000      0.000      0.300      0.000 
      15      0.000      2.100      0.000      0.000 
      16      0.000      0.000      0.300      0.000 
      17      0.000      2.170      0.000      0.000 
      18      0.000      0.000      0.300      0.000 
      19      0.000      0.000      0.300      0.000 
      20      0.000      0.000      0.300      0.000 
      21      0.000      7.250      0.000      0.000 
      22      0.000      0.000      0.300      0.000 
      23      0.000      7.250      0.000      0.000 
      24      0.000      0.000      0.300      0.000 
      25      0.000      0.000      0.300      0.000 
      26      0.000      0.000      0.300      0.000 
      27      0.000      7.250      0.000      0.000 
      28      0.000      7.250      0.000      0.000 
      29      0.000      0.000      0.300      0.000 
      30      0.000      0.000      0.000      0.000 
      31      0.000      0.000      0.300      0.000 
      32      0.000      0.000      0.300      0.000 
      33      0.000      0.000      0.300      0.000 
      34      0.000      0.000      0.300      0.000 
      35      0.000      0.000      0.300      0.000 
      36      0.000      2.100      0.000      0.000 
      37      0.000      7.250      0.000      0.000 
      38      0.000      0.000      0.300      0.000 
      39      0.000      0.000      0.300      0.000 
      40      0.000      0.000      0.000      0.000 
      41      0.000      0.000      0.300      0.000 
      42      0.000      0.000      0.300      0.000 
      43      0.000      0.000      0.000      0.000 
      44      0.000      0.000      0.300      0.000 
      45      0.000      0.000      0.300      0.000 
      46      0.000      0.000      0.300      0.000 
      47      0.000      0.000      0.300      0.000 
      48      0.000      0.000      0.462      0.000 
      49      0.000      0.000      0.462      0.000 
      50      0.000      7.250      0.000      0.000 
      51      0.000      0.000      0.300      0.000 
      52      0.000      0.000      0.300      0.000 
      53      0.000      7.250      0.000      0.000 
      54      0.000      0.000      0.300      0.000 
      55      0.000      2.170      0.000      0.000 
      56      0.000      0.000      0.300      0.000 
      57      0.000      0.000      0.000      0.000 
      58      0.000      0.000      0.300      0.000 
      59      0.000      0.000      0.300      0.000 
      60      0.000      7.250      0.000      0.000 
      61      0.000      0.000      0.300      0.000 
      62      0.000      0.000      0.300      0.000 
      63      0.000      0.000      0.000      0.000 
      64      0.000      0.000      0.300      0.000 
      65      0.000      0.000      0.300      0.000 
      66      0.000      7.250      0.000      0.000 
      67      0.000      0.000      0.000      0.000 

Improper Coeffs 

       1      2.500      -1       2 
       2      2.500      -1       2 
       3      0.000      -1       2 
       4      0.000      -1       2 
       5      0.000      -1       2 
       6      0.000      -1       2 
       7      0.000      -1       2 
       8      0.000      -1       2 
       9      0.000      -1       2 
      10      0.000      -1       2 
      11      0.000      -1       2 
      12      0.000      -1       2 
      13      0.000      -1       2 
      14      0.000      -1       2 
      15      2.500      -1       2 
      16      2.500      -1       2 

Atoms 

     1      1      1 -0.24510000    1.000  1.00000  0.00000
     2      1      2 -0.17080000   -0.384  1.00000  0.00000
     3      1      3 0.03690000    1.539  1.00000 -1.61565
     4      1      4 -0.23470000   -0.048  1.00000 -2.30937
     5      1      5 -0.07230000   -1.012  1.00000 -1.29919
     6      1      6 0.17300000   -0.961  0.99882  0.93506
     7      1      7 -0.10690000   -2.522  0.99838 -1.47833
     8      1      8 -0.17660000   -3.348  0.99673 -0.18464
     9      1      9 0.09950000   -2.811  0.11452 -2.09067
    10      1     10 0.09950000   -2.814  1.88218 -2.08979
    11      1     11 -0.17790000   -4.855  0.99337 -0.46295
    12      1     12 0.09320000   -3.087  1.88684  0.42840
    13      1     13 0.09320000   -3.085  0.10655  0.42757
    14      1     14 -0.17890000   -5.651  0.99360  0.84459
    15      1     15 0.09010000   -5.126  0.10170 -1.07091
    16      1     16 0.09010000   -5.130  1.88331 -1.07258
    17      1     17 -0.17590000   -7.159  0.98848  0.59117
    18      1     18 0.08960000   -5.375  1.88483  1.45086
    19      1     19 0.08960000   -5.370  0.10564  1.45408
    20      1     20 -0.23870000   -7.941  0.99053  1.89671
    21      1     21 0.08830000   -7.428  0.09658 -0.01833
    22      1     22 0.08830000   -7.434  1.87375 -0.02363
    23      1     23 0.08080000   -7.693  0.10127  2.51441
    24      1     24 0.08080000   -9.038  0.98440  1.73536
    25      1     25 0.08080000   -7.700  1.88740  2.50604
    26      1     26 0.20520000    1.727  0.85845  0.83097
    27      1     27 0.19900000    0.000  0.87033 -3.38993

Bonds 

     1      1      2      1
     2      2      3      1
     3      3      4      3
     4      4      5      2
     5      5      6      2
     6      6      7      5
     7      7      8      7
     8      8      9      7
     9      9     10      7
    10     10     11      8
    11     11     12      8
    12     12     13      8
    13     13     14     11
    14     14     15     11
    15     15     16     11
    16     16     17     14
    17     17     18     14
    18     18     19     14
    19     19     20     17
    20     20     21     17
    21     21     22     17
    22     22     23     20
    23     23     24     20
    24     24     25     20
    25     25     26      1
    26     26     27      4
    27     27      5      4

Angles 

     1      1      2      1      3
     2      2      1      3      4
     3      3      1      2      5
     4      4      1      2      6
     5      5      2      5      7
     6      6      5      7      8
     7      7      5      7      9
     8      8      5      7     10
     9      9      7      8     11
    10     10      7      8     12
    11     11      7      8     13
    12     12      8     11     14
    13     13      8     11     15
    14     14      8     11     16
    15     15     11     14     17
    16     16     11     14     18
    17     17     11     14     19
    18     18     14     17     20
    19     19     14     17     21
    20     20     14     17     22
    21     21     17     20     23
    22     22     17     20     24
    23     23     17     20     25
    24     24      2      1     26
    25     25      3      4     27
    26     26     24     20     25
    27     27     14     11     15
    28     28     23     20     24
    29     29     11      8     13
    30     30      8      7     10
    31     31      3      1     26
    32     32     15     11     16
    33     33      8      7      9
    34     34      4      5      7
    35     35     17     14     19
    36     36     17     14     18
    37     37     21     17     22
    38     38     18     14     19
    39     39      5      2      6
    40     40      2      5      4
    41     41     20     17     22
    42     42     23     20     25
    43     43     14     11     16
    44     44     11      8     12
    45     45      5      4     27
    46     46      9      7     10
    47     47     20     17     21
    48     48      3      4      5
    49     49     12      8     13

Dihedrals

     1      1      4      3      1      2 
     2      2      5      2      1      3 
     3      3      8      7      5      2 
     4      4     11      8      7      5 
     5      5     14     11      8      7 
     6      6     17     14     11      8 
     7      7     20     17     14     11 
     8      8     23     20     17     14 
     9      9     13      8      7     10 
    10     10     23     20     17     22 
    11     11     12      8      7      9 
    12     12     11      8      7     10 
    13     13     19     14     11      8 
    14     14     25     20     17     21 
    15     15      3      4      5      2 
    16     16     24     20     17     14 
    17     17      7      5      2      1 
    18     18     11      8      7      9 
    19     19     14     11      8     13 
    20     20     15     11      8     12 
    21     21      6      2      5      4 
    22     22     16     11      8     12 
    23     23     27      4      3      1 
    24     24     13      8      7      9 
    25     25     12      8      7     10 
    26     26     25     20     17     14 
    27     27     26      1      2      5 
    28     28     27      4      5      7 
    29     29     24     20     17     22 
    30     30      8      7      5      4 
    31     31     16     11      8      7 
    32     32     23     20     17     21 
    33     33     19     14     11     15 
    34     34     14     11      8     12 
    35     35     17     14     11     16 
    36     36      7      5      4      3 
    37     37     26      1      3      4 
    38     38     19     14     11     16 
    39     39     24     20     17     21 
    40     40      9      7      5      2 
    41     41     25     20     17     22 
    42     42     18     14     11      8 
    43     43     10      7      5      4 
    44     44     15     11      8     13 
    45     45     18     14     11     15 
    46     46     16     11      8     13 
    47     47     22     17     14     11 
    48     48     13      8      7      5 
    49     49     12      8      7      5 
    50     50      6      2      1      3 
    51     51     21     17     14     18 
    52     52     20     17     14     19 
    53     53     26      1      2      6 
    54     54     15     11      8      7 
    55     55      4      5      2      1 
    56     56     22     17     14     19 
    57     57      5      4      3      1 
    58     58     21     17     14     19 
    59     59     20     17     14     18 
    60     60     27      4      5      2 
    61     61     22     17     14     18 
    62     62     21     17     14     11 
    63     63      9      7      5      4 
    64     64     17     14     11     15 
    65     65     18     14     11     16 
    66     66      7      5      2      6 
    67     67     10      7      5      2 

Impropers

     1      1      2      1      5      6 
     2      2      5      2      4      7 
     3      3      7      9      5      8 
     4      4      7     10      5      8 
     5      5      8     11     12      7 
     6      6      8     11     13      7 
     7      7     11     14     15      8 
     8      8     11      8     14     16 
     9      9     14     17     18     11 
    10     10     14     17     19     11 
    11     11     17     20     21     14 
    12     12     17     20     22     14 
    13     13     20     17     23     24 
    14     14     20     25     17     23 
    15     15      1     26      3      2 
    16     16      4     27      5      3 

