LAMMPS data file Created by LigParGen - (Written by Leela S. Dodda)

      27 atoms
      27 bonds
      49 angles
      67 dihedrals
      16 impropers
 
      27 atom types
      27 bond types
      49 angle types
      67 dihedral types
      16 improper types
 
   -9.248920    40.751080 xlo xhi
    0.112540    50.112540 ylo yhi
   -2.058320    47.941680 zlo zhi

Masses

       1     12.011  
       2     12.011  
       3     12.011  
       4      1.008  
       5     12.011  
       6     32.060  
       7     12.011  
       8     12.011  
       9      1.008  
      10      1.008  
      11     12.011  
      12      1.008  
      13      1.008  
      14     12.011  
      15      1.008  
      16      1.008  
      17     12.011  
      18      1.008  
      19      1.008  
      20     12.011  
      21      1.008  
      22      1.008  
      23      1.008  
      24      1.008  
      25      1.008  
      26      1.008  
      27      1.008  

Pair Coeffs 

       1      0.070  3.5500000 
       2      0.070  3.5500000 
       3      0.070  3.5500000 
       4      0.030  2.4200000 
       5      0.070  3.5500000 
       6      0.355  3.6000000 
       7      0.066  3.5000000 
       8      0.066  3.5000000 
       9      0.030  2.5000000 
      10      0.030  2.5000000 
      11      0.066  3.5000000 
      12      0.030  2.5000000 
      13      0.030  2.5000000 
      14      0.066  3.5000000 
      15      0.030  2.5000000 
      16      0.030  2.5000000 
      17      0.066  3.5000000 
      18      0.030  2.5000000 
      19      0.030  2.5000000 
      20      0.066  3.5000000 
      21      0.030  2.5000000 
      22      0.030  2.5000000 
      23      0.030  2.5000000 
      24      0.030  2.5000000 
      25      0.030  2.5000000 
      26      0.030  2.4200000 
      27      0.030  2.4200000 

Bond Coeffs 

       1   546.0000     1.3670 
       2   469.0000     1.4240 
       3   367.0000     1.0800 
       4   546.0000     1.3670 
       5   250.0000     1.7400 
       6   317.0000     1.4950 
       7   268.0000     1.5290 
       8   340.0000     1.0900 
       9   340.0000     1.0900 
      10   268.0000     1.5290 
      11   340.0000     1.0900 
      12   340.0000     1.0900 
      13   268.0000     1.5290 
      14   340.0000     1.0900 
      15   340.0000     1.0900 
      16   268.0000     1.5290 
      17   340.0000     1.0900 
      18   340.0000     1.0900 
      19   268.0000     1.5290 
      20   340.0000     1.0900 
      21   340.0000     1.0900 
      22   340.0000     1.0900 
      23   340.0000     1.0900 
      24   340.0000     1.0900 
      25   367.0000     1.0800 
      26   367.0000     1.0800 
      27   250.0000     1.7400 

Angle Coeffs 

       1     70.000    107.300
       2     35.000    125.700
       3     70.000    107.300
       4     70.000    111.170
       5     70.000    120.000
       6     63.000    115.600
       7     35.000    109.500
       8     35.000    109.500
       9     58.350    112.700
      10     37.500    110.700
      11     37.500    110.700
      12     58.350    112.700
      13     37.500    110.700
      14     37.500    110.700
      15     58.350    112.700
      16     37.500    110.700
      17     37.500    110.700
      18     58.350    112.700
      19     37.500    110.700
      20     37.500    110.700
      21     37.500    110.700
      22     37.500    110.700
      23     37.500    110.700
      24     35.000    132.100
      25     35.000    132.100
      26     33.000    107.800
      27     33.000    107.800
      28     37.500    110.700
      29     33.000    107.800
      30     37.500    110.700
      31     37.500    110.700
      32     35.000    125.000
      33     33.000    107.800
      34     37.500    110.700
      35     37.500    110.700
      36     37.500    110.700
      37     33.000    107.800
      38     35.000    125.000
      39     33.000    107.800
      40     35.000    127.500
      41     37.500    110.700
      42     33.000    107.800
      43     37.500    110.700
      44     37.500    110.700
      45     74.000     97.000
      46     70.000    111.170
      47     37.500    110.700
      48     70.000    125.000
      49     33.000    107.800

Dihedral Coeffs  

       1      0.000      2.170      0.000      0.000 
       2      0.000      2.100      0.000      0.000 
       3      0.000      0.000      0.000      0.000 
       4      1.300     -0.200      0.200      0.000 
       5      1.300     -0.200      0.200      0.000 
       6      1.300     -0.200      0.200      0.000 
       7      1.300     -0.200      0.200      0.000 
       8      0.000      0.000      0.300      0.000 
       9      0.000      0.000      0.300      0.000 
      10      0.000      0.000      0.462      0.000 
      11      0.000      0.000      0.300      0.000 
      12      0.000      0.000      0.300      0.000 
      13      0.000      0.000      0.300      0.000 
      14      0.000      0.000      0.300      0.000 
      15      0.000      0.000      0.300      0.000 
      16      0.000      0.000      0.300      0.000 
      17      0.000      0.000      0.300      0.000 
      18      0.000      0.000      0.000      0.000 
      19      0.000      0.000      0.300      0.000 
      20      0.000      0.000      0.300      0.000 
      21      0.000      0.000      0.300      0.000 
      22      0.000      0.000      0.300      0.000 
      23      0.000      0.000      0.300      0.000 
      24      0.000      0.000      0.300      0.000 
      25      0.000      7.250      0.000      0.000 
      26      0.000      0.000      0.300      0.000 
      27      0.000      0.000      0.300      0.000 
      28      0.000      2.170      0.000      0.000 
      29      0.000      2.100      0.000      0.000 
      30      0.000      7.250      0.000      0.000 
      31      0.000      7.250      0.000      0.000 
      32      0.000      0.000      0.300      0.000 
      33      0.000      0.000      0.300      0.000 
      34      0.000      0.000      0.000      0.000 
      35      0.000      0.000      0.000      0.000 
      36      0.000      0.000      0.300      0.000 
      37      0.000      0.000      0.300      0.000 
      38      0.000      0.000      0.000      0.000 
      39      0.000      0.000      0.300      0.000 
      40      0.000      0.000      0.300      0.000 
      41      0.000      7.250      0.000      0.000 
      42      0.000      0.000      0.300      0.000 
      43      0.000      7.250      0.000      0.000 
      44      0.000      7.250      0.000      0.000 
      45      0.000      0.000      0.300      0.000 
      46      0.000      0.000      0.462      0.000 
      47      0.000      0.000      0.000      0.000 
      48      0.000      0.000      0.300      0.000 
      49      0.000      0.000      0.300      0.000 
      50      0.000      0.000      0.300      0.000 
      51      0.000      0.000      0.300      0.000 
      52      0.000      0.000      0.300      0.000 
      53      0.000      7.250      0.000      0.000 
      54      0.000      0.000      0.300      0.000 
      55      0.000      0.000      0.300      0.000 
      56      0.000      7.250      0.000      0.000 
      57      0.000      2.100      0.000      0.000 
      58      0.000      0.000      0.300      0.000 
      59      0.000      0.000      0.300      0.000 
      60      0.000      0.000      0.000      0.000 
      61      0.000      0.000      0.300      0.000 
      62      0.000      7.250      0.000      0.000 
      63      0.000      0.000      0.000      0.000 
      64      0.000      0.000      0.300      0.000 
      65      0.000      0.000      0.300      0.000 
      66      0.000      0.000      0.300      0.000 
      67      0.000      0.000      0.300      0.000 

Improper Coeffs 

       1      2.500      -1       2 
       2      2.500      -1       2 
       3      0.000      -1       2 
       4      0.000      -1       2 
       5      0.000      -1       2 
       6      0.000      -1       2 
       7      0.000      -1       2 
       8      0.000      -1       2 
       9      0.000      -1       2 
      10      0.000      -1       2 
      11      0.000      -1       2 
      12      0.000      -1       2 
      13      0.000      -1       2 
      14      0.000      -1       2 
      15      2.500      -1       2 
      16      2.500      -1       2 

Atoms 

     1      1      1 -0.24750000    1.000  1.00000  0.00000
     2      1      2 -0.16900000   -0.385  1.00000  0.00000
     3      1      3 -0.08580000   -1.006  1.00000  1.31031
     4      1      4 0.17240000   -0.971  1.00117 -0.92946
     5      1      5 -0.24700000   -0.031  1.00000  2.31467
     6      1      6 0.06750000    1.540  1.00000  1.61361
     7      1      7 -0.10740000   -2.510  1.00161  1.51886
     8      1      8 -0.17440000   -3.385  1.00329  0.25687
     9      1      9 0.09800000   -2.783  1.88622  2.13816
    10      1     10 0.09800000   -2.785  0.11970  2.14002
    11      1     11 -0.17970000   -4.874  1.00660  0.62567
    12      1     12 0.09380000   -3.154  0.11254 -0.36702
    13      1     13 0.09380000   -3.153  1.89539 -0.36706
    14      1     14 -0.17740000   -5.779  1.00656 -0.60993
    15      1     15 0.08890000   -5.098  1.89815  1.25380
    16      1     16 0.08890000   -5.103  0.11933  1.25722
    17      1     17 -0.17630000   -7.256  1.01171 -0.20683
    18      1     18 0.09010000   -5.560  0.11354 -1.23760
    19      1     19 0.09010000   -5.555  1.89426 -1.24257
    20      1     20 -0.23820000   -8.176  1.00999 -1.41699
    21      1     21 0.08790000   -7.457  1.90323  0.42801
    22      1     22 0.08790000   -7.464  0.12654  0.43544
    23      1     23 0.08080000   -8.000  1.89827 -2.05832
    24      1     24 0.08080000   -9.249  1.01619 -1.13291
    25      1     25 0.08080000   -8.007  0.11286 -2.04962
    26      1     26 0.20330000    1.699  0.99893 -0.84314
    27      1     27 0.19950000   -0.154  1.00107  3.40458

Bonds 

     1      1      2      1
     2      2      3      2
     3      3      4      2
     4      4      5      3
     5      5      6      1
     6      6      7      3
     7      7      8      7
     8      8      9      7
     9      9     10      7
    10     10     11      8
    11     11     12      8
    12     12     13      8
    13     13     14     11
    14     14     15     11
    15     15     16     11
    16     16     17     14
    17     17     18     14
    18     18     19     14
    19     19     20     17
    20     20     21     17
    21     21     22     17
    22     22     23     20
    23     23     24     20
    24     24     25     20
    25     25     26      1
    26     26     27      5
    27     27      6      5

Angles 

     1      1      1      2      3
     2      2      1      2      4
     3      3      2      3      5
     4      4      2      1      6
     5      5      2      3      7
     6      6      3      7      8
     7      7      3      7      9
     8      8      3      7     10
     9      9      7      8     11
    10     10      7      8     12
    11     11      7      8     13
    12     12      8     11     14
    13     13      8     11     15
    14     14      8     11     16
    15     15     11     14     17
    16     16     11     14     18
    17     17     11     14     19
    18     18     14     17     20
    19     19     14     17     21
    20     20     14     17     22
    21     21     17     20     23
    22     22     17     20     24
    23     23     17     20     25
    24     24      2      1     26
    25     25      3      5     27
    26     26     24     20     25
    27     27      9      7     10
    28     28     14     11     15
    29     29     23     20     24
    30     30     11      8     13
    31     31      8      7     10
    32     32      6      1     26
    33     33     15     11     16
    34     34      8      7      9
    35     35     17     14     19
    36     36     17     14     18
    37     37     21     17     22
    38     38      6      5     27
    39     39     18     14     19
    40     40      3      2      4
    41     41     20     17     22
    42     42     23     20     25
    43     43     14     11     16
    44     44     11      8     12
    45     45      1      6      5
    46     46      3      5      6
    47     47     20     17     21
    48     48      5      3      7
    49     49     12      8     13

Dihedrals

     1      1      5      3      2      1 
     2      2      6      1      2      3 
     3      3      8      7      3      2 
     4      4     11      8      7      3 
     5      5     14     11      8      7 
     6      6     17     14     11      8 
     7      7     20     17     14     11 
     8      8     23     20     17     14 
     9      9     13      8      7     10 
    10     10     12      8      7      3 
    11     11     12      8      7      9 
    12     12     11      8      7     10 
    13     13     19     14     11      8 
    14     14     23     20     17     21 
    15     15     25     20     17     21 
    16     16     18     14     11     15 
    17     17     24     20     17     14 
    18     18      5      6      1      2 
    19     19     11      8      7      9 
    20     20     15     11      8     12 
    21     21     14     11      8     13 
    22     22     16     11      8     12 
    23     23     16     11      8      7 
    24     24     13      8      7      9 
    25     25      6      1      2      4 
    26     26     25     20     17     14 
    27     27     17     14     11     15 
    28     28      7      3      2      1 
    29     29      6      5      3      2 
    30     30     26      1      2      4 
    31     31     27      5      6      1 
    32     32     14     11      8     12 
    33     33     17     14     11     16 
    34     34     10      7      3      5 
    35     35      8      7      3      5 
    36     36     19     14     11     16 
    37     37     24     20     17     21 
    38     38      9      7      3      5 
    39     39     25     20     17     22 
    40     40     16     11      8     13 
    41     41     27      5      3      7 
    42     42     18     14     11      8 
    43     43     27      5      3      2 
    44     44     26      1      6      5 
    45     45     15     11      8     13 
    46     46     13      8      7      3 
    47     47      9      7      3      2 
    48     48     22     17     14     11 
    49     49     23     20     17     22 
    50     50     21     17     14     18 
    51     51     20     17     14     19 
    52     52     24     20     17     22 
    53     53     26      1      2      3 
    54     54     15     11      8      7 
    55     55     22     17     14     19 
    56     56      5      3      2      4 
    57     57      7      3      5      6 
    58     58     20     17     14     18 
    59     59     22     17     14     18 
    60     60      3      5      6      1 
    61     61     12      8      7     10 
    62     62      7      3      2      4 
    63     63     10      7      3      2 
    64     64     21     17     14     19 
    65     65     19     14     11     15 
    66     66     18     14     11     16 
    67     67     21     17     14     11 

Impropers

     1      1      2      1      3      4 
     2      2      3      2      5      7 
     3      3      7      9      3      8 
     4      4      7     10      3      8 
     5      5      8     11     12      7 
     6      6      8     11     13      7 
     7      7     11     14     15      8 
     8      8     11      8     14     16 
     9      9     14     17     18     11 
    10     10     14     17     19     11 
    11     11     17     20     21     14 
    12     12     17     20     22     14 
    13     13     20     17     23     24 
    14     14     20     25     17     23 
    15     15      1     26      6      2 
    16     16      5     27      3      6 

