LAMMPS data file Created by LigParGen - (Written by Leela S. Dodda)

      58 atoms
      64 bonds
     106 angles
     140 dihedrals
      32 impropers
 
      58 atom types
      64 bond types
     106 angle types
     140 dihedral types
      32 improper types
 
  -13.450010    36.549990 xlo xhi
   -0.200640    49.799360 ylo yhi
   -0.939770    49.060230 zlo zhi

Masses

       1     12.011  
       2     32.060  
       3     12.011  
       4     12.011  
       5     12.011  
       6     32.060  
       7     12.011  
       8     12.011  
       9     18.998  
      10     12.011  
      11     15.999  
      12     15.999  
      13     12.011  
      14      1.008  
      15      1.008  
      16      1.008  
      17      1.008  
      18     12.011  
      19     12.011  
      20     32.060  
      21     12.011  
      22      1.008  
      23     12.011  
      24     12.011  
      25     12.011  
      26     12.011  
      27     12.011  
      28     15.999  
      29     15.999  
      30     12.011  
      31      1.008  
      32      1.008  
      33      1.008  
      34     12.011  
      35      1.008  
      36      1.008  
      37      1.008  
      38     12.011  
      39     32.060  
      40     12.011  
      41      1.008  
      42     12.011  
      43     32.060  
      44     12.011  
      45     12.011  
      46     12.011  
      47     32.060  
      48     12.011  
      49     12.011  
      50     18.998  
      51     12.011  
      52     15.999  
      53     15.999  
      54     12.011  
      55      1.008  
      56      1.008  
      57      1.008  
      58      1.008  

Pair Coeffs 

       1      0.070  3.5500000 
       2      0.355  3.6000000 
       3      0.070  3.5500000 
       4      0.070  3.5500000 
       5      0.076  3.5500000 
       6      0.355  3.6000000 
       7      0.070  3.5500000 
       8      0.070  3.5500000 
       9      0.060  2.9000000 
      10      0.070  3.5500000 
      11      0.210  2.9600000 
      12      0.140  2.9000000 
      13      0.066  3.5000000 
      14      0.030  2.5000000 
      15      0.030  2.5000000 
      16      0.030  2.5000000 
      17      0.030  2.4200000 
      18      0.070  3.5500000 
      19      0.070  3.5500000 
      20      0.355  3.6000000 
      21      0.070  3.5500000 
      22      0.030  2.4200000 
      23      0.080  3.5000000 
      24      0.070  3.5500000 
      25      0.070  3.5500000 
      26      0.080  3.5000000 
      27      0.070  3.5500000 
      28      0.140  2.9000000 
      29      0.140  2.9000000 
      30      0.066  3.5000000 
      31      0.030  2.5000000 
      32      0.030  2.5000000 
      33      0.030  2.5000000 
      34      0.066  3.5000000 
      35      0.030  2.5000000 
      36      0.030  2.5000000 
      37      0.030  2.5000000 
      38      0.070  3.5500000 
      39      0.355  3.6000000 
      40      0.070  3.5500000 
      41      0.030  2.4200000 
      42      0.070  3.5500000 
      43      0.355  3.6000000 
      44      0.070  3.5500000 
      45      0.070  3.5500000 
      46      0.076  3.5500000 
      47      0.355  3.6000000 
      48      0.070  3.5500000 
      49      0.070  3.5500000 
      50      0.060  2.9000000 
      51      0.070  3.5500000 
      52      0.210  2.9600000 
      53      0.140  2.9000000 
      54      0.066  3.5000000 
      55      0.030  2.5000000 
      56      0.030  2.5000000 
      57      0.030  2.5000000 
      58      0.030  2.4200000 

Bond Coeffs 

       1   250.0000     1.7400 
       2   250.0000     1.7600 
       3   546.0000     1.3670 
       4   427.0000     1.4330 
       5   250.0000     1.7600 
       6   250.0000     1.7400 
       7   427.0000     1.4330 
       8   420.0000     1.3540 
       9   400.0000     1.4900 
      10   570.0000     1.2290 
      11   214.0000     1.3270 
      12   320.0000     1.4100 
      13   340.0000     1.0900 
      14   340.0000     1.0900 
      15   340.0000     1.0900 
      16   367.0000     1.0800 
      17   469.0000     1.4240 
      18   469.0000     1.4240 
      19   250.0000     1.7600 
      20   469.0000     1.4240 
      21   367.0000     1.0800 
      22   250.0000     1.7600 
      23   469.0000     1.4040 
      24   469.0000     1.4000 
      25   469.0000     1.4040 
      26   469.0000     1.4000 
      27   450.0000     1.3640 
      28   450.0000     1.3640 
      29   320.0000     1.4100 
      30   340.0000     1.0900 
      31   340.0000     1.0900 
      32   340.0000     1.0900 
      33   320.0000     1.4100 
      34   340.0000     1.0900 
      35   340.0000     1.0900 
      36   340.0000     1.0900 
      37   469.0000     1.4240 
      38   250.0000     1.7600 
      39   469.0000     1.4240 
      40   367.0000     1.0800 
      41   469.0000     1.4240 
      42   250.0000     1.7600 
      43   250.0000     1.7400 
      44   469.0000     1.4240 
      45   546.0000     1.3670 
      46   250.0000     1.7600 
      47   250.0000     1.7400 
      48   427.0000     1.4330 
      49   420.0000     1.3540 
      50   400.0000     1.4900 
      51   570.0000     1.2290 
      52   214.0000     1.3270 
      53   320.0000     1.4100 
      54   340.0000     1.0900 
      55   340.0000     1.0900 
      56   340.0000     1.0900 
      57   367.0000     1.0800 
      58   427.0000     1.4330 
      59   546.0000     1.3670 
      60   469.0000     1.4240 
      61   469.0000     1.4240 
      62   250.0000     1.7600 
      63   427.0000     1.4330 
      64   546.0000     1.3670 

Angle Coeffs 

       1     63.000    112.400
       2     70.000    111.170
       3     85.000    119.400
       4     62.750    119.200
       5     63.000    112.400
       6     63.000    120.000
       7     80.000    120.000
       8     70.000    111.170
       9     80.000    120.400
      10     69.900    118.180
      11     83.000    116.900
      12     35.000    109.500
      13     35.000    109.500
      14     35.000    109.500
      15     35.000    125.000
      16     85.000    119.400
      17     63.000    120.000
      18     85.000    119.400
      19     63.000    120.000
      20     35.000    127.500
      21     63.000    112.400
      22     85.000    119.400
      23     63.000    120.000
      24     63.000    120.000
      25     63.000    120.000
      26     70.000    120.000
      27     70.000    120.000
      28     75.000    111.000
      29     35.000    109.500
      30     35.000    109.500
      31     35.000    109.500
      32     75.000    111.000
      33     35.000    109.500
      34     35.000    109.500
      35     35.000    109.500
      36     63.000    120.000
      37     85.000    119.400
      38     63.000    120.000
      39     35.000    127.500
      40     63.000    120.000
      41     85.000    119.400
      42     63.000    112.400
      43     63.000    120.000
      44     70.000    111.170
      45     85.000    119.400
      46     63.000    112.400
      47     70.000    107.400
      48     80.000    120.000
      49     70.000    111.170
      50     80.000    120.400
      51     69.900    118.180
      52     83.000    116.900
      53     35.000    109.500
      54     35.000    109.500
      55     35.000    109.500
      56     35.000    125.000
      57     83.000    123.400
      58     85.000    119.400
      59     63.000    120.000
      60     85.000    119.400
      61     33.000    107.800
      62     70.000    120.000
      63     63.000    120.000
      64     70.000    120.000
      65     33.000    107.800
      66     63.000    120.000
      67     85.000    119.400
      68     33.000    107.800
      69     85.000    119.400
      70     63.000    120.000
      71     33.000    107.800
      72     85.000    120.000
      73     70.000    111.170
      74     83.000    123.400
      75     70.000    111.170
      76     35.000    127.500
      77     35.000    132.100
      78     63.000    120.000
      79     70.000    107.400
      80     33.000    107.800
      81     33.000    107.800
      82     70.000    107.300
      83     85.000    119.400
      84     33.000    107.800
      85     63.000    112.400
      86     33.000    107.800
      87     85.000    134.900
      88     85.000    119.400
      89     85.000    119.400
      90     62.750    119.200
      91     33.000    107.800
      92     33.000    107.800
      93     70.000    107.400
      94     62.750    119.200
      95     85.000    134.900
      96     33.000    107.800
      97     33.000    107.800
      98     70.000    107.400
      99     70.000    107.400
     100     85.000    120.000
     101     63.000    120.000
     102     85.000    119.400
     103     35.000    127.500
     104     63.000    120.000
     105     70.000    107.300
     106     35.000    130.700

Dihedral Coeffs  

       1      0.000      0.000      0.000      0.000 
       2      0.000      0.000      0.000      0.000 
       3      0.000      0.000      0.000      0.000 
       4      0.000      0.000      0.000      0.000 
       5      4.669      5.124      0.000      0.000 
       6      0.000      0.000      0.198      0.000 
       7      0.000      2.170      0.000      0.000 
       8      0.000      2.170      0.000      0.000 
       9      0.000      2.170      0.000      0.000 
      10      0.000      2.170      0.000      0.000 
      11      0.000      7.000      0.000      0.000 
      12      0.000      3.000      0.000      0.000 
      13      0.000      0.000      0.760      0.000 
      14      0.000      3.000      0.000      0.000 
      15      0.000      0.000      0.760      0.000 
      16      0.000      2.170      0.000      0.000 
      17      0.000      2.170      0.000      0.000 
      18      0.000      2.170      0.000      0.000 
      19      0.000      0.000      0.000      0.000 
      20      0.000      2.170      0.000      0.000 
      21      0.000      0.000      0.000      0.000 
      22      4.669      5.124      0.000      0.000 
      23      0.000      0.000      0.198      0.000 
      24      0.000      2.170      0.000      0.000 
      25      0.000      7.250      0.000      0.000 
      26      0.000      2.170      0.000      0.000 
      27      0.000      7.000      0.000      0.000 
      28      0.000      2.170      0.000      0.000 
      29      0.000      7.250      0.000      0.000 
      30      0.000      0.000      0.000      0.000 
      31      0.000      2.100      0.000      0.000 
      32      0.000      2.170      0.000      0.000 
      33      0.000      0.000     -0.553      0.000 
      34      0.000      7.000      0.000      0.000 
      35      0.000      0.000      0.198      0.000 
      36      0.000      0.000      0.000      0.000 
      37      0.000      7.250      0.000      0.000 
      38      0.000      7.250      0.000      0.000 
      39      0.000     14.000      0.000      0.000 
      40      0.000      7.000      0.000      0.000 
      41      0.000      7.250      0.000      0.000 
      42      0.000      2.100      0.000      0.000 
      43      0.000      2.100      0.000      0.000 
      44      0.000      2.170      0.000      0.000 
      45      0.000      7.250      0.000      0.000 
      46      0.000      2.170      0.000      0.000 
      47      0.000      2.170      0.000      0.000 
      48      0.000      7.250      0.000      0.000 
      49      0.000      7.250      0.000      0.000 
      50      0.000      2.170      0.000      0.000 
      51      0.000      7.250      0.000      0.000 
      52      0.000      0.000      0.000      0.000 
      53      0.000      2.170      0.000      0.000 
      54      0.000      0.000      0.000      0.000 
      55      0.500      0.000      0.000      0.000 
      56      0.000      2.100      0.000      0.000 
      57      0.000      5.124      0.000      0.000 
      58      0.000      7.000      0.000      0.000 
      59      0.000      7.000      0.000      0.000 
      60      0.000      2.170      0.000      0.000 
      61      0.000      2.170      0.000      0.000 
      62      0.000      0.000      0.760      0.000 
      63      0.000      2.170      0.000      0.000 
      64      0.000      7.250      0.000      0.000 
      65      0.000      2.170      0.000      0.000 
      66      0.000      2.170      0.000      0.000 
      67      0.000      2.170      0.000      0.000 
      68      0.000      2.170      0.000      0.000 
      69      0.000      0.000      0.000      0.000 
      70      0.500      0.000      0.000      0.000 
      71      0.000      7.250      0.000      0.000 
      72      0.000      2.100      0.000      0.000 
      73      0.000      7.000      0.000      0.000 
      74      0.500      0.000      0.000      0.000 
      75      0.000      7.250      0.000      0.000 
      76      0.000      2.170      0.000      0.000 
      77      0.000      7.250      0.000      0.000 
      78      0.000      0.000      0.198      0.000 
      79      0.000      7.250      0.000      0.000 
      80      0.000      3.000      0.000      0.000 
      81      0.000      2.170      0.000      0.000 
      82      0.000      7.250      0.000      0.000 
      83      0.000      2.170      0.000      0.000 
      84      0.000      2.170      0.000      0.000 
      85      0.000      2.170      0.000      0.000 
      86      0.000      0.000      0.760      0.000 
      87      0.000      7.250      0.000      0.000 
      88      0.000      2.170      0.000      0.000 
      89      0.000      0.000      0.000      0.000 
      90      0.000      2.170      0.000      0.000 
      91      0.000      7.250      0.000      0.000 
      92      0.000      0.000     -0.553      0.000 
      93      0.000      3.000      0.000      0.000 
      94      0.000      2.170      0.000      0.000 
      95      0.000      7.250      0.000      0.000 
      96      0.000      2.170      0.000      0.000 
      97      0.000      2.170      0.000      0.000 
      98      0.000      2.170      0.000      0.000 
      99      0.000      2.170      0.000      0.000 
     100      0.000      2.170      0.000      0.000 
     101      0.000      7.250      0.000      0.000 
     102      0.000      7.250      0.000      0.000 
     103      0.000      7.250      0.000      0.000 
     104      0.000     14.000      0.000      0.000 
     105      0.000      2.100      0.000      0.000 
     106      0.000      2.100      0.000      0.000 
     107      0.000      2.170      0.000      0.000 
     108      0.000      7.250      0.000      0.000 
     109      0.000      7.250      0.000      0.000 
     110      0.000      0.000      0.000      0.000 
     111      0.000      2.170      0.000      0.000 
     112      0.000      2.170      0.000      0.000 
     113      0.000      7.250      0.000      0.000 
     114      0.000      2.170      0.000      0.000 
     115      0.000      2.170      0.000      0.000 
     116      0.000      2.170      0.000      0.000 
     117      0.000      2.170      0.000      0.000 
     118      0.000      7.250      0.000      0.000 
     119      0.000      7.250      0.000      0.000 
     120      0.000      7.250      0.000      0.000 
     121      0.000      0.000      0.198      0.000 
     122      0.000      2.170      0.000      0.000 
     123      0.000      7.250      0.000      0.000 
     124      0.000      0.000      0.198      0.000 
     125      0.000      7.000      0.000      0.000 
     126      0.000      7.250      0.000      0.000 
     127      0.000      7.250      0.000      0.000 
     128      0.500      0.000      0.000      0.000 
     129      0.000      2.170      0.000      0.000 
     130      0.000      0.000      0.760      0.000 
     131      0.000      7.250      0.000      0.000 
     132      0.000      5.124      0.000      0.000 
     133      0.000      7.250      0.000      0.000 
     134      0.000      2.170      0.000      0.000 
     135      0.000      2.170      0.000      0.000 
     136      0.000      7.250      0.000      0.000 
     137      0.000      7.250      0.000      0.000 
     138      0.000      7.250      0.000      0.000 
     139      0.000      0.000      0.000      0.000 
     140      0.000      0.000      0.760      0.000 

Improper Coeffs 

       1      2.500      -1       2 
       2      2.500      -1       2 
       3      2.500      -1       2 
       4      2.500      -1       2 
       5     10.500      -1       2 
       6      0.000      -1       2 
       7      0.000      -1       2 
       8      2.500      -1       2 
       9      2.500      -1       2 
      10      2.500      -1       2 
      11      2.500      -1       2 
      12      2.500      -1       2 
      13      2.500      -1       2 
      14      2.500      -1       2 
      15      2.500      -1       2 
      16      0.000      -1       2 
      17      0.000      -1       2 
      18      0.000      -1       2 
      19      0.000      -1       2 
      20      2.500      -1       2 
      21      2.500      -1       2 
      22      2.500      -1       2 
      23      2.500      -1       2 
      24      2.500      -1       2 
      25      2.500      -1       2 
      26      2.500      -1       2 
      27      2.500      -1       2 
      28      2.500      -1       2 
      29     10.500      -1       2 
      30      0.000      -1       2 
      31      0.000      -1       2 
      32      2.500      -1       2 

Atoms 

     1      1      1 -0.17890000    1.000  1.00000  0.00000
     2      1      2 0.08070000   -0.758  1.00000  0.00000
     3      1      3 0.02220000   -0.891  1.00000  1.75427
     4      1      4 -0.10080000    1.450  1.00000  1.32529
     5      1      5 -0.12320000    0.409  1.00000  2.31899
     6      1      6 0.11840000    3.065  1.00166  2.00989
     7      1      7 -0.25650000    2.377  1.00241  3.63988
     8      1      8 0.20410000    0.992  0.99877  3.63269
     9      1      9 -0.02970000    0.266  0.99591  4.75581
    10      1     10 0.52660000    3.348  1.00500  4.74518
    11      1     11 -0.45010000    4.559  1.00658  4.57220
    12      1     12 -0.33990000    2.750  1.00386  5.96102
    13      1     13 -0.05440000    3.650  1.00464  7.07841
    14      1     14 0.10670000    3.012  1.00220  7.97924
    15      1     15 0.10670000    4.297  1.90530  7.06267
    16      1     16 0.10670000    4.301  0.10690  7.06067
    17      1     17 0.21760000    1.562  0.99881 -0.93977
    18      1     18 -0.09990000   -2.201  1.00159  2.34797
    19      1     19 -0.05900000   -2.565  1.05105  3.68562
    20      1     20 0.01300000   -3.630  1.00350  1.28675
    21      1     21 -0.06770000   -3.976  1.09498  3.89820
    22      1     22 0.21580000   -1.843  1.05519  4.51177
    23      1     23 -0.11890000   -4.730  1.08596  2.66904
    24      1     24 0.17060000   -6.133  1.08777  2.67339
    25      1     25 0.20560000   -4.616  1.14189  5.16959
    26      1     26 -0.14930000   -6.021  1.17939  5.17747
    27      1     27 -0.03020000   -6.779  1.10474  3.94240
    28      1     28 -0.29560000   -3.771  1.14614  6.23784
    29      1     29 -0.30290000   -6.967  1.07367  1.59209
    30      1     30 -0.05790000   -6.540  1.67153  0.37409
    31      1     31 0.10310000   -7.444  1.76405 -0.25823
    32      1     32 0.10310000   -5.798  1.04328 -0.16531
    33      1     33 0.10310000   -6.108  2.68133  0.54451
    34      1     34 -0.06000000   -4.243  0.76827  7.52533
    35      1     35 0.10760000   -3.344  0.65990  8.16173
    36      1     36 0.10760000   -4.786 -0.20064  7.49399
    37      1     37 0.10760000   -4.900  1.54506  7.97342
    38      1     38 -0.11230000   -8.189  1.05452  4.15634
    39      1     39 0.02400000   -7.114  1.37744  6.55673
    40      1     40 -0.04190000   -8.550  1.08712  5.49633
    41      1     41 0.19620000   -8.909  0.99460  3.33038
    42      1     42 -0.04770000   -9.851  0.92734  6.08201
    43      1     43 0.10060000  -11.266  0.64599  5.07783
    44      1     44 -0.11610000  -12.380  0.56758  6.43743
    45      1     45 -0.10380000  -10.246  0.95357  7.42415
    46      1     46 -0.12240000  -11.658  0.75715  7.64185
    47      1     47 0.12730000   -9.335  1.18497  8.90535
    48      1     48 -0.25700000  -10.822  1.02398  9.84909
    49      1     49 0.20250000  -11.942  0.80860  9.04987
    50      1     50 -0.02520000  -13.173  0.66449  9.55351
    51      1     51 0.52700000  -10.671  1.13580 11.30844
    52      1     52 -0.45040000   -9.594  1.32775 11.85663
    53      1     53 -0.33920000  -11.849  1.00102 11.96386
    54      1     54 -0.05460000  -11.761  1.09985 13.39287
    55      1     55 0.10730000  -12.791  0.96875 13.76745
    56      1     56 0.10730000  -11.360  2.08842 13.69537
    57      1     57 0.10730000  -11.096  0.31278 13.80186
    58      1     58 0.21920000  -13.450  0.39602  6.27855

Bonds 

     1      1      2      1
     2      2      3      2
     3      3      4      1
     4      4      5      3
     5      5      6      4
     6      6      7      6
     7      7      8      5
     8      8      9      8
     9      9     10      7
    10     10     11     10
    11     11     12     10
    12     12     13     12
    13     13     14     13
    14     14     15     13
    15     15     16     13
    16     16     17      1
    17     17     18      3
    18     18     19     18
    19     19     20     18
    20     20     21     19
    21     21     22     19
    22     22     23     20
    23     23     24     23
    24     24     25     21
    25     25     26     25
    26     26     27     24
    27     27     28     25
    28     28     29     24
    29     29     30     29
    30     30     31     30
    31     31     32     30
    32     32     33     30
    33     33     34     28
    34     34     35     34
    35     35     36     34
    36     36     37     34
    37     37     38     27
    38     38     39     26
    39     39     40     38
    40     40     41     38
    41     41     42     40
    42     42     43     42
    43     43     44     43
    44     44     45     42
    45     45     46     44
    46     46     47     45
    47     47     48     47
    48     48     49     46
    49     49     50     49
    50     50     51     48
    51     51     52     51
    52     52     53     51
    53     53     54     53
    54     54     55     54
    55     55     56     54
    56     56     57     54
    57     57     58     44
    58     58      5      4
    59     59      8      7
    60     60     23     21
    61     61     27     26
    62     62     40     39
    63     63     46     45
    64     64     49     48

Angles 

     1      1      1      2      3
     2      2      2      1      4
     3      3      2      3      5
     4      4      1      4      6
     5      5      4      6      7
     6      6      3      5      8
     7      7      5      8      9
     8      8      6      7     10
     9      9      7     10     11
    10     10      7     10     12
    11     11     10     12     13
    12     12     12     13     14
    13     13     12     13     15
    14     14     12     13     16
    15     15      2      1     17
    16     16      2      3     18
    17     17      3     18     19
    18     18      3     18     20
    19     19     18     19     21
    20     20     18     19     22
    21     21     18     20     23
    22     22     20     23     24
    23     23     19     21     25
    24     24     21     25     26
    25     25     23     24     27
    26     26     21     25     28
    27     27     23     24     29
    28     28     24     29     30
    29     29     29     30     31
    30     30     29     30     32
    31     31     29     30     33
    32     32     25     28     34
    33     33     28     34     35
    34     34     28     34     36
    35     35     28     34     37
    36     36     24     27     38
    37     37     25     26     39
    38     38     27     38     40
    39     39     27     38     41
    40     40     38     40     42
    41     41     40     42     43
    42     42     42     43     44
    43     43     40     42     45
    44     44     43     44     46
    45     45     42     45     47
    46     46     45     47     48
    47     47     44     46     49
    48     48     46     49     50
    49     49     47     48     51
    50     50     48     51     52
    51     51     48     51     53
    52     52     51     53     54
    53     53     53     54     55
    54     54     53     54     56
    55     55     53     54     57
    56     56     43     44     58
    57     57     11     10     12
    58     58     38     40     39
    59     59      4      5      8
    60     60     39     40     42
    61     61     36     34     37
    62     62     27     24     29
    63     63     24     27     26
    64     64     26     25     28
    65     65     31     30     33
    66     66     23     21     25
    67     67     20     23     21
    68     68     56     54     57
    69     69      5      4      6
    70     70      3      5      4
    71     71     15     13     16
    72     72      8      7     10
    73     73     47     48     49
    74     74     52     51     53
    75     75      6      7      8
    76     76     40     38     41
    77     77      4      1     17
    78     78     42     45     46
    79     79     44     46     45
    80     80     35     34     36
    81     81     55     54     57
    82     82     19     21     23
    83     83     43     42     45
    84     84     14     13     15
    85     85     26     39     40
    86     86     31     30     32
    87     87     25     26     27
    88     88     27     26     39
    89     89     19     18     20
    90     90     48     49     50
    91     91     32     30     33
    92     92     14     13     16
    93     93     46     49     48
    94     94      7      8      9
    95     95     21     23     24
    96     96     55     54     56
    97     97     35     34     37
    98     98      5      8      7
    99     99      1      4      5
   100    100     49     48     51
   101    101      5      3     18
   102    102     46     45     47
   103    103     21     19     22
   104    104     45     46     49
   105    105     26     27     38
   106    106     46     44     58

Dihedrals

     1      1      4      1      2      3 
     2      2      5      3      2      1 
     3      3      7      6      4      1 
     4      4     11     10      7      6 
     5      5     13     12     10      7 
     6      6     14     13     12     10 
     7      7     19     18      3      2 
     8      8     21     19     18      3 
     9      9     23     20     18      3 
    10     10     26     25     21     19 
    11     11     27     24     23     20 
    12     12     30     29     24     23 
    13     13     31     30     29     24 
    14     14     34     28     25     21 
    15     15     35     34     28     25 
    16     16     40     38     27     24 
    17     17     43     42     40     38 
    18     18     44     43     42     40 
    19     19     46     44     43     42 
    20     20     48     47     45     42 
    21     21     52     51     48     47 
    22     22     54     53     51     48 
    23     23     55     54     53     51 
    24     24     38     40     39     26 
    25     25     10      7      8      5 
    26     26      3      5      4      1 
    27     27     29     24     23     20 
    28     28     45     42     40     39 
    29     29      6      4      1      2 
    30     30     10      7      8      9 
    31     31     12     10      7      6 
    32     32     45     46     44     43 
    33     33     12     10      7      8 
    34     34     28     25     26     27 
    35     35     15     13     12     10 
    36     36     10      7      6      4 
    37     37     24     23     20     18 
    38     38     41     38     40     39 
    39     39     58     44     46     49 
    40     40     29     24     23     21 
    41     41      9      8      7      6 
    42     42     52     51     48     49 
    43     43     47     48     49     46 
    44     44     45     42     40     38 
    45     45     42     40     38     41 
    46     46     42     40     38     27 
    47     47     46     45     42     43 
    48     48     24     23     21     19 
    49     49     17      1      4      5 
    50     50     23     21     19     18 
    51     51     58     44     43     42 
    52     52     48     47     45     46 
    53     53     38     27     24     29 
    54     54     51     48     47     45 
    55     55      9      8      5      4 
    56     56     11     10      7      8 
    57     57     54     53     51     52 
    58     58     39     26     25     21 
    59     59     39     26     25     28 
    60     60     44     46     45     42 
    61     61     49     46     45     47 
    62     62     32     30     29     24 
    63     63     28     25     21     23 
    64     64     48     49     46     44 
    65     65      8      5      3      2 
    66     66      8      5      4      6 
    67     67     29     24     27     26 
    68     68     19     18      3      5 
    69     69      8      7      6      4 
    70     70     50     49     46     45 
    71     71     50     49     48     47 
    72     72     53     51     48     47 
    73     73     27     26     25     21 
    74     74     50     49     46     44 
    75     75     25     21     19     22 
    76     76     28     25     21     19 
    77     77     41     38     27     24 