LAMMPS data file Created by LigParGen - (Written by Leela S. Dodda)

      22 atoms
      23 bonds
      38 angles
      48 dihedrals
      12 impropers
 
      22 atom types
      23 bond types
      38 angle types
      48 dihedral types
      12 improper types
 
   -3.028760    46.971240 xlo xhi
    0.104890    50.104890 ylo yhi
   -0.932360    49.067640 zlo zhi

Masses

       1     12.011  
       2     12.011  
       3     12.011  
       4      1.008  
       5     12.011  
       6     32.060  
       7     12.011  
       8      1.008  
       9      1.008  
      10      1.008  
      11      1.008  
      12     12.011  
      13     12.011  
      14     12.011  
      15      1.008  
      16     12.011  
      17     32.060  
      18     12.011  
      19      1.008  
      20      1.008  
      21      1.008  
      22      1.008  

Pair Coeffs 

       1      0.070  3.5500000 
       2      0.070  3.5500000 
       3      0.070  3.5500000 
       4      0.030  2.4200000 
       5      0.070  3.5500000 
       6      0.355  3.6000000 
       7      0.066  3.5000000 
       8      0.030  2.5000000 
       9      0.030  2.5000000 
      10      0.030  2.5000000 
      11      0.030  2.4200000 
      12      0.070  3.5500000 
      13      0.070  3.5500000 
      14      0.070  3.5500000 
      15      0.030  2.4200000 
      16      0.070  3.5500000 
      17      0.355  3.6000000 
      18      0.066  3.5000000 
      19      0.030  2.5000000 
      20      0.030  2.5000000 
      21      0.030  2.5000000 
      22      0.030  2.4200000 

Bond Coeffs 

       1   546.0000     1.3670 
       2   469.0000     1.4240 
       3   367.0000     1.0800 
       4   469.0000     1.4240 
       5   250.0000     1.7400 
       6   317.0000     1.4950 
       7   340.0000     1.0900 
       8   340.0000     1.0900 
       9   340.0000     1.0900 
      10   367.0000     1.0800 
      11   469.0000     1.4240 
      12   469.0000     1.4240 
      13   469.0000     1.4240 
      14   367.0000     1.0800 
      15   546.0000     1.3670 
      16   250.0000     1.7600 
      17   317.0000     1.4950 
      18   340.0000     1.0900 
      19   340.0000     1.0900 
      20   340.0000     1.0900 
      21   367.0000     1.0800 
      22   250.0000     1.7600 
      23   250.0000     1.7400 

Angle Coeffs 

       1     70.000    107.300
       2     35.000    125.700
       3     63.000    120.000
       4     70.000    111.170
       5     70.000    120.000
       6     35.000    109.500
       7     35.000    109.500
       8     35.000    109.500
       9     35.000    132.100
      10     63.000    120.000
      11     63.000    120.000
      12     63.000    120.000
      13     35.000    127.500
      14     70.000    107.300
      15     85.000    119.400
      16     70.000    120.000
      17     35.000    109.500
      18     35.000    109.500
      19     35.000    109.500
      20     35.000    132.100
      21     33.000    107.800
      22     33.000    107.800
      23     33.000    107.800
      24     33.000    107.800
      25     35.000    125.000
      26     70.000    125.000
      27     33.000    107.800
      28     35.000    127.500
      29     70.000    111.170
      30     85.000    119.400
      31     35.000    127.500
      32     85.000    119.400
      33     63.000    112.400
      34     33.000    107.800
      35     35.000    125.000
      36     63.000    112.400
      37     85.000    119.400
      38     70.000    120.000

Dihedral Coeffs  

       1      0.000      2.170      0.000      0.000 
       2      0.000      2.100      0.000      0.000 
       3      0.000      0.000      0.000      0.000 
       4      0.000      2.170      0.000      0.000 
       5      0.000      2.170      0.000      0.000 
       6      0.000      2.170      0.000      0.000 
       7      0.000      0.000      0.000      0.000 
       8      0.000      0.000      0.000      0.000 
       9      0.000      2.170      0.000      0.000 
      10      0.000      2.100      0.000      0.000 
      11      0.000      0.000      0.000      0.000 
      12      0.000      0.000      0.000      0.000 
      13      0.000      7.250      0.000      0.000 
      14      0.000      2.170      0.000      0.000 
      15      0.000      2.170      0.000      0.000 
      16      0.000      7.250      0.000      0.000 
      17      0.000      7.250      0.000      0.000 
      18      0.000      2.170      0.000      0.000 
      19      0.000      2.170      0.000      0.000 
      20      0.000      2.170      0.000      0.000 
      21      0.000      7.250      0.000      0.000 
      22      0.000      7.250      0.000      0.000 
      23      0.000      2.170      0.000      0.000 
      24      0.000      2.170      0.000      0.000 
      25      0.000      0.000      0.000      0.000 
      26      0.000      0.000      0.000      0.000 
      27      0.000      7.250      0.000      0.000 
      28      0.000      7.250      0.000      0.000 
      29      0.000      0.000      0.000      0.000 
      30      0.000      7.250      0.000      0.000 
      31      0.000      2.100      0.000      0.000 
      32      0.000      0.000      0.000      0.000 
      33      0.000      0.000      0.000      0.000 
      34      0.000      7.250      0.000      0.000 
      35      0.000      0.000      0.000      0.000 
      36      0.000      2.170      0.000      0.000 
      37      0.000      0.000      0.000      0.000 
      38      0.000      2.170      0.000      0.000 
      39      0.000      7.250      0.000      0.000 
      40      0.000      7.250      0.000      0.000 
      41      0.000      7.250      0.000      0.000 
      42      0.000      2.170      0.000      0.000 
      43      0.000      0.000      0.000      0.000 
      44      0.000      2.170      0.000      0.000 
      45      0.000      7.250      0.000      0.000 
      46      0.000      0.000      0.000      0.000 
      47      0.000      7.250      0.000      0.000 
      48      0.000      2.170      0.000      0.000 

Improper Coeffs 

       1      2.500      -1       2 
       2      2.500      -1       2 
       3      0.000      -1       2 
       4      0.000      -1       2 
       5      2.500      -1       2 
       6      2.500      -1       2 
       7      2.500      -1       2 
       8      2.500      -1       2 
       9      2.500      -1       2 
      10      0.000      -1       2 
      11      0.000      -1       2 
      12      2.500      -1       2 

Atoms 

     1      1      1 -0.21310000    1.000  1.00000  0.00000
     2      1      2 -0.15480000   -0.397  1.00000  0.00000
     3      1      3 -0.08060000   -1.005  1.00000  1.28508
     4      1      4 0.17440000   -0.982  0.99882 -0.93236
     5      1      5 -0.07700000   -0.050  1.00000  2.31809
     6      1      6 0.03930000    1.579  1.00000  1.65912
     7      1      7 -0.18160000   -2.494  0.99841  1.49140
     8      1      8 0.10030000   -3.029  0.99727  0.52184
     9      1      9 0.10030000   -2.832  1.89180  2.05728
    10      1     10 0.10030000   -2.829  0.10489  2.05823
    11      1     11 0.20170000    1.702  1.00106 -0.84164
    12      1     12 -0.06940000   -0.217  1.00138  3.74914
    13      1     13 -0.15970000    0.776  1.00269  4.73341
    14      1     14 -0.08050000    0.295  1.00551  6.07064
    15      1     15 0.17760000    1.848  1.00280  4.48550
    16      1     16 -0.22570000   -1.110  1.00641  6.12779
    17      1     17 0.04340000   -1.804  1.00351  4.51144
    18      1     18 -0.17460000    1.201  1.00569  7.27068
    19      1     19 0.09420000    2.265  1.00337  6.96455
    20      1     20 0.09420000    1.036  0.11345  7.91023
    21      1     21 0.09420000    1.039  1.90034  7.90757
    22      1     22 0.19730000   -1.765  1.00748  7.00735

Bonds 

     1      1      2      1
     2      2      3      2
     3      3      4      2
     4      4      5      3
     5      5      6      1
     6      6      7      3
     7      7      8      7
     8      8      9      7
     9      9     10      7
    10     10     11      1
    11     11     12      5
    12     12     13     12
    13     13     14     13
    14     14     15     13
    15     15     16     14
    16     16     17     12
    17     17     18     14
    18     18     19     18
    19     19     20     18
    20     20     21     18
    21     21     22     16
    22     22      6      5
    23     23     17     16

Angles 

     1      1      1      2      3
     2      2      1      2      4
     3      3      2      3      5
     4      4      2      1      6
     5      5      2      3      7
     6      6      3      7      8
     7      7      3      7      9
     8      8      3      7     10
     9      9      2      1     11
    10     10      3      5     12
    11     11      5     12     13
    12     12     12     13     14
    13     13     12     13     15
    14     14     13     14     16
    15     15      5     12     17
    16     16     13     14     18
    17     17     14     18     19
    18     18     14     18     20
    19     19     14     18     21
    20     20     14     16     22
    21     21     20     18     21
    22     22      9      7     10
    23     23      8      7     10
    24     24     19     18     21
    25     25      6      1     11
    26     26     16     14     18
    27     27      8      7      9
    28     28     14     13     15
    29     29     14     16     17
    30     30     13     12     17
    31     31      3      2      4
    32     32      6      5     12
    33     33     12     17     16
    34     34     19     18     20
    35     35     17     16     22
    36     36      1      6      5
    37     37      3      5      6
    38     38      5      3      7

Dihedrals

     1      1      5      3      2      1 
     2      2      6      1      2      3 
     3      3      8      7      3      2 
     4      4     13     12      5      3 
     5      5     14     13     12      5 
     6      6     16     14     13     12 
     7      7     19     18     14     13 
     8      8     21     18     14     13 
     9      9     12      5      3      7 
    10     10     17     16     14     13 
    11     11     14     16     17     12 
    12     12      5      6      1      2 
    13     13     11      1      2      3 
    14     14     13     12      5      6 
    15     15     17     12      5      3 
    16     16     15     13     12      5 
    17     17      6      1      2      4 
    18     18     12      5      3      2 
    19     19      7      3      2      1 
    20     20      6      5      3      2 
    21     21     22     16     14     18 
    22     22     11      1      2      4 
    23     23     18     14     13     12 
    24     24     12      5      6      1 
    25     25     10      7      3      5 
    26     26      8      7      3      5 
    27     27     18     14     13     15 
    28     28     11      1      6      5 
    29     29      9      7      3      5 
    30     30     22     16     14     13 
    31     31     18     14     16     17 
    32     32     19     18     14     16 
    33     33     20     18     14     13 
    34     34     17     12      5      6 
    35     35     21     18     14     16 
    36     36     17     12     13     14 
    37     37      9      7      3      2 
    38     38     16     17     12     13 
    39     39     22     16     17     12 
    40     40     16     14     13     15 
    41     41      5      3      2      4 
    42     42      7      3      5      6 
    43     43     20     18     14     16 
    44     44      3      5      6      1 
    45     45      7      3      2      4 
    46     46     10      7      3      2 
    47     47     17     12     13     15 
    48     48     16     17     12      5 

Impropers

     1      1      2      1      3      4 
     2      2      3      2      5      7 
     3      3      7      9      3      8 
     4      4      7     10      3      8 
     5      5      1      2     11      6 
     6      6      5      3     12      6 
     7      7     13     12     14     15 
     8      8     12     17     13      5 
     9      9     14     18     13     16 
    10     10     18     19     20     14 
    11     11     18     19     21     14 
    12     12     16     17     14     22 

