LAMMPS data file Created by LigParGen - (Written by Leela S. Dodda)

      42 atoms
      46 bonds
      76 angles
      99 dihedrals
      23 impropers
 
      42 atom types
      46 bond types
      76 angle types
      99 dihedral types
      23 improper types
 
   -9.541580    40.458420 xlo xhi
   -0.200550    49.799450 ylo yhi
   -0.939800    49.060200 zlo zhi

Masses

       1     12.011  
       2     32.060  
       3     12.011  
       4     12.011  
       5     12.011  
       6     32.060  
       7     12.011  
       8     12.011  
       9     18.998  
      10     12.011  
      11     15.999  
      12     15.999  
      13     12.011  
      14      1.008  
      15      1.008  
      16      1.008  
      17      1.008  
      18     12.011  
      19     12.011  
      20     32.060  
      21     12.011  
      22      1.008  
      23     12.011  
      24     12.011  
      25     12.011  
      26     12.011  
      27     12.011  
      28     15.999  
      29     15.999  
      30     12.011  
      31      1.008  
      32      1.008  
      33      1.008  
      34     12.011  
      35      1.008  
      36      1.008  
      37      1.008  
      38     12.011  
      39     32.060  
      40     12.011  
      41      1.008  
      42      1.008  

Pair Coeffs 

       1      0.070  3.5500000 
       2      0.355  3.6000000 
       3      0.070  3.5500000 
       4      0.070  3.5500000 
       5      0.076  3.5500000 
       6      0.355  3.6000000 
       7      0.070  3.5500000 
       8      0.070  3.5500000 
       9      0.060  2.9000000 
      10      0.070  3.5500000 
      11      0.210  2.9600000 
      12      0.140  2.9000000 
      13      0.066  3.5000000 
      14      0.030  2.5000000 
      15      0.030  2.5000000 
      16      0.030  2.5000000 
      17      0.030  2.4200000 
      18      0.070  3.5500000 
      19      0.070  3.5500000 
      20      0.355  3.6000000 
      21      0.070  3.5500000 
      22      0.030  2.4200000 
      23      0.080  3.5000000 
      24      0.070  3.5500000 
      25      0.070  3.5500000 
      26      0.080  3.5000000 
      27      0.070  3.5500000 
      28      0.140  2.9000000 
      29      0.140  2.9000000 
      30      0.066  3.5000000 
      31      0.030  2.5000000 
      32      0.030  2.5000000 
      33      0.030  2.5000000 
      34      0.066  3.5000000 
      35      0.030  2.5000000 
      36      0.030  2.5000000 
      37      0.030  2.5000000 
      38      0.070  3.5500000 
      39      0.355  3.6000000 
      40      0.070  3.5500000 
      41      0.030  2.4200000 
      42      0.030  2.4200000 

Bond Coeffs 

       1   250.0000     1.7400 
       2   250.0000     1.7600 
       3   546.0000     1.3670 
       4   427.0000     1.4330 
       5   250.0000     1.7600 
       6   250.0000     1.7400 
       7   427.0000     1.4330 
       8   420.0000     1.3540 
       9   400.0000     1.4900 
      10   570.0000     1.2290 
      11   214.0000     1.3270 
      12   320.0000     1.4100 
      13   340.0000     1.0900 
      14   340.0000     1.0900 
      15   340.0000     1.0900 
      16   367.0000     1.0800 
      17   469.0000     1.4240 
      18   469.0000     1.4240 
      19   250.0000     1.7600 
      20   469.0000     1.4240 
      21   367.0000     1.0800 
      22   250.0000     1.7600 
      23   469.0000     1.4040 
      24   469.0000     1.4000 
      25   469.0000     1.4040 
      26   469.0000     1.4000 
      27   450.0000     1.3640 
      28   450.0000     1.3640 
      29   320.0000     1.4100 
      30   340.0000     1.0900 
      31   340.0000     1.0900 
      32   340.0000     1.0900 
      33   320.0000     1.4100 
      34   340.0000     1.0900 
      35   340.0000     1.0900 
      36   340.0000     1.0900 
      37   469.0000     1.4240 
      38   250.0000     1.7600 
      39   546.0000     1.3670 
      40   367.0000     1.0800 
      41   367.0000     1.0800 
      42   427.0000     1.4330 
      43   546.0000     1.3670 
      44   469.0000     1.4240 
      45   469.0000     1.4240 
      46   250.0000     1.7400 

Angle Coeffs 

       1     63.000    112.400
       2     70.000    111.170
       3     85.000    119.400
       4     62.750    119.200
       5     63.000    112.400
       6     63.000    120.000
       7     80.000    120.000
       8     70.000    111.170
       9     80.000    120.400
      10     69.900    118.180
      11     83.000    116.900
      12     35.000    109.500
      13     35.000    109.500
      14     35.000    109.500
      15     35.000    125.000
      16     85.000    119.400
      17     63.000    120.000
      18     85.000    119.400
      19     63.000    120.000
      20     35.000    127.500
      21     63.000    112.400
      22     85.000    119.400
      23     63.000    120.000
      24     63.000    120.000
      25     63.000    120.000
      26     70.000    120.000
      27     70.000    120.000
      28     75.000    111.000
      29     35.000    109.500
      30     35.000    109.500
      31     35.000    109.500
      32     75.000    111.000
      33     35.000    109.500
      34     35.000    109.500
      35     35.000    109.500
      36     63.000    120.000
      37     85.000    119.400
      38     70.000    107.300
      39     35.000    127.500
      40     35.000    132.100
      41     33.000    107.800
      42     70.000    111.170
      43     85.000    119.400
      44     33.000    107.800
      45     63.000    120.000
      46     33.000    107.800
      47     63.000    120.000
      48     33.000    107.800
      49     70.000    107.400
      50     85.000    120.000
      51     35.000    125.000
      52     70.000    107.400
      53     70.000    107.300
      54     63.000    112.400
      55     33.000    107.800
      56     33.000    107.800
      57     70.000    111.170
      58     70.000    120.000
      59     63.000    120.000
      60     70.000    120.000
      61     85.000    134.900
      62     85.000    119.400
      63     63.000    120.000
      64     63.000    120.000
      65     35.000    132.100
      66     85.000    119.400
      67     35.000    127.500
      68     85.000    119.400
      69     33.000    107.800
      70     33.000    107.800
      71     35.000    125.700
      72     33.000    107.800
      73     83.000    123.400
      74     62.750    119.200
      75     85.000    134.900
      76     70.000    107.300

Dihedral Coeffs  

       1      0.000      0.000      0.000      0.000 
       2      0.000      0.000      0.000      0.000 
       3      0.000      0.000      0.000      0.000 
       4      0.000      0.000      0.000      0.000 
       5      4.669      5.124      0.000      0.000 
       6      0.000      0.000      0.198      0.000 
       7      0.000      2.170      0.000      0.000 
       8      0.000      2.170      0.000      0.000 
       9      0.000      2.170      0.000      0.000 
      10      0.000      2.170      0.000      0.000 
      11      0.000      7.000      0.000      0.000 
      12      0.000      3.000      0.000      0.000 
      13      0.000      0.000      0.760      0.000 
      14      0.000      3.000      0.000      0.000 
      15      0.000      0.000      0.760      0.000 
      16      0.000      2.170      0.000      0.000 
      17      0.000      0.000      0.000      0.000 
      18      0.000      7.250      0.000      0.000 
      19      0.000      2.170      0.000      0.000 
      20      0.000      7.000      0.000      0.000 
      21      0.000      7.250      0.000      0.000 
      22      0.000      0.000      0.000      0.000 
      23      0.000      2.100      0.000      0.000 
      24      0.000      0.000     -0.553      0.000 
      25      0.000      7.000      0.000      0.000 
      26      0.000      0.000      0.198      0.000 
      27      0.000      0.000      0.000      0.000 
      28      0.000      7.250      0.000      0.000 
      29      0.000      7.250      0.000      0.000 
      30      0.000      7.000      0.000      0.000 
      31      0.000      7.250      0.000      0.000 
      32      0.000      7.250      0.000      0.000 
      33      0.000      7.250      0.000      0.000 
      34      0.000      7.250      0.000      0.000 
      35      0.000      7.250      0.000      0.000 
      36      0.000      2.170      0.000      0.000 
      37      0.000      2.170      0.000      0.000 
      38      0.500      0.000      0.000      0.000 
      39      0.000      2.100      0.000      0.000 
      40      0.000      7.000      0.000      0.000 
      41      0.000      7.000      0.000      0.000 
      42      0.000      0.000      0.760      0.000 
      43      0.000      2.170      0.000      0.000 
      44      0.000      2.170      0.000      0.000 
      45      0.000      2.170      0.000      0.000 
      46      0.000      2.170      0.000      0.000 
      47      0.000      2.170      0.000      0.000 
      48      0.000      0.000      0.000      0.000 
      49      0.000      7.000      0.000      0.000 
      50      0.000      7.250      0.000      0.000 
      51      0.000      2.170      0.000      0.000 
      52      0.000      7.250      0.000      0.000 
      53      0.000      7.250      0.000      0.000 
      54      0.000      3.000      0.000      0.000 
      55      0.000      2.170      0.000      0.000 
      56      0.000      2.170      0.000      0.000 
      57      0.000      2.170      0.000      0.000 
      58      0.000      2.170      0.000      0.000 
      59      0.000      0.000      0.760      0.000 
      60      0.000      7.250      0.000      0.000 
      61      0.000      2.170      0.000      0.000 
      62      0.000      7.250      0.000      0.000 
      63      0.000      3.000      0.000      0.000 
      64      0.000      2.170      0.000      0.000 
      65      0.000      7.250      0.000      0.000 
      66      0.000      2.170      0.000      0.000 
      67      0.000      2.170      0.000      0.000 
      68      0.000      2.170      0.000      0.000 
      69      0.000      2.100      0.000      0.000 
      70      0.000      7.250      0.000      0.000 
      71      0.000      7.250      0.000      0.000 
      72      0.000      7.250      0.000      0.000 
      73      0.000      2.100      0.000      0.000 
      74      0.000      2.100      0.000      0.000 
      75      0.000      7.250      0.000      0.000 
      76      0.000      7.250      0.000      0.000 
      77      0.000      2.170      0.000      0.000 
      78      0.000      7.250      0.000      0.000 
      79      0.000      2.170      0.000      0.000 
      80      0.000      2.170      0.000      0.000 
      81      0.000      7.250      0.000      0.000 
      82      0.000      7.250      0.000      0.000 
      83      0.000      7.250      0.000      0.000 
      84      0.000      0.000      0.198      0.000 
      85      0.000      7.250      0.000      0.000 
      86      0.000      7.000      0.000      0.000 
      87      0.000      7.250      0.000      0.000 
      88      0.000      7.250      0.000      0.000 
      89      0.500      0.000      0.000      0.000 
      90      0.000      2.170      0.000      0.000 
      91      0.000      0.000      0.760      0.000 
      92      0.000      7.250      0.000      0.000 
      93      0.000      5.124      0.000      0.000 
      94      0.000      7.250      0.000      0.000 
      95      0.000      2.170      0.000      0.000 
      96      0.000      7.250      0.000      0.000 
      97      0.000      7.250      0.000      0.000 
      98      0.000      0.000      0.000      0.000 
      99      0.000      0.000      0.760      0.000 

Improper Coeffs 

       1      2.500      -1       2 
       2      2.500      -1       2 
       3      2.500      -1       2 
       4      2.500      -1       2 
       5     10.500      -1       2 
       6      0.000      -1       2 
       7      0.000      -1       2 
       8      2.500      -1       2 
       9      2.500      -1       2 
      10      2.500      -1       2 
      11      2.500      -1       2 
      12      2.500      -1       2 
      13      2.500      -1       2 
      14      2.500      -1       2 
      15      2.500      -1       2 
      16      0.000      -1       2 
      17      0.000      -1       2 
      18      0.000      -1       2 
      19      0.000      -1       2 
      20      2.500      -1       2 
      21      2.500      -1       2 
      22      2.500      -1       2 
      23      2.500      -1       2 

Atoms 

     1      1      1 -0.18140000    1.000  1.00000  0.00000
     2      1      2 0.08080000   -0.758  1.00000  0.00000
     3      1      3 0.02650000   -0.891  1.00000  1.75422
     4      1      4 -0.09980000    1.450  1.00000  1.32525
     5      1      5 -0.12660000    0.409  1.00000  2.31897
     6      1      6 0.11720000    3.065  1.00166  2.00986
     7      1      7 -0.25880000    2.377  1.00241  3.63980
     8      1      8 0.20590000    0.992  0.99877  3.63270
     9      1      9 -0.03000000    0.266  0.99591  4.75575
    10      1     10 0.52690000    3.348  1.00500  4.74513
    11      1     11 -0.45070000    4.559  1.00658  4.57361
    12      1     12 -0.34040000    2.750  1.00386  5.96096
    13      1     13 -0.05420000    3.650  1.00464  7.07835
    14      1     14 0.10630000    3.012  1.00220  7.97917
    15      1     15 0.10630000    4.297  1.90532  7.06261
    16      1     16 0.10630000    4.301  0.10691  7.06061
    17      1     17 0.21720000    1.562  0.99881 -0.93980
    18      1     18 -0.10520000   -2.201  1.00159  2.34793
    19      1     19 -0.05610000   -2.565  1.05106  3.68560
    20      1     20 0.01120000   -3.630  1.00350  1.28672
    21      1     21 -0.07240000   -3.976  1.09498  3.89817
    22      1     22 0.21440000   -1.843  1.05750  4.51174
    23      1     23 -0.11830000   -4.730  1.08596  2.66903
    24      1     24 0.16750000   -6.133  1.08777  2.67338
    25      1     25 0.20350000   -4.616  1.14189  5.16963
    26      1     26 -0.15420000   -6.021  1.17939  5.17750
    27      1     27 -0.03320000   -6.779  1.10474  3.94244
    28      1     28 -0.29660000   -3.771  1.14615  6.23784
    29      1     29 -0.30200000   -6.967  1.07367  1.59204
    30      1     30 -0.05750000   -6.540  1.67153  0.37403
    31      1     31 0.10220000   -7.444  1.76405 -0.25826
    32      1     32 0.10220000   -5.798  1.04326 -0.16539
    33      1     33 0.10220000   -6.108  2.68129  0.54444
    34      1     34 -0.05770000   -4.243  0.76829  7.52527
    35      1     35 0.10530000   -3.344  0.65991  8.16171
    36      1     36 0.10530000   -4.786 -0.20055  7.49393
    37      1     37 0.10530000   -4.900  1.54507  7.97336
    38      1     38 -0.12310000   -8.189  1.05459  4.15812
    39      1     39 -0.01210000   -7.114  1.37745  6.55683
    40      1     40 -0.17820000   -8.549  1.08727  5.49853
    41      1     41 0.19630000   -8.909  0.99466  3.33302
    42      1     42 0.19990000   -9.542  0.96505  5.94726

Bonds 

     1      1      2      1
     2      2      3      2
     3      3      4      1
     4      4      5      3
     5      5      6      4
     6      6      7      6
     7      7      8      5
     8      8      9      8
     9      9     10      7
    10     10     11     10
    11     11     12     10
    12     12     13     12
    13     13     14     13
    14     14     15     13
    15     15     16     13
    16     16     17      1
    17     17     18      3
    18     18     19     18
    19     19     20     18
    20     20     21     19
    21     21     22     19
    22     22     23     20
    23     23     24     23
    24     24     25     21
    25     25     26     25
    26     26     27     24
    27     27     28     25
    28     28     29     24
    29     29     30     29
    30     30     31     30
    31     31     32     30
    32     32     33     30
    33     33     34     28
    34     34     35     34
    35     35     36     34
    36     36     37     34
    37     37     38     27
    38     38     39     26
    39     39     40     38
    40     40     41     38
    41     41     42     40
    42     42      5      4
    43     43      8      7
    44     44     23     21
    45     45     27     26
    46     46     40     39

Angles 

     1      1      1      2      3
     2      2      2      1      4
     3      3      2      3      5
     4      4      1      4      6
     5      5      4      6      7
     6      6      3      5      8
     7      7      5      8      9
     8      8      6      7     10
     9      9      7     10     11
    10     10      7     10     12
    11     11     10     12     13
    12     12     12     13     14
    13     13     12     13     15
    14     14     12     13     16
    15     15      2      1     17
    16     16      2      3     18
    17     17      3     18     19
    18     18      3     18     20
    19     19     18     19     21
    20     20     18     19     22
    21     21     18     20     23
    22     22     20     23     24
    23     23     19     21     25
    24     24     21     25     26
    25     25     23     24     27
    26     26     21     25     28
    27     27     23     24     29
    28     28     24     29     30
    29     29     29     30     31
    30     30     29     30     32
    31     31     29     30     33
    32     32     25     28     34
    33     33     28     34     35
    34     34     28     34     36
    35     35     28     34     37
    36     36     24     27     38
    37     37     25     26     39
    38     38     27     38     40
    39     39     27     38     41
    40     40     38     40     42
    41     41     35     34     36
    42     42     38     40     39
    43     43      5      4      6
    44     44     36     34     37
    45     45      4      5      8
    46     46     15     13     16
    47     47      3      5      4
    48     48     35     34     37
    49     49      5      8      7
    50     50      8      7     10
    51     51     39     40     42
    52     52      1      4      5
    53     53     19     21     23
    54     54     26     39     40
    55     55     31     30     33
    56     56     14     13     15
    57     57      6      7      8
    58     58     27     24     29
    59     59     24     27     26
    60     60     26     25     28
    61     61     25     26     27
    62     62     27     26     39
    63     63      5      3     18
    64     64     23     21     25
    65     65      4      1     17
    66     66     20     23     21
    67     67     21     19     22
    68     68     19     18     20
    69     69     14     13     16
    70     70     32     30     33
    71     71     40     38     41
    72     72     31     30     32
    73     73     11     10     12
    74     74      7      8      9
    75     75     21     23     24
    76     76     26     27     38

Dihedrals

     1      1      4      1      2      3 
     2      2      5      3      2      1 
     3      3      7      6      4      1 
     4      4     11     10      7      6 
     5      5     13     12     10      7 
     6      6     14     13     12     10 
     7      7     19     18      3      2 
     8      8     21     19     18      3 
     9      9     23     20     18      3 
    10     10     26     25     21     19 
    11     11     27     24     23     20 
    12     12     30     29     24     23 
    13     13     31     30     29     24 
    14     14     34     28     25     21 
    15     15     35     34     28     25 
    16     16     40     38     27     24 
    17     17     38     40     39     26 
    18     18     10      7      8      5 
    19     19      3      5      4      1 
    20     20     29     24     23     20 
    21     21      6      4      1      2 
    22     22     10      7      8      9 
    23     23     12     10      7      6 
    24     24     12     10      7      8 
    25     25     28     25     26     27 
    26     26     15     13     12     10 
    27     27     10      7      6      4 
    28     28     24     23     20     18 
    29     29     41     38     40     39 
    30     30     29     24     23     21 
    31     31      9      8      7      6 
    32     32     42     40     38     41 
    33     33     42     40     38     27 
    34     34     24     23     21     19 
    35     35     17      1      4      5 
    36     36     23     21     19     18 
    37     37     38     27     24     29 
    38     38      9      8      5      4 
    39     39     11     10      7      8 
    40     40     39     26     25     21 
    41     41     39     26     25     28 
    42     42     32     30     29     24 
    43     43     28     25     21     23 
    44     44      8      5      3      2 
    45     45      8      5      4      6 
    46     46     29     24     27     26 
    47     47     19     18      3      5 
    48     48      8      7      6      4 
    49     49     27     26     25     21 
    50     50     25     21     19     22 
    51     51     28     25     21     19 
    52     52     41     38     27     24 
    53     53     17      1      4      6 
    54     54     30     29     24     27 
    55     55      7      8      5      4 
    56     56     18      3      2      1 
    57     57      8      5      4      1 
    58     58      6      4      5      3 
    59     59     33     30     29     24 
    60     60     39     26     27     38 
    61     61     25     21     19     18 
    62     62     40     39     26     25 
    63     63     34     28     25     26 
    64     64     23     20     18     19 
    65     65     21     23     20     18 
    66     66     21     19     18     20 
    67     67      7      8      5      3 
    68     68     18      3      5      4 
    69     69     39     40     38     27 
    70     70     39     26     27     24 
    71     71     38     27     26     25 
    72     72     25     21     23     24 
    73     73      5      4      1      2 
    74     74      6      7      8      5 
    75     75     25     21     23     20 
    76     76     17      1      2      3 
    77     77     38     27     24     23 
    78     78     26     27     24     23 
    79     79     18      3      5      8 
    80     80      4      5      3      2 
    81     81     42     40     39     26 
    82     82     40     39     26     27 
    83     83     26     25     21     23 
    84     84     16     13     12     10 
    85     85     22     19     18      3 
    86     86     27     24     23     21 
    87     87     22     19     18     20 
    88     88     20     18      3      2 
    89     89      9      8      5      3 
    90     90     40     38     27     26 
    91     91     36     34     28     25 
    92     92     41     38     27     26 
    93     93     13     12     10     11 
    94     94     20     23     21     19 
    95     95     20     18      3      5 
    96     96     23     21     19     22 
    97     97     25     26     27     24 
    98     98      7      6      4      5 
    99     99     37     34     28     25 

Impropers

     1      1      4      1      5      6 
     2      2      5      3      4      8 
     3      3      8      9      5      7 
     4      4      7     10      6      8 
     5      5     10     11     12      7 
     6      6     13     12     14     15 
     7      7     13     12     14     16 
     8      8      1     17      4      2 
     9      9      3     18      5      2 
    10     10     18      3     20     19 
    11     11     19     18     21     22 
    12     12     23     20     21     24 
    13     13     21     25     19     23 
    14     14     25     26     28     21 
    15     15     24     27     29     23 
    16     16     30     29     31     32 
    17     17     30     33     29     31 
    18     18     34     28     35     36 
    19     19     34     35     28     37 
    20     20     27     26     38     24 
    21     21     26     25     27     39 
    22     22     38     41     27     40 
    23     23     40     42     38     39 

