LAMMPS data file Created by LigParGen - (Written by Leela S. Dodda)

      39 atoms
      40 bonds
      72 angles
     100 dihedrals
      23 impropers
 
      39 atom types
      40 bond types
      72 angle types
     100 dihedral types
      23 improper types
 
   -9.399430    40.600570 xlo xhi
   -3.539090    46.460910 ylo yhi
   -4.720520    45.279480 zlo zhi

Masses

       1     12.011  
       2     12.011  
       3     32.060  
       4     12.011  
       5     12.011  
       6     32.060  
       7     12.011  
       8     12.011  
       9     18.998  
      10     12.011  
      11     15.999  
      12     15.999  
      13     12.011  
      14     12.011  
      15      1.008  
      16      1.008  
      17     12.011  
      18     12.011  
      19      1.008  
      20      1.008  
      21      1.008  
      22      1.008  
      23      1.008  
      24     12.011  
      25      1.008  
      26     12.011  
      27      1.008  
      28      1.008  
      29     12.011  
      30      1.008  
      31      1.008  
      32     12.011  
      33      1.008  
      34      1.008  
      35      1.008  
      36      1.008  
      37      1.008  
      38      1.008  
      39      1.008  

Pair Coeffs 

       1      0.070  3.5500000 
       2      0.070  3.5500000 
       3      0.355  3.6000000 
       4      0.076  3.5500000 
       5      0.070  3.5500000 
       6      0.355  3.6000000 
       7      0.070  3.5500000 
       8      0.070  3.5500000 
       9      0.060  2.9000000 
      10      0.070  3.5500000 
      11      0.210  2.9600000 
      12      0.140  2.9000000 
      13      0.066  3.5000000 
      14      0.066  3.5000000 
      15      0.030  2.5000000 
      16      0.030  2.5000000 
      17      0.066  3.5000000 
      18      0.066  3.5000000 
      19      0.030  2.5000000 
      20      0.030  2.5000000 
      21      0.030  2.5000000 
      22      0.030  2.5000000 
      23      0.030  2.5000000 
      24      0.066  3.5000000 
      25      0.030  2.5000000 
      26      0.066  3.5000000 
      27      0.030  2.5000000 
      28      0.030  2.5000000 
      29      0.066  3.5000000 
      30      0.030  2.5000000 
      31      0.030  2.5000000 
      32      0.066  3.5000000 
      33      0.030  2.5000000 
      34      0.030  2.5000000 
      35      0.030  2.5000000 
      36      0.030  2.5000000 
      37      0.030  2.5000000 
      38      0.030  2.4200000 
      39      0.030  2.4200000 

Bond Coeffs 

       1   546.0000     1.3670 
       2   250.0000     1.7400 
       3   427.0000     1.4330 
       4   250.0000     1.7400 
       5   250.0000     1.7600 
       6   250.0000     1.7400 
       7   427.0000     1.4330 
       8   420.0000     1.3540 
       9   400.0000     1.4900 
      10   570.0000     1.2290 
      11   214.0000     1.3270 
      12   320.0000     1.4100 
      13   268.0000     1.5290 
      14   340.0000     1.0900 
      15   340.0000     1.0900 
      16   268.0000     1.5290 
      17   268.0000     1.5290 
      18   340.0000     1.0900 
      19   340.0000     1.0900 
      20   340.0000     1.0900 
      21   340.0000     1.0900 
      22   340.0000     1.0900 
      23   268.0000     1.5290 
      24   340.0000     1.0900 
      25   268.0000     1.5290 
      26   340.0000     1.0900 
      27   340.0000     1.0900 
      28   268.0000     1.5290 
      29   340.0000     1.0900 
      30   340.0000     1.0900 
      31   268.0000     1.5290 
      32   340.0000     1.0900 
      33   340.0000     1.0900 
      34   340.0000     1.0900 
      35   340.0000     1.0900 
      36   340.0000     1.0900 
      37   367.0000     1.0800 
      38   367.0000     1.0800 
      39   546.0000     1.3670 
      40   546.0000     1.3670 

Angle Coeffs 

       1     70.000    111.170
       2     70.000    107.400
       3     74.000     97.000
       4     62.750    119.200
       5     63.000    112.400
       6     63.000    120.000
       7     80.000    120.000
       8     70.000    111.170
       9     80.000    120.400
      10     69.900    118.180
      11     83.000    116.900
      12     50.000    109.500
      13     35.000    109.500
      14     35.000    109.500
      15     58.350    112.700
      16     58.350    112.700
      17     37.500    110.700
      18     37.500    110.700
      19     37.500    110.700
      20     37.500    110.700
      21     37.500    110.700
      22     58.350    112.700
      23     37.500    110.700
      24     58.350    112.700
      25     37.500    110.700
      26     37.500    110.700
      27     58.350    112.700
      28     37.500    110.700
      29     37.500    110.700
      30     58.350    112.700
      31     37.500    110.700
      32     37.500    110.700
      33     37.500    110.700
      34     37.500    110.700
      35     37.500    110.700
      36     35.000    125.000
      37     35.000    132.100
      38     37.500    110.700
      39     37.500    110.700
      40     33.000    107.800
      41     70.000    111.170
      42     35.000    130.700
      43     85.000    119.400
      44     83.000    123.400
      45     85.000    120.000
      46     33.000    107.800
      47     37.500    110.700
      48     33.000    107.800
      49     37.500    110.700
      50     33.000    107.800
      51     35.000    125.000
      52     37.500    110.700
      53     70.000    111.170
      54     70.000    107.400
      55     37.500    110.700
      56     33.000    107.800
      57     33.000    107.800
      58     37.500    110.700
      59     70.000    107.400
      60     58.350    112.700
      61     33.000    107.800
      62     70.000    107.400
      63     37.500    110.700
      64     37.500    110.700
      65     37.500    110.700
      66     33.000    107.800
      67     33.000    107.800
      68     33.000    107.800
      69     62.750    119.200
      70     37.500    110.700
      71     37.500    110.700
      72     33.000    107.800

Dihedral Coeffs  

       1      0.000      2.100      0.000      0.000 
       2      0.000      0.000      0.000      0.000 
       3      0.000      0.000      0.000      0.000 
       4      0.000      0.000      0.000      0.000 
       5      4.669      5.124      0.000      0.000 
       6     -1.220     -0.126      0.422      0.000 
       7      1.711     -0.500      0.663      0.000 
       8      1.300     -0.200      0.200      0.000 
       9      0.000      0.000      0.300      0.000 
      10      1.300     -0.200      0.200      0.000 
      11      1.300     -0.200      0.200      0.000 
      12      1.300     -0.200      0.200      0.000 
      13      0.000      0.000      0.300      0.000 
      14      0.000      2.170      0.000      0.000 
      15      0.000      7.250      0.000      0.000 
      16      0.000      2.170      0.000      0.000 
      17      0.000      0.000      0.000      0.000 
      18      1.711     -0.500      0.663      0.000 
      19      0.000      2.100      0.000      0.000 
      20      0.000      0.000     -0.553      0.000 
      21      0.000      0.000      0.300      0.000 
      22      0.000      0.000      0.000      0.000 
      23      0.000      0.000      0.198      0.000 
      24      0.000      0.000      0.300      0.000 
      25      0.000      0.000      0.300      0.000 
      26      0.000      0.000      0.300      0.000 
      27      0.000      0.000      0.300      0.000 
      28      0.000      0.000      0.300      0.000 
      29      0.000      7.250      0.000      0.000 
      30      0.000      5.124      0.000      0.000 
      31      0.000      0.000      0.000      0.000 
      32      0.000      0.000      0.300      0.000 
      33      0.000      0.000      0.300      0.000 
      34      0.000      0.000      0.300      0.000 
      35      0.000      0.000      0.300      0.000 
      36      0.000      0.000      0.300      0.000 
      37      0.000      0.000      0.300      0.000 
      38      0.000      0.000      0.300      0.000 
      39      0.000      0.000      0.468      0.000 
      40      0.500      0.000      0.000      0.000 
      41      0.000      2.100      0.000      0.000 
      42      0.000      7.250      0.000      0.000 
      43      0.000      0.000      0.300      0.000 
      44      0.000      0.000      0.300      0.000 
      45      0.000      0.000      0.300      0.000 
      46      0.000      0.000      0.300      0.000 
      47      0.000      0.000      0.300      0.000 
      48      0.000      0.000      0.300      0.000 
      49      0.000      0.000      0.000      0.000 
      50      0.000     14.000      0.000      0.000 
      51      0.000      0.000      0.300      0.000 
      52      0.000      0.000      0.300      0.000 
      53      0.000      0.000      0.300      0.000 
      54      0.000      0.000      0.300      0.000 
      55      0.000      0.000      0.300      0.000 
      56      0.000      0.000      0.300      0.000 
      57      0.000      0.000      0.300      0.000 
      58      0.000      0.000      0.300      0.000 
      59      0.000      0.000      0.300      0.000 
      60      0.000      2.170      0.000      0.000 
      61      0.000      2.170      0.000      0.000 
      62      0.000      2.100      0.000      0.000 
      63      0.000      0.000      0.300      0.000 
      64      0.000      0.000      0.300      0.000 
      65      0.000      0.000      0.300      0.000 
      66      0.000      0.000      0.300      0.000 
      67      0.000      7.250      0.000      0.000 
      68      0.000      0.000      0.300      0.000 
      69      0.000      0.000      0.000      0.000 
      70      0.000      0.000      0.300      0.000 
      71      0.000      2.170      0.000      0.000 
      72      0.000      0.000      0.300      0.000 
      73      0.000      0.000      0.300      0.000 
      74      0.000      7.250      0.000      0.000 
      75      0.000      0.000      0.300      0.000 
      76      0.000      0.000      0.300      0.000 
      77      0.000      0.000      0.198      0.000 
      78      0.000      7.250      0.000      0.000 
      79      0.000      0.000      0.300      0.000 
      80      1.300     -0.200      0.200      0.000 
      81      0.000      7.250      0.000      0.000 
      82      0.000      0.000      0.300      0.000 
      83      0.000      7.250      0.000      0.000 
      84      1.300     -0.200      0.200      0.000 
      85      0.000      0.000      0.300      0.000 
      86      0.000      0.000      0.300      0.000 
      87      0.000      0.000      0.300      0.000 
      88      0.000      0.000      0.300      0.000 
      89      0.000      0.000      0.300      0.000 
      90      0.000      7.250      0.000      0.000 
      91      0.000      0.000      0.300      0.000 
      92      0.000      0.000      0.300      0.000 
      93      0.000     14.000      0.000      0.000 
      94      0.000      0.000      0.300      0.000 
      95      0.000      0.000      0.300      0.000 
      96      0.000      0.000      0.300      0.000 
      97      0.000      0.000      0.300      0.000 
      98      0.000      0.000      0.300      0.000 
      99      0.000      2.170      0.000      0.000 
     100      0.500      0.000      0.000      0.000 

Improper Coeffs 

       1      2.500      -1       2 
       2      2.500      -1       2 
       3      2.500      -1       2 
       4      2.500      -1       2 
       5     10.500      -1       2 
       6      0.000      -1       2 
       7      0.000      -1       2 
       8      0.000      -1       2 
       9      0.000      -1       2 
      10      0.000      -1       2 
      11      0.000      -1       2 
      12      0.000      -1       2 
      13      0.000      -1       2 
      14      0.000      -1       2 
      15      0.000      -1       2 
      16      0.000      -1       2 
      17      0.000      -1       2 
      18      0.000      -1       2 
      19      0.000      -1       2 
      20      0.000      -1       2 
      21      0.000      -1       2 
      22      2.500      -1       2 
      23      2.500      -1       2 

Atoms 

     1      1      1 -0.16990000    1.000  1.00000  0.00000
     2      1      2 -0.09030000   -0.399  1.00000  0.00000
     3      1      3 0.03530000    1.569  1.00000 -1.66569
     4      1      4 -0.12780000   -0.998  1.00000 -1.31288
     5      1      5 -0.12660000   -0.049  1.00000 -2.36244
     6      1      6 0.11330000   -1.578  1.00165  1.30223
     7      1      7 -0.27040000   -2.901  0.99790  0.11694
     8      1      8 0.18670000   -2.424  0.99829 -1.18636
     9      1      9 -0.04570000   -3.238  0.99859 -2.25446
    10      1     10 0.56170000   -4.281  0.99332  0.63398
    11      1     11 -0.38670000   -4.542  1.24617  1.79667
    12      1     12 -0.42000000   -5.222  0.55355 -0.25158
    13      1     13 0.05230000   -5.941  1.46376 -1.10639
    14      1     14 -0.12720000   -7.290  0.84706 -1.45687
    15      1     15 0.09650000   -5.334  1.65257 -2.01243
    16      1     16 0.09650000   -6.090  2.43040 -0.57193
    17      1     17 -0.17280000   -7.955  1.63634 -2.60569
    18      1     18 -0.24100000   -7.128  1.73574 -3.89513
    19      1     19 0.09210000   -8.212  2.65708 -2.24142
    20      1     20 0.09210000   -8.927  1.14565 -2.82761
    21      1     21 0.08420000   -6.233  2.37912 -3.77989
    22      1     22 0.08420000   -7.732  2.16686 -4.72052
    23      1     23 0.08420000   -6.778  0.73393 -4.22441
    24      1     24 -0.16470000   -8.221  0.71186 -0.22016
    25      1     25 0.11920000   -7.066 -0.17217 -1.85094
    26      1     26 -0.16870000   -8.571 -0.73254  0.17166
    27      1     27 0.09350000   -9.162  1.26780 -0.41896
    28      1     28 0.09350000   -7.748  1.21031  0.65378
    29      1     29 -0.18130000   -7.410 -1.54428  0.76003
    30      1     30 0.08270000   -8.985 -1.26508 -0.71667
    31      1     31 0.08270000   -9.399 -0.70582  0.91458
    32      1     32 -0.23510000   -7.830 -2.94349  1.21672
    33      1     33 0.10040000   -6.976 -0.97955  1.61406
    34      1     34 0.10040000   -6.587 -1.61480  0.01769
    35      1     35 0.07750000   -8.619 -2.89456  1.99690
    36      1     36 0.07750000   -6.976 -3.50914  1.64099
    37      1     37 0.07750000   -8.239 -3.53909  0.37226
    38      1     38 0.22730000   -0.157  0.70786 -3.48063
    39      1     39 0.21680000    1.843  1.29293  0.62140

Bonds 

     1      1      2      1
     2      2      3      1
     3      3      4      2
     4      4      5      3
     5      5      6      2
     6      6      7      6
     7      7      8      4
     8      8      9      8
     9      9     10      7
    10     10     11     10
    11     11     12     10
    12     12     13     12
    13     13     14     13
    14     14     15     13
    15     15     16     13
    16     16     17     14
    17     17     18     17
    18     18     19     17
    19     19     20     17
    20     20     21     18
    21     21     22     18
    22     22     23     18
    23     23     24     14
    24     24     25     14
    25     25     26     24
    26     26     27     24
    27     27     28     24
    28     28     29     26
    29     29     30     26
    30     30     31     26
    31     31     32     29
    32     32     33     29
    33     33     34     29
    34     34     35     32
    35     35     36     32
    36     36     37     32
    37     37     38      5
    38     38     39      1
    39     39      5      4
    40     40      8      7

Angles 

     1      1      2      1      3
     2      2      1      2      4
     3      3      1      3      5
     4      4      1      2      6
     5      5      2      6      7
     6      6      2      4      8
     7      7      4      8      9
     8      8      6      7     10
     9      9      7     10     11
    10     10      7     10     12
    11     11     10     12     13
    12     12     12     13     14
    13     13     12     13     15
    14     14     12     13     16
    15     15     13     14     17
    16     16     14     17     18
    17     17     14     17     19
    18     18     14     17     20
    19     19     17     18     21
    20     20     17     18     22
    21     21     17     18     23
    22     22     13     14     24
    23     23     13     14     25
    24     24     14     24     26
    25     25     14     24     27
    26     26     14     24     28
    27     27     24     26     29
    28     28     24     26     30
    29     29     24     26     31
    30     30     26     29     32
    31     31     26     29     33
    32     32     26     29     34
    33     33     29     32     35
    34     34     29     32     36
    35     35     29     32     37
    36     36      3      5     38
    37     37      2      1     39
    38     38     29     26     31
    39     39     17     14     25
    40     40     15     13     16
    41     41      3      5      4
    42     42      4      5     38
    43     43      4      2      6
    44     44     11     10     12
    45     45      8      7     10
    46     46     21     18     23
    47     47     29     26     30
    48     48     35     32     37
    49     49     18     17     20
    50     50     36     32     37
    51     51      3      1     39
    52     52     14     13     15
    53     53      6      7      8
    54     54      5      4      8
    55     55     26     24     27
    56     56     35     32     36
    57     57     27     24     28
    58     58     18     17     19
    59     59      2      4      5
    60     60     17     14     24
    61     61     21     18     22
    62     62      4      8      7
    63     63     32     29     33
    64     64     14     13     16
    65     65     32     29     34
    66     66     30     26     31
    67     67     33     29     34
    68     68     19     17     20
    69     69      7      8      9
    70     70     24     14     25
    71     71     26     24     28
    72     72     22     18     23

Dihedrals

     1      1      4      2      1      3 
     2      2      5      3      1      2 
     3      3      7      6      2      1 
     4      4     11     10      7      6 
     5      5     13     12     10      7 
     6      6     14     13     12     10 
     7      7     17     14     13     12 
     8      8     18     17     14     13 
     9      9     21     18     17     14 
    10     10     26     24     14     13 
    11     11     29     26     24     14 
    12     12     32     29     26     24 
    13     13     35     32     29     26 
    14     14      7      8      4      2 
    15     15      5      4      2      1 
    16     16      3      5      4      2 
    17     17     10      7      8      9 
    18     18     24     14     13     12 
    19     19     12     10      7      6 
    20     20     12     10      7      8 
    21     21     31     26     24     14 
    22     22      8      7      6      2 
    23     23     15     13     12     10 
    24     24     27     24     14     17 
    25     25     21     18     17     20 
    26     26     22     18     17     19 
    27     27     27     24     14     25 
    28     28     35     32     29     33 
    29     29      9      8      7      6 
    30     30     13     12     10     11 
    31     31      4      5      3      1 
    32     32     25     14     17     18 
    33     33     24     14     17     19 
    34     34     24     14     13     16 
    35     35     25     14     13     15 
    36     36     33     29     26     24 
    37     37     37     32     29     34 
    38     38     28     24     14     17 
    39     39     25     14     13     12 
    40     40      9      8      4      2 
    41     41     11     10      7      8 
    42     42     10      7      8      4 
    43     43     28     24     14     13 
    44     44     33     29     26     30 
    45     45     32     29     26     31 
    46     46     23     18     17     14 
    47     47     36     32     29     26 
    48     48     22     18     17     14 
    49     49     10      7      6      2 
    50     50     38      5      4      2 
    51     51     29     26     24     28 
    52     52     30     26     24     27 
    53     53     21     18     17     19 
    54     54     33     29     26     31 
    55     55     29     26     24     27 
    56     56     26     24     14     25 
    57     57     34     29     26     30 
    58     58     22     18     17     20 
    59     59     23     18     17     19 
    60     60      8      4      2      1 
    61     61      8      4      2      6 
    62     62      6      7      8      4 
    63     63     19     17     14     13 
    64     64     37     32     29     26 
    65     65     24     14     17     20 
    66     66     25     14     17     19 
    67     67     38      5      3      1 
    68     68     30     26     24     14 
    69     69      7      6      2      4 
    70     70     17     14     13     15 
    71     71      6      2      4      5 
    72     72     34     29     26     31 
    73     73     24     14     13     15 
    74     74      6      2      1      3 
    75     75     28     24     14     25 
    76     76     25     14     13     16 
    77     77     16     13     12     10 
    78     78      7      8      4      5 
    79     79     32     29     26     30 
    80     80     24     14     17     18 
    81     81     39      1      2      6 
    82     82     31     26     24     28 
    83     83     39      1      2      4 
    84     84     26     24     14     17 
    85     85     31     26     24     27 
    86     86     30     26     24     28 
    87     87     23     18     17     20 
    88     88     25     14     17     20 
    89     89     20     17     14     13 
    90     90     39      1      3      5 
    91     91     35     32     29     34 
    92     92     36     32     29     33 
    93     93     38      5      4      8 
    94     94     36     32     29     34 
    95     95     37     32     29     33 
    96     96     27     24     14     13 
    97     97     34     29     26     24 
    98     98     17     14     13     16 
    99     99      8      4      5      3 
   100    100      9      8      4      5 

Impropers

     1      1      2      1      4      6 
     2      2      4      2      5      8 
     3      3      8      9      4      7 
     4      4      7     10      6      8 
     5      5     10     11     12      7 
     6      6     13     12     14     15 
     7      7     13     12     14     16 
     8      8     17     18     19     14 
     9      9     17     18     20     14 
    10     10     18     17     21     22 
    11     11     18     17     21     23 
    12     12     14     17     13     24 
    13     13     14     25     17     13 
    14     14     24     26     27     14 
    15     15     24     26     28     14 
    16     16     26     29     30     24 
    17     17     26     29     31     24 
    18     18     29     33     26     32 
    19     19     29     34     32     26 
    20     20     32     35     36     29 
    21     21     32     29     35     37 
    22     22      5      3      4     38 
    23     23      1      2      3     39 

