LAMMPS data file Created by LigParGen - (Written by Leela S. Dodda)

      32 atoms
      34 bonds
      57 angles
      74 dihedrals
      18 impropers
 
      32 atom types
      34 bond types
      57 angle types
      74 dihedral types
      18 improper types
 
   -6.044550    43.955450 xlo xhi
    0.104850    50.104850 ylo yhi
   -0.932440    49.067560 zlo zhi

Masses

       1     12.011  
       2     12.011  
       3     12.011  
       4      1.008  
       5     12.011  
       6     32.060  
       7     12.011  
       8      1.008  
       9      1.008  
      10      1.008  
      11      1.008  
      12     12.011  
      13     12.011  
      14     12.011  
      15      1.008  
      16     12.011  
      17     32.060  
      18     12.011  
      19      1.008  
      20      1.008  
      21      1.008  
      22     12.011  
      23     12.011  
      24     12.011  
      25      1.008  
      26     12.011  
      27     32.060  
      28     12.011  
      29      1.008  
      30      1.008  
      31      1.008  
      32      1.008  

Pair Coeffs 

       1      0.070  3.5500000 
       2      0.070  3.5500000 
       3      0.070  3.5500000 
       4      0.030  2.4200000 
       5      0.070  3.5500000 
       6      0.355  3.6000000 
       7      0.066  3.5000000 
       8      0.030  2.5000000 
       9      0.030  2.5000000 
      10      0.030  2.5000000 
      11      0.030  2.4200000 
      12      0.070  3.5500000 
      13      0.070  3.5500000 
      14      0.070  3.5500000 
      15      0.030  2.4200000 
      16      0.070  3.5500000 
      17      0.355  3.6000000 
      18      0.066  3.5000000 
      19      0.030  2.5000000 
      20      0.030  2.5000000 
      21      0.030  2.5000000 
      22      0.070  3.5500000 
      23      0.070  3.5500000 
      24      0.070  3.5500000 
      25      0.030  2.4200000 
      26      0.070  3.5500000 
      27      0.355  3.6000000 
      28      0.066  3.5000000 
      29      0.030  2.5000000 
      30      0.030  2.5000000 
      31      0.030  2.5000000 
      32      0.030  2.4200000 

Bond Coeffs 

       1   546.0000     1.3670 
       2   469.0000     1.4240 
       3   367.0000     1.0800 
       4   469.0000     1.4240 
       5   250.0000     1.7400 
       6   317.0000     1.4950 
       7   340.0000     1.0900 
       8   340.0000     1.0900 
       9   340.0000     1.0900 
      10   367.0000     1.0800 
      11   469.0000     1.4240 
      12   469.0000     1.4240 
      13   469.0000     1.4240 
      14   367.0000     1.0800 
      15   469.0000     1.4240 
      16   250.0000     1.7600 
      17   317.0000     1.4950 
      18   340.0000     1.0900 
      19   340.0000     1.0900 
      20   340.0000     1.0900 
      21   469.0000     1.4240 
      22   469.0000     1.4240 
      23   469.0000     1.4240 
      24   367.0000     1.0800 
      25   546.0000     1.3670 
      26   250.0000     1.7600 
      27   317.0000     1.4950 
      28   340.0000     1.0900 
      29   340.0000     1.0900 
      30   340.0000     1.0900 
      31   367.0000     1.0800 
      32   250.0000     1.7600 
      33   250.0000     1.7600 
      34   250.0000     1.7400 

Angle Coeffs 

       1     70.000    107.300
       2     35.000    125.700
       3     63.000    120.000
       4     70.000    111.170
       5     70.000    120.000
       6     35.000    109.500
       7     35.000    109.500
       8     35.000    109.500
       9     35.000    132.100
      10     63.000    120.000
      11     63.000    120.000
      12     63.000    120.000
      13     35.000    127.500
      14     63.000    120.000
      15     85.000    119.400
      16     70.000    120.000
      17     35.000    109.500
      18     35.000    109.500
      19     35.000    109.500
      20     63.000    120.000
      21     63.000    120.000
      22     63.000    120.000
      23     35.000    127.500
      24     70.000    107.300
      25     85.000    119.400
      26     70.000    120.000
      27     35.000    109.500
      28     35.000    109.500
      29     35.000    109.500
      30     35.000    132.100
      31     33.000    107.800
      32     33.000    107.800
      33     35.000    125.000
      34     70.000    111.170
      35     33.000    107.800
      36     33.000    107.800
      37     33.000    107.800
      38     63.000    112.400
      39     35.000    125.000
      40     33.000    107.800
      41     70.000    120.000
      42     33.000    107.800
      43     35.000    127.500
      44     85.000    119.400
      45     85.000    119.400
      46     33.000    107.800
      47     35.000    127.500
      48     85.000    119.400
      49     63.000    112.400
      50     33.000    107.800
      51     85.000    119.400
      52     63.000    112.400
      53     85.000    119.400
      54     85.000    119.400
      55     35.000    127.500
      56     70.000    125.000
      57     70.000    120.000

Dihedral Coeffs  

       1      0.000      2.170      0.000      0.000 
       2      0.000      2.100      0.000      0.000 
       3      0.000      0.000      0.000      0.000 
       4      0.000      2.170      0.000      0.000 
       5      0.000      2.170      0.000      0.000 
       6      0.000      2.170      0.000      0.000 
       7      0.000      0.000      0.000      0.000 
       8      0.000      2.170      0.000      0.000 
       9      0.000      2.170      0.000      0.000 
      10      0.000      2.170      0.000      0.000 
      11      0.000      0.000      0.000      0.000 
      12      0.000      0.000      0.000      0.000 
      13      0.000      7.250      0.000      0.000 
      14      0.000      7.250      0.000      0.000 
      15      0.000      2.170      0.000      0.000 
      16      0.000      2.170      0.000      0.000 
      17      0.000      2.170      0.000      0.000 
      18      0.000      0.000      0.000      0.000 
      19      0.000      0.000      0.000      0.000 
      20      0.000      0.000      0.000      0.000 
      21      0.000      7.250      0.000      0.000 
      22      0.000      2.170      0.000      0.000 
      23      0.000      2.170      0.000      0.000 
      24      0.000      7.250      0.000      0.000 
      25      0.000      2.170      0.000      0.000 
      26      0.000      7.250      0.000      0.000 
      27      0.000      2.100      0.000      0.000 
      28      0.000      2.100      0.000      0.000 
      29      0.000      2.170      0.000      0.000 
      30      0.000      2.170      0.000      0.000 
      31      0.000      0.000      0.000      0.000 
      32      0.000      2.170      0.000      0.000 
      33      0.000      7.250      0.000      0.000 
      34      0.000      2.170      0.000      0.000 
      35      0.000      7.250      0.000      0.000 
      36      0.000      7.250      0.000      0.000 
      37      0.000      2.170      0.000      0.000 
      38      0.000      0.000      0.000      0.000 
      39      0.000      2.170      0.000      0.000 
      40      0.000      0.000      0.000      0.000 
      41      0.000      0.000      0.000      0.000 
      42      0.000      7.250      0.000      0.000 
      43      0.000      2.170      0.000      0.000 
      44      0.000      7.250      0.000      0.000 
      45      0.000      0.000      0.000      0.000 
      46      0.000      7.250      0.000      0.000 
      47      0.000      7.250      0.000      0.000 
      48      0.000      2.170      0.000      0.000 
      49      0.000      0.000      0.000      0.000 
      50      0.000      2.170      0.000      0.000 
      51      0.000      2.170      0.000      0.000 
      52      0.000      7.250      0.000      0.000 
      53      0.000      0.000      0.000      0.000 
      54      0.000      7.250      0.000      0.000 
      55      0.000      0.000      0.000      0.000 
      56      0.000      2.170      0.000      0.000 
      57      0.000      0.000      0.000      0.000 
      58      0.000      0.000      0.000      0.000 
      59      0.000      2.170      0.000      0.000 
      60      0.000      2.170      0.000      0.000 
      61      0.000      7.250      0.000      0.000 
      62      0.000      7.250      0.000      0.000 
      63      0.000      7.250      0.000      0.000 
      64      0.000      2.170      0.000      0.000 
      65      0.000      0.000      0.000      0.000 
      66      0.000      2.170      0.000      0.000 
      67      0.000      2.170      0.000      0.000 
      68      0.000      2.170      0.000      0.000 
      69      0.000      7.250      0.000      0.000 
      70      0.000      0.000      0.000      0.000 
      71      0.000      2.170      0.000      0.000 
      72      0.000      7.250      0.000      0.000 
      73      0.000      0.000      0.000      0.000 
      74      0.000      2.170      0.000      0.000 

Improper Coeffs 

       1      2.500      -1       2 
       2      2.500      -1       2 
       3      0.000      -1       2 
       4      0.000      -1       2 
       5      2.500      -1       2 
       6      2.500      -1       2 
       7      2.500      -1       2 
       8      2.500      -1       2 
       9      2.500      -1       2 
      10      0.000      -1       2 
      11      0.000      -1       2 
      12      2.500      -1       2 
      13      2.500      -1       2 
      14      2.500      -1       2 
      15      2.500      -1       2 
      16      0.000      -1       2 
      17      0.000      -1       2 
      18      2.500      -1       2 

Atoms 

     1      1      1 -0.21080000    1.000  1.00000  0.00000
     2      1      2 -0.15510000   -0.397  1.00000  0.00000
     3      1      3 -0.07850000   -1.005  1.00000  1.28507
     4      1      4 0.17500000   -0.982  0.99882 -0.93244
     5      1      5 -0.07940000   -0.050  1.00000  2.31809
     6      1      6 0.04080000    1.579  1.00000  1.65917
     7      1      7 -0.18260000   -2.494  0.99841  1.49138
     8      1      8 0.10080000   -3.029  0.99727  0.52190
     9      1      9 0.10080000   -2.831  1.89173  2.05722
    10      1     10 0.10080000   -2.829  0.10485  2.05823
    11      1     11 0.20230000    1.702  1.00106 -0.84158
    12      1     12 -0.06380000   -0.217  1.00138  3.74908
    13      1     13 -0.15580000    0.776  0.99991  4.73339
    14      1     14 -0.06960000    0.295  1.00354  6.07062
    15      1     15 0.17940000    1.848  0.99740  4.48550
    16      1     16 -0.08150000   -1.110  1.00796  6.12777
    17      1     17 0.06730000   -1.804  1.00351  4.51140
    18      1     18 -0.18260000    1.201  1.00110  7.27064
    19      1     19 0.10070000    2.265  0.99620  6.96451
    20      1     20 0.10070000    1.034  0.10911  7.90992
    21      1     21 0.10070000    1.042  1.89600  7.90782
    22      1     22 -0.06850000   -2.006  1.01657  7.26134
    23      1     23 -0.16490000   -3.403  1.02191  7.23193
    24      1     24 -0.07940000   -4.037  1.03175  8.50397
    25      1     25 0.17540000   -3.968  1.01751  6.28738
    26      1     26 -0.22340000   -3.105  1.03415  9.55684
    27      1     27 0.04480000   -1.458  1.02380  8.93093
    28      1     28 -0.17440000   -5.530  1.03706  8.67888
    29      1     29 0.09430000   -6.045  1.03229  7.69829
    30      1     30 0.09430000   -5.876  1.93496  9.23233
    31      1     31 0.09430000   -5.881  0.14818  9.24366
    32      1     32 0.19810000   -3.281  1.04229 10.63904

Bonds 

     1      1      2      1
     2      2      3      2
     3      3      4      2
     4      4      5      3
     5      5      6      1
     6      6      7      3
     7      7      8      7
     8      8      9      7
     9      9     10      7
    10     10     11      1
    11     11     12      5
    12     12     13     12
    13     13     14     13
    14     14     15     13
    15     15     16     14
    16     16     17     12
    17     17     18     14
    18     18     19     18
    19     19     20     18
    20     20     21     18
    21     21     22     16
    22     22     23     22
    23     23     24     23
    24     24     25     23
    25     25     26     24
    26     26     27     22
    27     27     28     24
    28     28     29     28
    29     29     30     28
    30     30     31     28
    31     31     32     26
    32     32      6      5
    33     33     17     16
    34     34     27     26

Angles 

     1      1      1      2      3
     2      2      1      2      4
     3      3      2      3      5
     4      4      2      1      6
     5      5      2      3      7
     6      6      3      7      8
     7      7      3      7      9
     8      8      3      7     10
     9      9      2      1     11
    10     10      3      5     12
    11     11      5     12     13
    12     12     12     13     14
    13     13     12     13     15
    14     14     13     14     16
    15     15      5     12     17
    16     16     13     14     18
    17     17     14     18     19
    18     18     14     18     20
    19     19     14     18     21
    20     20     14     16     22
    21     21     16     22     23
    22     22     22     23     24
    23     23     22     23     25
    24     24     23     24     26
    25     25     16     22     27
    26     26     23     24     28
    27     27     24     28     29
    28     28     24     28     30
    29     29     24     28     31
    30     30     24     26     32
    31     31     20     18     21
    32     32      9      7     10
    33     33     27     26     32
    34     34     24     26     27
    35     35      8      7     10
    36     36     19     18     21
    37     37     29     28     30
    38     38     22     27     26
    39     39      6      1     11
    40     40     30     28     31
    41     41     16     14     18
    42     42      8      7      9
    43     43     14     13     15
    44     44     14     16     17
    45     45     13     12     17
    46     46     29     28     31
    47     47      3      2      4
    48     48      6      5     12
    49     49     12     17     16
    50     50     19     18     20
    51     51     17     16     22
    52     52      1      6      5
    53     53      3      5      6
    54     54     23     22     27
    55     55     24     23     25
    56     56     26     24     28
    57     57      5      3      7

Dihedrals

     1      1      5      3      2      1 
     2      2      6      1      2      3 
     3      3      8      7      3      2 
     4      4     13     12      5      3 
     5      5     14     13     12      5 
     6      6     16     14     13     12 
     7      7     19     18     14     13 
     8      8     23     22     16     14 
     9      9     24     23     22     16 
    10     10     26     24     23     22 
    11     11     29     28     24     23 
    12     12     21     18     14     13 
    13     13     27     22     16     17 
    14     14     27     22     23     25 
    15     15     12      5      3      7 
    16     16     17     16     14     13 
    17     17     14     16     17     12 
    18     18     24     26     27     22 
    19     19     31     28     24     23 
    20     20      5      6      1      2 
    21     21     11      1      2      3 
    22     22     13     12      5      6 
    23     23     17     12      5      3 
    24     24     15     13     12      5 
    25     25     18     14     16     17 
    26     26      6      1      2      4 
    27     27     28     24     26     27 
    28     28     27     26     24     23 
    29     29     12      5      3      2 
    30     30      7      3      2      1 
    31     31     29     28     24     26 
    32     32      6      5      3      2 
    33     33     32     26     27     22 
    34     34     22     16     14     18 
    35     35     25     23     22     16 
    36     36     11      1      2      4 
    37     37     18     14     13     12 
    38     38     30     28     24     26 
    39     39     12      5      6      1 
    40     40     10      7      3      5 
    41     41      8      7      3      5 
    42     42     18     14     13     15 
    43     43     26     27     22     16 
    44     44     11      1      6      5 
    45     45      9      7      3      5 
    46     46     32     26     24     28 
    47     47     32     26     24     23 
    48     48     22     16     14     13 
    49     49     19     18     14     16 
    50     50     28     24     23     22 
    51     51     26     27     22     23 
    52     52     28     24     23     25 
    53     53     20     18     14     13 
    54     54     17     12      5      6 
    55     55     21     18     14     16 
    56     56     17     12     13     14 
    57     57      9      7      3      2 
    58     58     31     28     24     26 
    59     59     16     17     12     13 
    60     60     22     16     17     12 
    61     61     26     24     23     25 
    62     62     16     14     13     15 
    63     63      5      3      2      4 
    64     64      7      3      5      6 
    65     65     20     18     14     16 
    66     66     27     22     23     24 
    67     67      3      5      6      1 
    68     68     27     22     16     14 
    69     69      7      3      2      4 
    70     70     10      7      3      2 
    71     71     23     22     16     17 
    72     72     17     12     13     15 
    73     73     30     28     24     23 
    74     74     16     17     12      5 

Impropers

     1      1      2      1      3      4 
     2      2      3      2      5      7 
     3      3      7      9      3      8 
     4      4      7     10      3      8 
     5      5      1      2     11      6 
     6      6      5      3     12      6 
     7      7     13     12     14     15 
     8      8     12     17     13      5 
     9      9     14     18     13     16 
    10     10     18     19     20     14 
    11     11     18     19     21     14 
    12     12     16     17     14     22 
    13     13     23     25     22     24 
    14     14     22     27     23     16 
    15     15     24     26     28     23 
    16     16     28     29     30     24 
    17     17     28     29     31     24 
    18     18     26     27     24     32 

