LAMMPS data file Created by LigParGen - (Written by Leela S. Dodda)

     102 atoms
     105 bonds
     196 angles
     280 dihedrals
      64 impropers
 
     102 atom types
     105 bond types
     196 angle types
     280 dihedral types
      64 improper types
 
  -12.107510    37.892490 xlo xhi
    0.100200    50.100200 ylo yhi
  -10.601480    39.398520 zlo zhi

Masses

       1     12.011  
       2     12.011  
       3     32.060  
       4     12.011  
       5     12.011  
       6      1.008  
       7     12.011  
       8     12.011  
       9      1.008  
      10      1.008  
      11     12.011  
      12      1.008  
      13      1.008  
      14     12.011  
      15      1.008  
      16      1.008  
      17     12.011  
      18      1.008  
      19      1.008  
      20     12.011  
      21      1.008  
      22      1.008  
      23      1.008  
      24      1.008  
      25      1.008  
      26     12.011  
      27     12.011  
      28     12.011  
      29      1.008  
      30     12.011  
      31     32.060  
      32     12.011  
      33     12.011  
      34      1.008  
      35      1.008  
      36     12.011  
      37      1.008  
      38      1.008  
      39     12.011  
      40      1.008  
      41      1.008  
      42     12.011  
      43      1.008  
      44      1.008  
      45     12.011  
      46      1.008  
      47      1.008  
      48      1.008  
      49      1.008  
      50      1.008  
      51     12.011  
      52     12.011  
      53     12.011  
      54      1.008  
      55     12.011  
      56     32.060  
      57      1.008  
      58     12.011  
      59     12.011  
      60      1.008  
      61      1.008  
      62     12.011  
      63      1.008  
      64      1.008  
      65     12.011  
      66      1.008  
      67      1.008  
      68     12.011  
      69      1.008  
      70      1.008  
      71     12.011  
      72      1.008  
      73      1.008  
      74      1.008  
      75      1.008  
      76      1.008  
      77     12.011  
      78     12.011  
      79     12.011  
      80     12.011  
      81      1.008  
      82     32.060  
      83      1.008  
      84     12.011  
      85     12.011  
      86      1.008  
      87      1.008  
      88     12.011  
      89      1.008  
      90      1.008  
      91     12.011  
      92      1.008  
      93      1.008  
      94     12.011  
      95      1.008  
      96      1.008  
      97     12.011  
      98      1.008  
      99      1.008  
     100      1.008  
     101      1.008  
     102      1.008  

Pair Coeffs 

       1      0.070  3.5500000 
       2      0.070  3.5500000 
       3      0.355  3.6000000 
       4      0.070  3.5500000 
       5      0.070  3.5500000 
       6      0.030  2.4200000 
       7      0.066  3.5000000 
       8      0.066  3.5000000 
       9      0.030  2.5000000 
      10      0.030  2.5000000 
      11      0.066  3.5000000 
      12      0.030  2.5000000 
      13      0.030  2.5000000 
      14      0.066  3.5000000 
      15      0.030  2.5000000 
      16      0.030  2.5000000 
      17      0.066  3.5000000 
      18      0.030  2.5000000 
      19      0.030  2.5000000 
      20      0.066  3.5000000 
      21      0.030  2.5000000 
      22      0.030  2.5000000 
      23      0.030  2.5000000 
      24      0.030  2.5000000 
      25      0.030  2.5000000 
      26      0.070  3.5500000 
      27      0.070  3.5500000 
      28      0.070  3.5500000 
      29      0.030  2.4200000 
      30      0.070  3.5500000 
      31      0.355  3.6000000 
      32      0.066  3.5000000 
      33      0.066  3.5000000 
      34      0.030  2.5000000 
      35      0.030  2.5000000 
      36      0.066  3.5000000 
      37      0.030  2.5000000 
      38      0.030  2.5000000 
      39      0.066  3.5000000 
      40      0.030  2.5000000 
      41      0.030  2.5000000 
      42      0.066  3.5000000 
      43      0.030  2.5000000 
      44      0.030  2.5000000 
      45      0.066  3.5000000 
      46      0.030  2.5000000 
      47      0.030  2.5000000 
      48      0.030  2.5000000 
      49      0.030  2.5000000 
      50      0.030  2.5000000 
      51      0.070  3.5500000 
      52      0.070  3.5500000 
      53      0.070  3.5500000 
      54      0.030  2.4200000 
      55      0.070  3.5500000 
      56      0.355  3.6000000 
      57      0.030  2.4200000 
      58      0.066  3.5000000 
      59      0.066  3.5000000 
      60      0.030  2.5000000 
      61      0.030  2.5000000 
      62      0.066  3.5000000 
      63      0.030  2.5000000 
      64      0.030  2.5000000 
      65      0.066  3.5000000 
      66      0.030  2.5000000 
      67      0.030  2.5000000 
      68      0.066  3.5000000 
      69      0.030  2.5000000 
      70      0.030  2.5000000 
      71      0.066  3.5000000 
      72      0.030  2.5000000 
      73      0.030  2.5000000 
      74      0.030  2.5000000 
      75      0.030  2.5000000 
      76      0.030  2.5000000 
      77      0.070  3.5500000 
      78      0.070  3.5500000 
      79      0.070  3.5500000 
      80      0.070  3.5500000 
      81      0.030  2.4200000 
      82      0.355  3.6000000 
      83      0.030  2.4200000 
      84      0.066  3.5000000 
      85      0.066  3.5000000 
      86      0.030  2.5000000 
      87      0.030  2.5000000 
      88      0.066  3.5000000 
      89      0.030  2.5000000 
      90      0.030  2.5000000 
      91      0.066  3.5000000 
      92      0.030  2.5000000 
      93      0.030  2.5000000 
      94      0.066  3.5000000 
      95      0.030  2.5000000 
      96      0.030  2.5000000 
      97      0.066  3.5000000 
      98      0.030  2.5000000 
      99      0.030  2.5000000 
     100      0.030  2.5000000 
     101      0.030  2.5000000 
     102      0.030  2.5000000 

Bond Coeffs 

       1   469.0000     1.4240 
       2   250.0000     1.7600 
       3   250.0000     1.7600 
       4   469.0000     1.4240 
       5   367.0000     1.0800 
       6   317.0000     1.4950 
       7   268.0000     1.5290 
       8   340.0000     1.0900 
       9   340.0000     1.0900 
      10   268.0000     1.5290 
      11   340.0000     1.0900 
      12   340.0000     1.0900 
      13   268.0000     1.5290 
      14   340.0000     1.0900 
      15   340.0000     1.0900 
      16   268.0000     1.5290 
      17   340.0000     1.0900 
      18   340.0000     1.0900 
      19   268.0000     1.5290 
      20   340.0000     1.0900 
      21   340.0000     1.0900 
      22   340.0000     1.0900 
      23   340.0000     1.0900 
      24   340.0000     1.0900 
      25   469.0000     1.4240 
      26   469.0000     1.4240 
      27   469.0000     1.4240 
      28   367.0000     1.0800 
      29   469.0000     1.4240 
      30   250.0000     1.7600 
      31   317.0000     1.4950 
      32   268.0000     1.5290 
      33   340.0000     1.0900 
      34   340.0000     1.0900 
      35   268.0000     1.5290 
      36   340.0000     1.0900 
      37   340.0000     1.0900 
      38   268.0000     1.5290 
      39   340.0000     1.0900 
      40   340.0000     1.0900 
      41   268.0000     1.5290 
      42   340.0000     1.0900 
      43   340.0000     1.0900 
      44   268.0000     1.5290 
      45   340.0000     1.0900 
      46   340.0000     1.0900 
      47   340.0000     1.0900 
      48   340.0000     1.0900 
      49   340.0000     1.0900 
      50   469.0000     1.4240 
      51   469.0000     1.4240 
      52   469.0000     1.4240 
      53   367.0000     1.0800 
      54   546.0000     1.3670 
      55   250.0000     1.7600 
      56   367.0000     1.0800 
      57   317.0000     1.4950 
      58   268.0000     1.5290 
      59   340.0000     1.0900 
      60   340.0000     1.0900 
      61   268.0000     1.5290 
      62   340.0000     1.0900 
      63   340.0000     1.0900 
      64   268.0000     1.5290 
      65   340.0000     1.0900 
      66   340.0000     1.0900 
      67   268.0000     1.5290 
      68   340.0000     1.0900 
      69   340.0000     1.0900 
      70   268.0000     1.5290 
      71   340.0000     1.0900 
      72   340.0000     1.0900 
      73   340.0000     1.0900 
      74   340.0000     1.0900 
      75   340.0000     1.0900 
      76   469.0000     1.4240 
      77   469.0000     1.4240 
      78   469.0000     1.4240 
      79   546.0000     1.3670 
      80   367.0000     1.0800 
      81   250.0000     1.7600 
      82   367.0000     1.0800 
      83   317.0000     1.4950 
      84   268.0000     1.5290 
      85   340.0000     1.0900 
      86   340.0000     1.0900 
      87   268.0000     1.5290 
      88   340.0000     1.0900 
      89   340.0000     1.0900 
      90   268.0000     1.5290 
      91   340.0000     1.0900 
      92   340.0000     1.0900 
      93   268.0000     1.5290 
      94   340.0000     1.0900 
      95   340.0000     1.0900 
      96   268.0000     1.5290 
      97   340.0000     1.0900 
      98   340.0000     1.0900 
      99   340.0000     1.0900 
     100   340.0000     1.0900 
     101   340.0000     1.0900 
     102   469.0000     1.4240 
     103   250.0000     1.7600 
     104   250.0000     1.7400 
     105   250.0000     1.7400 

Angle Coeffs 

       1     85.000    119.400
       2     63.000    112.400
       3     63.000    120.000
       4     35.000    127.500
       5     70.000    120.000
       6     63.000    115.600
       7     35.000    109.500
       8     35.000    109.500
       9     58.350    112.700
      10     37.500    110.700
      11     37.500    110.700
      12     58.350    112.700
      13     37.500    110.700
      14     37.500    110.700
      15     58.350    112.700
      16     37.500    110.700
      17     37.500    110.700
      18     58.350    112.700
      19     37.500    110.700
      20     37.500    110.700
      21     37.500    110.700
      22     37.500    110.700
      23     37.500    110.700
      24     85.000    119.400
      25     63.000    120.000
      26     63.000    120.000
      27     35.000    127.500
      28     63.000    120.000
      29     85.000    119.400
      30     70.000    120.000
      31     63.000    115.600
      32     35.000    109.500
      33     35.000    109.500
      34     58.350    112.700
      35     37.500    110.700
      36     37.500    110.700
      37     58.350    112.700
      38     37.500    110.700
      39     37.500    110.700
      40     58.350    112.700
      41     37.500    110.700
      42     37.500    110.700
      43     58.350    112.700
      44     37.500    110.700
      45     37.500    110.700
      46     37.500    110.700
      47     37.500    110.700
      48     37.500    110.700
      49     63.000    120.000
      50     63.000    120.000
      51     63.000    120.000
      52     35.000    127.500
      53     70.000    107.300
      54     85.000    119.400
      55     35.000    132.100
      56     70.000    120.000
      57     63.000    115.600
      58     35.000    109.500
      59     35.000    109.500
      60     58.350    112.700
      61     37.500    110.700
      62     37.500    110.700
      63     58.350    112.700
      64     37.500    110.700
      65     37.500    110.700
      66     58.350    112.700
      67     37.500    110.700
      68     37.500    110.700
      69     58.350    112.700
      70     37.500    110.700
      71     37.500    110.700
      72     37.500    110.700
      73     37.500    110.700
      74     37.500    110.700
      75     63.000    120.000
      76     63.000    120.000
      77     63.000    120.000
      78     70.000    107.300
      79     35.000    127.500
      80     85.000    119.400
      81     35.000    132.100
      82     70.000    120.000
      83     63.000    115.600
      84     35.000    109.500
      85     35.000    109.500
      86     58.350    112.700
      87     37.500    110.700
      88     37.500    110.700
      89     58.350    112.700
      90     37.500    110.700
      91     37.500    110.700
      92     58.350    112.700
      93     37.500    110.700
      94     37.500    110.700
      95     58.350    112.700
      96     37.500    110.700
      97     37.500    110.700
      98     37.500    110.700
      99     37.500    110.700
     100     37.500    110.700
     101     63.000    112.400
     102     33.000    107.800
     103     70.000    120.000
     104     37.500    110.700
     105     37.500    110.700
     106     70.000    120.000
     107     37.500    110.700
     108     33.000    107.800
     109     37.500    110.700
     110     37.500    110.700
     111     37.500    110.700
     112     70.000    111.170
     113     37.500    110.700
     114     85.000    119.400
     115     33.000    107.800
     116     37.500    110.700
     117     33.000    107.800
     118     37.500    110.700
     119     37.500    110.700
     120     35.000    125.000
     121     37.500    110.700
     122     33.000    107.800
     123     37.500    110.700
     124     37.500    110.700
     125     33.000    107.800
     126     37.500    110.700
     127     33.000    107.800
     128     37.500    110.700
     129     37.500    110.700
     130     33.000    107.800
     131     37.500    110.700
     132     37.500    110.700
     133     37.500    110.700
     134     37.500    110.700
     135     63.000    120.000
     136     33.000    107.800
     137     37.500    110.700
     138     33.000    107.800
     139     35.000    127.500
     140     37.500    110.700
     141     37.500    110.700
     142     70.000    125.000
     143     33.000    107.800
     144     33.000    107.800
     145     37.500    110.700
     146     63.000    112.400
     147     33.000    107.800
     148     85.000    119.400
     149     33.000    107.800
     150     33.000    107.800
     151     33.000    107.800
     152     37.500    110.700
     153     33.000    107.800
     154     37.500    110.700
     155     37.500    110.700
     156     70.000    120.000
     157     33.000    107.800
     158     33.000    107.800
     159     33.000    107.800
     160     37.500    110.700
     161     35.000    127.500
     162     37.500    110.700
     163     33.000    107.800
     164     35.000    127.500
     165     70.000    111.170
     166     33.000    107.800
     167     37.500    110.700
     168     33.000    107.800
     169     33.000    107.800
     170     33.000    107.800
     171     33.000    107.800
     172     37.500    110.700
     173     85.000    119.400
     174     63.000    112.400
     175     33.000    107.800
     176     33.000    107.800
     177     37.500    110.700
     178     37.500    110.700
     179     35.000    125.700
     180     35.000    125.000
     181     85.000    119.400
     182     37.500    110.700
     183     85.000    119.400
     184     37.500    110.700
     185     37.500    110.700
     186     37.500    110.700
     187     33.000    107.800
     188     37.500    110.700
     189     37.500    110.700
     190     63.000    120.000
     191     37.500    110.700
     192     85.000    119.400
     193     85.000    119.400
     194     33.000    107.800
     195     33.000    107.800
     196     33.000    107.800

Dihedral Coeffs  

       1      0.000      2.170      0.000      0.000 
       2      0.000      2.170      0.000      0.000 
       3      0.000      0.000      0.000      0.000 
       4      1.300     -0.200      0.200      0.000 
       5      1.300     -0.200      0.200      0.000 
       6      1.300     -0.200      0.200      0.000 
       7      1.300     -0.200      0.200      0.000 
       8      0.000      0.000      0.300      0.000 
       9      0.000      2.170      0.000      0.000 
      10      0.000      2.170      0.000      0.000 
      11      0.000      2.170      0.000      0.000 
      12      0.000      0.000      0.000      0.000 
      13      1.300     -0.200      0.200      0.000 
      14      1.300     -0.200      0.200      0.000 
      15      1.300     -0.200      0.200      0.000 
      16      1.300     -0.200      0.200      0.000 
      17      0.000      0.000      0.300      0.000 
      18      0.000      2.170      0.000      0.000 
      19      0.000      2.170      0.000      0.000 
      20      0.000      2.170      0.000      0.000 
      21      0.000      0.000      0.000      0.000 
      22      1.300     -0.200      0.200      0.000 
      23      1.300     -0.200      0.200      0.000 
      24      1.300     -0.200      0.200      0.000 
      25      1.300     -0.200      0.200      0.000 
      26      0.000      0.000      0.300      0.000 
      27      0.000      2.170      0.000      0.000 
      28      0.000      2.170      0.000      0.000 
      29      0.000      2.170      0.000      0.000 
      30      0.000      0.000      0.000      0.000 
      31      1.300     -0.200      0.200      0.000 
      32      1.300     -0.200      0.200      0.000 
      33      1.300     -0.200      0.200      0.000 
      34      1.300     -0.200      0.200      0.000 
      35      0.000      0.000      0.300      0.000 
      36      0.000      0.000      0.300      0.000 
      37      0.000      0.000      0.000      0.000 
      38      0.000      0.000      0.300      0.000 
      39      0.000      0.000      0.300      0.000 
      40      0.000      0.000      0.300      0.000 
      41      0.000      2.170      0.000      0.000 
      42      0.000      0.000      0.300      0.000 
      43      0.000      2.170      0.000      0.000 
      44      0.000      2.170      0.000      0.000 
      45      0.000      2.170      0.000      0.000 
      46      0.000      0.000      0.300      0.000 
      47      0.000      7.250      0.000      0.000 
      48      0.000      0.000      0.300      0.000 
      49      0.000      0.000      0.300      0.000 
      50      0.000      0.000      0.300      0.000 
      51      0.000      0.000      0.462      0.000 
      52      0.000      7.250      0.000      0.000 
      53      0.000      7.250      0.000      0.000 
      54      0.000      2.170      0.000      0.000 
      55      0.000      2.170      0.000      0.000 
      56      0.000      0.000      0.300      0.000 
      57      0.000      0.000      0.300      0.000 
      58      0.000      0.000      0.300      0.000 
      59      0.000      0.000      0.300      0.000 
      60      0.000      0.000      0.300      0.000 
      61      0.000      0.000      0.300      0.000 
      62      0.000      0.000      0.300      0.000 
      63      0.000      0.000      0.300      0.000 
      64      0.000      2.170      0.000      0.000 
      65      0.000      7.250      0.000      0.000 
      66      0.000      0.000      0.300      0.000 
      67      0.000      0.000      0.300      0.000 
      68      0.000      0.000      0.300      0.000 
      69      0.000      0.000      0.300      0.000 
      70      0.000      0.000      0.300      0.000 
      71      0.000      0.000      0.300      0.000 
      72      0.000      0.000      0.300      0.000 
      73      0.000      0.000      0.300      0.000 
      74      0.000      0.000      0.300      0.000 
      75      0.000      0.000      0.300      0.000 
      76      0.000      7.250      0.000      0.000 
      77      0.000      0.000      0.300      0.000 
      78      0.000      0.000      0.300      0.000 
      79      0.000      2.170      0.000      0.000 
      80      0.000      2.170      0.000      0.000 
      81      0.000      0.000      0.300      0.000 
      82      0.000      0.000      0.000      0.000 
      83      0.000      0.000      0.300      0.000 
      84      0.000      2.170      0.000      0.000 
      85      0.000      7.250      0.000      0.000 
      86      0.000      0.000      0.000      0.000 
      87      0.000      0.000      0.300      0.000 
      88      0.000      0.000      0.300      0.000 
      89      0.000      0.000      0.300      0.000 
      90      0.000      0.000      0.000      0.000 
      91      0.000      0.000      0.300      0.000 
      92      0.000      2.170      0.000      0.000 
      93      0.000      7.250      0.000      0.000 
      94      0.000      0.000      0.000      0.000 
      95      0.000      2.170      0.000      0.000 
      96      0.000      0.000      0.300      0.000 
      97      0.000      0.000      0.300      0.000 
      98      0.000      0.000      0.300      0.000 
      99      0.000      0.000      0.300      0.000 
     100      0.000      7.250      0.000      0.000 
     101      0.000      0.000      0.300      0.000 
     102      0.000      2.170      0.000      0.000 
     103      0.000      7.250      0.000      0.000 
     104      0.000      2.170      0.000      0.000 
     105      0.000      0.000      0.300      0.000 
     106      0.000      0.000      0.300      0.000 
     107      0.000      0.000      0.300      0.000 
     108      0.000      0.000      0.300      0.000 
     109      0.000      0.000      0.300      0.000 
     110      0.000      0.000      0.300      0.000 
     111      0.000      0.000      0.300      0.000 
     112      0.000      0.000      0.300      0.000 
     113      0.000      0.000      0.300      0.000 
     114      0.000      0.000      0.300      0.000 
     115      0.000      0.000      0.300      0.000 
     116      0.000      0.000      0.462      0.000 
     117      0.000      0.000      0.300      0.000 
     118      0.000      2.170      0.000      0.000 
     119      0.000      0.000      0.300      0.000 
     120      0.000      0.000      0.300      0.000 
     121      0.000      0.000      0.300      0.000 
     122      0.000      0.000      0.300      0.000 
     123      0.000      0.000      0.300      0.000 
     124      0.000      0.000      0.300      0.000 
     125      0.000      0.000      0.300      0.000 
     126      0.000      0.000      0.462      0.000 
     127      0.000      0.000      0.300      0.000 
     128      0.000      7.250      0.000      0.000 
     129      0.000      0.000      0.000      0.000 
     130      0.000      7.250      0.000      0.000 
     131      0.000      0.000      0.300      0.000 
     132      0.000      7.250      0.000      0.000 
     133      0.000      2.170      0.000      0.000 
     134      0.000      0.000      0.462      0.000 
     135      0.000      0.000      0.300      0.000 
     136      0.000      2.170      0.000      0.000 
     137      0.000      0.000      0.300      0.000 
     138      0.000      0.000      0.300      0.000 
     139      0.000      0.000      0.300      0.000 
     140      0.000      0.000      0.300      0.000 
     141      0.000      0.000      0.300      0.000 
     142      0.000      0.000      0.300      0.000 
     143      0.000      2.170      0.000      0.000 
     144      0.000      0.000      0.300      0.000 
     145      0.000      0.000      0.300      0.000 
     146      0.000      0.000      0.300      0.000 
     147      0.000      0.000      0.300      0.000 
     148      0.000      0.000      0.300      0.000 
     149      0.000      0.000      0.300      0.000 
     150      0.000      0.000      0.300      0.000 
     151      0.000      0.000      0.300      0.000 
     152      0.000      0.000      0.300      0.000 
     153      0.000      0.000      0.000      0.000 
     154      0.000      2.170      0.000      0.000 
     155      0.000      0.000      0.300      0.000 
     156      0.000      0.000      0.300      0.000 
     157      0.000      2.170      0.000      0.000 
     158      0.000      7.250      0.000      0.000 
     159      0.000      0.000      0.300      0.000 
     160      0.000      2.170      0.000      0.000 
     161      0.000      0.000      0.300      0.000 
     162      0.000      7.250      0.000      0.000 
     163      0.000      0.000      0.300      0.000 
     164      0.000      0.000      0.300      0.000 
     165      0.000      0.000      0.000      0.000 
     166      0.000      0.000      0.000      0.000 
     167      0.000      0.000      0.300      0.000 
     168      0.000      0.000      0.300      0.000 
     169      0.000      0.000      0.300      0.000 
     170      0.000      7.250      0.000      0.000 
     171      0.000      0.000      0.300      0.000 
     172      0.000      0.000      0.300      0.000 
     173      0.000      0.000      0.300      0.000 
     174      0.000      7.250      0.000      0.000 
     175      0.000      0.000      0.300      0.000 
     176      0.000      0.000      0.300      0.000 
     177      0.000      0.000      0.300      0.000 
     178      0.000      2.170      0.000      0.000 
     179      0.000      0.000      0.300      0.000 
     180      0.000      0.000      0.300      0.000 
     181      0.000      0.000      0.300      0.000 
     182      0.000      7.250      0.000      0.000 
     183      0.000      0.000      0.000      0.000 
     184      0.000      0.000      0.300      0.000 
     185      0.000      0.000      0.300      0.000 
     186      0.000      0.000      0.300      0.000 
     187      0.000      0.000      0.000      0.000 
     188      0.000      0.000      0.300      0.000 
     189      0.000      0.000      0.462      0.000 
     190      0.000      0.000      0.300      0.000 
     191      0.000      2.170      0.000      0.000 
     192      0.000      0.000      0.300      0.000 
     193      0.000      0.000      0.462      0.000 
     194      0.000      7.250      0.000      0.000 
     195      0.000      7.250      0.000      0.000 
     196      0.000      0.000      0.300      0.000 
     197      0.000      0.000      0.300      0.000 
     198      0.000      0.000      0.300      0.000 
     199      0.000      2.170      0.000      0.000 
     200      0.000      0.000      0.300      0.000 
     201      0.000      0.000      0.300      0.000 
     202      0.000      0.000      0.300      0.000 
     203      0.000      0.000      0.300      0.000 
     204      0.000      2.170      0.000      0.000 
     205      0.000      0.000      0.300      0.000 
     206      0.000      0.000      0.300      0.000 
     207      0.000      2.170      0.000      0.000 
     208      0.000      0.000      0.300      0.000 
     209      0.000      0.000      0.300      0.000 
     210      0.000      7.250      0.000      0.000 
     211      0.000      0.000      0.000      0.000 
     212      0.000      7.250      0.000      0.000 
     213      0.000      0.000      0.300      0.000 
     214      0.000      0.000      0.000      0.000 
     215      0.000      0.000      0.300      0.000 
     216      0.000      0.000      0.300      0.000 
     217      0.000      2.170      0.000      0.000 
     218      0.000      0.000      0.300      0.000 
     219      0.000      2.100      0.000      0.000 
     220      0.000      0.000      0.300      0.000 
     221      0.000      0.000      0.300      0.000 
     222      0.000      0.000      0.000      0.000 
     223      0.000      2.170      0.000      0.000 
     224      0.000      0.000      0.300      0.000 
     225      0.000      0.000      0.300      0.000 
     226      0.000      0.000      0.300      0.000 
     227      0.000      0.000      0.300      0.000 
     228      0.000      0.000      0.300      0.000 
     229      0.000      0.000      0.300      0.000 
     230      0.000      0.000      0.000      0.000 
     231      0.000      0.000      0.000      0.000 
     232      0.000      0.000      0.300      0.000 
     233      0.000      0.000      0.300      0.000 
     234      0.000      0.000      0.300      0.000 
     235      0.000      2.170      0.000      0.000 
     236      0.000      0.000      0.000      0.000 
     237      0.000      2.170      0.000      0.000 
     238      0.000      0.000      0.300      0.000 
     239      0.000      0.000      0.300      0.000 
     240      0.000      0.000      0.300      0.000 
     241      0.000      0.000      0.300      0.000 
     242      0.000      0.000      0.300      0.000 
     243      0.000      7.250      0.000      0.000 
     244      0.000      0.000      0.000      0.000 
     245      0.000      0.000      0.300      0.000 
     246      0.000      0.000      0.300      0.000 
     247      0.000      7.250      0.000      0.000 
     248      0.000      0.000      0.462      0.000 
     249      0.000      0.000      0.300      0.000 
     250      0.000      2.170      0.000      0.000 
     251      0.000      0.000      0.300      0.000 
     252      0.000      0.000      0.300      0.000 
     253      0.000      0.000      0.300      0.000 
     254      0.000      0.000      0.300      0.000 
     255      0.000      2.170      0.000      0.000 
     256      0.000      0.000      0.300      0.000 
     257      0.000      0.000      0.300      0.000 
     258      0.000      2.100      0.000      0.000 
     259      0.000      0.000      0.000      0.000 
     260      0.000      0.000      0.300      0.000 
     261      0.000      7.250      0.000      0.000 
     262      0.000      0.000      0.300      0.000 
     263      0.000      0.000      0.300      0.000 
     264      0.000      0.000      0.300      0.000 
     265      0.000      0.000      0.300      0.000 
     266      0.000      2.170      0.000      0.000 
     267      0.000      0.000      0.300      0.000 
     268      0.000      2.170      0.000      0.000 
     269      0.000      2.170      0.000      0.000 
     270      0.000      0.000      0.000      0.000 