LAMMPS data file Created by LigParGen - (Written by Leela S. Dodda)

      51 atoms
      57 bonds
     100 angles
     150 dihedrals
      32 impropers
 
      51 atom types
      57 bond types
     100 angle types
     150 dihedral types
      32 improper types
 
   -9.342910    40.657090 xlo xhi
   -1.454790    48.545210 ylo yhi
  -14.287590    35.712410 zlo zhi

Masses

       1     12.011  
       2     12.011  
       3     32.060  
       4     12.011  
       5     12.011  
       6     12.011  
       7     12.011  
       8     14.007  
       9     15.999  
      10     15.999  
      11     12.011  
      12      1.008  
      13      1.008  
      14      1.008  
      15      1.008  
      16     12.011  
      17     12.011  
      18     12.011  
      19      1.008  
      20     12.011  
      21     32.060  
      22     28.085  
      23     12.011  
      24     12.011  
      25     32.060  
      26     12.011  
      27     12.011  
      28      1.008  
      29     12.011  
      30      1.008  
      31      1.008  
      32      1.008  
      33     12.011  
      34      1.008  
      35      1.008  
      36      1.008  
      37     12.011  
      38     12.011  
      39     32.060  
      40     12.011  
      41     12.011  
      42     12.011  
      43     12.011  
      44     14.007  
      45     15.999  
      46     15.999  
      47     12.011  
      48      1.008  
      49      1.008  
      50      1.008  
      51      1.008  

Pair Coeffs 

       1      0.070  3.5500000 
       2      0.076  3.5500000 
       3      0.355  3.6000000 
       4      0.070  3.5500000 
       5      0.076  3.5500000 
       6      0.070  3.5500000 
       7      0.070  3.5500000 
       8      0.170  3.2500000 
       9      0.210  2.9600000 
      10      0.210  2.9600000 
      11      0.066  3.5000000 
      12      0.030  2.5000000 
      13      0.030  2.5000000 
      14      0.030  2.5000000 
      15      0.030  2.4200000 
      16      0.070  3.5500000 
      17      0.070  3.5500000 
      18      0.070  3.5500000 
      19      0.030  2.4200000 
      20      0.070  3.5500000 
      21      0.355  3.6000000 
      22      0.100  4.0000000 
      23      0.070  3.5500000 
      24      0.070  3.5500000 
      25      0.355  3.6000000 
      26      0.070  3.5500000 
      27      0.070  3.5500000 
      28      0.030  2.4200000 
      29      0.066  3.5000000 
      30      0.030  2.5000000 
      31      0.030  2.5000000 
      32      0.030  2.5000000 
      33      0.066  3.5000000 
      34      0.030  2.5000000 
      35      0.030  2.5000000 
      36      0.030  2.5000000 
      37      0.070  3.5500000 
      38      0.076  3.5500000 
      39      0.355  3.6000000 
      40      0.070  3.5500000 
      41      0.076  3.5500000 
      42      0.070  3.5500000 
      43      0.070  3.5500000 
      44      0.170  3.2500000 
      45      0.210  2.9600000 
      46      0.210  2.9600000 
      47      0.066  3.5000000 
      48      0.030  2.5000000 
      49      0.030  2.5000000 
      50      0.030  2.5000000 
      51      0.030  2.4200000 

Bond Coeffs 

       1   546.0000     1.3670 
       2   250.0000     1.7400 
       3   250.0000     1.7600 
       4   549.0000     1.3400 
       5   410.0000     1.4440 
       6   410.0000     1.4440 
       7   418.0000     1.3880 
       8   570.0000     1.2290 
       9   570.0000     1.2290 
      10   337.0000     1.4750 
      11   340.0000     1.0900 
      12   340.0000     1.0900 
      13   340.0000     1.0900 
      14   367.0000     1.0800 
      15   469.0000     1.4240 
      16   469.0000     1.4240 
      17   469.0000     1.4240 
      18   367.0000     1.0800 
      19   469.0000     1.4240 
      20   250.0000     1.7600 
      21   250.0000     1.7600 
      22   250.0000     1.7600 
      23   469.0000     1.4240 
      24   250.0000     1.7600 
      25   250.0000     1.7600 
      26   469.0000     1.4240 
      27   367.0000     1.0800 
      28   187.0000     1.8600 
      29   340.0000     1.0900 
      30   340.0000     1.0900 
      31   340.0000     1.0900 
      32   187.0000     1.8600 
      33   340.0000     1.0900 
      34   340.0000     1.0900 
      35   340.0000     1.0900 
      36   469.0000     1.4240 
      37   427.0000     1.4330 
      38   250.0000     1.7600 
      39   250.0000     1.7400 
      40   549.0000     1.3400 
      41   410.0000     1.4440 
      42   410.0000     1.4440 
      43   418.0000     1.3880 
      44   570.0000     1.2290 
      45   570.0000     1.2290 
      46   337.0000     1.4750 
      47   340.0000     1.0900 
      48   340.0000     1.0900 
      49   340.0000     1.0900 
      50   367.0000     1.0800 
      51   427.0000     1.4330 
      52   418.0000     1.3880 
      53   250.0000     1.7600 
      54   469.0000     1.4240 
      55   469.0000     1.4240 
      56   546.0000     1.3670 
      57   418.0000     1.3880 

Angle Coeffs 

       1     70.000    111.170
       2     63.000    112.400
       3     70.000    107.400
       4     60.430    118.760
       5     85.000    120.700
       6     70.000    114.100
       7     80.000    125.300
       8     80.000    125.300
       9     63.000    112.400
      10     35.000    109.500
      11     35.000    109.500
      12     35.000    109.500
      13     35.000    130.700
      14     85.000    119.400
      15     63.000    120.000
      16     63.000    120.000
      17     35.000    127.500
      18     63.000    120.000
      19     85.000    119.400
      20     85.000    119.400
      21     42.500    109.500
      22     63.000    120.000
      23     85.000    119.400
      24     63.000    112.400
      25     85.000    119.400
      26     35.000    127.500
      27     62.000    104.200
      28     35.000    109.500
      29     35.000    109.500
      30     35.000    109.500
      31     62.000    104.200
      32     35.000    109.500
      33     35.000    109.500
      34     35.000    109.500
      35     85.000    119.400
      36     63.000    120.000
      37     85.000    119.400
      38     63.000    112.400
      39     85.000    117.000
      40     85.000    120.000
      41     85.000    120.700
      42     70.000    114.100
      43     80.000    125.300
      44     80.000    125.300
      45     63.000    112.400
      46     35.000    109.500
      47     35.000    109.500
      48     35.000    109.500
      49     35.000    125.000
      50     33.000    107.800
      51     70.000    114.100
      52     85.000    119.400
      53     63.000    112.400
      54     63.000    120.000
      55     35.000    130.700
      56     62.000    104.200
      57     35.000    127.500
      58     60.000    110.000
      59     33.000    107.800
      60     85.000    119.400
      61     70.000    126.400
      62     60.430    118.760
      63     33.000    107.800
      64     33.000    107.800
      65     80.000    120.600
      66     80.000    120.600
      67     70.000    126.400
      68     85.000    119.400
      69     63.000    112.400
      70     70.000    107.400
      71     33.000    107.800
      72     33.000    107.800
      73     85.000    119.400
      74     33.000    107.800
      75     80.000    120.600
      76     62.000    104.200
      77     63.000    112.400
      78     85.000    120.000
      79     85.000    119.400
      80     70.000    111.170
      81     63.000    120.000
      82     85.000    119.400
      83     63.000    120.000
      84     85.000    120.700
      85     80.000    120.600
      86     33.000    107.800
      87     35.000    125.000
      88     85.000    119.400
      89     70.000    114.100
      90     33.000    107.800
      91     35.000    127.500
      92     33.000    107.800
      93     85.000    117.000
      94     63.000    120.000
      95     33.000    107.800
      96     33.000    107.800
      97     85.000    119.400
      98     63.000    120.000
      99     85.000    120.700
     100     85.000    119.400

Dihedral Coeffs  

       1      0.000      0.000      0.000      0.000 
       2      1.241      3.353     -0.286      0.000 
       3      2.000      0.000      0.000      0.000 
       4      0.000      0.000      0.000      0.000 
       5      0.000      2.170      0.000      0.000 
       6      0.000      2.170      0.000      0.000 
       7      0.000      2.170      0.000      0.000 
       8      1.000      0.000      0.000      0.000 
       9      0.000      2.170      0.000      0.000 
      10      0.000      0.000      0.180      0.000 
      11      0.000      0.000      0.180      0.000 
      12      0.000      2.170      0.000      0.000 
      13      0.000      2.170      0.000      0.000 
      14      0.000      2.170      0.000      0.000 
      15      2.000      0.000      0.000      0.000 
      16      0.000      0.000      0.000      0.000 
      17      1.000      0.000      0.000      0.000 
      18      0.000      2.170      0.000      0.000 
      19      0.000      0.000      0.180      0.000 
      20      1.241      3.353     -0.286      0.000 
      21      0.000      4.900      0.000      0.000 
      22      0.000      7.250      0.000      0.000 
      23      0.000      0.000      0.000      0.000 
      24      0.000      0.000      0.180      0.000 
      25      0.000      0.000      0.180      0.000 
      26      0.000     14.000      0.000      0.000 
      27      0.000      0.000      0.000      0.000 
      28      0.000      2.170      0.000      0.000 
      29      0.000      0.000      0.000      0.000 
      30      0.000      2.170      0.000      0.000 
      31      0.000      2.170      0.000      0.000 
      32      0.000      7.250      0.000      0.000 
      33      1.241      3.353     -0.286      0.000 
      34      0.000      2.170      0.000      0.000 
      35      0.000      2.170      0.000      0.000 
      36      0.000      7.250      0.000      0.000 
      37      2.500      6.000      0.000      0.000 
      38      1.000      0.000      0.000      0.000 
      39      0.000      2.170      0.000      0.000 
      40      0.000      2.170      0.000      0.000 
      41     -4.344     -1.714      0.000      0.000 
      42      0.000      2.170      0.000      0.000 
      43      0.000      2.170      0.000      0.000 
      44      0.000      7.250      0.000      0.000 
      45      0.000      0.000      0.000      0.000 
      46      0.000      2.170      0.000      0.000 
      47      0.000      4.900      0.000      0.000 
      48      1.000      0.000      0.000      0.000 
      49      2.000      0.000      0.000      0.000 
      50      0.000      7.250      0.000      0.000 
      51      0.000      2.170      0.000      0.000 
      52      2.000      0.000      0.000      0.000 
      53      0.000     14.000      0.000      0.000 
      54      0.000      2.170      0.000      0.000 
      55      0.000      2.170      0.000      0.000 
      56      0.000      2.170      0.000      0.000 
      57      2.000      0.000      0.000      0.000 
      58      0.000     14.000      0.000      0.000 
      59      0.000      7.250      0.000      0.000 
      60      0.000      2.170      0.000      0.000 
      61      0.000      2.170      0.000      0.000 
      62      1.000      0.000      0.000      0.000 
      63      2.500      6.000      0.000      0.000 
      64      0.000      0.000      0.000      0.000 
      65      0.000      4.900      0.000      0.000 
      66      2.500      6.000      0.000      0.000 
      67      0.000      0.000      0.180      0.000 
      68      0.000      2.170      0.000      0.000 
      69      0.000      4.900      0.000      0.000 
      70      0.000      0.000      0.000      0.000 
      71      0.000      0.000      0.000      0.000 
      72      0.000      0.000      0.180      0.000 
      73      1.000      0.000      0.000      0.000 
      74      0.000      2.170      0.000      0.000 
      75      0.000      2.170      0.000      0.000 
      76      0.000      0.000      0.000      0.000 
      77      0.000      7.250      0.000      0.000 
      78      2.000      0.000      0.000      0.000 
      79      1.000      0.000      0.000      0.000 
      80      0.000      0.000      0.000      0.000 
      81      0.000      2.170      0.000      0.000 
      82      0.000     14.000      0.000      0.000 
      83      1.000      0.000      0.000      0.000 
      84      0.000      0.000      0.180      0.000 
      85      0.000      7.250      0.000      0.000 
      86      0.000      4.900      0.000      0.000 
      87      0.000      2.170      0.000      0.000 
      88      0.000     14.000      0.000      0.000 
      89      0.000      2.170      0.000      0.000 
      90      2.500      6.000      0.000      0.000 
      91      0.000      4.900      0.000      0.000 
      92      0.000      4.900      0.000      0.000 
      93      0.000      0.000      0.180      0.000 
      94      0.000      2.170      0.000      0.000 
      95      0.000      0.000      0.000      0.000 
      96      0.000      0.000      0.000      0.000 
      97      0.000      0.000      0.180      0.000 
      98      0.000      0.000      0.180      0.000 
      99      0.000      0.000      0.180      0.000 
     100      0.000      0.000      0.180      0.000 
     101     -4.344     -1.714      0.000      0.000 
     102      2.500      6.000      0.000      0.000 
     103      1.000      0.000      0.000      0.000 
     104      0.000     14.000      0.000      0.000 
     105      0.000      4.900      0.000      0.000 
     106      0.000      4.900      0.000      0.000 
     107      0.000      4.900      0.000      0.000 
     108      0.000      7.250      0.000      0.000 
     109      0.000      2.170      0.000      0.000 
     110      0.000     14.000      0.000      0.000 
     111      0.000      2.170      0.000      0.000 
     112      0.000      0.000     -0.372      0.000 
     113      0.000      0.000      0.180      0.000 
     114      0.000      0.000      0.180      0.000 
     115      0.000     14.000      0.000      0.000 
     116      1.000      0.000      0.000      0.000 
     117      0.000      2.170      0.000      0.000 
     118      0.000      2.170      0.000      0.000 
     119      2.500      6.000      0.000      0.000 
     120      0.000      4.900      0.000      0.000 
     121      2.000      0.000      0.000      0.000 
     122      0.000      4.900      0.000      0.000 
     123      0.000      2.170      0.000      0.000 
     124      0.000      2.170      0.000      0.000 
     125      1.000      0.000      0.000      0.000 
     126      0.000      0.000      0.180      0.000 
     127      1.241      3.353     -0.286      0.000 
     128      0.000      2.170      0.000      0.000 
     129      2.500      6.000      0.000      0.000 
     130      1.000      0.000      0.000      0.000 
     131      0.000      4.900      0.000      0.000 
     132      0.000      4.900      0.000      0.000 
     133      0.000      0.000      0.000      0.000 
     134      0.000      2.170      0.000      0.000 
     135      0.000      4.900      0.000      0.000 
     136      0.000      0.000      0.000      0.000 
     137      0.000      0.000      0.180      0.000 
     138      0.000      4.900      0.000      0.000 
     139      0.000      7.250      0.000      0.000 
     140      0.000      2.170      0.000      0.000 
     141      0.000      2.170      0.000      0.000 
     142      0.000     14.000      0.000      0.000 
     143      0.000     14.000      0.000      0.000 
     144      0.000      7.250      0.000      0.000 
     145      0.000      7.250      0.000      0.000 
     146      0.000      0.000     -0.372      0.000 
     147      2.000      0.000      0.000      0.000 
     148      0.000      7.250      0.000      0.000 
     149      0.000      0.000      0.180      0.000 
     150      2.500      6.000      0.000      0.000 

Improper Coeffs 

       1      2.500      -1       2 
       2      2.500      -1       2 
       3     10.500      -1       2 
       4     10.500      -1       2 
       5      0.000      -1       2 
       6      0.000      -1       2 
       7      0.000      -1       2 
       8      2.500      -1       2 
       9      2.500      -1       2 
      10      2.500      -1       2 
      11      2.500      -1       2 
      12      2.500      -1       2 
      13      2.500      -1       2 
      14      2.500      -1       2 
      15      2.500      -1       2 
      16      2.500      -1       2 
      17      0.000      -1       2 
      18      0.000      -1       2 
      19      0.000      -1       2 
      20      0.000      -1       2 
      21      0.000      -1       2 
      22      0.000      -1       2 
      23      2.500      -1       2 
      24      2.500      -1       2 
      25      2.500      -1       2 
      26      2.500      -1       2 
      27     10.500      -1       2 
      28     10.500      -1       2 
      29      0.000      -1       2 
      30      0.000      -1       2 
      31      0.000      -1       2 
      32      2.500      -1       2 

Atoms 

     1      1      1 -0.10380000    1.000  1.00000  0.00000
     2      1      2 -0.14730000   -0.393  1.00000  0.00000
     3      1      3 0.03740000    1.560  1.00000 -1.69016
     4      1      4 0.07850000   -0.091  1.00000 -2.35540
     5      1      5 -0.19670000   -0.990  1.00000 -1.29467
     6      1      6 0.67630000   -1.469  0.99871  1.01866
     7      1      7 0.68290000   -2.462  0.99823 -1.13247
     8      1      8 -0.97680000   -2.672  0.99793  0.27318
     9      1      9 -0.37690000   -1.410  0.99717  2.24221
    10      1     10 -0.38940000   -3.356  0.99600 -1.97039
    11      1     11 0.08620000   -3.984  0.99539  0.88410
    12      1     12 0.10880000   -4.727  0.91232  0.06923
    13      1     13 0.10880000   -4.156  1.93204  1.45223
    14      1     14 0.10880000   -4.084  0.14016  1.58140
    15      1     15 0.22330000    1.714  1.00105  0.83183
    16      1     16 -0.13620000   -0.275  1.00158 -3.77784
    17      1     17 -0.07210000    0.794  1.00316 -4.69374
    18      1     18 -0.44160000    0.390  1.00618 -6.04441
    19      1     19 0.17430000    1.840  1.00325 -4.35147
    20      1     20 -0.06150000   -1.022  1.00691 -6.15232
    21      1     21 0.17190000   -1.833  1.00365 -4.61610
    22      1     22 1.45960000    1.112  1.00816 -7.79860
    23      1     23 -0.44290000   -0.629  1.00981 -8.55314
    24      1     24 -0.06280000   -1.566  1.00853 -7.48993
    25      1     25 0.16980000   -3.219  1.00752 -8.02635
    26      1     26 -0.13860000   -2.687  1.00875 -9.71536
    27      1     27 -0.06510000   -1.277  1.01074 -9.80454
    28      1     28 0.17440000   -0.762  1.01394 -10.77697
    29      1     29 -0.60800000    2.086 -0.55740 -8.19530
    30      1     30 0.10740000    1.483 -1.45479 -7.95120
    31      1     31 0.10740000    3.026 -0.59922 -7.60733
    32      1     32 0.10740000    2.350 -0.59742 -9.27220
    33      1     33 -0.60810000    2.090  2.57144 -8.19179
    34      1     34 0.10740000    1.490  3.47017 -7.94639
    35      1     35 0.10740000    2.356  2.61267 -9.26839
    36      1     36 0.10740000    3.031  2.60883 -7.60409
    37      1     37 0.07640000   -3.617  1.00624 -10.80789
    38      1     38 -0.19750000   -5.009  1.00262 -10.85255
    39      1     39 0.03910000   -2.999  1.00573 -12.47766
    40      1     40 -0.10230000   -4.626  1.00017 -13.19957
    41      1     41 -0.14740000   -5.565  0.99942 -12.16573
    42      1     42 0.68080000   -6.117  0.99983 -9.86899
    43      1     43 0.67860000   -7.041  0.99431 -12.05082
    44      1     44 -0.97580000   -7.295  0.99497 -10.65265
    45      1     45 -0.38790000   -6.097  0.99999 -8.64404
    46      1     46 -0.37810000   -7.907  0.98908 -12.91698
    47      1     47 0.08590000   -8.627  0.98953 -10.08415
    48      1     48 0.10900000   -9.343  0.90357 -10.92233
    49      1     49 0.10900000   -8.819  1.92635 -9.52293
    50      1     50 0.10900000   -8.746  0.13482 -9.38941
    51      1     51 0.22340000   -4.760  0.99915 -14.28759

Bonds 

     1      1      2      1
     2      2      3      1
     3      3      4      3
     4      4      5      2
     5      5      6      2
     6      6      7      5
     7      7      8      6
     8      8      9      6
     9      9     10      7
    10     10     11      8
    11     11     12     11
    12     12     13     11
    13     13     14     11
    14     14     15      1
    15     15     16      4
    16     16     17     16
    17     17     18     17
    18     18     19     17
    19     19     20     18
    20     20     21     16
    21     21     22     18
    22     22     23     22
    23     23     24     20
    24     24     25     24
    25     25     26     25
    26     26     27     23
    27     27     28     27
    28     28     29     22
    29     29     30     29
    30     30     31     29
    31     31     32     29
    32     32     33     22
    33     33     34     33
    34     34     35     33
    35     35     36     33
    36     36     37     26
    37     37     38     37
    38     38     39     37
    39     39     40     39
    40     40     41     38
    41     41     42     38
    42     42     43     41
    43     43     44     42
    44     44     45     42
    45     45     46     43
    46     46     47     44
    47     47     48     47
    48     48     49     47
    49     49     50     47
    50     50     51     40
    51     51      5      4
    52     52      8      7
    53     53     21     20
    54     54     24     23
    55     55     27     26
    56     56     41     40
    57     57     44     43

Angles 

     1      1      2      1      3
     2      2      1      3      4
     3      3      1      2      5
     4      4      1      2      6
     5      5      2      5      7
     6      6      2      6      8
     7      7      2      6      9
     8      8      5      7     10
     9      9      6      8     11
    10     10      8     11     12
    11     11      8     11     13
    12     12      8     11     14
    13     13      2      1     15
    14     14      3      4     16
    15     15      4     16     17
    16     16     16     17     18
    17     17     16     17     19
    18     18     17     18     20
    19     19      4     16     21
    20     20     17     18     22
    21     21     18     22     23
    22     22     18     20     24
    23     23     20     24     25
    24     24     24     25     26
    25     25     22     23     27
    26     26     23     27     28
    27     27     18     22     29
    28     28     22     29     30
    29     29     22     29     31
    30     30     22     29     32
    31     31     18     22     33
    32     32     22     33     34
    33     33     22     33     35
    34     34     22     33     36
    35     35     25     26     37
    36     36     26     37     38
    37     37     26     37     39
    38     38     37     39     40
    39     39     37     38     41
    40     40     37     38     42
    41     41     38     41     43
    42     42     38     42     44
    43     43     38     42     45
    44     44     41     43     46
    45     45     42     44     47
    46     46     44     47     48
    47     47     44     47     49
    48     48     44     47     50
    49     49     39     40     51
    50     50     30     29     31
    51     51     41     43     44
    52     52     22     23     24
    53     53     16     21     20
    54     54      5      4     16
    55     55     41     40     51
    56     56     23     22     29
    57     57     26     27     28
    58     58     29     22     33
    59     59     12     11     14
    60     60     38     37     39
    61     61      6      8      7
    62     62     40     41     43
    63     63     30     29     32
    64     64     34     33     35
    65     65      8      7     10
    66     66     44     43     46
    67     67     42     44     43
    68     68     21     20     24
    69     69      7      8     11
    70     70     38     41     40
    71     71     13     11     14
    72     72     35     33     36
    73     73     18     20     21
    74     74     31     29     32
    75     75     44     42     45
    76     76     23     22     33
    77     77     43     44     47
    78     78      4      5      7
    79     79     20     18     22
    80     80     39     40     41
    81     81     23     27     26
    82     82     25     26     27
    83     83     27     26     37
    84     84      5      2      6
    85     85      8      6      9
    86     86     48     47     50
    87     87      3      1     15
    88     88      3      4      5
    89     89      5      7      8
    90     90     48     47     49
    91     91     18     17     19
    92     92     34     33     36
    93     93      2      5      4
    94     94     24     23     27
    95     95     49     47     50
    96     96     12     11     13
    97     97     17     16     21
    98     98     20     24     23
    99     99     41     38     42
   100    100     23     24     25

Dihedrals

     1      1      4      3      1      2 
     2      2      5      2      1      3 
     3      3      8      6      2      1 
     4      4     12     11      8      6 
     5      5     17     16      4      3 
     6      6     18     17     16      4 
     7      7     20     18     17     16 
     8      8     23     22     18     17 
     9      9     26     25     24     20 
    10     10     30     29     22     18 
    11     11     34     33     22     18 
    12     12     38     37     26     25 
    13     13     40     39     37     26 
    14     14     41     38     37     26 
    15     15     44     42     38     37 
    16     16     48     47     44     42 
    17     17     33     22     18     17 
    18     18     18     20     21     16 
    19     19     32     29     22     23 
    20     20      3      4      5      2 
    21     21     47     44     43     46 
    22     22     51     40     39     37 
    23     23      5      4      3      1 
    24     24     34     33     22     23 
    25     25     35     33     22     18 
    26     26     43     41     38     42 
    27     27     50     47     44     43 
    28     28     21     20     18     17 
    29     29     40     39     37     38 
    30     30     37     26     27     23 
    31     31     22     18     20     21 
    32     32     22     18     17     19 
    33     33     39     40     41     38 
    34     34     23     24     20     21 
    35     35     25     26     27     23 
    36     36     21     16      4      3 
    37     37      9      6      2      5 
    38     38     29     22     23     24 
    39     39     27     23     24     25 
    40     40     26     25     24     23 
    41     41     43     41     40     39 
    42     42     27     23     24     20 
    43     43     25     24     23     22 
    44     44     28     27     23     22 
    45     45     49     47     44     42 
    46     46     26     27     23     24 
    47     47     46     43     44     42 
    48     48     33     22     23     27 
    49     49      8      7      5      2 
    50     50     19     17     16      4 
    51     51     20     21     16     17 
    52     52     44     42     38     41 
    53     53      7      5      2      1 
    54     54     27     26     25     24 
    55     55     16      4      5      7 
    56     56     38     37     26     27 
    57     57     44     43     41     40 
    58     58     51     40     41     43 
    59     59     28     27     26     25 
    60     60     24     20     21     16 
    61     61     42     38     37     26 
    62     62     23     22     18     20 
    63     63     46     43     41     38 
    64     64     14     11      8      7 
    65     65     47     44     43     41 
    66     66     45     42     38     37 
    67     67     33     22     29     32 
    68     68     20     21     16      4 
    69     69     42     44     43     41 
    70     70     14     11      8      6 
    71     71     13     11      8      7 
    72     72     32     29     22     18 
    73     73     33     22     18     20 
    74     74     16      4      5      2 
    75     75     21     16     17     18 
    76     76     41     40     39     37 
    77     77     15      1      3      4 
    78     78     44     43     41     38 
    79     79     29     22     18     17 
    80     80     48     47     44     43 
    81     81     26     27     23     22 
    82     82     15      1      2      6 
    83     83     33     22     23     24 
    84     84     35     33     22     23 
    85     85     37     26     27     28 
    86     86     11      8      7     10 
    87     87     24     20     18     17 
    88     88      6      2      5      4 
    89     89     25     24     20     18 
    90     90     46     43     41     40 
    91     91     47     44     42     38 
    92     92      7      8      6      2 
    93     93     31     29     22     18 
    94     94     17     16      4      5 
    95     95     13     11      8      6 
    96     96     12     11      8      7 
    97     97     36     33     22     18 
    98     98     34     33     22     29 
    99     99     33     22     29     31 
   100    100     36     33     22     29 
   101    101      6      2      1      3 
   102    102      9      6      2      1 