LAMMPS data file Created by LigParGen - (Written by Leela S. Dodda)

       5 atoms
       4 bonds
       4 angles
       2 dihedrals
       1 impropers
 
       5 atom types
       4 bond types
       4 angle types
       2 dihedral types
       1 improper types
 
   -1.928920    48.071080 xlo xhi
    1.000000    51.000000 ylo yhi
   -0.907630    49.092370 zlo zhi

Masses

       1     15.999  
       2     12.011  
       3     15.999  
       4      1.008  
       5      1.008  

Pair Coeffs 

       1      0.210  2.9600000 
       2      0.070  3.5500000 
       3      0.170  3.1200000 
       4      0.030  2.5000000 
       5      0.000  0.0000000 

Bond Coeffs 

       1   570.0000     1.2290 
       2   450.0000     1.3640 
       3   340.0000     1.0900 
       4   553.0000     0.9450 

Angle Coeffs 

       1     80.000    121.000
       2     35.000    123.000
       3     35.000    113.000
       4     40.000    115.000

Dihedral Coeffs  

       1      0.000      5.500      0.000      0.000 
       2      1.500      5.500      0.000      0.000 

Improper Coeffs 

       1     10.500      -1       2 

Atoms 

     1      1      1 -0.39690000    1.000  1.00000  0.00000
     2      1      2 0.39890000   -0.217  1.00000  0.00000
     3      1      3 -0.56590000   -0.975  1.00000  1.11244
     4      1      4 0.11130000   -0.841  1.00115 -0.90763
     5      1      5 0.45260000   -1.929  1.00114  0.90341

Bonds 

     1      1      2      1
     2      2      3      2
     3      3      4      2
     4      4      5      3

Angles 

     1      1      1      2      3
     2      2      1      2      4
     3      3      2      3      5
     4      4      3      2      4

Dihedrals

     1      1      5      3      2      1 
     2      2      5      3      2      4 

Impropers

     1      1      2      1      3      4 

