LAMMPS data file Created by LigParGen - (Written by Leela S. Dodda)

      19 atoms
      21 bonds
      33 angles
      48 dihedrals
      10 impropers
 
      19 atom types
      21 bond types
      33 angle types
      48 dihedral types
      10 improper types
 
   -5.784410    44.215590 xlo xhi
    0.995690    50.995690 ylo yhi
   -0.922590    49.077410 zlo zhi

Masses

       1     12.011  
       2     12.011  
       3     12.011  
       4      1.008  
       5     12.011  
       6     32.060  
       7     32.060  
       8     12.011  
       9     12.011  
      10      1.008  
      11      1.008  
      12     12.011  
      13     12.011  
      14     32.060  
      15     12.011  
      16     12.011  
      17      1.008  
      18      1.008  
      19      1.008  

Pair Coeffs 

       1      0.070  3.5500000 
       2      0.070  3.5500000 
       3      0.070  3.5500000 
       4      0.030  2.4200000 
       5      0.070  3.5500000 
       6      0.355  3.6000000 
       7      0.355  3.6000000 
       8      0.070  3.5500000 
       9      0.070  3.5500000 
      10      0.030  2.4200000 
      11      0.030  2.4200000 
      12      0.070  3.5500000 
      13      0.070  3.5500000 
      14      0.355  3.6000000 
      15      0.070  3.5500000 
      16      0.070  3.5500000 
      17      0.030  2.4200000 
      18      0.030  2.4200000 
      19      0.030  2.4200000 

Bond Coeffs 

       1   546.0000     1.3670 
       2   469.0000     1.4240 
       3   367.0000     1.0800 
       4   469.0000     1.4240 
       5   250.0000     1.7400 
       6   250.0000     1.7600 
       7   469.0000     1.4240 
       8   250.0000     1.7600 
       9   367.0000     1.0800 
      10   367.0000     1.0800 
      11   469.0000     1.4240 
      12   469.0000     1.4240 
      13   250.0000     1.7600 
      14   250.0000     1.7400 
      15   469.0000     1.4240 
      16   367.0000     1.0800 
      17   367.0000     1.0800 
      18   367.0000     1.0800 
      19   250.0000     1.7600 
      20   469.0000     1.4240 
      21   546.0000     1.3670 

Angle Coeffs 

       1     70.000    107.300
       2     35.000    125.700
       3     63.000    120.000
       4     70.000    111.170
       5     85.000    119.400
       6     63.000    120.000
       7     63.000    112.400
       8     35.000    127.500
       9     35.000    132.100
      10     85.000    119.400
      11     63.000    120.000
      12     85.000    119.400
      13     63.000    112.400
      14     63.000    120.000
      15     35.000    127.500
      16     35.000    127.500
      17     35.000    125.000
      18     35.000    125.700
      19     85.000    119.400
      20     63.000    120.000
      21     35.000    125.000
      22     70.000    107.300
      23     85.000    119.400
      24     63.000    120.000
      25     35.000    127.500
      26     35.000    127.500
      27     85.000    119.400
      28     85.000    119.400
      29     70.000    111.170
      30     35.000    132.100
      31     63.000    112.400
      32     85.000    119.400
      33     35.000    127.500

Dihedral Coeffs  

       1      0.000      2.170      0.000      0.000 
       2      0.000      2.100      0.000      0.000 
       3      0.000      2.170      0.000      0.000 
       4      0.000      2.170      0.000      0.000 
       5      0.000      2.170      0.000      0.000 
       6      0.000      2.170      0.000      0.000 
       7      0.000      7.250      0.000      0.000 
       8      0.000      2.170      0.000      0.000 
       9      0.000      7.250      0.000      0.000 
      10      0.000      7.250      0.000      0.000 
      11      0.000      7.250      0.000      0.000 
      12      0.000      2.170      0.000      0.000 
      13      0.000      7.250      0.000      0.000 
      14      0.000      2.170      0.000      0.000 
      15      0.000      2.170      0.000      0.000 
      16      0.000      2.170      0.000      0.000 
      17      0.000      2.170      0.000      0.000 
      18      0.000      7.250      0.000      0.000 
      19      0.000      2.170      0.000      0.000 
      20      0.000      7.250      0.000      0.000 
      21      0.000      2.170      0.000      0.000 
      22      0.000      2.170      0.000      0.000 
      23      0.000      2.170      0.000      0.000 
      24      0.000      7.250      0.000      0.000 
      25      0.000      7.250      0.000      0.000 
      26      0.000      7.250      0.000      0.000 
      27      0.000      7.250      0.000      0.000 
      28      0.000      2.170      0.000      0.000 
      29      0.000      7.250      0.000      0.000 
      30      0.000      2.170      0.000      0.000 
      31      0.000      2.170      0.000      0.000 
      32      0.000      7.250      0.000      0.000 
      33      0.000      2.170      0.000      0.000 
      34      0.000      2.100      0.000      0.000 
      35      0.000      7.250      0.000      0.000 
      36      0.000      2.170      0.000      0.000 
      37      0.000      7.250      0.000      0.000 
      38      0.000      2.170      0.000      0.000 
      39      0.000      7.250      0.000      0.000 
      40      0.000      0.000      0.000      0.000 
      41      0.000      7.250      0.000      0.000 
      42      0.000      2.170      0.000      0.000 
      43      0.000      7.250      0.000      0.000 
      44      0.000      0.000      0.000      0.000 
      45      0.000      7.250      0.000      0.000 
      46      0.000      7.250      0.000      0.000 
      47      0.000      7.250      0.000      0.000 
      48      0.000      2.170      0.000      0.000 

Improper Coeffs 

       1      2.500      -1       2 
       2      2.500      -1       2 
       3      2.500      -1       2 
       4      2.500      -1       2 
       5      2.500      -1       2 
       6      2.500      -1       2 
       7      2.500      -1       2 
       8      2.500      -1       2 
       9      2.500      -1       2 
      10      2.500      -1       2 

Atoms 

     1      1      1 -0.19620000    1.000  1.00000  0.00000
     2      1      2 -0.10340000   -0.401  1.00000  0.00000
     3      1      3 -0.13820000   -0.923  1.00000  1.31394
     4      1      4 0.18500000   -0.996  1.00117 -0.92259
     5      1      5 -0.13540000    0.064  1.00000  2.33236
     6      1      6 0.06560000    1.663  1.00000  1.64835
     7      1      7 0.08550000   -2.527  1.00156  2.00069
     8      1      8 -0.09940000   -0.458  0.99837  3.64622
     9      1      9 -0.05450000   -1.860  1.00226  3.64767
    10      1     10 0.18820000    0.140  0.99569  4.56719
    11      1     11 0.19800000    1.680  0.99891 -0.85991
    12      1     12 -0.08740000   -2.752  1.00489  4.77643
    13      1     13 -0.15000000   -4.155  1.00713  4.78109
    14      1     14 0.04290000   -2.112  1.00369  6.40632
    15      1     15 -0.20990000   -3.739  1.01034  7.10225
    16      1     16 -0.15110000   -4.706  1.00776  6.07674
    17      1     17 0.18140000   -4.747  1.00944  3.85534
    18      1     18 0.17900000   -5.784  1.00755  6.28867
    19      1     19 0.20010000   -3.876  1.01437  8.18975

Bonds 

     1      1      2      1
     2      2      3      2
     3      3      4      2
     4      4      5      3
     5      5      6      1
     6      6      7      3
     7      7      8      5
     8      8      9      7
     9      9     10      8
    10     10     11      1
    11     11     12      9
    12     12     13     12
    13     13     14     12
    14     14     15     14
    15     15     16     13
    16     16     17     13
    17     17     18     16
    18     18     19     15
    19     19      6      5
    20     20      9      8
    21     21     16     15

Angles 

     1      1      1      2      3
     2      2      1      2      4
     3      3      2      3      5
     4      4      2      1      6
     5      5      2      3      7
     6      6      3      5      8
     7      7      3      7      9
     8      8      5      8     10
     9      9      2      1     11
    10     10      7      9     12
    11     11      9     12     13
    12     12      9     12     14
    13     13     12     14     15
    14     14     12     13     16
    15     15     12     13     17
    16     16     13     16     18
    17     17     14     15     19
    18     18     15     16     18
    19     19     13     12     14
    20     20      8      9     12
    21     21      6      1     11
    22     22     13     16     15
    23     23      5      3      7
    24     24      5      8      9
    25     25     16     13     17
    26     26      3      2      4
    27     27      7      9      8
    28     28      6      5      8
    29     29     14     15     16
    30     30     16     15     19
    31     31      1      6      5
    32     32      3      5      6
    33     33      9      8     10

Dihedrals

     1      1      5      3      2      1 
     2      2      6      1      2      3 
     3      3      9      7      3      2 
     4      4     13     12      9      7 
     5      5     15     14     12      9 
     6      6     16     13     12      9 
     7      7     10      8      5      3 
     8      8      9      8      5      6 
     9      9     10      8      5      6 
    10     10     11      1      2      3 
    11     11     14     12      9      7 
    12     12     13     12      9      8 
    13     13      6      1      2      4 
    14     14     16     13     12     14 
    15     15      8      9      7      3 
    16     16      7      3      2      1 
    17     17      6      5      3      2 
    18     18     17     13     12      9 
    19     19      8      5      3      2 
    20     20     11      1      2      4 
    21     21      7      9      8      5 
    22     22     14     12      9      8 
    23     23     12      9      8      5 
    24     24     19     15     14     12 
    25     25     10      8      9      7 
    26     26     18     16     13     12 
    27     27     11      1      6      5 
    28     28      9      7      3      5 
    29     29     19     15     16     18 
    30     30     12      9      7      3 
    31     31      9      8      5      3 
    32     32     17     13     12     14 
    33     33      8      5      6      1 
    34     34     14     15     16     13 
    35     35     12      9      8     10 
    36     36     15     16     13     12 
    37     37     17     13     16     15 
    38     38      8      5      3      7 
    39     39      5      3      2      4 
    40     40      5      6      1      2 
    41     41      7      3      5      6 
    42     42      3      5      6      1 
    43     43      7      3      2      4 
    44     44     16     15     14     12 
    45     45     18     16     13     17 
    46     46     18     16     15     14 
    47     47     19     15     16     13 
    48     48     15     14     12     13 

Impropers

     1      1      2      1      3      4 
     2      2      3      2      5      7 
     3      3      5      3      6      8 
     4      4      8      9     10      5 
     5      5      1      2     11      6 
     6      6      9     12      7      8 
     7      7     12      9     13     14 
     8      8     13     17     12     16 
     9      9     16     18     13     15 
    10     10     15     19     14     16 

