LAMMPS data file Created by LigParGen - (Written by Leela S. Dodda)

      19 atoms
      21 bonds
      33 angles
      48 dihedrals
      10 impropers
 
      19 atom types
      21 bond types
      33 angle types
      48 dihedral types
      10 improper types
 
   -5.052430    44.947570 xlo xhi
    0.995780    50.995780 ylo yhi
   -0.916260    49.083740 zlo zhi

Masses

       1     12.011  
       2     12.011  
       3     12.011  
       4      1.008  
       5     32.060  
       6     12.011  
       7     32.060  
       8     12.011  
       9     12.011  
      10      1.008  
      11      1.008  
      12     12.011  
      13     12.011  
      14     12.011  
      15      1.008  
      16     12.011  
      17      1.008  
      18     15.999  
      19      1.008  

Pair Coeffs 

       1      0.070  3.5500000 
       2      0.070  3.5500000 
       3      0.070  3.5500000 
       4      0.030  2.4200000 
       5      0.355  3.6000000 
       6      0.070  3.5500000 
       7      0.355  3.6000000 
       8      0.070  3.5500000 
       9      0.070  3.5500000 
      10      0.030  2.4200000 
      11      0.030  2.4200000 
      12      0.070  3.5500000 
      13      0.070  3.5500000 
      14      0.070  3.5500000 
      15      0.030  2.4200000 
      16      0.070  3.5500000 
      17      0.030  2.4200000 
      18      0.140  2.9000000 
      19      0.030  2.4200000 

Bond Coeffs 

       1   546.0000     1.3670 
       2   469.0000     1.4240 
       3   367.0000     1.0800 
       4   250.0000     1.7400 
       5   469.0000     1.4240 
       6   250.0000     1.7600 
       7   250.0000     1.7600 
       8   469.0000     1.4240 
       9   367.0000     1.0800 
      10   367.0000     1.0800 
      11   469.0000     1.4240 
      12   469.0000     1.4240 
      13   469.0000     1.4240 
      14   367.0000     1.0800 
      15   546.0000     1.3670 
      16   367.0000     1.0800 
      17   450.0000     1.3640 
      18   367.0000     1.0800 
      19   250.0000     1.7600 
      20   469.0000     1.4240 
      21   340.0000     1.3600 

Angle Coeffs 

       1     70.000    107.300
       2     35.000    125.700
       3     70.000    111.170
       4     63.000    120.000
       5     85.000    119.400
       6     63.000    112.400
       7     63.000    120.000
       8     35.000    127.500
       9     35.000    132.100
      10     85.000    119.400
      11     63.000    120.000
      12     63.000    120.000
      13     35.000    127.500
      14     70.000    107.300
      15     35.000    127.500
      16     70.000    120.000
      17     35.000    132.100
      18     85.000    119.400
      19     63.000    120.000
      20     70.000    110.600
      21     63.000    120.000
      22     75.000    111.000
      23     35.000    127.500
      24     35.000    125.700
      25     63.000    112.400
      26     35.000    127.500
      27     35.000    113.400
      28     85.000    119.400
      29     35.000    125.000
      30     85.000    119.400
      31     35.000    127.500
      32     85.000    119.400
      33     70.000    120.000

Dihedral Coeffs  

       1      0.000      2.100      0.000      0.000 
       2      0.000      2.170      0.000      0.000 
       3      0.000      2.170      0.000      0.000 
       4      0.000      2.170      0.000      0.000 
       5      0.000      2.170      0.000      0.000 
       6      0.000      2.170      0.000      0.000 
       7      0.000      2.170      0.000      0.000 
       8      0.000      7.250      0.000      0.000 
       9      0.000      7.250      0.000      0.000 
      10      0.000      7.250      0.000      0.000 
      11      0.000      2.170      0.000      0.000 
      12      0.000      7.250      0.000      0.000 
      13      0.000      7.250      0.000      0.000 
      14      0.000      2.170      0.000      0.000 
      15      0.000      7.250      0.000      0.000 
      16      0.000      2.170      0.000      0.000 
      17      0.000      7.250      0.000      0.000 
      18      0.000      2.170      0.000      0.000 
      19      0.000      2.170      0.000      0.000 
      20      0.000      2.170      0.000      0.000 
      21      0.000      7.250      0.000      0.000 
      22      0.000      7.250      0.000      0.000 
      23      0.000      7.250      0.000      0.000 
      24      0.000      7.250      0.000      0.000 
      25      0.000      7.250      0.000      0.000 
      26      0.000      7.250      0.000      0.000 
      27      0.000      2.170      0.000      0.000 
      28      0.000      7.250      0.000      0.000 
      29      0.000      2.170      0.000      0.000 
      30      0.000      0.000      0.000      0.000 
      31      0.000      2.170      0.000      0.000 
      32      0.000      7.250      0.000      0.000 
      33      0.000      2.170      0.000      0.000 
      34      0.000      7.250      0.000      0.000 
      35      0.000      7.250      0.000      0.000 
      36      0.000      7.250      0.000      0.000 
      37      0.000      7.250      0.000      0.000 
      38      0.000      2.170      0.000      0.000 
      39      0.000      2.170      0.000      0.000 
      40      0.000      7.250      0.000      0.000 
      41      0.000      2.170      0.000      0.000 
      42      0.000      7.250      0.000      0.000 
      43      0.000      7.250      0.000      0.000 
      44      0.000      2.170      0.000      0.000 
      45      0.000      2.170      0.000      0.000 
      46      0.000      7.250      0.000      0.000 
      47      0.000      7.250      0.000      0.000 
      48      0.000      2.170      0.000      0.000 

Improper Coeffs 

       1      2.500      -1       2 
       2      2.500      -1       2 
       3      2.500      -1       2 
       4      2.500      -1       2 
       5      2.500      -1       2 
       6      2.500      -1       2 
       7      2.500      -1       2 
       8      2.500      -1       2 
       9      2.500      -1       2 
      10      2.500      -1       2 

Atoms 

     1      1      1 -0.19900000    1.000  1.00000  0.00000
     2      1      2 -0.10220000   -0.402  1.00000  0.00000
     3      1      3 -0.13250000   -0.897  1.00000  1.32395
     4      1      4 0.18780000   -1.006  1.00116 -0.91626
     5      1      5 0.07240000    1.697  1.00000  1.62532
     6      1      6 -0.14320000    0.105  1.00000  2.33152
     7      1      7 0.09680000   -2.493  0.99842  2.03309
     8      1      8 -0.08060000   -1.792  1.00221  3.65690
     9      1      9 -0.07180000   -0.390  0.99838  3.65534
    10      1     10 0.19950000    0.216  0.99578  4.57008
    11      1     11 0.19510000    1.671  0.99890 -0.86809
    12      1     12 0.04830000   -2.619  1.01011  4.82701
    13      1     13 -0.20800000   -3.986  1.19342  5.06771
    14      1     14 -0.22050000   -4.124  1.41210  6.46337
    15      1     15 0.18950000   -4.783  1.16896  4.31588
    16      1     16 -0.08580000   -2.835  1.35213  7.01003
    17      1     17 0.18770000   -5.052  1.59458  7.01645
    18      1     18 -0.16030000   -1.937  1.11076  6.00139
    19      1     19 0.22680000   -2.418  1.45101  8.01644

Bonds 

     1      1      2      1
     2      2      3      2
     3      3      4      2
     4      4      5      1
     5      5      6      3
     6      6      7      3
     7      7      8      7
     8      8      9      6
     9      9     10      9
    10     10     11      1
    11     11     12      8
    12     12     13     12
    13     13     14     13
    14     14     15     13
    15     15     16     14
    16     16     17     14
    17     17     18     12
    18     18     19     16
    19     19      6      5
    20     20      9      8
    21     21     18     16

Angles 

     1      1      1      2      3
     2      2      1      2      4
     3      3      2      1      5
     4      4      2      3      6
     5      5      2      3      7
     6      6      3      7      8
     7      7      3      6      9
     8      8      6      9     10
     9      9      2      1     11
    10     10      7      8     12
    11     11      8     12     13
    12     12     12     13     14
    13     13     12     13     15
    14     14     13     14     16
    15     15     13     14     17
    16     16      8     12     18
    17     17     14     16     19
    18     18      3      6      5
    19     19      6      9      8
    20     20     14     16     18
    21     21      9      8     12
    22     22     12     18     16
    23     23     14     13     15
    24     24     16     14     17
    25     25      1      5      6
    26     26      3      2      4
    27     27     18     16     19
    28     28      5      6      9
    29     29      5      1     11
    30     30      6      3      7
    31     31      8      9     10
    32     32      7      8      9
    33     33     13     12     18

Dihedrals

     1      1      5      1      2      3 
     2      2      6      3      2      1 
     3      3      8      7      3      2 
     4      4     13     12      8      7 
     5      5     14     13     12      8 
     6      6     16     14     13     12 
     7      7     12      8      7      3 
     8      8     10      9      6      5 
     9      9     15     13     12      8 
    10     10     18     16     14     17 
    11     11      8      9      6      5 
    12     12     11      1      2      3 
    13     13     18     16     14     13 
    14     14     18     12      8      7 
    15     15      7      3      6      5 
    16     16      9      6      5      1 
    17     17      6      3      2      4 
    18     18      9      6      3      7 
    19     19      7      3      2      1 
    20     20     13     12      8      9 
    21     21     11      1      2      4 
    22     22     18     12     13     15 
    23     23     19     16     18     12 
    24     24     10      9      8      7 
    25     25     16     18     12      8 
    26     26     17     14     13     15 
    27     27      8      7      3      6 
    28     28     16     18     12     13 
    29     29     18     12      8      9 
    30     30      6      5      1      2 
    31     31      9      8      7      3 
    32     32      5      1      2      4 
    33     33     12      8      9      6 
    34     34     10      9      6      3 
    35     35     19     16     14     13 
    36     36     16     14     13     15 
    37     37     17     14     13     12 
    38     38      5      6      3      2 
    39     39      8      9      6      3 
    40     40     14     16     18     12 
    41     41      3      6      5      1 
    42     42     11      1      5      6 
    43     43      7      3      2      4 
    44     44     18     12     13     14 
    45     45      9      6      3      2 
    46     46     19     16     14     17 
    47     47     12      8      9     10 
    48     48      7      8      9      6 

Impropers

     1      1      2      1      3      4 
     2      2      3      2      6      7 
     3      3      6      9      3      5 
     4      4      9     10      6      8 
     5      5      1      2     11      5 
     6      6      8      9     12      7 
     7      7     13     12     14     15 
     8      8     14     17     13     16 
     9      9     12     18     13      8 
    10     10     16     18     19     14 

