LAMMPS data file Created by LigParGen - (Written by Leela S. Dodda)

      37 atoms
      41 bonds
      69 angles
     100 dihedrals
      22 impropers
 
      37 atom types
      41 bond types
      69 angle types
     100 dihedral types
      22 improper types
 
  -13.323790    36.676210 xlo xhi
    0.144340    50.144340 ylo yhi
   -2.138220    47.861780 zlo zhi

Masses

       1      1.008  
       2     12.011  
       3     32.060  
       4     12.011  
       5     12.011  
       6      1.008  
       7     12.011  
       8     12.011  
       9     32.060  
      10      1.008  
      11     12.011  
      12     12.011  
      13     32.060  
      14     12.011  
      15     12.011  
      16      1.008  
      17     12.011  
      18     12.011  
      19      1.008  
      20     12.011  
      21     14.007  
      22     12.011  
      23     12.011  
      24     12.011  
      25     12.011  
      26     12.011  
      27     15.999  
      28     14.007  
      29     15.999  
      30      1.008  
      31      1.008  
      32      1.008  
      33      1.008  
      34     12.011  
      35      1.008  
      36      1.008  
      37      1.008  

Pair Coeffs 

       1      0.030  2.4200000 
       2      0.070  3.5500000 
       3      0.355  3.6000000 
       4      0.070  3.5500000 
       5      0.070  3.5500000 
       6      0.030  2.4200000 
       7      0.070  3.5500000 
       8      0.070  3.5500000 
       9      0.355  3.6000000 
      10      0.030  2.4200000 
      11      0.070  3.5500000 
      12      0.070  3.5500000 
      13      0.355  3.6000000 
      14      0.070  3.5500000 
      15      0.070  3.5500000 
      16      0.030  2.4200000 
      17      0.070  3.5500000 
      18      0.070  3.5500000 
      19      0.030  2.4200000 
      20      0.076  3.5500000 
      21      0.170  3.2500000 
      22      0.076  3.5500000 
      23      0.070  3.5500000 
      24      0.070  3.5500000 
      25      0.066  3.5000000 
      26      0.070  3.5500000 
      27      0.210  2.9600000 
      28      0.170  3.2500000 
      29      0.210  2.9600000 
      30      0.030  2.5000000 
      31      0.030  2.5000000 
      32      0.030  2.5000000 
      33      0.030  2.4200000 
      34      0.066  3.5000000 
      35      0.030  2.5000000 
      36      0.030  2.5000000 
      37      0.030  2.5000000 

Bond Coeffs 

       1   367.0000     1.0800 
       2   250.0000     1.7400 
       3   546.0000     1.3670 
       4   250.0000     1.7600 
       5   367.0000     1.0800 
       6   469.0000     1.4240 
       7   469.0000     1.4240 
       8   250.0000     1.7600 
       9   367.0000     1.0800 
      10   469.0000     1.4240 
      11   469.0000     1.4240 
      12   250.0000     1.7600 
      13   469.0000     1.4240 
      14   250.0000     1.7600 
      15   367.0000     1.0800 
      16   469.0000     1.4240 
      17   469.0000     1.4240 
      18   367.0000     1.0800 
      19   427.0000     1.4330 
      20   427.0000     1.3810 
      21   549.0000     1.3400 
      22   410.0000     1.4440 
      23   418.0000     1.3880 
      24   337.0000     1.4750 
      25   427.0000     1.4330 
      26   570.0000     1.2290 
      27   418.0000     1.3880 
      28   570.0000     1.2290 
      29   340.0000     1.0900 
      30   340.0000     1.0900 
      31   340.0000     1.0900 
      32   367.0000     1.0800 
      33   337.0000     1.4750 
      34   340.0000     1.0900 
      35   340.0000     1.0900 
      36   340.0000     1.0900 
      37   469.0000     1.4240 
      38   250.0000     1.7600 
      39   469.0000     1.4240 
      40   410.0000     1.4440 
      41   427.0000     1.3810 

Angle Coeffs 

       1     35.000    125.000
       2     35.000    132.100
       3     63.000    112.400
       4     35.000    125.700
       5     70.000    107.300
       6     85.000    119.400
       7     85.000    119.400
       8     35.000    127.500
       9     63.000    120.000
      10     63.000    120.000
      11     85.000    119.400
      12     63.000    120.000
      13     63.000    112.400
      14     35.000    127.500
      15     63.000    120.000
      16     85.000    119.400
      17     35.000    127.500
      18     63.000    120.000
      19     70.000    108.700
      20     85.000    117.000
      21     85.000    120.000
      22     70.000    125.200
      23     63.000    112.400
      24     85.000    117.000
      25     80.000    125.300
      26     70.000    114.100
      27     80.000    120.600
      28     35.000    109.500
      29     35.000    109.500
      30     35.000    109.500
      31     35.000    130.700
      32     63.000    112.400
      33     35.000    109.500
      34     35.000    109.500
      35     35.000    109.500
      36     70.000    108.700
      37     85.000    119.400
      38     33.000    107.800
      39     85.000    119.400
      40     33.000    107.800
      41     35.000    127.500
      42     85.000    119.400
      43     33.000    107.800
      44     85.000    119.400
      45     70.000    125.200
      46     35.000    127.500
      47     85.000    119.400
      48     33.000    107.800
      49     35.000    127.500
      50     63.000    112.400
      51     63.000    112.400
      52     85.000    120.000
      53     85.000    120.700
      54     33.000    107.800
      55     80.000    125.300
      56     63.000    112.400
      57     70.000    111.170
      58     85.000    120.700
      59     35.000    121.600
      60     70.000    114.100
      61     85.000    119.400
      62     63.000    120.000
      63     63.000    120.000
      64     33.000    107.800
      65     63.000    120.000
      66     35.000    127.500
      67     70.000    121.600
      68     80.000    120.600
      69     63.000    120.000

Dihedral Coeffs  

       1      0.000      7.250      0.000      0.000 
       2      0.000      7.250      0.000      0.000 
       3      0.000      7.250      0.000      0.000 
       4      0.000      2.170      0.000      0.000 
       5      0.000      2.170      0.000      0.000 
       6      0.000      7.250      0.000      0.000 
       7      0.000      2.170      0.000      0.000 
       8      0.000      2.170      0.000      0.000 
       9      0.000      2.170      0.000      0.000 
      10      2.500      6.000      0.000      0.000 
      11      0.000      0.000      0.000      0.000 
      12      0.000      0.000      0.000      0.000 
      13      0.000     10.750      0.000      0.000 
      14      0.000      5.000      0.000      0.000 
      15      0.000      7.250      0.000      0.000 
      16      0.000      4.900      0.000      0.000 
      17      0.000      1.300      2.200      0.000 
      18      0.000      2.170      0.000      0.000 
      19      0.000      5.000      0.000      0.000 
      20      0.000      7.250      0.000      0.000 
      21      0.000      2.170      0.000      0.000 
      22      2.300      6.089      0.000      0.000 
      23      2.000      0.000      0.000      0.000 
      24      0.000      7.250      0.000      0.000 
      25      0.000      7.250      0.000      0.000 
      26      0.000      2.170      0.000      0.000 
      27      0.000     14.000      0.000      0.000 
      28      2.500      6.000      0.000      0.000 
      29      0.000      0.000      0.000      0.000 
      30      0.000     14.000      0.000      0.000 
      31      0.000      2.170      0.000      0.000 
      32      0.000      0.000      0.000      0.000 
      33      0.000      4.900      0.000      0.000 
      34      0.000      2.170      0.000      0.000 
      35      0.000      7.250      0.000      0.000 
      36      0.000      2.170      0.000      0.000 
      37      0.000     14.000      0.000      0.000 
      38      2.500      6.000      0.000      0.000 
      39      0.000      4.900      0.000      0.000 
      40      0.000      4.900      0.000      0.000 
      41      0.000      7.250      0.000      0.000 
      42      0.000     14.000      0.000      0.000 
      43      0.000      0.000      0.000      0.000 
      44      0.000     14.000      0.000      0.000 
      45      0.000      2.170      0.000      0.000 
      46      0.000      7.250      0.000      0.000 
      47      0.000      2.170      0.000      0.000 
      48      0.000      2.170      0.000      0.000 
      49      0.000      2.170      0.000      0.000 
      50      0.000      2.170      0.000      0.000 
      51      0.000      0.000      0.000      0.000 
      52      0.000      7.250      0.000      0.000 
      53      0.000      2.170      0.000      0.000 
      54      0.000      2.170      0.000      0.000 
      55      0.000      7.250      0.000      0.000 
      56      2.000      0.000      0.000      0.000 
      57      0.000      2.170      0.000      0.000 
      58      0.000      7.250      0.000      0.000 
      59      0.000      0.000      0.000      0.000 
      60      0.000      7.250      0.000      0.000 
      61      0.000      0.000      0.000      0.000 
      62      0.000      2.170      0.000      0.000 
      63      0.000      2.170      0.000      0.000 
      64      0.000      5.000      0.000      0.000 
      65      0.000      2.100      0.000      0.000 
      66      0.000      2.170      0.000      0.000 
      67      0.000      2.170      0.000      0.000 
      68      2.000      0.000      0.000      0.000 
      69      0.000      5.000      0.000      0.000 
      70      0.000      7.250      0.000      0.000 
      71      0.000      2.170      0.000      0.000 
      72      0.000      0.000      0.000      0.000 
      73      0.000      7.250      0.000      0.000 
      74      0.000      2.170      0.000      0.000 
      75      0.000      2.170      0.000      0.000 
      76      0.000      2.170      0.000      0.000 
      77      0.000      2.170      0.000      0.000 
      78      2.500      6.000      0.000      0.000 
      79      2.000      0.000      0.000      0.000 
      80      2.000      0.000      0.000      0.000 
      81      0.000      2.170      0.000      0.000 
      82      0.000      2.170      0.000      0.000 
      83      0.000      4.900      0.000      0.000 
      84      0.000      2.170      0.000      0.000 
      85      0.000      0.000      0.000      0.000 
      86      0.000      0.000      0.000      0.000 
      87      0.000      7.250      0.000      0.000 
      88      0.000      7.250      0.000      0.000 
      89      0.000      2.170      0.000      0.000 
      90      2.300      6.089      0.000      0.000 
      91      0.000      2.170      0.000      0.000 
      92      0.000      0.000      0.000      0.000 
      93      0.000      0.000      0.000      0.000 
      94      0.000      4.900      0.000      0.000 
      95      0.000      2.170      0.000      0.000 
      96      2.000      0.000      0.000      0.000 
      97      0.000      7.250      0.000      0.000 
      98      0.000      2.170      0.000      0.000 
      99      0.000     10.750      0.000      0.000 
     100      0.000      2.170      0.000      0.000 

Improper Coeffs 

       1      2.500      -1       2 
       2      2.500      -1       2 
       3      2.500      -1       2 
       4      2.500      -1       2 
       5      2.500      -1       2 
       6      2.500      -1       2 
       7      2.500      -1       2 
       8      2.500      -1       2 
       9      2.500      -1       2 
      10      2.500      -1       2 
      11      2.500      -1       2 
      12      2.500      -1       2 
      13      0.000      -1       2 
      14      2.500      -1       2 
      15     10.500      -1       2 
      16     10.500      -1       2 
      17      0.000      -1       2 
      18      0.000      -1       2 
      19      2.500      -1       2 
      20      0.000      -1       2 
      21      0.000      -1       2 
      22      0.000      -1       2 

Atoms 

     1      1      1 0.19940000    1.000  1.00000  0.00000
     2      1      2 -0.18780000   -0.096  1.00000  0.00000
     3      1      3 0.07010000   -0.975  1.00000  1.54448
     4      1      4 -0.10730000   -0.965  0.99861 -1.09890
     5      1      5 -0.14070000   -2.508  1.00220  0.71322
     6      1      6 0.18660000   -0.611  0.99730 -2.13822
     7      1      7 -0.12670000   -2.320  1.00078 -0.69337
     8      1      8 -0.07700000   -3.863  1.00629  1.11920
     9      1      9 0.08820000   -3.853  1.00061 -1.52510
    10      1     10 0.19530000   -4.214  1.00910  2.15972
    11      1     11 -0.07710000   -4.732  1.00801  0.02079
    12      1     12 -0.04430000   -6.170  1.01615  0.02317
    13      1     13 0.15450000   -7.050  1.02554  1.53655
    14      1     14 -0.17500000   -7.045  1.01652 -1.07375
    15      1     15 -0.16720000   -8.607  1.03414  0.69536
    16      1     16 0.18540000   -6.687  1.01016 -2.11303
    17      1     17 -0.09210000   -8.403  1.02740 -0.70087
    18      1     18 0.44970000   -9.818  1.04773  1.46739
    19      1     19 0.18150000   -9.239  1.03164 -1.41482
    20      1     20 -0.31630000   -9.956  1.05564  2.87129
    21      1     21 -0.77170000  -11.108  1.05420  0.93475
    22      1     22 -0.27950000  -11.340  1.06684  3.20817
    23      1     23 0.62590000   -9.178  1.05751  4.09822
    24      1     24 0.63360000  -12.117  1.06619  1.97993
    25      1     25 0.03780000  -11.525  1.05197 -0.44939
    26      1     26 0.27760000  -11.478  1.07634  4.61314
    27      1     27 -0.43130000   -7.972  1.05195  4.33749
    28      1     28 -0.78840000  -10.186  1.07028  5.14315
    29      1     29 -0.41370000  -13.324  1.07197  1.73759
    30      1     30 0.11010000  -11.172  0.14434 -0.98156
    31      1     31 0.11010000  -11.158  1.95025 -0.98843
    32      1     32 0.11010000  -12.632  1.05908 -0.43733
    33      1     33 0.21220000  -12.370  1.08766  5.25103
    34      1     34 0.04040000   -9.767  1.07338  6.52640
    35      1     35 0.10920000  -10.132  0.17473  7.06614
    36      1     36 0.10920000  -10.121  1.98063  7.05892
    37      1     37 0.10920000   -8.660  1.06583  6.51387

Bonds 

     1      1      2      1
     2      2      3      2
     3      3      4      2
     4      4      5      3
     5      5      6      4
     6      6      7      4
     7      7      8      5
     8      8      9      7
     9      9     10      8
    10     10     11      8
    11     11     12     11
    12     12     13     12
    13     13     14     12
    14     14     15     13
    15     15     16     14
    16     16     17     14
    17     17     18     15
    18     18     19     17
    19     19     20     18
    20     20     21     18
    21     21     22     20
    22     22     23     20
    23     23     24     21
    24     24     25     21
    25     25     26     22
    26     26     27     23
    27     27     28     23
    28     28     29     24
    29     29     30     25
    30     30     31     25
    31     31     32     25
    32     32     33     26
    33     33     34     28
    34     34     35     34
    35     35     36     34
    36     36     37     34
    37     37      7      5
    38     38     11      9
    39     39     17     15
    40     40     24     22
    41     41     28     26

Angles 

     1      1      1      2      3
     2      2      1      2      4
     3      3      2      3      5
     4      4      2      4      6
     5      5      2      4      7
     6      6      3      5      8
     7      7      4      7      9
     8      8      5      8     10
     9      9      5      8     11
    10     10      8     11     12
    11     11     11     12     13
    12     12     11     12     14
    13     13     12     13     15
    14     14     12     14     16
    15     15     12     14     17
    16     16     13     15     18
    17     17     14     17     19
    18     18     15     18     20
    19     19     15     18     21
    20     20     18     20     22
    21     21     18     20     23
    22     22     18     21     24
    23     23     18     21     25
    24     24     20     22     26
    25     25     20     23     27
    26     26     20     23     28
    27     27     21     24     29
    28     28     21     25     30
    29     29     21     25     31
    30     30     21     25     32
    31     31     22     26     33
    32     32     23     28     34
    33     33     28     34     35
    34     34     28     34     36
    35     35     28     34     37
    36     36     20     18     21
    37     37      8     11      9
    38     38     35     34     36
    39     39     13     15     17
    40     40     30     25     32
    41     41     10      8     11
    42     42     13     12     14
    43     43     31     25     32
    44     44      3      5      7
    45     45     23     28     26
    46     46      6      4      7
    47     47      9     11     12
    48     48     36     34     37
    49     49     16     14     17
    50     50      7      9     11
    51     51     24     21     25
    52     52     24     22     26
    53     53     20     22     24
    54     54     30     25     31
    55     55     22     24     29
    56     56     26     28     34
    57     57      3      2      4
    58     58     22     20     23
    59     59     28     26     33
    60     60     21     24     22
    61     61      5      7      9
    62     62      7      5      8
    63     63      4      7      5
    64     64     35     34     37
    65     65     14     17     15
    66     66     15     17     19
    67     67     22     26     28
    68     68     27     23     28
    69     69     17     15     18

Dihedrals

     1      1      5      3      2      1 
     2      2      6      4      2      1 
     3      3     10      8      5      3 
     4      4     13     12     11      8 
     5      5     15     13     12     11 
     6      6     16     14     12     11 
     7      7     20     18     15     13 
     8      8     22     20     18     15 
     9      9     24     21     18     15 
    10     10     27     23     20     18 
    11     11     30     25     21     18 
    12     12     35     34     28     23 
    13     13     33     26     22     24 
    14     14     23     28     26     22 
    15     15     28     26     22     24 
    16     16     27     23     28     26 
    17     17     24     21     18     20 
    18     18     23     20     18     15 
    19     19     34     28     26     33 
    20     20     19     17     15     13 
    21     21     18     15     17     14 
    22     22     26     28     23     20 
    23     23     22     20     18     21 
    24     24     12     11      8     10 
    25     25     16     14     12     13 
    26     26     12     11      8      5 
    27     27     24     22     20     18 
    28     28     29     24     22     26 
    29     29      5      3      2      4 
    30     30     23     20     18     21 
    31     31     25     21     18     15 
    32     32     31     25     21     24 
    33     33     34     28     23     20 
    34     34     21     18     15     13 
    35     35     10      8      5      7 
    36     36     20     18     15     17 
    37     37     26     22     20     23 
    38     38     27     23     20     22 
    39     39     25     21     24     22 
    40     40     29     24     21     18 
    41     41      7      4      2      1 
    42     42     26     22     20     18 
    43     43     30     25     21     24 
    44     44     24     22     20     23 
    45     45      8      5      3      2 
    46     46     19     17     14     16 
    47     47     18     15     13     12 
    48     48     15     13     12     14 
    49     49     14     17     15     13 
    50     50     11      8      5      3 
    51     51     36     34     28     23 
    52     52     13     12     11      9 
    53     53     14     12     11      8 
    54     54     25     21     18     20 
    55     55      6      4      7      5 
    56     56     28     23     20     22 
    57     57      9      7      4      2 
    58     58      6      4      2      3 
    59     59     37     34     28     26 
    60     60     19     17     15     18 
    61     61     32     25     21     24 
    62     62     15     17     14     12 
    63     63     11      8      5      7 
    64     64     33     26     28     23 
    65     65      7      4      2      3 
    66     66     14     12     11      9 
    67     67      8     11      9      7 
    68     68     21     24     22     20 
    69     69     34     28     26     22 
    70     70     10      8     11      9 
    71     71      7      5      3      2 
    72     72     37     34     28     23 
    73     73      9      7      4      6 
    74     74     17     14     12     13 
    75     75     11      9      7      5 
    76     76      9      7      5      8 
    77     77     21     18     15     17 
    78     78     29     24     22     20 
    79     79     28     26     22     20 
    80     80     26     22     24     21 
    81     81      9     11      8      5 
    82     82     17     15     13     12 
    83     83     34     28     23     27 
    84     84      4      7      5      3 
    85     85     31     25     21     18 
    86     86     36     34     28     26 
    87     87     16     14     17     15 
    88     88     19     17     14     12 
    89     89     11      9      7      4 
    90     90     22     24     21     18 
    91     91      5      7      4      2 
    92     92     35     34     28     26 
    93     93     32     25     21     18 
    94     94     29     24     21     25 
    95     95     12     11      9      7 
    96     96     28     23     20     18 
    97     97      9      7      5      3 
    98     98      8      5      7      4 
    99     99     33     26     22     20 
   100    100     17     14     12     11 

Impropers

     1      1      2      1      3      4 
     2      2      4      2      6      7 
     3      3      5      3      7      8 
     4      4      7      9      4      5 
     5      5      8     10     11      5 
     6      6     11      9     12      8 
     7      7     12     11     13     14 
     8      8     14     17     12     16 
     9      9     15     17     18     13 
    10     10     17     19     14     15 
    11     11     18     20     21     15 
    12     12     20     18     22     23 
    13     13     21     25     18     24 
    14     14     22     26     20     24 
    15     15     23     20     27     28 
    16     16     24     21     29     22 
    17     17     25     21     30     31 
    18     18     25     21     30     32 
    19     19     26     33     28     22 
    20     20     28     34     23     26 
    21     21     34     28     35     36 
    22     22     34     35     28     37 

