LAMMPS data file Created by LigParGen - (Written by Leela S. Dodda)

       9 atoms
       9 bonds
      13 angles
      16 dihedrals
       4 impropers
 
       9 atom types
       9 bond types
      13 angle types
      16 dihedral types
       4 improper types
 
   -3.356570    46.643430 xlo xhi
    0.849060    50.849060 ylo yhi
   -1.894290    48.105710 zlo zhi

Masses
 
       1     12.011
       2     12.011    
       3     12.011  
       4     32.060
       5     12.011  
       6      1.008  
       7      1.008  
       8      1.008  
       9      1.008

Pair Coeffs 

       1      0.070  3.5500000 
       2      0.070  3.5500000
       3      0.070  3.5500000
       4      0.355  3.6000000 
       5      0.070  3.5500000 
       6      0.030  2.4200000 
       7      0.030  2.4200000 
       8      0.030  2.4200000 
       9      0.030  2.4200000

Bond Coeffs 

       1   367.0000     1.0800 
       2   250.0000     1.7400 
       3   546.0000     1.3670 
       4   250.0000     1.7400 
       5   367.0000     1.0800 
       6   469.0000     1.4240 
       7   367.0000     1.0800 
       8   367.0000     1.0800 
       9   546.0000     1.3670 

Angle Coeffs 

       1     35.000    125.000
       2     35.000    132.100
       3     74.000     97.000
       4     35.000    125.700
       5     70.000    107.300
       6     35.000    125.000
       7     35.000    127.500
       8     35.000    125.700
       9     70.000    107.300
      10     70.000    111.170
      11     70.000    111.170
      12     35.000    127.500
      13     35.000    132.100

Dihedral Coeffs  

       1      0.000      7.250      0.000      0.000 
       2      0.000      7.250      0.000      0.000 
       3      0.000      2.100      0.000      0.000 
       4      0.000      0.000      0.000      0.000 
       5      0.000      7.250      0.000      0.000 
       6      0.000      2.170      0.000      0.000 
       7      0.000      7.250      0.000      0.000 
       8      0.000      7.250      0.000      0.000 
       9      0.000      7.250      0.000      0.000 
      10      0.000      7.250      0.000      0.000 
      11      0.000      0.000      0.000      0.000 
      12      0.000      7.250      0.000      0.000 
      13      0.000      2.100      0.000      0.000 
      14      0.000      7.250      0.000      0.000 
      15      0.000      7.250      0.000      0.000 
      16      0.000      7.250      0.000      0.000 

Improper Coeffs 

       1      2.500      -1       2 
       2      2.500      -1       2 
       3      2.500      -1       2 
       4      2.500      -1       2 

Atoms 

     1      1      1 -0.16230000    0.022  1.00000  0.00000
     2      1      2 -0.15570000   -2.375  1.06160 -0.06458
     3      1      3 -0.16550000   -2.240  0.91735  1.33888
     4      1      4 -0.10450000   -0.486  1.00000  1.74152
     5      1      5 -0.14680000   -1.144  1.06273 -0.79534
     6      1      6 0.17840000   -3.357  1.12258 -0.55772
     7      1      7 0.17930000   -1.102  1.10764 -1.89429
     8      1      8 0.18670000   -2.774  0.84906  2.14926
     9      1      9 0.19030000    1.000  1.00000  0.00000

Bonds 

     1      1      1      9
     2      2      4      1
     3      3      5      1
     4      4      3      4
     5      5      7      5
     6      6      2      5
     7      7      8      3
     8      8      6      2
     9      9      2      3

Angles 

     1      1      9      1      4
     2      2      9      1      5
     3      3      1      4      3
     4      4      1      5      7
     5      5      1      5      2
     6      6      4      3      8
     7      7      5      2      6
     8      8      3      2      6
     9      9      5      2      3
    10     10      4      1      5
    11     11      4      3      2
    12     12      7      5      2
    13     13      2      3      8

Dihedrals

     1      1      3      4      1      9
     2      2      7      5      1      9
     3      3      5      2      3      4
     4      4      3      4      1      5
     5      5      8      3      2      5
     6      6      3      2      5      1 
     7      7      6      2      5      7
     8      8      8      3      4      1 
     9      9      6      2      3      4
    10     10      6      2      5      1 
    11     11      2      3      4      1 
    12     12      7      5      2      3
    13     13      2      5      1      4
    14     14      6      2      3      8 
    15     15      2      5      1      9 
    16     16      7      5      1      4

Impropers

     1      1      1      9      4      5
     2      2      5      1      7      2 
     3      3      3      4      2      8 
     4      4      2      6      5      3

