LAMMPS data file Created by LigParGen - (Written by Leela S. Dodda)

      34 atoms
      37 bonds
      62 angles
      88 dihedrals
      20 impropers
 
      34 atom types
      37 bond types
      62 angle types
      88 dihedral types
      20 improper types
 
  -10.134580    39.865420 xlo xhi
    0.102220    50.102220 ylo yhi
   -2.135030    47.864970 zlo zhi

Masses

       1      1.008  
       2     12.011  
       3     32.060  
       4     12.011  
       5     12.011  
       6      1.008  
       7     12.011  
       8     12.011  
       9      1.008  
      10     12.011  
      11     14.007  
      12     12.011  
      13     12.011  
      14     12.011  
      15     12.011  
      16     12.011  
      17     15.999  
      18     14.007  
      19     15.999  
      20      1.008  
      21      1.008  
      22      1.008  
      23     12.011  
      24     12.011  
      25     32.060  
      26     12.011  
      27      1.008  
      28      1.008  
      29      1.008  
      30     12.011  
      31      1.008  
      32     12.011  
      33      1.008  
      34      1.008  

Pair Coeffs 

       1      0.030  2.4200000 
       2      0.070  3.5500000 
       3      0.355  3.6000000 
       4      0.070  3.5500000 
       5      0.070  3.5500000 
       6      0.030  2.4200000 
       7      0.070  3.5500000 
       8      0.070  3.5500000 
       9      0.030  2.4200000 
      10      0.076  3.5500000 
      11      0.170  3.2500000 
      12      0.076  3.5500000 
      13      0.070  3.5500000 
      14      0.070  3.5500000 
      15      0.066  3.5000000 
      16      0.070  3.5500000 
      17      0.210  2.9600000 
      18      0.170  3.2500000 
      19      0.210  2.9600000 
      20      0.030  2.5000000 
      21      0.030  2.5000000 
      22      0.030  2.5000000 
      23      0.070  3.5500000 
      24      0.066  3.5000000 
      25      0.355  3.6000000 
      26      0.070  3.5500000 
      27      0.030  2.5000000 
      28      0.030  2.5000000 
      29      0.030  2.5000000 
      30      0.070  3.5500000 
      31      0.030  2.4200000 
      32      0.070  3.5500000 
      33      0.030  2.4200000 
      34      0.030  2.4200000 

Bond Coeffs 

       1   367.0000     1.0800 
       2   250.0000     1.7400 
       3   546.0000     1.3670 
       4   250.0000     1.7600 
       5   367.0000     1.0800 
       6   469.0000     1.4240 
       7   469.0000     1.4240 
       8   367.0000     1.0800 
       9   427.0000     1.4330 
      10   427.0000     1.3810 
      11   549.0000     1.3400 
      12   410.0000     1.4440 
      13   418.0000     1.3880 
      14   337.0000     1.4750 
      15   427.0000     1.4330 
      16   570.0000     1.2290 
      17   418.0000     1.3880 
      18   570.0000     1.2290 
      19   340.0000     1.0900 
      20   340.0000     1.0900 
      21   340.0000     1.0900 
      22   469.0000     1.4240 
      23   337.0000     1.4750 
      24   250.0000     1.7600 
      25   469.0000     1.4240 
      26   340.0000     1.0900 
      27   340.0000     1.0900 
      28   340.0000     1.0900 
      29   250.0000     1.7400 
      30   367.0000     1.0800 
      31   469.0000     1.4240 
      32   367.0000     1.0800 
      33   367.0000     1.0800 
      34   469.0000     1.4240 
      35   410.0000     1.4440 
      36   427.0000     1.3810 
      37   546.0000     1.3670 

Angle Coeffs 

       1     35.000    125.000
       2     35.000    132.100
       3     63.000    112.400
       4     35.000    125.700
       5     70.000    107.300
       6     85.000    119.400
       7     35.000    127.500
       8     63.000    120.000
       9     70.000    108.700
      10     85.000    117.000
      11     85.000    120.000
      12     70.000    125.200
      13     63.000    112.400
      14     85.000    117.000
      15     80.000    125.300
      16     70.000    114.100
      17     80.000    120.600
      18     35.000    109.500
      19     35.000    109.500
      20     35.000    109.500
      21     63.000    120.000
      22     63.000    112.400
      23     85.000    119.400
      24     63.000    120.000
      25     35.000    109.500
      26     35.000    109.500
      27     35.000    109.500
      28     63.000    112.400
      29     35.000    127.500
      30     63.000    120.000
      31     35.000    125.000
      32     35.000    127.500
      33     70.000    108.700
      34     70.000    107.300
      35     70.000    108.700
      36     63.000    112.400
      37     85.000    119.400
      38     35.000    127.500
      39     35.000    125.700
      40     33.000    107.800
      41     35.000    127.500
      42     33.000    107.800
      43     33.000    107.800
      44     33.000    107.800
      45     85.000    120.700
      46     63.000    112.400
      47     33.000    107.800
      48     33.000    107.800
      49     70.000    108.700
      50     70.000    111.170
      51     70.000    114.100
      52     80.000    125.300
      53     70.000    125.200
      54     35.000    127.500
      55     70.000    111.170
      56     35.000    132.100
      57     85.000    120.700
      58     63.000    120.000
      59     85.000    120.000
      60     63.000    120.000
      61     85.000    119.400
      62     80.000    120.600

Dihedral Coeffs  

       1      0.000      7.250      0.000      0.000 
       2      0.000      7.250      0.000      0.000 
       3      0.000      2.170      0.000      0.000 
       4      0.000      2.170      0.000      0.000 
       5      0.000      2.170      0.000      0.000 
       6      2.500      6.000      0.000      0.000 
       7      0.000      0.000      0.000      0.000 
       8      0.000      2.170      0.000      0.000 
       9      0.000      0.000      0.000      0.000 
      10      0.000      2.170      0.000      0.000 
      11      0.000      7.250      0.000      0.000 
      12      0.000      4.900      0.000      0.000 
      13      0.000      4.900      0.000      0.000 
      14      0.000      1.300      2.200      0.000 
      15      0.000      7.250      0.000      0.000 
      16      0.000      2.170      0.000      0.000 
      17      2.000      0.000      0.000      0.000 
      18      2.500      6.000      0.000      0.000 
      19      0.000      7.250      0.000      0.000 
      20      0.000      4.900      0.000      0.000 
      21      0.000     14.000      0.000      0.000 
      22      0.000     14.000      0.000      0.000 
      23      2.000      0.000      0.000      0.000 
      24      0.000      0.000      0.000      0.000 
      25      0.000      1.300      2.200      0.000 
      26      0.000      2.170      0.000      0.000 
      27      2.300      6.089      0.000      0.000 
      28      0.000      0.000      0.000      0.000 
      29      0.000      7.250      0.000      0.000 
      30      0.000      2.170      0.000      0.000 
      31      0.000      2.170      0.000      0.000 
      32      0.000      2.170      0.000      0.000 
      33      0.000      0.000      0.000      0.000 
      34      0.000      2.170      0.000      0.000 
      35      0.000      2.170      0.000      0.000 
      36      0.000      2.170      0.000      0.000 
      37      0.000      4.900      0.000      0.000 
      38      0.000      7.250      0.000      0.000 
      39      2.300      6.089      0.000      0.000 
      40      0.000      2.170      0.000      0.000 
      41      0.000      0.000      0.000      0.000 
      42      0.000      7.250      0.000      0.000 
      43      0.000      7.250      0.000      0.000 
      44      0.000      2.170      0.000      0.000 
      45      0.000      2.170      0.000      0.000 
      46      0.000     14.000      0.000      0.000 
      47      0.000      0.000      0.000      0.000 
      48      0.000      7.250      0.000      0.000 
      49      0.000      2.100      0.000      0.000 
      50      2.000      0.000      0.000      0.000 
      51      0.000      2.100      0.000      0.000 
      52      0.000      2.170      0.000      0.000 
      53      0.000      7.250      0.000      0.000 
      54      0.000      7.250      0.000      0.000 
      55      0.000     14.000      0.000      0.000 
      56      2.000      0.000      0.000      0.000 
      57      2.500      6.000      0.000      0.000 
      58      0.000      2.170      0.000      0.000 
      59      0.000      7.250      0.000      0.000 
      60      0.000     14.000      0.000      0.000 
      61      0.000      0.000      0.000      0.000 
      62      0.000      4.900      0.000      0.000 
      63      0.000      7.250      0.000      0.000 
      64      0.000      2.170      0.000      0.000 
      65      2.000      0.000      0.000      0.000 
      66      0.000      2.170      0.000      0.000 
      67      0.000      0.000      0.000      0.000 
      68      0.000      2.170      0.000      0.000 
      69      0.000      0.000      0.000      0.000 
      70      0.000      2.170      0.000      0.000 
      71      2.500      6.000      0.000      0.000 
      72      0.000      0.000      0.000      0.000 
      73      0.000     14.000      0.000      0.000 
      74      0.000      0.000      0.000      0.000 
      75      0.000      2.170      0.000      0.000 
      76      0.000      7.250      0.000      0.000 
      77      0.000      7.250      0.000      0.000 
      78      0.000      2.170      0.000      0.000 
      79      0.000      2.170      0.000      0.000 
      80      0.000      0.000      0.000      0.000 
      81      0.000      7.250      0.000      0.000 
      82      0.000      4.900      0.000      0.000 
      83      0.000      2.170      0.000      0.000 
      84      0.000      2.170      0.000      0.000 
      85      0.000      7.250      0.000      0.000 
      86      0.000      2.170      0.000      0.000 
      87      0.000      0.000      0.000      0.000 
      88      2.000      0.000      0.000      0.000 

Improper Coeffs 

       1      2.500      -1       2 
       2      2.500      -1       2 
       3      2.500      -1       2 
       4      2.500      -1       2 
       5      2.500      -1       2 
       6      2.500      -1       2 
       7      0.000      -1       2 
       8      2.500      -1       2 
       9     10.500      -1       2 
      10     10.500      -1       2 
      11      0.000      -1       2 
      12      0.000      -1       2 
      13      2.500      -1       2 
      14      0.000      -1       2 
      15      2.500      -1       2 
      16      0.000      -1       2 
      17      0.000      -1       2 
      18      2.500      -1       2 
      19      2.500      -1       2 
      20      2.500      -1       2 

Atoms 

     1      1      1 0.20160000    1.000  1.00000  0.00000
     2      1      2 -0.19160000   -0.097  1.00000  0.00000
     3      1      3 0.13010000   -0.973  1.00000  1.51598
     4      1      4 -0.17260000   -0.974  0.99862 -1.09499
     5      1      5 -0.16150000   -2.531  1.00224  0.67781
     6      1      6 0.18120000   -0.619  0.99730 -2.13503
     7      1      7 -0.10600000   -2.331  0.99746 -0.71912
     8      1      8 0.43130000   -3.740  1.00981  1.45224
     9      1      9 0.17920000   -3.168  0.99441 -1.43119
    10      1     10 -0.29850000   -3.875  1.01606  2.85635
    11      1     11 -0.75840000   -5.031  1.01090  0.92213
    12      1     12 -0.29740000   -5.259  1.02079  3.19597
    13      1     13 0.62830000   -3.095  1.02051  4.08174
    14      1     14 0.62750000   -6.038  1.01757  1.96928
    15      1     15 0.03650000   -5.451  1.00783 -0.46120
    16      1     16 0.43080000   -5.394  1.02863  4.60129
    17      1     17 -0.42740000   -1.888  1.02018  4.31862
    18      1     18 -0.75810000   -4.101  1.02797  5.12863
    19      1     19 -0.42790000   -7.246  1.01812  1.72933
    20      1     20 0.10940000   -5.095  0.10222 -0.99474
    21      1     21 0.10940000   -5.090  1.90814 -1.00029
    22      1     22 0.10940000   -6.559  1.00995 -0.44695
    23      1     23 -0.16060000   -6.603  1.03740  5.37331
    24      1     24 0.03600000   -3.679  1.03192  6.51107
    25      1     25 0.12900000   -8.163  1.03921  4.53837
    26      1     26 -0.10670000   -6.800  1.04678  6.76832
    27      1     27 0.10930000   -4.039  0.13121  7.05086
    28      1     28 0.10930000   -4.037  1.93717  7.04498
    29      1     29 0.10930000   -2.572  1.02935  6.49635
    30      1     30 -0.19030000   -9.038  1.05276  6.05621
    31      1     31 0.17930000   -5.959  1.04847  7.47646
    32      1     32 -0.17290000   -8.155  1.05521  7.14797
    33      1     33 0.20210000  -10.135  1.05926  6.05747
    34      1     34 0.18100000   -8.504  1.06182  8.19028

Bonds 

     1      1      2      1
     2      2      3      2
     3      3      4      2
     4      4      5      3
     5      5      6      4
     6      6      7      4
     7      7      8      5
     8      8      9      7
     9      9     10      8
    10     10     11      8
    11     11     12     10
    12     12     13     10
    13     13     14     11
    14     14     15     11
    15     15     16     12
    16     16     17     13
    17     17     18     13
    18     18     19     14
    19     19     20     15
    20     20     21     15
    21     21     22     15
    22     22     23     16
    23     23     24     18
    24     24     25     23
    25     25     26     23
    26     26     27     24
    27     27     28     24
    28     28     29     24
    29     29     30     25
    30     30     31     26
    31     31     32     26
    32     32     33     30
    33     33     34     32
    34     34      7      5
    35     35     14     12
    36     36     18     16
    37     37     32     30

Angles 

     1      1      1      2      3
     2      2      1      2      4
     3      3      2      3      5
     4      4      2      4      6
     5      5      2      4      7
     6      6      3      5      8
     7      7      4      7      9
     8      8      5      8     10
     9      9      5      8     11
    10     10      8     10     12
    11     11      8     10     13
    12     12      8     11     14
    13     13      8     11     15
    14     14     10     12     16
    15     15     10     13     17
    16     16     10     13     18
    17     17     11     14     19
    18     18     11     15     20
    19     19     11     15     21
    20     20     11     15     22
    21     21     12     16     23
    22     22     13     18     24
    23     23     16     23     25
    24     24     16     23     26
    25     25     18     24     27
    26     26     18     24     28
    27     27     18     24     29
    28     28     23     25     30
    29     29     23     26     31
    30     30     23     26     32
    31     31     25     30     33
    32     32     26     32     34
    33     33     18     16     23
    34     34     26     32     30
    35     35     10      8     11
    36     36     14     11     15
    37     37      3      5      7
    38     38     31     26     32
    39     39     30     32     34
    40     40     28     24     29
    41     41      6      4      7
    42     42     21     15     22
    43     43     20     15     21
    44     44     20     15     22
    45     45     12     10     13
    46     46     16     18     24
    47     47     27     24     29
    48     48     27     24     28
    49     49     12     16     18
    50     50      3      2      4
    51     51     11     14     12
    52     52     12     14     19
    53     53     13     18     16
    54     54      5      7      9
    55     55     25     30     32
    56     56     32     30     33
    57     57     10     12     14
    58     58      7      5      8
    59     59     14     12     16
    60     60      4      7      5
    61     61     25     23     26
    62     62     17     13     18

Dihedrals

     1      1      5      3      2      1 
     2      2      6      4      2      1 
     3      3     10      8      5      3 
     4      4     12     10      8      5 
     5      5     14     11      8      5 
     6      6     17     13     10      8 
     7      7     20     15     11      8 
     8      8     25     23     16     12 
     9      9     27     24     18     13 
    10     10     30     25     23     16 
    11     11     31     26     23     16 
    12     12     19     14     11      8 
    13     13     15     11     14     12 
    14     14     13     18     16     12 
    15     15     31     26     32     30 
    16     16     23     16     12     10 
    17     17     18     13     10     12 
    18     18     19     14     12     10 
    19     19     34     32     26     31 
    20     20     17     13     18     16 
    21     21     16     12     10      8 
    22     22     14     12     10     13 
    23     23     12     10      8     11 
    24     24      5      3      2      4 
    25     25     14     11      8     10 
    26     26     10      8      5      7 
    27     27     12     14     11      8 
    28     28     21     15     11     14 
    29     29      7      4      2      1 
    30     30     25     23     16     18 
    31     31      8      5      3      2 
    32     32     24     18     16     23 
    33     33     22     15     11      8 
    34     34     32     26     23     16 
    35     35     32     26     23     25 
    36     36     11      8      5      3 
    37     37     24     18     13     10 
    38     38     33     30     32     26 
    39     39     16     18     13     10 
    40     40     15     11      8      5 
    41     41     27     24     18     16 
    42     42      6      4      7      5 
    43     43      6      4      2      3 
    44     44     24     18     16     12 
    45     45     11      8      5      7 
    46     46     13     10      8     11 
    47     47     32     30     25     23 
    48     48     34     32     30     33 
    49     49     26     32     30     25 
    50     50     16     12     14     11 
    51     51      7      4      2      3 
    52     52     23     16     18     13 
    53     53     34     32     30     25 
    54     54     34     32     26     23 
    55     55     18     16     12     14 
    56     56     18     13     10      8 
    57     57     17     13     10     12 
    58     58      7      5      3      2 
    59     59      9      7      4      6 
    60     60     16     12     10     13 
    61     61     28     24     18     16 
    62     62     19     14     11     15 
    63     63      9      7      5      8 
    64     64     26     23     16     18 
    65     65     11     14     12     10 
    66     66     13     10      8      5 
    67     67     21     15     11      8 
    68     68     30     25     23     26 
    69     69     28     24     18     13 
    70     70      4      7      5      3 
    71     71     19     14     12     16 
    72     72     22     15     11     14 
    73     73     14     12     10      8 
    74     74     29     24     18     16 
    75     75     23     16     12     14 
    76     76      9      7      4      2 
    77     77     33     30     25     23 
    78     78     15     11      8     10 
    79     79     30     32     26     23 
    80     80     29     24     18     13 
    81     81     31     26     23     25 
    82     82     24     18     13     17 
    83     83      5      7      4      2 
    84     84     26     23     16     12 
    85     85      9      7      5      3 
    86     86      8      5      7      4 
    87     87     20     15     11     14 
    88     88     18     16     12     10 

Impropers

     1      1      2      1      3      4 
     2      2      4      2      6      7 
     3      3      5      3      7      8 
     4      4      7      9      4      5 
     5      5      8     10     11      5 
     6      6     10     12     13      8 
     7      7     11     14     15      8 
     8      8     12     10     14     16 
     9      9     13     17     18     10 
    10     10     14     12     19     11 
    11     11     15     11     20     21 
    12     12     15     11     20     22 
    13     13     16     18     12     23 
    14     14     18     16     13     24 
    15     15     23     25     26     16 
    16     16     24     18     27     28 
    17     17     24     18     27     29 
    18     18     26     31     23     32 
    19     19     30     33     25     32 
    20     20     32     34     26     30 

