LAMMPS data file Created by LigParGen - (Written by Leela S. Dodda)

      46 atoms
      51 bonds
      86 angles
     128 dihedrals
      28 impropers
 
      46 atom types
      51 bond types
      86 angle types
     128 dihedral types
      28 improper types
 
  -12.999180    37.000820 xlo xhi
   -1.210980    48.789020 ylo yhi
   -2.657300    47.342700 zlo zhi

Masses

       1      1.008  
       2     12.011  
       3     32.060  
       4     12.011  
       5     12.011  
       6      1.008  
       7     12.011  
       8     12.011  
       9      1.008  
      10     12.011  
      11     12.011  
      12     12.011  
      13     12.011  
      14      1.008  
      15     12.011  
      16     12.011  
      17     12.011  
      18     15.999  
      19     14.007  
      20     12.011  
      21     12.011  
      22     12.011  
      23     12.011  
      24     12.011  
      25     15.999  
      26     14.007  
      27      1.008  
      28     12.011  
      29     15.999  
      30     12.011  
      31      1.008  
      32      1.008  
      33      1.008  
      34     12.011  
      35     12.011  
      36     15.999  
      37      1.008  
      38      1.008  
      39      1.008  
      40     32.060  
      41     12.011  
      42     12.011  
      43      1.008  
      44     12.011  
      45      1.008  
      46      1.008  

Pair Coeffs 

       1      0.030  2.4200000 
       2      0.070  3.5500000 
       3      0.355  3.6000000 
       4      0.070  3.5500000 
       5      0.070  3.5500000 
       6      0.030  2.4200000 
       7      0.070  3.5500000 
       8      0.070  3.5500000 
       9      0.030  2.4200000 
      10      0.080  3.5000000 
      11      0.076  3.5500000 
      12      0.080  3.5000000 
      13      0.070  3.5500000 
      14      0.030  2.4200000 
      15      0.080  3.5000000 
      16      0.080  3.5000000 
      17      0.080  3.5000000 
      18      0.210  2.9600000 
      19      0.170  3.2500000 
      20      0.070  3.5500000 
      21      0.076  3.5500000 
      22      0.070  3.5500000 
      23      0.080  3.5000000 
      24      0.066  3.5000000 
      25      0.210  2.9600000 
      26      0.170  3.2500000 
      27      0.030  2.4200000 
      28      0.070  3.5500000 
      29      0.210  2.9600000 
      30      0.070  3.5500000 
      31      0.030  2.5000000 
      32      0.030  2.5000000 
      33      0.030  2.5000000 
      34      0.066  3.5000000 
      35      0.070  3.5500000 
      36      0.210  2.9600000 
      37      0.030  2.5000000 
      38      0.030  2.5000000 
      39      0.030  2.5000000 
      40      0.355  3.6000000 
      41      0.070  3.5500000 
      42      0.070  3.5500000 
      43      0.030  2.4200000 
      44      0.070  3.5500000 
      45      0.030  2.4200000 
      46      0.030  2.4200000 

Bond Coeffs 

       1   367.0000     1.0800 
       2   250.0000     1.7400 
       3   546.0000     1.3670 
       4   250.0000     1.7400 
       5   367.0000     1.0800 
       6   469.0000     1.4240 
       7   385.0000     1.4600 
       8   367.0000     1.0800 
       9   469.0000     1.4000 
      10   385.0000     1.4600 
      11   520.0000     1.3700 
      12   447.0000     1.4190 
      13   412.5200     1.0500 
      14   427.0000     1.4330 
      15   520.0000     1.3700 
      16   520.0000     1.3700 
      17   570.0000     1.2290 
      18   418.0000     1.3880 
      19   447.0000     1.4190 
      20   427.0000     1.4330 
      21   447.0000     1.4190 
      22   520.0000     1.3700 
      23   337.0000     1.4750 
      24   570.0000     1.2290 
      25   418.0000     1.3880 
      26   412.5200     1.0500 
      27   427.0000     1.4330 
      28   570.0000     1.2290 
      29   447.0000     1.4190 
      30   340.0000     1.0900 
      31   340.0000     1.0900 
      32   340.0000     1.0900 
      33   337.0000     1.4750 
      34   385.0000     1.4600 
      35   570.0000     1.2290 
      36   340.0000     1.0900 
      37   340.0000     1.0900 
      38   340.0000     1.0900 
      39   250.0000     1.7400 
      40   546.0000     1.3670 
      41   250.0000     1.7400 
      42   367.0000     1.0800 
      43   469.0000     1.4240 
      44   367.0000     1.0800 
      45   367.0000     1.0800 
      46   546.0000     1.3670 
      47   520.0000     1.3700 
      48   418.0000     1.3880 
      49   469.0000     1.4000 
      50   418.0000     1.3880 
      51   546.0000     1.3670 

Angle Coeffs 

       1     35.000    125.000
       2     35.000    132.100
       3     74.000     97.000
       4     35.000    125.700
       5     70.000    107.300
       6     70.000    111.170
       7     35.000    127.500
       8     63.000    120.000
       9     64.270    120.730
      10     85.000    117.300
      11     85.000    120.000
      12     60.000    122.260
      13     60.000    122.260
      14     85.000    117.300
      15     85.000    117.300
      16     80.000    128.800
      17     70.000    111.300
      18     77.270    119.730
      19     70.000    124.000
      20     85.000    119.200
      21     85.000    117.300
      22     63.000    112.400
      23     80.000    128.800
      24     70.000    111.300
      25     60.000    122.260
      26     60.000    122.260
      27     80.000    128.800
      28     85.000    119.200
      29     35.000    109.500
      30     35.000    109.500
      31     35.000    109.500
      32     63.000    112.400
      33     64.270    120.730
      34     80.000    128.800
      35     35.000    109.500
      36     35.000    109.500
      37     35.000    109.500
      38     70.000    111.170
      39     70.000    132.100
      40     74.000     97.000
      41     35.000    125.700
      42     70.000    107.300
      43     35.000    125.000
      44     35.000    127.500
      45     33.000    107.800
      46     70.000    126.400
      47     80.000    120.600
      48     70.000    126.400
      49     80.000    120.600
      50     70.000    111.300
      51     35.000    125.700
      52     33.000    107.800
      53     70.000    107.300
      54     70.000    111.170
      55     70.000    124.000
      56     77.270    119.730
      57     33.000    107.800
      58     70.000    124.000
      59     70.000    111.170
      60     85.000    117.300
      61     60.000    122.260
      62     70.000    111.300
      63     70.000    124.000
      64     70.000    132.100
      65     80.000    120.600
      66     85.000    117.300
      67     33.000    107.800
      68     35.000    132.100
      69     35.000    127.500
      70     63.000    120.000
      71     85.000    120.000
      72     63.000    112.400
      73     70.000    107.300
      74     85.000    117.300
      75     80.000    120.600
      76     85.000    117.300
      77     60.000    122.260
      78     70.000    111.170
      79     35.000    127.500
      80     85.000    119.200
      81     63.000    112.400
      82     33.000    107.800
      83     33.000    107.800
      84     35.000    125.700
      85     70.000    111.170
      86     85.000    119.200

Dihedral Coeffs  

       1      0.000      7.250      0.000      0.000 
       2      0.000      7.250      0.000      0.000 
       3      0.000      2.170      0.000      0.000 
       4      0.000      7.250      0.000      0.000 
       5      0.000      7.250      0.000      0.000 
       6      0.000      7.250      0.000      0.000 
       7      0.000      7.000      0.000      0.000 
       8      0.000      7.250      0.000      0.000 
       9      0.000      7.000      0.000      0.000 
      10      0.000      0.000     -0.372      0.000 
      11      0.000      0.000      0.000      0.000 
      12      0.000      0.000      0.000      0.000 
      13      0.000      2.170      0.000      0.000 
      14      0.000      0.000      0.000      0.000 
      15      0.000      7.250      0.000      0.000 
      16      0.000      7.000      0.000      0.000 
      17      0.000      7.250      0.000      0.000 
      18      0.000      7.250      0.000      0.000 
      19      0.000      7.250      0.000      0.000 
      20      0.000      7.250      0.000      0.000 
      21      0.000      4.900      0.000      0.000 
      22      0.000      7.250      0.000      0.000 
      23      0.000      7.250      0.000      0.000 
      24      0.000      7.250      0.000      0.000 
      25      0.000      7.000      0.000      0.000 
      26      0.000      4.900      0.000      0.000 
      27      0.000      7.250      0.000      0.000 
      28      0.000      7.000      0.000      0.000 
      29      0.000      7.250      0.000      0.000 
      30      0.000      4.900      0.000      0.000 
      31      0.000      7.000      0.000      0.000 
      32      0.000      7.250      0.000      0.000 
      33      0.000      0.000      0.000      0.000 
      34      0.000      4.900      0.000      0.000 
      35      0.000      2.170      0.000      0.000 
      36      0.000      4.900      0.000      0.000 
      37      0.000      4.900      0.000      0.000 
      38      0.000      2.170      0.000      0.000 
      39      0.000      7.250      0.000      0.000 
      40      0.000      0.000      0.000      0.000 
      41      0.000      7.250      0.000      0.000 
      42      0.000      4.900      0.000      0.000 
      43      0.000      0.000      0.000      0.000 
      44      0.000      7.000      0.000      0.000 
      45      0.000      0.000      0.000      0.000 
      46      0.000      4.900      0.000      0.000 
      47      0.000      4.900      0.000      0.000 
      48      0.000      7.250      0.000      0.000 
      49      0.000      2.100      0.000      0.000 
      50      0.000      0.000      0.000      0.000 
      51      0.000      7.250      0.000      0.000 
      52      0.000      7.250      0.000      0.000 
      53      0.000      0.000      0.000      0.000 
      54      0.000      7.250      0.000      0.000 
      55      0.000      0.000      0.000      0.000 
      56      0.000      2.170      0.000      0.000 
      57      0.000      2.170      0.000      0.000 
      58      0.000      2.170      0.000      0.000 
      59      0.000      7.250      0.000      0.000 
      60      0.000      7.250      0.000      0.000 
      61      0.000      2.170      0.000      0.000 
      62      0.000      2.170      0.000      0.000 
      63      0.000      2.170      0.000      0.000 
      64      0.000      7.250      0.000      0.000 
      65      0.000      7.250      0.000      0.000 
      66      0.000      0.000      0.000      0.000 
      67      0.000      7.250      0.000      0.000 
      68      0.000      4.900      0.000      0.000 
      69      0.000      7.250      0.000      0.000 
      70      0.000      7.250      0.000      0.000 
      71      0.000      0.000      0.000      0.000 
      72      0.000      7.000      0.000      0.000 
      73      0.000      7.250      0.000      0.000 
      74      0.000      2.170      0.000      0.000 
      75      0.000      7.250      0.000      0.000 
      76      0.000      2.170      0.000      0.000 
      77      0.000      7.250      0.000      0.000 
      78      0.000      7.000      0.000      0.000 
      79      0.000      7.000      0.000      0.000 
      80      0.000      4.900      0.000      0.000 
      81      0.000      2.100      0.000      0.000 
      82      0.000      7.000      0.000      0.000 
      83      0.000      4.900      0.000      0.000 
      84      0.000      7.000      0.000      0.000 
      85      0.000      0.000      0.000      0.000 
      86      0.000      7.000      0.000      0.000 
      87      0.000      7.250      0.000      0.000 
      88      0.000      7.250      0.000      0.000 
      89      0.000      0.000      0.000      0.000 
      90      0.000      2.170      0.000      0.000 
      91      0.000      7.250      0.000      0.000 
      92      0.000      7.250      0.000      0.000 
      93      0.000      7.250      0.000      0.000 
      94      0.000      7.000      0.000      0.000 
      95      0.000      7.250      0.000      0.000 
      96      0.000      7.250      0.000      0.000 
      97      0.000      2.170      0.000      0.000 
      98      0.000      7.250      0.000      0.000 
      99      0.000      0.000      0.000      0.000 
     100      0.000      4.900      0.000      0.000 
     101      0.000      0.000     -0.372      0.000 
     102      0.000      7.250      0.000      0.000 
     103      0.000      0.000      0.000      0.000 
     104      0.000      7.250      0.000      0.000 
     105      0.000      7.250      0.000      0.000 
     106      0.000      7.000      0.000      0.000 
     107      0.000      7.250      0.000      0.000 
     108      0.000      2.100      0.000      0.000 
     109      0.000      7.250      0.000      0.000 
     110      0.000      7.250      0.000      0.000 
     111      0.000      7.000      0.000      0.000 
     112      0.000      0.000      0.000      0.000 
     113      0.000      0.000     -0.372      0.000 
     114      0.000      4.900      0.000      0.000 
     115      0.000      7.250      0.000      0.000 
     116      0.000      2.100      0.000      0.000 
     117      0.000      7.250      0.000      0.000 
     118      0.000      2.170      0.000      0.000 
     119      0.000      4.900      0.000      0.000 
     120      0.000      7.250      0.000      0.000 
     121      0.000      4.900      0.000      0.000 
     122      0.000      0.000      0.000      0.000 
     123      0.000      7.250      0.000      0.000 
     124      0.000      7.250      0.000      0.000 
     125      0.000      7.250      0.000      0.000 
     126      0.000      2.170      0.000      0.000 
     127      0.000      7.250      0.000      0.000 
     128      0.000      0.000     -0.372      0.000 

Improper Coeffs 

       1      2.500      -1       2 
       2      2.500      -1       2 
       3      2.500      -1       2 
       4      2.500      -1       2 
       5      2.500      -1       2 
       6      2.500      -1       2 
       7      2.500      -1       2 
       8      2.500      -1       2 
       9     10.500      -1       2 
      10      2.500      -1       2 
      11      2.500      -1       2 
      12      2.500      -1       2 
      13      0.000      -1       2 
      14     10.500      -1       2 
      15      2.500      -1       2 
      16     10.500      -1       2 
      17      2.500      -1       2 
      18      0.000      -1       2 
      19      0.000      -1       2 
      20      0.000      -1       2 
      21      2.500      -1       2 
      22     10.500      -1       2 
      23      0.000      -1       2 
      24      0.000      -1       2 
      25      2.500      -1       2 
      26      2.500      -1       2 
      27      2.500      -1       2 
      28      2.500      -1       2 

Atoms 

     1      1      1 0.20380000    1.000  1.00000  0.00000
     2      1      2 -0.18790000   -0.096  1.00000  0.00000
     3      1      3 0.03470000   -0.979  1.00000  1.50279
     4      1      4 -0.17720000   -0.981  0.99863 -1.08689
     5      1      5 -0.16080000   -2.556  0.99775  0.67840
     6      1      6 0.18500000   -0.635  0.99731 -2.13027
     7      1      7 -0.08140000   -2.338  1.00073 -0.70936
     8      1      8 0.11690000   -3.760  0.93367  1.51490
     9      1      9 0.22310000   -3.168  1.00325 -1.43095
    10      1     10 -0.10120000   -5.138  0.84618  1.12038
    11      1     11 -0.09440000   -3.523  0.87931  2.92402
    12      1     12 0.00110000   -6.143  0.56485  2.10562
    13      1     13 0.64470000   -5.618  1.12852 -0.26406
    14      1     14 0.19610000   -2.497  1.01655  3.30020
    15      1     15 -0.11030000   -4.499  0.66189  3.88032
    16      1     16 -0.10690000   -7.500  0.35056  1.72923
    17      1     17 0.00360000   -5.859  0.47977  3.50835
    18      1     18 -0.41080000   -4.941  1.67325 -1.13452
    19      1     19 -0.93490000   -6.936  0.74970 -0.60491
    20      1     20 0.64180000   -4.063  0.62640  5.29858
    21      1     21 -0.09590000   -8.475  0.13340  2.68591
    22      1     22 0.64760000   -7.929  0.35156  0.30818
    23      1     23 -0.10510000   -6.869  0.22857  4.49617
    24      1     24 0.05850000   -7.310  0.92147 -2.01094
    25      1     25 -0.40240000   -2.914  0.88010  5.65437
    26      1     26 -0.91580000   -5.052  0.22252  6.20471
    27      1     27 0.19710000   -9.498 -0.02187  2.30674
    28      1     28 0.12260000   -8.239  0.10135  4.09579
    29      1     29 -0.40300000   -9.074  0.07674 -0.04650
    30      1     30 0.64320000   -6.397  0.01121  5.89449
    31      1     31 0.11570000   -6.596  0.37830 -2.65730
    32      1     32 0.11570000   -7.272  1.99265 -2.28852
    33      1     33 0.11570000   -8.332  0.52388 -2.12920
    34      1     34 0.05440000   -4.639 -0.12617  7.56643
    35      1     35 -0.16700000   -9.444  0.00321  4.92852
    36      1     36 -0.42590000   -7.122 -0.35125  6.82079
    37      1     37 0.11720000   -5.266  0.41681  8.29838
    38      1     38 0.11720000   -4.776 -1.21098  7.74141
    39      1     39 0.11720000   -3.578  0.15491  7.66898
    40      1     40 0.03100000  -11.014 -0.06213  4.09521
    41      1     41 -0.08440000   -9.667  0.01047  6.31486
    42      1     42 -0.18680000  -11.904 -0.08323  5.59422
    43      1     43 0.24050000   -8.840  0.04543  7.03887
    44      1     44 -0.17950000  -11.026 -0.02887  6.68428
    45      1     45 0.20310000  -12.999 -0.13219  5.58744
    46      1     46 0.18440000  -11.376 -0.01951  7.72649

Bonds 

     1      1      2      1
     2      2      3      2
     3      3      4      2
     4      4      5      3
     5      5      6      4
     6      6      7      4
     7      7      8      5
     8      8      9      7
     9      9     10      8
    10     10     11      8
    11     11     12     10
    12     12     13     10
    13     13     14     11
    14     14     15     11
    15     15     16     12
    16     16     17     12
    17     17     18     13
    18     18     19     13
    19     19     20     15
    20     20     21     16
    21     21     22     16
    22     22     23     17
    23     23     24     19
    24     24     25     20
    25     25     26     20
    26     26     27     21
    27     27     28     21
    28     28     29     22
    29     29     30     23
    30     30     31     24
    31     31     32     24
    32     32     33     24
    33     33     34     26
    34     34     35     28
    35     35     36     30
    36     36     37     34
    37     37     38     34
    38     38     39     34
    39     39     40     35
    40     40     41     35
    41     41     42     40
    42     42     43     41
    43     43     44     41
    44     44     45     42
    45     45     46     44
    46     46      7      5
    47     47     17     15
    48     48     22     19
    49     49     28     23
    50     50     30     26
    51     51     44     42

Angles 

     1      1      1      2      3
     2      2      1      2      4
     3      3      2      3      5
     4      4      2      4      6
     5      5      2      4      7
     6      6      3      5      8
     7      7      4      7      9
     8      8      5      8     10
     9      9      5      8     11
    10     10      8     10     12
    11     11      8     10     13
    12     12      8     11     14
    13     13      8     11     15
    14     14     10     12     16
    15     15     10     12     17
    16     16     10     13     18
    17     17     10     13     19
    18     18     11     15     20
    19     19     12     16     21
    20     20     12     16     22
    21     21     12     17     23
    22     22     13     19     24
    23     23     15     20     25
    24     24     15     20     26
    25     25     16     21     27
    26     26     16     21     28
    27     27     16     22     29
    28     28     17     23     30
    29     29     19     24     31
    30     30     19     24     32
    31     31     19     24     33
    32     32     20     26     34
    33     33     21     28     35
    34     34     23     30     36
    35     35     26     34     37
    36     36     26     34     38
    37     37     26     34     39
    38     38     28     35     40
    39     39     28     35     41
    40     40     35     40     42
    41     41     35     41     43
    42     42     35     41     44
    43     43     40     42     45
    44     44     41     44     46
    45     45     31     24     32
    46     46     20     26     30
    47     47     19     22     29
    48     48     13     19     22
    49     49     25     20     26
    50     50     16     22     19
    51     51      5      7      9
    52     52     37     34     38
    53     53     41     44     42
    54     54     40     42     44
    55     55     10      8     11
    56     56     21     16     22
    57     57     32     24     33
    58     58     21     28     23
    59     59      3      2      4
    60     60     15     17     23
    61     61     27     21     28
    62     62     23     30     26
    63     63     11     15     17
    64     64      7      5      8
    65     65     18     13     19
    66     66     17     23     28
    67     67     38     34     39
    68     68     44     42     45
    69     69     43     41     44
    70     70     23     28     35
    71     71     28     23     30
    72     72     30     26     34
    73     73      4      7      5
    74     74     16     12     17
    75     75     26     30     36
    76     76     12     17     15
    77     77     14     11     15
    78     78      3      5      7
    79     79      6      4      7
    80     80     12     10     13
    81     81     22     19     24
    82     82     37     34     39
    83     83     31     24     33
    84     84     42     44     46
    85     85     40     35     41
    86     86     17     15     20

Dihedrals

     1      1      5      3      2      1 
     2      2      6      4      2      1 
     3      3     10      8      5      3 
     4      4     12     10      8      5 
     5      5     14     11      8      5 
     6      6     16     12     10      8 
     7      7     18     13     10      8 
     8      8     21     16     12     10 
     9      9     25     20     15     11 
    10     10     27     21     16     12 
    11     11     31     24     19     13 
    12     12     37     34     26     20 
    13     13     40     35     28     21 
    14     14     42     40     35     28 
    15     15     43     41     35     28 
    16     16     26     30     23     17 
    17     17     30     23     28     21 
    18     18     46     44     41     43 
    19     19     23     17     12     16 
    20     20     17     12     10     13 
    21     21     34     26     20     15 
    22     22     45     42     40     35 
    23     23     12     10      8     11 
    24     24     28     21     16     12 
    25     25     36     30     23     17 
    26     26     24     19     22     16 
    27     27     20     15     17     12 
    28     28     18     13     10     12 
    29     29     43     41     35     40 
    30     30     22     19     13     10 
    31     31     25     20     15     17 
    32     32     35     28     21     27 
    33     33     31     24     19     22 
    34     34     22     19     13     18 
    35     35     23     28     21     16 
    36     36     24     19     13     18 
    37     37     23     30     26     20 
    38     38     41     35     28     21 
    39     39     15     17     12     10 
    40     40      5      3      2      4 
    41     41     28     21     16     22 
    42     42     34     26     30     23 
    43     43     38     34     26     20 
    44     44     21     16     22     19 
    45     45     38     34     26     30 
    46     46     36     30     26     20 
    47     47     34     26     20     25 
    48     48     21     28     23     17 
    49     49     41     44     42     40 
    50     50     37     34     26     30 
    51     51      7      4      2      1 
    52     52     28     23     17     15 
    53     53      8      5      3      2 
    54     54     21     16     12     17 
    55     55     32     24     19     13 
    56     56     44     41     35     28 
    57     57     35     28     21     16 
    58     58     11      8      5      3 
    59     59     20     15     11      8 
    60     60     30     23     17     15 
    61     61     15     11      8     10 
    62     62     15     11      8      5 
    63     63     10      8      5      7 
    64     64     46     44     42     40 
    65     65     45     42     44     41 
    66     66     39     34     26     30 
    67     67      6      4      7      5 
    68     68     30     26     20     25 
    69     69      9      7      4      2 
    70     70      6      4      2      3 
    71     71     33     24     19     22 
    72     72     28     23     30     26 
    73     73     14     11      8     10 
    74     74     11      8      5      7 
    75     75     13     10      8     11 
    76     76     41     35     28     23 
    77     77     35     28     23     17 
    78     78     26     20     15     11 
    79     79     29     22     16     21 
    80     80     30     26     20     15 
    81     81      7      4      2      3 
    82     82     26     20     15     17 
    83     83     24     19     13     10 
    84     84     19     22     16     12 
    85     85     33     24     19     13 
    86     86     29     22     16     12 
    87     87     22     16     12     17 
    88     88     27     21     28     23 
    89     89      7      5      3      2 
    90     90     42     44     41     35 
    91     91     22     16     12     10 
    92     92     46     44     41     35 
    93     93     16     12     17     15 
    94     94     19     13     10     12 
    95     95      9      7      4      6 
    96     96     16     12     10     13 
    97     97     40     35     28     23 
    98     98      9      7      5      8 
    99     99     32     24     19     22 
   100    100     16     22     19     13 
   101    101     17     15     11     14 
   102    102     17     12     10      8 
   103    103     44     42     40     35 
   104    104     13     10      8      5 
   105    105     30     23     17     12 
   106    106     36     30     23     28 
   107    107     35     28     23     30 
   108    108      4      7      5      3 
   109    109     23     17     15     11 
   110    110     23     17     15     20 
   111    111     19     13     10      8 
   112    112     42     40     35     41 
   113    113     27     21     16     22 
   114    114     36     30     26     34 
   115    115     46     44     42     45 
   116    116     44     41     35     40 
   117    117     43     41     44     42 
   118    118      5      7      4      2 
   119    119     29     22     19     13 
   120    120     28     23     17     12 
   121    121     29     22     19     24 
   122    122     39     34     26     20 
   123    123     23     17     12     10 
   124    124     12     17     15     11 
   125    125      9      7      5      3 
   126    126      8      5      7      4 
   127    127     17     15     11      8 
   128    128     20     15     11     14 

Impropers

     1      1      2      1      3      4 
     2      2      4      2      6      7 
     3      3      5      3      7      8 
     4      4      7      9      4      5 
     5      5      8     10     11      5 
     6      6     10     12     13      8 
     7      7     11     14     15      8 
     8      8     12     17     10     16 
     9      9     13     10     19     18 
    10     10     15     17     11     20 
    11     11     16     12     21     22 
    12     12     17     12     15     23 
    13     13     19     13     22     24 
    14     14     20     25     26     15 
    15     15     21     27     28     16 
    16     16     22     19     29     16 
    17     17     23     17     28     30 
    18     18     24     19     31     32 
    19     19     24     33     19     31 
    20     20     26     34     20     30 
    21     21     28     35     21     23 
    22     22     30     26     36     23 
    23     23     34     37     38     26 
    24     24     34     37     39     26 
    25     25     35     41     28     40 
    26     26     41     35     44     43 
    27     27     42     44     45     40 
    28     28     44     41     42     46 

