LAMMPS data file Created by LigParGen - (Written by Leela S. Dodda)

      39 atoms
      43 bonds
      73 angles
     108 dihedrals
      24 impropers
 
      39 atom types
      43 bond types
      73 angle types
     108 dihedral types
      24 improper types
 
  -10.352730    39.647270 xlo xhi
   -1.079770    48.920230 ylo yhi
   -7.368750    42.631250 zlo zhi

Masses

       1      1.008  
       2     12.011  
       3     12.011  
       4     12.011  
       5      1.008  
       6     32.060  
       7      1.008  
       8     12.011  
       9     12.011  
      10     12.011  
      11     12.011  
      12      1.008  
      13     12.011  
      14     12.011  
      15     12.011  
      16     12.011  
      17     12.011  
      18     12.011  
      19     15.999  
      20     14.007  
      21     12.011  
      22     15.999  
      23     14.007  
      24     12.011  
      25     12.011  
      26     12.011  
      27     12.011  
      28     12.011  
      29     12.011  
      30      1.008  
      31     15.999  
      32      1.008  
      33      1.008  
      34      1.008  
      35      1.008  
      36     15.999  
      37      1.008  
      38      1.008  
      39      1.008  

Pair Coeffs 

       1      0.030  2.4200000 
       2      0.070  3.5500000 
       3      0.070  3.5500000 
       4      0.070  3.5500000 
       5      0.030  2.4200000 
       6      0.355  3.6000000 
       7      0.030  2.4200000 
       8      0.070  3.5500000 
       9      0.070  3.5500000 
      10      0.076  3.5500000 
      11      0.080  3.5000000 
      12      0.030  2.4200000 
      13      0.080  3.5000000 
      14      0.080  3.5000000 
      15      0.070  3.5500000 
      16      0.080  3.5000000 
      17      0.070  3.5500000 
      18      0.080  3.5000000 
      19      0.210  2.9600000 
      20      0.170  3.2500000 
      21      0.080  3.5000000 
      22      0.210  2.9600000 
      23      0.170  3.2500000 
      24      0.076  3.5500000 
      25      0.070  3.5500000 
      26      0.066  3.5000000 
      27      0.076  3.5500000 
      28      0.070  3.5500000 
      29      0.066  3.5000000 
      30      0.030  2.4200000 
      31      0.210  2.9600000 
      32      0.030  2.5000000 
      33      0.030  2.5000000 
      34      0.030  2.5000000 
      35      0.030  2.4200000 
      36      0.210  2.9600000 
      37      0.030  2.5000000 
      38      0.030  2.5000000 
      39      0.030  2.5000000 

Bond Coeffs 

       1   367.0000     1.0800 
       2   546.0000     1.3670 
       3   469.0000     1.4240 
       4   367.0000     1.0800 
       5   250.0000     1.7400 
       6   367.0000     1.0800 
       7   546.0000     1.3670 
       8   385.0000     1.4600 
       9   385.0000     1.4600 
      10   469.0000     1.4000 
      11   412.5200     1.0500 
      12   427.0000     1.4330 
      13   520.0000     1.3700 
      14   447.0000     1.4190 
      15   520.0000     1.3700 
      16   447.0000     1.4190 
      17   520.0000     1.3700 
      18   570.0000     1.2290 
      19   418.0000     1.3880 
      20   520.0000     1.3700 
      21   570.0000     1.2290 
      22   418.0000     1.3880 
      23   427.0000     1.4330 
      24   447.0000     1.4190 
      25   337.0000     1.4750 
      26   427.0000     1.4330 
      27   447.0000     1.4190 
      28   337.0000     1.4750 
      29   412.5200     1.0500 
      30   570.0000     1.2290 
      31   340.0000     1.0900 
      32   340.0000     1.0900 
      33   340.0000     1.0900 
      34   412.5200     1.0500 
      35   570.0000     1.2290 
      36   340.0000     1.0900 
      37   340.0000     1.0900 
      38   340.0000     1.0900 
      39   250.0000     1.7400 
      40   520.0000     1.3700 
      41   418.0000     1.3880 
      42   418.0000     1.3880 
      43   549.0000     1.3450 

Angle Coeffs 

       1     35.000    125.700
       2     35.000    127.500
       3     35.000    132.100
       4     70.000    111.170
       5     35.000    127.500
       6     70.000    107.300
       7     70.000    132.100
       8     64.270    120.730
       9     63.000    120.000
      10     60.000    122.260
      11     60.000    122.260
      12     85.000    117.300
      13     85.000    120.000
      14     70.000    124.000
      15     77.270    119.730
      16     85.000    117.300
      17     80.000    128.800
      18     70.000    111.300
      19     85.000    117.300
      20     80.000    128.800
      21     70.000    111.300
      22     70.000    124.000
      23     85.000    119.200
      24     63.000    112.400
      25     70.000    124.000
      26     85.000    119.200
      27     63.000    112.400
      28     60.000    122.260
      29     80.000    128.800
      30     35.000    109.500
      31     35.000    109.500
      32     35.000    109.500
      33     60.000    122.260
      34     80.000    128.800
      35     35.000    109.500
      36     35.000    109.500
      37     35.000    109.500
      38     80.000    120.600
      39     33.000    107.800
      40     35.000    125.700
      41     70.000    111.300
      42     85.000    119.200
      43     80.000    120.600
      44     70.000    126.400
      45     60.000    122.260
      46     33.000    107.800
      47     85.000    117.300
      48     70.000    111.170
      49     70.000    126.400
      50     70.000    111.300
      51     80.000    120.600
      52     85.000    117.300
      53     85.000    117.300
      54     70.000    107.300
      55     85.000    119.200
      56     74.000     97.000
      57     63.000    112.400
      58     85.000    117.000
      59     77.270    119.730
      60     63.000    112.400
      61     70.000    124.000
      62     85.000    117.000
      63     70.000    111.170
      64     85.000    117.300
      65     60.000    122.260
      66     33.000    107.800
      67     35.000    125.000
      68     80.000    120.600
      69     60.000    122.260
      70     77.270    119.730
      71     33.000    107.800
      72     33.000    107.800
      73     33.000    107.800

Dihedral Coeffs  

       1      0.000      7.250      0.000      0.000 
       2      0.000      7.250      0.000      0.000 
       3      0.000      2.170      0.000      0.000 
       4      0.000      7.250      0.000      0.000 
       5      0.000      7.250      0.000      0.000 
       6      0.000      7.250      0.000      0.000 
       7      0.000      7.000      0.000      0.000 
       8      0.000      7.000      0.000      0.000 
       9      0.000      7.250      0.000      0.000 
      10      0.000      7.250      0.000      0.000 
      11      0.000      0.000      0.000      0.000 
      12      0.000      0.000      0.000      0.000 
      13      0.000      4.900      0.000      0.000 
      14      0.000     14.000      0.000      0.000 
      15      0.000      7.250      0.000      0.000 
      16      0.000      0.000     -0.372      0.000 
      17      0.000      0.000      0.000      0.000 
      18      0.000      7.000      0.000      0.000 
      19      0.000      7.000      0.000      0.000 
      20      0.000      7.250      0.000      0.000 
      21      0.000      7.000      0.000      0.000 
      22      0.000      7.250      0.000      0.000 
      23      1.423      4.055      0.858      0.000 
      24      0.000      2.170      0.000      0.000 
      25      0.000      0.000     -0.372      0.000 
      26      0.000      2.100      0.000      0.000 
      27      0.000      0.000      0.000      0.000 
      28      0.000      4.900      0.000      0.000 
      29      0.000      4.900      0.000      0.000 
      30      0.000      7.000      0.000      0.000 
      31      0.000      7.000      0.000      0.000 
      32      0.000      7.000      0.000      0.000 
      33      0.000      7.250      0.000      0.000 
      34      0.000      7.000      0.000      0.000 
      35      0.000      7.250      0.000      0.000 
      36      0.000      7.250      0.000      0.000 
      37      0.000      4.900      0.000      0.000 
      38      0.000      0.000      0.000      0.000 
      39      0.000      0.000      0.000      0.000 
      40      0.000      2.170      0.000      0.000 
      41      0.000     14.000      0.000      0.000 
      42      0.000      7.250      0.000      0.000 
      43      0.000      7.250      0.000      0.000 
      44      0.000      0.000      0.000      0.000 
      45      0.000      2.100      0.000      0.000 
      46      0.000      0.000     -0.372      0.000 
      47      0.000      4.900      0.000      0.000 
      48      0.000      4.900      0.000      0.000 
      49      0.000      0.000      0.000      0.000 
      50      0.000      4.900      0.000      0.000 
      51      0.000      4.900      0.000      0.000 
      52      0.000      7.250      0.000      0.000 
      53      0.000      7.250      0.000      0.000 
      54      0.000      7.000      0.000      0.000 
      55      0.000      7.000      0.000      0.000 
      56      0.000      4.900      0.000      0.000 
      57      0.000      0.000      0.000      0.000 
      58      0.000      2.170      0.000      0.000 
      59      0.000      7.250      0.000      0.000 
      60      0.000      0.000     -0.372      0.000 
      61      0.000      7.250      0.000      0.000 
      62      0.000      7.250      0.000      0.000 
      63      0.000      7.250      0.000      0.000 
      64      0.000      4.900      0.000      0.000 
      65      0.000      4.900      0.000      0.000 
      66      0.000      7.250      0.000      0.000 
      67      0.000      7.250      0.000      0.000 
      68      0.000      7.250      0.000      0.000 
      69      0.000      2.170      0.000      0.000 
      70      0.000      7.250      0.000      0.000 
      71      0.000      4.900      0.000      0.000 
      72      0.000      2.170      0.000      0.000 
      73      0.000      7.250      0.000      0.000 
      74      0.000      2.170      0.000      0.000 
      75      0.000     14.000      0.000      0.000 
      76      0.000      7.250      0.000      0.000 
      77      0.000      0.000     -0.372      0.000 
      78      0.000      7.250      0.000      0.000 
      79      0.000      0.000      0.000      0.000 
      80      0.000      7.250      0.000      0.000 
      81      0.000      7.000      0.000      0.000 
      82      0.000      0.000     -0.372      0.000 
      83      0.000      2.170      0.000      0.000 
      84      0.000      7.250      0.000      0.000 
      85      0.000      4.900      0.000      0.000 
      86      0.000      0.000     -0.372      0.000 
      87      0.000      4.900      0.000      0.000 
      88      0.000      0.000     -0.372      0.000 
      89      0.000      7.000      0.000      0.000 
      90      0.000      4.900      0.000      0.000 
      91      0.000      7.000      0.000      0.000 
      92      0.000      4.900      0.000      0.000 
      93      0.000      0.000     -0.372      0.000 
      94      0.000      7.250      0.000      0.000 
      95      0.000      7.250      0.000      0.000 
      96      0.000      0.000      0.000      0.000 
      97      0.000      0.000      0.000      0.000 
      98      0.000      0.000      0.000      0.000 
      99      0.000      7.000      0.000      0.000 
     100      0.000      7.250      0.000      0.000 
     101      0.000      7.250      0.000      0.000 
     102      0.000      0.000     -0.372      0.000 
     103      0.000      7.250      0.000      0.000 
     104      0.000      0.000      0.000      0.000 
     105      0.000      7.250      0.000      0.000 
     106      0.000      7.000      0.000      0.000 
     107      0.000      7.250      0.000      0.000 
     108      0.000      0.000      0.000      0.000 

Improper Coeffs 

       1      2.500      -1       2 
       2      2.500      -1       2 
       3      2.500      -1       2 
       4      2.500      -1       2 
       5      2.500      -1       2 
       6      2.500      -1       2 
       7      2.500      -1       2 
       8      2.500      -1       2 
       9      2.500      -1       2 
      10     10.500      -1       2 
      11      2.500      -1       2 
      12     10.500      -1       2 
      13      2.500      -1       2 
      14      0.000      -1       2 
      15      2.500      -1       2 
      16      0.000      -1       2 
      17      2.500      -1       2 
      18     10.500      -1       2 
      19      0.000      -1       2 
      20      0.000      -1       2 
      21      2.500      -1       2 
      22     10.500      -1       2 
      23      0.000      -1       2 
      24      0.000      -1       2 

Atoms 

     1      1      1 0.18530000    1.000  1.00000  0.00000
     2      1      2 -0.17910000   -0.099  1.00000  0.00000
     3      1      3 -0.18440000   -0.852  1.00000  1.18201
     4      1      4 -0.07760000   -0.881  1.00148 -1.17124
     5      1      5 0.20480000   -0.507  1.00000  2.22256
     6      1      6 0.03570000   -2.556  0.99793  0.81442
     7      1      7 0.22390000   -0.455  1.00276 -2.18510
     8      1      8 -0.16440000   -2.267  0.99958 -0.94376
     9      1      9 0.12820000   -3.437  0.93023 -1.82693
    10      1     10 -0.09990000   -4.702  0.87380 -1.16216
    11      1     11 -0.11160000   -3.492  0.83940 -3.25856
    12      1     12 0.19690000   -4.740  1.01337 -0.06999
    13      1     13 -0.10250000   -5.914  0.65159 -1.79038
    14      1     14 0.01770000   -4.740  0.55312 -3.90588
    15      1     15 0.64500000   -2.327  1.12304 -4.14712
    16      1     16 -0.01680000   -5.981  0.45666 -3.20000
    17      1     17 0.64760000   -7.127  0.62471 -0.93521
    18      1     18 -0.12080000   -4.807  0.34502 -5.31369
    19      1     19 -0.41150000   -1.290  1.67151 -3.77660
    20      1     20 -0.93370000   -2.413  0.74094 -5.50489
    21      1     21 -0.09640000   -7.230  0.18259 -3.85045
    22      1     22 -0.40320000   -7.109  0.88925  0.26460
    23      1     23 -0.93610000   -8.296  0.21575 -1.59108
    24      1     24 -0.08210000   -6.019  0.12304 -5.94068
    25      1     25 0.64790000   -3.592  0.35780 -6.16637
    26      1     26 0.05830000   -1.187  0.89294 -6.29344
    27      1     27 -0.05680000   -7.284  0.11506 -5.28454
    28      1     28 0.63620000   -8.392 -0.12037 -2.96577
    29      1     29 0.05800000   -9.499 -0.00265 -0.78341
    30      1     30 0.19200000   -5.975 -0.05689 -7.02672
    31      1     31 -0.40530000   -3.614  0.10382 -7.36875
    32      1     32 0.11580000   -0.897  1.96007 -6.34672
    33      1     33 0.11580000   -0.360  0.34026 -5.80987
    34      1     34 0.11580000   -1.395  0.49755 -7.30163
    35      1     35 0.20240000   -8.236 -0.04184 -5.80777
    36      1     36 -0.39530000   -9.436 -0.64721 -3.35037
    37      1     37 0.11670000   -9.282  0.36524  0.23315
    38      1     38 0.11670000   -9.754 -1.07977 -0.76176
    39      1     39 0.11670000  -10.353  0.54152 -1.22894

Bonds 

     1      1      2      1
     2      2      3      2
     3      3      4      2
     4      4      5      3
     5      5      6      3
     6      6      7      4
     7      7      8      4
     8      8      9      8
     9      9     10      9
    10     10     11      9
    11     11     12     10
    12     12     13     10
    13     13     14     11
    14     14     15     11
    15     15     16     13
    16     16     17     13
    17     17     18     14
    18     18     19     15
    19     19     20     15
    20     20     21     16
    21     21     22     17
    22     22     23     17
    23     23     24     18
    24     24     25     18
    25     25     26     20
    26     26     27     21
    27     27     28     21
    28     28     29     23
    29     29     30     24
    30     30     31     25
    31     31     32     26
    32     32     33     26
    33     33     34     26
    34     34     35     27
    35     35     36     28
    36     36     37     29
    37     37     38     29
    38     38     39     29
    39     39      8      6
    40     40     16     14
    41     41     25     20
    42     42     28     23
    43     43     27     24

Angles 

     1      1      1      2      3
     2      2      1      2      4
     3      3      2      3      5
     4      4      2      3      6
     5      5      2      4      7
     6      6      2      4      8
     7      7      4      8      9
     8      8      8      9     10
     9      9      8      9     11
    10     10      9     10     12
    11     11      9     10     13
    12     12      9     11     14
    13     13      9     11     15
    14     14     10     13     16
    15     15     10     13     17
    16     16     11     14     18
    17     17     11     15     19
    18     18     11     15     20
    19     19     13     16     21
    20     20     13     17     22
    21     21     13     17     23
    22     22     14     18     24
    23     23     14     18     25
    24     24     15     20     26
    25     25     16     21     27
    26     26     16     21     28
    27     27     17     23     29
    28     28     18     24     30
    29     29     18     25     31
    30     30     20     26     32
    31     31     20     26     33
    32     32     20     26     34
    33     33     21     27     35
    34     34     21     28     36
    35     35     23     29     37
    36     36     23     29     38
    37     37     23     29     39
    38     38     19     15     20
    39     39     37     29     39
    40     40      7      4      8
    41     41     18     25     20
    42     42     14     11     15
    43     43     20     25     31
    44     44     17     23     28
    45     45     12     10     13
    46     46     32     26     34
    47     47     14     16     21
    48     48      4      8      6
    49     49     15     20     25
    50     50     21     28     23
    51     51     22     17     23
    52     52     16     14     18
    53     53     13     16     14
    54     54      3      2      4
    55     55     16     13     17
    56     56      3      6      8
    57     57     28     23     29
    58     58     21     27     24
    59     59     27     21     28
    60     60     25     20     26
    61     61     10      9     11
    62     62     18     24     27
    63     63      6      8      9
    64     64     11     14     16
    65     65     24     27     35
    66     66     33     26     34
    67     67      5      3      6
    68     68     23     28     36
    69     69     27     24     30
    70     70     24     18     25
    71     71     37     29     38
    72     72     32     26     33
    73     73     38     29     39

Dihedrals

     1      1      5      3      2      1 
     2      2      7      4      2      1 
     3      3     10      9      8      4 
     4      4     12     10      9      8 
     5      5     14     11      9      8 
     6      6     16     13     10      9 
     7      7     19     15     11      9 
     8      8     22     17     13     10 
     9      9     24     18     14     11 
    10     10     27     21     16     13 
    11     11     32     26     20     15 
    12     12     37     29     23     17 
    13     13     31     25     20     26 
    14     14     35     27     24     18 
    15     15     18     14     11      9 
    16     16     35     27     21     28 
    17     17     34     26     20     15 
    18     18     20     25     18     14 
    19     19     27     21     28     23 
    20     20     17     13     16     14 
    21     21     31     25     18     24 
    22     22     21     16     13     10 
    23     23     21     27     24     18 
    24     24     13     10      9      8 
    25     25     30     24     18     14 
    26     26      6      8      4      2 
    27     27     39     29     23     28 
    28     28     29     23     17     22 
    29     29     26     20     15     19 
    30     30     36     28     21     16 
    31     31     23     28     21     16 
    32     32     36     28     21     27 
    33     33     15     11      9     10 
    34     34     31     25     18     14 
    35     35      5      3      2      4 
    36     36     15     11      9      8 
    37     37     18     25     20     15 
    38     38     34     26     20     25 
    39     39     38     29     23     28 
    40     40      9      8      4      2 
    41     41     30     24     27     21 
    42     42     24     18     14     16 
    43     43     18     14     16     13 
    44     44     33     26     20     25 
    45     45      6      3      2      4 
    46     46     16     13     10     12 
    47     47     25     20     15     11 
    48     48     29     23     28     21 
    49     49     37     29     23     28 
    50     50     28     23     17     13 
    51     51     26     20     25     18 
    52     52     28     21     16     14 
    53     53     12     10      9     11 
    54     54     19     15     11     14 
    55     55     22     17     13     16 
    56     56     31     25     20     15 
    57     57     39     29     23     17 
    58     58     11      9      8      4 
    59     59     14     11      9     10 
    60     60     28     21     27     24 
    61     61     28     21     16     13 
    62     62     27     21     16     14 
    63     63     16     14     11     15 
    64     64     26     20     15     11 
    65     65     28     23     17     22 
    66     66      7      4      2      3 
    67     67     25     18     14     11 
    68     68      9      8      4      7 
    69     69     11      9      8      6 
    70     70      8      4      2      1 
    71     71     36     28     23     17 
    72     72      8      4      2      3 
    73     73     21     16     13     17 
    74     74     10      9      8      6 
    75     75     35     27     24     30 
    76     76     17     13     10      9 
    77     77     17     13     10     12 
    78     78     16     14     11      9 
    79     79     33     26     20     15 
    80     80      7      4      8      6 
    81     81     23     17     13     10 
    82     82     35     27     21     16 
    83     83     13     10      9     11 
    84     84     13     16     14     11 
    85     85     25     20     15     19 
    86     86     30     24     18     25 
    87     87     21     28     23     17 
    88     88     27     24     18     25 
    89     89     20     15     11      9 
    90     90     29     23     17     13 
    91     91     24     18     25     20 
    92     92     36     28     23     29 
    93     93     27     24     18     14 
    94     94     18     14     11     15 
    95     95     21     16     14     18 
    96     96     32     26     20     25 
    97     97      4      8      6      3 
    98     98      8      6      3      2 
    99     99     23     17     13     16 
   100    100     21     16     14     11 
   101    101      6      3      2      1 
   102    102     24     27     21     16 
   103    103      8      6      3      5 
   104    104      9      8      6      3 
   105    105     14     16     13     10 
   106    106     20     15     11     14 
   107    107     25     18     14     16 
   108    108     38     29     23     17 

Impropers

     1      1      2      1      3      4 
     2      2      3      2      5      6 
     3      3      4      2      7      8 
     4      4      8      9      4      6 
     5      5      9     10     11      8 
     6      6     10      9     12     13 
     7      7     11      9     14     15 
     8      8     13     17     10     16 
     9      9     14     18     11     16 
    10     10     15     11     20     19 
    11     11     16     13     21     14 
    12     12     17     13     22     23 
    13     13     18     25     14     24 
    14     14     20     25     26     15 
    15     15     21     27     28     16 
    16     16     23     17     28     29 
    17     17     24     18     27     30 
    18     18     25     18     20     31 
    19     19     26     33     20     32 
    20     20     26     32     34     20 
    21     21     27     35     21     24 
    22     22     28     36     21     23 
    23     23     29     37     38     23 
    24     24     29     37     23     39 

