LAMMPS data file Created by LigParGen - (Written by Leela S. Dodda)

      27 atoms
      29 bonds
      49 angles
      68 dihedrals
      16 impropers
 
      27 atom types
      29 bond types
      49 angle types
      68 dihedral types
      16 improper types
 
   -7.245400    42.754600 xlo xhi
    0.102830    50.102830 ylo yhi
   -2.135080    47.864920 zlo zhi

Masses

       1      1.008  
       2     12.011  
       3     32.060  
       4     12.011  
       5     12.011  
       6      1.008  
       7     12.011  
       8     12.011  
       9      1.008  
      10     12.011  
      11     14.007  
      12     12.011  
      13     12.011  
      14     12.011  
      15     12.011  
      16     12.011  
      17     15.999  
      18     14.007  
      19     15.999  
      20      1.008  
      21      1.008  
      22      1.008  
      23      1.008  
      24     12.011  
      25      1.008  
      26      1.008  
      27      1.008  

Pair Coeffs 

       1      0.030  2.4200000 
       2      0.070  3.5500000 
       3      0.355  3.6000000 
       4      0.070  3.5500000 
       5      0.070  3.5500000 
       6      0.030  2.4200000 
       7      0.070  3.5500000 
       8      0.070  3.5500000 
       9      0.030  2.4200000 
      10      0.076  3.5500000 
      11      0.170  3.2500000 
      12      0.076  3.5500000 
      13      0.070  3.5500000 
      14      0.070  3.5500000 
      15      0.066  3.5000000 
      16      0.070  3.5500000 
      17      0.210  2.9600000 
      18      0.170  3.2500000 
      19      0.210  2.9600000 
      20      0.030  2.5000000 
      21      0.030  2.5000000 
      22      0.030  2.5000000 
      23      0.030  2.4200000 
      24      0.066  3.5000000 
      25      0.030  2.5000000 
      26      0.030  2.5000000 
      27      0.030  2.5000000 

Bond Coeffs 

       1   367.0000     1.0800 
       2   250.0000     1.7400 
       3   546.0000     1.3670 
       4   250.0000     1.7600 
       5   367.0000     1.0800 
       6   469.0000     1.4240 
       7   469.0000     1.4240 
       8   367.0000     1.0800 
       9   427.0000     1.4330 
      10   427.0000     1.3810 
      11   549.0000     1.3400 
      12   410.0000     1.4440 
      13   418.0000     1.3880 
      14   337.0000     1.4750 
      15   427.0000     1.4330 
      16   570.0000     1.2290 
      17   418.0000     1.3880 
      18   570.0000     1.2290 
      19   340.0000     1.0900 
      20   340.0000     1.0900 
      21   340.0000     1.0900 
      22   367.0000     1.0800 
      23   337.0000     1.4750 
      24   340.0000     1.0900 
      25   340.0000     1.0900 
      26   340.0000     1.0900 
      27   469.0000     1.4240 
      28   410.0000     1.4440 
      29   427.0000     1.3810 

Angle Coeffs 

       1     35.000    125.000
       2     35.000    132.100
       3     63.000    112.400
       4     35.000    125.700
       5     70.000    107.300
       6     85.000    119.400
       7     35.000    127.500
       8     63.000    120.000
       9     70.000    108.700
      10     85.000    117.000
      11     85.000    120.000
      12     70.000    125.200
      13     63.000    112.400
      14     85.000    117.000
      15     80.000    125.300
      16     70.000    114.100
      17     80.000    120.600
      18     35.000    109.500
      19     35.000    109.500
      20     35.000    109.500
      21     35.000    130.700
      22     63.000    112.400
      23     35.000    109.500
      24     35.000    109.500
      25     35.000    109.500
      26     35.000    121.600
      27     70.000    108.700
      28     63.000    112.400
      29     85.000    119.400
      30     35.000    127.500
      31     33.000    107.800
      32     33.000    107.800
      33     33.000    107.800
      34     85.000    120.700
      35     63.000    112.400
      36     33.000    107.800
      37     33.000    107.800
      38     70.000    121.600
      39     70.000    111.170
      40     70.000    114.100
      41     80.000    125.300
      42     70.000    125.200
      43     35.000    127.500
      44     85.000    120.700
      45     63.000    120.000
      46     85.000    120.000
      47     63.000    120.000
      48     33.000    107.800
      49     80.000    120.600

Dihedral Coeffs  

       1      0.000      7.250      0.000      0.000 
       2      0.000      7.250      0.000      0.000 
       3      0.000      2.170      0.000      0.000 
       4      0.000      2.170      0.000      0.000 
       5      0.000      2.170      0.000      0.000 
       6      2.500      6.000      0.000      0.000 
       7      0.000      0.000      0.000      0.000 
       8      0.000      0.000      0.000      0.000 
       9      2.300      6.089      0.000      0.000 
      10      0.000     14.000      0.000      0.000 
      11      0.000      4.900      0.000      0.000 
      12      0.000      0.000      0.000      0.000 
      13      0.000      4.900      0.000      0.000 
      14      0.000      2.170      0.000      0.000 
      15      0.000      0.000      0.000      0.000 
      16      0.000      0.000      0.000      0.000 
      17      0.000      0.000      0.000      0.000 
      18      0.000      0.000      0.000      0.000 
      19      2.000      0.000      0.000      0.000 
      20      0.000      5.000      0.000      0.000 
      21      0.000      2.100      0.000      0.000 
      22      0.000     14.000      0.000      0.000 
      23      0.000      2.170      0.000      0.000 
      24      0.000      5.000      0.000      0.000 
      25      2.500      6.000      0.000      0.000 
      26      0.000      0.000      0.000      0.000 
      27      0.000      2.170      0.000      0.000 
      28      0.000      2.170      0.000      0.000 
      29      0.000      0.000      0.000      0.000 
      30      0.000      5.000      0.000      0.000 
      31      0.000     10.750      0.000      0.000 
      32      2.000      0.000      0.000      0.000 
      33      0.000      7.250      0.000      0.000 
      34      0.000      0.000      0.000      0.000 
      35      0.000      4.900      0.000      0.000 
      36      2.300      6.089      0.000      0.000 
      37      0.000      4.900      0.000      0.000 
      38      2.500      6.000      0.000      0.000 
      39      0.000      2.170      0.000      0.000 
      40      0.000      4.900      0.000      0.000 
      41      0.000      2.170      0.000      0.000 
      42      0.000      2.170      0.000      0.000 
      43      0.000     14.000      0.000      0.000 
      44      0.000     14.000      0.000      0.000 
      45      2.000      0.000      0.000      0.000 
      46      2.500      6.000      0.000      0.000 
      47      0.000      2.170      0.000      0.000 
      48      0.000     14.000      0.000      0.000 
      49      0.000      7.250      0.000      0.000 
      50      2.000      0.000      0.000      0.000 
      51      0.000      7.250      0.000      0.000 
      52      0.000      7.250      0.000      0.000 
      53      0.000     10.750      0.000      0.000 
      54      0.000      0.000      0.000      0.000 
      55      0.000      0.000      0.000      0.000 
      56      2.000      0.000      0.000      0.000 
      57      0.000      5.000      0.000      0.000 
      58      0.000      7.250      0.000      0.000 
      59      0.000      1.300      2.200      0.000 
      60      0.000      7.250      0.000      0.000 
      61      0.000      2.170      0.000      0.000 
      62      0.000      4.900      0.000      0.000 
      63      0.000      7.250      0.000      0.000 
      64      0.000      2.170      0.000      0.000 
      65      2.000      0.000      0.000      0.000 
      66      0.000      7.250      0.000      0.000 
      67      0.000      2.170      0.000      0.000 
      68      0.000      0.000      0.000      0.000 

Improper Coeffs 

       1      2.500      -1       2 
       2      2.500      -1       2 
       3      2.500      -1       2 
       4      2.500      -1       2 
       5      2.500      -1       2 
       6      2.500      -1       2 
       7      0.000      -1       2 
       8      2.500      -1       2 
       9     10.500      -1       2 
      10     10.500      -1       2 
      11      0.000      -1       2 
      12      0.000      -1       2 
      13      2.500      -1       2 
      14      0.000      -1       2 
      15      0.000      -1       2 
      16      0.000      -1       2 

Atoms 

     1      1      1 0.20240000    1.000  1.00000  0.00000
     2      1      2 -0.18790000   -0.097  1.00000  0.00000
     3      1      3 0.13350000   -0.973  1.00000  1.51600
     4      1      4 -0.17380000   -0.974  0.99862 -1.09500
     5      1      5 -0.16860000   -2.531  1.00224  0.67944
     6      1      6 0.18210000   -0.619  0.99730 -2.13508
     7      1      7 -0.10110000   -2.331  1.00073 -0.71915
     8      1      8 0.45020000   -3.740  1.00671  1.45509
     9      1      9 0.17980000   -3.168  1.00234 -1.43127
    10      1     10 -0.31610000   -3.874  1.00974  2.85941
    11      1     11 -0.77220000   -5.032  1.00743  0.92629
    12      1     12 -0.28020000   -5.257  1.01211  3.20041
    13      1     13 0.62580000   -3.093  1.01243  4.08404
    14      1     14 0.63350000   -6.037  1.01065  1.97448
    15      1     15 0.03820000   -5.453  1.00688 -0.45661
    16      1     16 0.27800000   -5.391  1.01673  4.60580
    17      1     17 -0.42910000   -1.886  1.01300  4.31972
    18      1     18 -0.78950000   -4.098  1.01643  5.13197
    19      1     19 -0.41440000   -7.245  1.01030  1.73573
    20      1     20 0.10990000   -5.096  0.10283 -0.99249
    21      1     21 0.10990000   -5.093  1.90879 -0.99410
    22      1     22 0.10990000   -6.560  1.00768 -0.44125
    23      1     23 0.21190000   -6.281  1.02112  5.24636
    24      1     24 0.04060000   -3.674  1.01787  6.51398
    25      1     25 0.10910000   -4.032  0.11559  7.05215
    26      1     26 0.10910000   -4.032  1.92153  7.05021
    27      1     27 0.10910000   -2.567  1.01663  6.49816

Bonds 

     1      1      2      1
     2      2      3      2
     3      3      4      2
     4      4      5      3
     5      5      6      4
     6      6      7      4
     7      7      8      5
     8      8      9      7
     9      9     10      8
    10     10     11      8
    11     11     12     10
    12     12     13     10
    13     13     14     11
    14     14     15     11
    15     15     16     12
    16     16     17     13
    17     17     18     13
    18     18     19     14
    19     19     20     15
    20     20     21     15
    21     21     22     15
    22     22     23     16
    23     23     24     18
    24     24     25     24
    25     25     26     24
    26     26     27     24
    27     27      7      5
    28     28     14     12
    29     29     18     16

Angles 

     1      1      1      2      3
     2      2      1      2      4
     3      3      2      3      5
     4      4      2      4      6
     5      5      2      4      7
     6      6      3      5      8
     7      7      4      7      9
     8      8      5      8     10
     9      9      5      8     11
    10     10      8     10     12
    11     11      8     10     13
    12     12      8     11     14
    13     13      8     11     15
    14     14     10     12     16
    15     15     10     13     17
    16     16     10     13     18
    17     17     11     14     19
    18     18     11     15     20
    19     19     11     15     21
    20     20     11     15     22
    21     21     12     16     23
    22     22     13     18     24
    23     23     18     24     25
    24     24     18     24     26
    25     25     18     24     27
    26     26     18     16     23
    27     27     10      8     11
    28     28     14     11     15
    29     29      3      5      7
    30     30      6      4      7
    31     31     21     15     22
    32     32     20     15     21
    33     33     20     15     22
    34     34     12     10     13
    35     35     16     18     24
    36     36     25     24     26
    37     37     26     24     27
    38     38     12     16     18
    39     39      3      2      4
    40     40     11     14     12
    41     41     12     14     19
    42     42     13     18     16
    43     43      5      7      9
    44     44     10     12     14
    45     45      7      5      8
    46     46     14     12     16
    47     47      4      7      5
    48     48     25     24     27
    49     49     17     13     18

Dihedrals

     1      1      5      3      2      1 
     2      2      6      4      2      1 
     3      3     10      8      5      3 
     4      4     12     10      8      5 
     5      5     14     11      8      5 
     6      6     17     13     10      8 
     7      7     20     15     11      8 
     8      8     25     24     18     13 
     9      9     12     14     11      8 
    10     10     13     10      8     11 
    11     11     19     14     11      8 
    12     12     26     24     18     13 
    13     13     15     11     14     12 
    14     14     13     10      8      5 
    15     15     21     15     11      8 
    16     16     21     15     11     14 
    17     17     27     24     18     16 
    18     18     25     24     18     16 
    19     19     16     12     14     11 
    20     20     13     18     16     12 
    21     21      7      4      2      3 
    22     22     16     12     10     13 
    23     23      4      7      5      3 
    24     24     23     16     18     13 
    25     25     19     14     12     16 
    26     26     22     15     11     14 
    27     27     15     11      8     10 
    28     28      8      5      3      2 
    29     29     27     24     18     13 
    30     30     24     18     16     23 
    31     31     23     16     12     10 
    32     32     18     13     10     12 
    33     33      7      4      2      1 
    34     34     22     15     11      8 
    35     35     24     18     13     17 
    36     36     16     18     13     10 
    37     37     17     13     18     16 
    38     38     19     14     12     10 
    39     39     11      8      5      3 
    40     40     24     18     13     10 
    41     41      5      7      4      2 
    42     42     15     11      8      5 
    43     43     16     12     10      8 
    44     44     14     12     10      8 
    45     45     18     13     10      8 
    46     46     17     13     10     12 
    47     47      7      5      3      2 
    48     48     14     12     10     13 
    49     49      6      4      7      5 
    50     50     12     10      8     11 
    51     51      9      7      4      2 
    52     52      6      4      2      3 
    53     53     23     16     12     14 
    54     54      5      3      2      4 
    55     55     20     15     11     14 
    56     56     11     14     12     10 
    57     57     24     18     16     12 
    58     58      9      7      4      6 
    59     59     14     11      8     10 
    60     60      9      7      5      3 
    61     61      8      5      7      4 
    62     62     19     14     11     15 
    63     63      9      7      5      8 
    64     64     10      8      5      7 
    65     65     18     16     12     10 
    66     66     18     16     12     14 
    67     67     11      8      5      7 
    68     68     26     24     18     16 

Impropers

     1      1      2      1      3      4 
     2      2      4      2      6      7 
     3      3      5      3      7      8 
     4      4      7      9      4      5 
     5      5      8     10     11      5 
     6      6     10     12     13      8 
     7      7     11     14     15      8 
     8      8     12     10     14     16 
     9      9     13     17     18     10 
    10     10     14     12     19     11 
    11     11     15     11     20     21 
    12     12     15     11     20     22 
    13     13     16     18     12     23 
    14     14     18     16     13     24 
    15     15     24     25     26     18 
    16     16     24     25     18     27 

