LAMMPS data file Created by LigParGen - (Written by Leela S. Dodda)

      19 atoms
      21 bonds
      33 angles
      48 dihedrals
      10 impropers
 
      19 atom types
      21 bond types
      33 angle types
      48 dihedral types
      10 improper types
 
   -2.954390    47.045610 xlo xhi
    0.995390    50.995390 ylo yhi
   -0.931360    49.068640 zlo zhi

Masses

       1     12.011  
       2     12.011  
       3     12.011  
       4      1.008  
       5     12.011  
       6      1.008  
       7     32.060  
       8      1.008  
       9     12.011  
      10     12.011  
      11     12.011  
      12      1.008  
      13     12.011  
      14     32.060  
      15     32.060  
      16     12.011  
      17     12.011  
      18      1.008  
      19      1.008  

Pair Coeffs 

       1      0.070  3.5500000 
       2      0.070  3.5500000 
       3      0.070  3.5500000 
       4      0.030  2.4200000 
       5      0.070  3.5500000 
       6      0.030  2.4200000 
       7      0.355  3.6000000 
       8      0.030  2.4200000 
       9      0.070  3.5500000 
      10      0.070  3.5500000 
      11      0.070  3.5500000 
      12      0.030  2.4200000 
      13      0.070  3.5500000 
      14      0.355  3.6000000 
      15      0.355  3.6000000 
      16      0.070  3.5500000 
      17      0.070  3.5500000 
      18      0.030  2.4200000 
      19      0.030  2.4200000 

Bond Coeffs 

       1   546.0000     1.3670 
       2   469.0000     1.4240 
       3   367.0000     1.0800 
       4   469.0000     1.4240 
       5   367.0000     1.0800 
       6   250.0000     1.7400 
       7   367.0000     1.0800 
       8   469.0000     1.4240 
       9   469.0000     1.4240 
      10   469.0000     1.4240 
      11   367.0000     1.0800 
      12   469.0000     1.4240 
      13   250.0000     1.7600 
      14   250.0000     1.7600 
      15   469.0000     1.4240 
      16   250.0000     1.7400 
      17   367.0000     1.0800 
      18   367.0000     1.0800 
      19   250.0000     1.7600 
      20   250.0000     1.7600 
      21   546.0000     1.3670 

Angle Coeffs 

       1     70.000    107.300
       2     35.000    125.700
       3     63.000    120.000
       4     35.000    127.500
       5     70.000    111.170
       6     35.000    132.100
       7     63.000    120.000
       8     63.000    120.000
       9     63.000    120.000
      10     35.000    127.500
      11     63.000    120.000
      12     85.000    119.400
      13     85.000    119.400
      14     63.000    120.000
      15     63.000    112.400
      16     35.000    127.500
      17     35.000    125.000
      18     85.000    119.400
      19     70.000    111.170
      20     35.000    127.500
      21     63.000    112.400
      22     85.000    119.400
      23     85.000    119.400
      24     85.000    119.400
      25     35.000    125.700
      26     35.000    132.100
      27     85.000    119.400
      28     35.000    127.500
      29     63.000    112.400
      30     70.000    107.300
      31     85.000    119.400
      32     35.000    125.000
      33     35.000    127.500

Dihedral Coeffs  

       1      0.000      2.170      0.000      0.000 
       2      0.000      2.100      0.000      0.000 
       3      0.000      2.170      0.000      0.000 
       4      0.000      2.170      0.000      0.000 
       5      0.000      2.170      0.000      0.000 
       6      0.000      2.170      0.000      0.000 
       7      0.000      2.170      0.000      0.000 
       8      0.000      2.170      0.000      0.000 
       9      0.000      7.250      0.000      0.000 
      10      0.000      7.250      0.000      0.000 
      11      0.000      7.250      0.000      0.000 
      12      0.000      7.250      0.000      0.000 
      13      0.000      7.250      0.000      0.000 
      14      0.000      7.250      0.000      0.000 
      15      0.000      2.170      0.000      0.000 
      16      0.000      2.170      0.000      0.000 
      17      0.000      2.170      0.000      0.000 
      18      0.000      2.170      0.000      0.000 
      19      0.000      2.170      0.000      0.000 
      20      0.000      2.170      0.000      0.000 
      21      0.000      2.170      0.000      0.000 
      22      0.000      7.250      0.000      0.000 
      23      0.000      0.000      0.000      0.000 
      24      0.000      7.250      0.000      0.000 
      25      0.000      2.170      0.000      0.000 
      26      0.000      7.250      0.000      0.000 
      27      0.000      7.250      0.000      0.000 
      28      0.000      7.250      0.000      0.000 
      29      0.000      0.000      0.000      0.000 
      30      0.000      7.250      0.000      0.000 
      31      0.000      7.250      0.000      0.000 
      32      0.000      7.250      0.000      0.000 
      33      0.000      2.170      0.000      0.000 
      34      0.000      7.250      0.000      0.000 
      35      0.000      2.170      0.000      0.000 
      36      0.000      7.250      0.000      0.000 
      37      0.000      7.250      0.000      0.000 
      38      0.000      2.170      0.000      0.000 
      39      0.000      7.250      0.000      0.000 
      40      0.000      7.250      0.000      0.000 
      41      0.000      7.250      0.000      0.000 
      42      0.000      2.170      0.000      0.000 
      43      0.000      7.250      0.000      0.000 
      44      0.000      2.170      0.000      0.000 
      45      0.000      2.170      0.000      0.000 
      46      0.000      2.100      0.000      0.000 
      47      0.000      2.170      0.000      0.000 
      48      0.000      2.170      0.000      0.000 

Improper Coeffs 

       1      2.500      -1       2 
       2      2.500      -1       2 
       3      2.500      -1       2 
       4      2.500      -1       2 
       5      2.500      -1       2 
       6      2.500      -1       2 
       7      2.500      -1       2 
       8      2.500      -1       2 
       9      2.500      -1       2 
      10      2.500      -1       2 

Atoms 

     1      1      1 -0.21030000    1.000  1.00000  0.00000
     2      1      2 -0.15120000   -0.409  1.00000  0.00000
     3      1      3 -0.15030000   -0.974  1.00000  1.28942
     4      1      4 0.17900000   -0.993  1.00118 -0.93136
     5      1      5 -0.08950000   -0.015  1.00000  2.31336
     6      1      6 0.18130000   -2.054  0.99885  1.49077
     7      1      7 0.04530000    1.606  1.00000  1.66268
     8      1      8 0.20030000    1.697  0.99893 -0.84558
     9      1      9 -0.05440000   -0.225  1.00142  3.73585
    10      1     10 -0.09950000    0.737  1.00281  4.75477
    11      1     11 -0.13290000    0.140  1.00229  6.03629
    12      1     12 0.18830000    1.817  1.00295  4.55461
    13      1     13 -0.13780000   -1.279  1.00052  6.01888
    14      1     14 0.08540000   -1.880  1.00351  4.38105
    15      1     15 0.06250000    0.741  1.00178  7.67386
    16      1     16 -0.10350000   -1.874  0.99845  7.30099
    17      1     17 -0.19550000   -0.914  0.99914  8.31983
    18      1     18 0.18480000   -2.954  0.99539  7.49929
    19      1     19 0.19790000   -1.072  0.99947  9.40475

Bonds 

     1      1      2      1
     2      2      3      2
     3      3      4      2
     4      4      5      3
     5      5      6      3
     6      6      7      1
     7      7      8      1
     8      8      9      5
     9      9     10      9
    10     10     11     10
    11     11     12     10
    12     12     13     11
    13     13     14      9
    14     14     15     11
    15     15     16     13
    16     16     17     15
    17     17     18     16
    18     18     19     17
    19     19      7      5
    20     20     14     13
    21     21     17     16

Angles 

     1      1      1      2      3
     2      2      1      2      4
     3      3      2      3      5
     4      4      2      3      6
     5      5      2      1      7
     6      6      2      1      8
     7      7      3      5      9
     8      8      5      9     10
     9      9      9     10     11
    10     10      9     10     12
    11     11     10     11     13
    12     12      5      9     14
    13     13     10     11     15
    14     14     11     13     16
    15     15     11     15     17
    16     16     13     16     18
    17     17     15     17     19
    18     18     10      9     14
    19     19     15     17     16
    20     20     11     10     12
    21     21      1      7      5
    22     22      3      5      7
    23     23     11     13     14
    24     24      7      5      9
    25     25     17     16     18
    26     26     16     17     19
    27     27     13     11     15
    28     28      3      2      4
    29     29      9     14     13
    30     30     13     16     17
    31     31     14     13     16
    32     32      7      1      8
    33     33      5      3      6

Dihedrals

     1      1      5      3      2      1 
     2      2      7      1      2      3 
     3      3     10      9      5      3 
     4      4     11     10      9      5 
     5      5     13     11     10      9 
     6      6     17     15     11     10 
     7      7     16     13     14      9 
     8      8     17     16     13     11 
     9      9     19     17     16     13 
    10     10     19     17     16     18 
    11     11     19     17     15     11 
    12     12      8      1      2      4 
    13     13      6      3      2      4 
    14     14     14      9      5      7 
    15     15     11     13     14      9 
    16     16     16     13     11     10 
    17     17      3      5      7      1 
    18     18     14      9      5      3 
    19     19     16     13     11     15 
    20     20     17     16     13     14 
    21     21     10      9      5      7 
    22     22      8      1      7      5 
    23     23     16     17     15     11 
    24     24     15     11     10     12 
    25     25     17     15     11     13 
    26     26     12     10      9      5 
    27     27     18     16     13     14 
    28     28     18     16     13     11 
    29     29      5      7      1      2 
    30     30     15     11     13     14 
    31     31     14      9     10     12 
    32     32      6      3      2      1 
    33     33      7      5      3      2 
    34     34      8      1      2      3 
    35     35     13     14      9     10 
    36     36     18     16     17     15 
    37     37      7      1      2      4 
    38     38     15     11     10      9 
    39     39      9      5      3      6 
    40     40     13     11     10     12 
    41     41      5      3      2      4 
    42     42     14      9     10     11 
    43     43      7      5      3      6 
    44     44      9      5      3      2 
    45     45     14     13     11     10 
    46     46     15     17     16     13 
    47     47      9      5      7      1 
    48     48     13     14      9      5 

Impropers

     1      1      2      1      3      4 
     2      2      3      2      5      6 
     3      3      1      2      7      8 
     4      4      5      9      3      7 
     5      5     10      9     11     12 
     6      6      9     10      5     14 
     7      7     11     10     13     15 
     8      8     13     11     14     16 
     9      9     16     17     18     13 
    10     10     17     19     15     16 

