LAMMPS data file Created by LigParGen - (Written by Leela S. Dodda)

      26 atoms
      29 bonds
      46 angles
      68 dihedrals
      14 impropers
 
      26 atom types
      29 bond types
      46 angle types
      68 dihedral types
      14 improper types
 
   -2.956150    47.043850 xlo xhi
    0.970720    50.970720 ylo yhi
   -0.931360    49.068640 zlo zhi

Masses

       1     12.011  
       2     12.011  
       3     12.011  
       4      1.008  
       5     12.011  
       6      1.008  
       7     32.060  
       8      1.008  
       9     12.011  
      10     12.011  
      11     12.011  
      12      1.008  
      13     12.011  
      14     32.060  
      15     32.060  
      16     12.011  
      17     12.011  
      18      1.008  
      19     12.011  
      20     12.011  
      21     32.060  
      22     12.011  
      23     12.011  
      24      1.008  
      25      1.008  
      26      1.008  

Pair Coeffs 

       1      0.070  3.5500000 
       2      0.070  3.5500000 
       3      0.070  3.5500000 
       4      0.030  2.4200000 
       5      0.070  3.5500000 
       6      0.030  2.4200000 
       7      0.355  3.6000000 
       8      0.030  2.4200000 
       9      0.070  3.5500000 
      10      0.070  3.5500000 
      11      0.070  3.5500000 
      12      0.030  2.4200000 
      13      0.070  3.5500000 
      14      0.355  3.6000000 
      15      0.355  3.6000000 
      16      0.070  3.5500000 
      17      0.070  3.5500000 
      18      0.030  2.4200000 
      19      0.070  3.5500000 
      20      0.070  3.5500000 
      21      0.355  3.6000000 
      22      0.070  3.5500000 
      23      0.070  3.5500000 
      24      0.030  2.4200000 
      25      0.030  2.4200000 
      26      0.030  2.4200000 

Bond Coeffs 

       1   546.0000     1.3670 
       2   469.0000     1.4240 
       3   367.0000     1.0800 
       4   469.0000     1.4240 
       5   367.0000     1.0800 
       6   250.0000     1.7400 
       7   367.0000     1.0800 
       8   469.0000     1.4240 
       9   469.0000     1.4240 
      10   469.0000     1.4240 
      11   367.0000     1.0800 
      12   469.0000     1.4240 
      13   250.0000     1.7600 
      14   250.0000     1.7600 
      15   469.0000     1.4240 
      16   250.0000     1.7600 
      17   367.0000     1.0800 
      18   469.0000     1.4240 
      19   469.0000     1.4240 
      20   250.0000     1.7600 
      21   250.0000     1.7400 
      22   469.0000     1.4240 
      23   367.0000     1.0800 
      24   367.0000     1.0800 
      25   367.0000     1.0800 
      26   250.0000     1.7600 
      27   250.0000     1.7600 
      28   469.0000     1.4240 
      29   546.0000     1.3670 

Angle Coeffs 

       1     70.000    107.300
       2     35.000    125.700
       3     63.000    120.000
       4     35.000    127.500
       5     70.000    111.170
       6     35.000    132.100
       7     63.000    120.000
       8     63.000    120.000
       9     63.000    120.000
      10     35.000    127.500
      11     63.000    120.000
      12     85.000    119.400
      13     85.000    119.400
      14     63.000    120.000
      15     63.000    112.400
      16     35.000    127.500
      17     85.000    119.400
      18     63.000    120.000
      19     85.000    119.400
      20     63.000    112.400
      21     63.000    120.000
      22     35.000    127.500
      23     35.000    127.500
      24     35.000    125.000
      25     35.000    127.500
      26     85.000    119.400
      27     85.000    119.400
      28     35.000    125.700
      29     85.000    119.400
      30     35.000    127.500
      31     63.000    112.400
      32     85.000    119.400
      33     85.000    119.400
      34     85.000    119.400
      35     35.000    127.500
      36     63.000    120.000
      37     70.000    111.170
      38     85.000    119.400
      39     35.000    127.500
      40     63.000    112.400
      41     63.000    120.000
      42     85.000    119.400
      43     35.000    132.100
      44     35.000    125.000
      45     35.000    127.500
      46     70.000    107.300

Dihedral Coeffs  

       1      0.000      2.170      0.000      0.000 
       2      0.000      2.100      0.000      0.000 
       3      0.000      2.170      0.000      0.000 
       4      0.000      2.170      0.000      0.000 
       5      0.000      2.170      0.000      0.000 
       6      0.000      2.170      0.000      0.000 
       7      0.000      2.170      0.000      0.000 
       8      0.000      2.170      0.000      0.000 
       9      0.000      2.170      0.000      0.000 
      10      0.000      2.170      0.000      0.000 
      11      0.000      2.170      0.000      0.000 
      12      0.000      7.250      0.000      0.000 
      13      0.000      2.170      0.000      0.000 
      14      0.000      2.170      0.000      0.000 
      15      0.000      7.250      0.000      0.000 
      16      0.000      7.250      0.000      0.000 
      17      0.000      2.170      0.000      0.000 
      18      0.000      7.250      0.000      0.000 
      19      0.000      2.170      0.000      0.000 
      20      0.000      7.250      0.000      0.000 
      21      0.000      7.250      0.000      0.000 
      22      0.000      0.000      0.000      0.000 
      23      0.000      7.250      0.000      0.000 
      24      0.000      7.250      0.000      0.000 
      25      0.000      2.170      0.000      0.000 
      26      0.000      2.170      0.000      0.000 
      27      0.000      2.170      0.000      0.000 
      28      0.000      2.170      0.000      0.000 
      29      0.000      7.250      0.000      0.000 
      30      0.000      2.170      0.000      0.000 
      31      0.000      2.170      0.000      0.000 
      32      0.000      2.170      0.000      0.000 
      33      0.000      2.170      0.000      0.000 
      34      0.000      2.170      0.000      0.000 
      35      0.000      7.250      0.000      0.000 
      36      0.000      2.170      0.000      0.000 
      37      0.000      7.250      0.000      0.000 
      38      0.000      2.170      0.000      0.000 
      39      0.000      7.250      0.000      0.000 
      40      0.000      7.250      0.000      0.000 
      41      0.000      7.250      0.000      0.000 
      42      0.000      0.000      0.000      0.000 
      43      0.000      7.250      0.000      0.000 
      44      0.000      7.250      0.000      0.000 
      45      0.000      7.250      0.000      0.000 
      46      0.000      2.170      0.000      0.000 
      47      0.000      7.250      0.000      0.000 
      48      0.000      2.170      0.000      0.000 
      49      0.000      7.250      0.000      0.000 
      50      0.000      7.250      0.000      0.000 
      51      0.000      2.170      0.000      0.000 
      52      0.000      7.250      0.000      0.000 
      53      0.000      7.250      0.000      0.000 
      54      0.000      7.250      0.000      0.000 
      55      0.000      2.170      0.000      0.000 
      56      0.000      7.250      0.000      0.000 
      57      0.000      7.250      0.000      0.000 
      58      0.000      2.170      0.000      0.000 
      59      0.000      7.250      0.000      0.000 
      60      0.000      2.100      0.000      0.000 
      61      0.000      2.170      0.000      0.000 
      62      0.000      7.250      0.000      0.000 
      63      0.000      7.250      0.000      0.000 
      64      0.000      2.170      0.000      0.000 
      65      0.000      2.170      0.000      0.000 
      66      0.000      7.250      0.000      0.000 
      67      0.000      2.170      0.000      0.000 
      68      0.000      2.170      0.000      0.000 

Improper Coeffs 

       1      2.500      -1       2 
       2      2.500      -1       2 
       3      2.500      -1       2 
       4      2.500      -1       2 
       5      2.500      -1       2 
       6      2.500      -1       2 
       7      2.500      -1       2 
       8      2.500      -1       2 
       9      2.500      -1       2 
      10      2.500      -1       2 
      11      2.500      -1       2 
      12      2.500      -1       2 
      13      2.500      -1       2 
      14      2.500      -1       2 

Atoms 

     1      1      1 -0.20930000    1.000  1.00000  0.00000
     2      1      2 -0.15140000   -0.409  1.00000  0.00000
     3      1      3 -0.14930000   -0.974  1.00000  1.28951
     4      1      4 0.17930000   -0.993  1.00118 -0.93136
     5      1      5 -0.09060000   -0.015  1.00000  2.31340
     6      1      6 0.18140000   -2.054  0.99885  1.48955
     7      1      7 0.04570000    1.606  1.00000  1.66268
     8      1      8 0.20060000    1.697  1.00107 -0.84558
     9      1      9 -0.05200000   -0.225  0.99858  3.73590
    10      1     10 -0.09970000    0.737  0.99997  4.75480
    11      1     11 -0.13130000    0.140  0.99615  6.03632
    12      1     12 0.18870000    1.816  1.00246  4.55464
    13      1     13 -0.13180000   -1.279  0.99179  6.01735
    14      1     14 0.08830000   -1.880  0.99649  4.38112
    15      1     15 0.08770000    0.741  0.99391  7.67380
    16      1     16 -0.09990000   -1.876  0.98640  7.29880
    17      1     17 -0.05210000   -0.914  0.98710  8.31979
    18      1     18 0.18860000   -2.956  0.98100  7.49593
    19      1     19 -0.08870000   -1.124  0.98469  9.74268
    20      1     20 -0.14880000   -0.164  0.98702 10.76633
    21      1     21 0.04340000   -2.748  0.97989 10.39624
    22      1     22 -0.20890000   -2.138  0.97691 12.05690
    23      1     23 -0.15120000   -0.728  0.98510 12.05616
    24      1     24 0.18150000    0.916  0.98887 10.56187
    25      1     25 0.17930000   -0.142  0.98834 12.98622
    26      1     26 0.20030000   -2.834  0.97072 12.90302

Bonds 

     1      1      2      1
     2      2      3      2
     3      3      4      2
     4      4      5      3
     5      5      6      3
     6      6      7      1
     7      7      8      1
     8      8      9      5
     9      9     10      9
    10     10     11     10
    11     11     12     10
    12     12     13     11
    13     13     14      9
    14     14     15     11
    15     15     16     13
    16     16     17     15
    17     17     18     16
    18     18     19     17
    19     19     20     19
    20     20     21     19
    21     21     22     21
    22     22     23     20
    23     23     24     20
    24     24     25     23
    25     25     26     22
    26     26      7      5
    27     27     14     13
    28     28     17     16
    29     29     23     22

Angles 

     1      1      1      2      3
     2      2      1      2      4
     3      3      2      3      5
     4      4      2      3      6
     5      5      2      1      7
     6      6      2      1      8
     7      7      3      5      9
     8      8      5      9     10
     9      9      9     10     11
    10     10      9     10     12
    11     11     10     11     13
    12     12      5      9     14
    13     13     10     11     15
    14     14     11     13     16
    15     15     11     15     17
    16     16     13     16     18
    17     17     15     17     19
    18     18     17     19     20
    19     19     17     19     21
    20     20     19     21     22
    21     21     19     20     23
    22     22     19     20     24
    23     23     20     23     25
    24     24     21     22     26
    25     25     23     20     24
    26     26     20     19     21
    27     27     10      9     14
    28     28     22     23     25
    29     29     15     17     16
    30     30     11     10     12
    31     31      1      7      5
    32     32      3      5      7
    33     33     11     13     14
    34     34      7      5      9
    35     35     17     16     18
    36     36     16     17     19
    37     37     21     22     23
    38     38     13     11     15
    39     39      3      2      4
    40     40      9     14     13
    41     41     13     16     17
    42     42     14     13     16
    43     43     23     22     26
    44     44      7      1      8
    45     45      5      3      6
    46     46     20     23     22

Dihedrals

     1      1      5      3      2      1 
     2      2      7      1      2      3 
     3      3     10      9      5      3 
     4      4     11     10      9      5 
     5      5     13     11     10      9 
     6      6     17     15     11     10 
     7      7     20     19     17     15 
     8      8     22     21     19     17 
     9      9     23     20     19     17 
    10     10     16     13     14      9 
    11     11     17     16     13     11 
    12     12     26     22     21     19 
    13     13     19     17     16     13 
    14     14     20     19     17     16 
    15     15     25     23     22     21 
    16     16     24     20     19     17 
    17     17     22     23     20     19 
    18     18     19     17     16     18 
    19     19     19     17     15     11 
    20     20     25     23     20     24 
    21     21      8      1      2      4 
    22     22     23     22     21     19 
    23     23      6      3      2      4 
    24     24     14      9      5      7 
    25     25     11     13     14      9 
    26     26     16     13     11     10 
    27     27     22     21     19     20 
    28     28      3      5      7      1 
    29     29     25     23     20     19 
    30     30     21     19     17     16 
    31     31     14      9      5      3 
    32     32     16     13     11     15 
    33     33     17     16     13     14 
    34     34     10      9      5      7 
    35     35      8      1      7      5 
    36     36     16     17     15     11 
    37     37     15     11     10     12 
    38     38     17     15     11     13 
    39     39     12     10      9      5 
    40     40     18     16     13     14 
    41     41     18     16     13     11 
    42     42      5      7      1      2 
    43     43     15     11     13     14 
    44     44     14      9     10     12 
    45     45      6      3      2      1 
    46     46      7      5      3      2 
    47     47      8      1      2      3 
    48     48     13     14      9     10 
    49     49     18     16     17     15 
    50     50      7      1      2      4 
    51     51     15     11     10      9 
    52     52      9      5      3      6 
    53     53     13     11     10     12 
    54     54      5      3      2      4 
    55     55     14      9     10     11 
    56     56      7      5      3      6 
    57     57     21     19     17     15 
    58     58      9      5      3      2 
    59     59     26     22     23     25 
    60     60     21     22     23     20 
    61     61     14     13     11     10 
    62     62     24     20     19     21 
    63     63     24     20     23     22 
    64     64     23     20     19     21 
    65     65     15     17     16     13 
    66     66     26     22     23     20 
    67     67      9      5      7      1 
    68     68     13     14      9      5 

Impropers

     1      1      2      1      3      4 
     2      2      3      2      5      6 
     3      3      1      2      7      8 
     4      4      5      9      3      7 
     5      5     10      9     11     12 
     6      6      9     10      5     14 
     7      7     11     10     13     15 
     8      8     13     11     14     16 
     9      9     16     17     18     13 
    10     10     17     19     15     16 
    11     11     19     17     20     21 
    12     12     20     19     23     24 
    13     13     23     25     20     22 
    14     14     22     26     21     23 

